 Gaussian 16, Revision C.01,

 ----------------------------------------------------------------------
 #t hf aug-cc-pvdz symm=none int=(grid=ultrafine) guess=(read,tcheck) s
 table=(opt,rrhf)
 ----------------------------------------------------------------------
 -----
 title
 -----
 Symbolic Z-matrix:
 Charge =  0 Multiplicity = 1

 SCF Done:  E(RHF) =  -911.513101735     A.U. after   14 cycles
 Normal termination of Gaussian 16 at Tue Apr  8 21:44:34 2025.
 Gaussian 16:  ES64L-G16RevC.01  3-Jul-2019

 ----------------------------------------------------------------------
 #t hf aug-cc-pvdz iop(5/13=1,5/36=2,99/5=2) pseudo=read geom=check gue
 ss=(read,tcheck) scf=(maxcycle=1)
 ----------------------------------------------------------------------
 -----
 title
 -----
 Structure from the checkpoint file:  "ANI1ccx_191_conf22_mol1.chk"
 Charge =  0 Multiplicity = 1

                         Standard orientation:
 ---------------------------------------------------------------------
 Center     Atomic      Atomic             Coordinates (Angstroms)
 Number     Number       Type             X           Y           Z
 ---------------------------------------------------------------------
      1          6           0        1.817550    0.238900    0.205450
      2          6           0       -3.660570   -1.684549   -0.096334
      3          6           0       -3.230950   -0.268870    1.948940
      4          6           0       -2.654410   -0.697089    0.629930
      5          6           0       -2.641220    1.581731   -0.491395
      6          6           0       -3.020090   -2.406739   -1.309480
      7          6           0        4.403050   -0.293671   -0.377441
      8          6           0        4.024460   -0.309014    1.158040
      9          6           0        2.553430   -0.619004    1.216080
     10          6           0        0.355363   -0.328612    0.143185
     11          6           0       -1.917390    0.288090   -0.348532
     12          1           0       -2.461820    0.346390    2.469490
     13          1           0       -4.261660    2.357421   -0.976890
     14          1           0       -3.635150   -3.256049   -1.666370
     15          1           0       -2.829530   -1.688299   -2.074020
     16          1           0       -2.005820   -2.774020   -0.976596
     17          1           0       -3.915420   -2.465789    0.659153
     18          1           0       -4.536490   -1.173519   -0.523837
     19          1           0       -3.353940   -1.177059    2.624790
     20          1           0       -4.111000    0.406325    2.143880
     21          1           0       -1.680380   -1.318010    0.786418
     22          1           0        4.745480    0.779779   -1.857950
     23          1           0       -0.394058    1.556860    0.288856
     24          1           0        4.781130   -0.904399    1.730830
     25          1           0        4.178500    0.722449    1.370270
     26          1           0        2.252740   -0.383358    2.166690
     27          1           0        2.435590   -1.668080    0.966209
     28          1           0        2.164000   -0.114420   -0.765174
     29          1           0        1.976090    2.071970   -0.592263
     30          1           0        1.666700    2.178130    1.110620
     31          1           0       -1.833050   -0.234595   -1.234440
     32          7           0        2.046830    1.700590    0.311614
     33          7           0       -0.605116    0.599263    0.140746
     34          8           0       -2.154860    2.644340   -0.318941
     35          8           0        0.201347   -1.554020   -0.054575
     36          8           0        4.305230   -1.276230   -1.085330
     37          8           0        4.697550    0.937213   -0.863062
     38          8           0       -3.980420    1.452731   -0.788942
 ---------------------------------------------------------------------

 SCF Done:  E(RHF) =  -915.659486843     A.U. after    2 cycles

 The electronic state is 1-A.
 Alpha  occ. eigenvalues --  -21.13203 -21.12042 -21.07952 -21.04607 -21.02265
 Alpha  occ. eigenvalues --  -15.77528 -15.75303 -11.56802 -11.53823 -11.52171
 Alpha  occ. eigenvalues --  -11.50638 -11.46778 -11.43578 -11.43431 -11.40733
 Alpha  occ. eigenvalues --  -11.38539 -11.38296 -11.35254  -1.85113  -1.81742
 Alpha  occ. eigenvalues --   -1.70000  -1.68284  -1.64576  -1.44413  -1.36087
 Alpha  occ. eigenvalues --   -1.23909  -1.20253  -1.10392  -1.06285  -1.02694
 Alpha  occ. eigenvalues --   -0.91437  -0.90782  -0.85708  -0.82551  -0.78505
 Alpha  occ. eigenvalues --   -0.76435  -0.72374  -0.70645  -0.67909  -0.66369
 Alpha  occ. eigenvalues --   -0.65343  -0.62558  -0.61714  -0.61071  -0.59901
 Alpha  occ. eigenvalues --   -0.58446  -0.57666  -0.56790  -0.56256  -0.54435
 Alpha  occ. eigenvalues --   -0.53888  -0.52131  -0.51372  -0.49829  -0.49520
 Alpha  occ. eigenvalues --   -0.49347  -0.47824  -0.46840  -0.45872  -0.43832
 Alpha  occ. eigenvalues --   -0.43241  -0.42228  -0.39985  -0.38086  -0.36184
 Alpha  occ. eigenvalues --   -0.33127  -0.32285  -0.30665  -0.28707  -0.26938
 Alpha virt. eigenvalues --    0.03514   0.04122   0.04292   0.04540   0.04979
 Alpha virt. eigenvalues --    0.05460   0.05541   0.06009   0.06376   0.06525
 Alpha virt. eigenvalues --    0.06995   0.07373   0.07514   0.08440   0.08803

 Mulliken charges:
               1
     1  C   -2.331397
     2  C   -3.792762
     3  C   -5.605703
     4  C    0.912517
     5  C    7.661479
     6  C   -4.156848
     7  C    6.409485
     8  C   -3.897866
     9  C   -3.530810
    10  C    8.948656
    11  C   -2.815710
    12  H    1.348860
    13  H    0.904089
    14  H    1.102455
    15  H    1.493263
    16  H    1.389854
    17  H    1.343887
    18  H    1.486446
    19  H    1.079814
    20  H    1.304132
    21  H    2.009508
    22  H    0.646276
    23  H    0.953626
    24  H    1.228128
    25  H    1.715174
    26  H    1.439234
    27  H    1.663029
    28  H    1.817742
    29  H    0.576441
    30  H    0.597516
    31  H    2.372784
    32  N   -3.087697
    33  N   -3.907391
    34  O   -3.511673
    35  O   -3.885429
    36  O   -3.324221
    37  O   -3.040010
    38  O   -3.516879
 Sum of Mulliken charges =   0.00000

 Dipole moment (field-independent basis, Debye):
    X=             -1.6239    Y=              2.6937    Z=              0.3009  Tot=              3.1597

 Test job not archived.
 1\1\GINC-SE060\SP\RHF\Aug-CC-pVDZ\C11H20N2O5\OHZDE\08-Apr-2025\0\\#t h
 f aug-cc-pvdz iop(5/13=1,5/36=2,99/5=2) pseudo=read geom=check guess=(
 read,tcheck) scf=(maxcycle=1)\\title\\0,1\C,0,1.81755,0.2389,0.20545\C
 ,0,-3.66057,-1.68455,-0.0963341\C,0,-3.23095,-0.268871,1.94894\C,0,-2.
 65441,-0.69709,0.62993\C,0,-2.64122,1.58173,-0.491395\C,0,-3.02009,-2.
 40674,-1.30948\C,0,4.40305,-0.293671,-0.377441\C,0,4.02446,-0.309014,1
 .15804\C,0,2.55343,-0.619004,1.21608\C,0,0.355363,-0.328612,0.143185\C
 ,0,-1.91739,0.28809,-0.348532\H,0,-2.46182,0.346389,2.46949\H,0,-4.261

 Normal termination of Gaussian 16 at Tue Apr  8 21:45:40 2025.
