 Gaussian 16, Revision C.01,

 ----------------------------------------------------------------------
 #t hf aug-cc-pvdz symm=none int=(grid=ultrafine) guess=(read,tcheck) s
 table=(opt,rrhf)
 ----------------------------------------------------------------------
 -----
 title
 -----
 Symbolic Z-matrix:
 Charge =  0 Multiplicity = 1

 SCF Done:  E(RHF) =  -927.486086255     A.U. after   15 cycles
 Normal termination of Gaussian 16 at Tue Apr  8 22:24:10 2025.
 Gaussian 16:  ES64L-G16RevC.01  3-Jul-2019

 ----------------------------------------------------------------------
 #t hf aug-cc-pvdz iop(5/13=1,5/36=2,99/5=2) pseudo=read geom=check gue
 ss=(read,tcheck) scf=(maxcycle=1)
 ----------------------------------------------------------------------
 -----
 title
 -----
 Structure from the checkpoint file:  "ANI1ccx_79_conf11_mol1.chk"
 Charge =  0 Multiplicity = 1

                         Standard orientation:
 ---------------------------------------------------------------------
 Center     Atomic      Atomic             Coordinates (Angstroms)
 Number     Number       Type             X           Y           Z
 ---------------------------------------------------------------------
      1          6           0        2.239539   -0.093734   -0.826940
      2          6           0       -2.460221    1.217651   -0.517626
      3          6           0       -2.798951   -0.321183   -0.673471
      4          6           0       -1.672241   -1.321739   -0.981390
      5          6           0       -0.751738   -1.439129    1.320580
      6          6           0       -3.782100    2.065112   -0.694938
      7          6           0        3.013170    1.788150    0.730210
      8          6           0        2.293219    0.419617    0.590257
      9          6           0        1.848659   -1.627980   -0.944310
     10          6           0       -0.438914   -1.152719   -0.037920
     11          1           0       -3.494041   -0.319226   -1.499650
     12          1           0       -1.438281   -0.968889    2.925130
     13          1           0       -5.646820    1.778142    0.194611
     14          1           0       -4.330121    1.342492    1.039610
     15          1           0       -3.697580    3.128502   -0.182246
     16          1           0       -4.059680    2.154422   -1.760740
     17          1           0       -1.923830    1.446341    0.431461
     18          1           0       -1.796970    1.444891   -1.404300
     19          1           0       -3.378161   -0.523936    0.178747
     20          1           0       -1.437131   -1.394679   -2.016800
     21          1           0        0.495510    0.623040   -1.611730
     22          1           0       -0.054866   -0.130892    0.037113
     23          1           0        0.574165   -2.978169   -0.250803
     24          1           0        1.945280    2.259540   -0.839686
     25          1           0        1.231139    0.464784    1.019420
     26          1           0        2.787289   -0.218082    1.378680
     27          1           0        3.282299   -0.068067   -1.262710
     28          1           0        1.777109    0.834307   -2.647980
     29          1           0       -2.135932   -2.304979   -0.712515
     30          7           0        1.468879    0.834604   -1.657590
     31          7           0        0.644356   -2.013909   -0.460815
     32          7           0       -4.767111    1.234872    0.131673
     33          8           0        2.394480    2.736730   -0.066703
     34          8           0       -0.793534   -2.510949    1.915910
     35          8           0        2.651848   -2.427200   -1.327400
     36          8           0        3.889160    2.080930    1.479490
     37          8           0       -1.275051   -0.399859    2.136800
 ---------------------------------------------------------------------

 SCF Done:  E(RHF) =  -931.688927904     A.U. after    2 cycles

 The electronic state is 1-A.
 Alpha  occ. eigenvalues --  -21.13115 -21.08599 -21.07376 -21.05477 -21.05156
 Alpha  occ. eigenvalues --  -15.79187 -15.78951 -15.74197 -11.60057 -11.55065
 Alpha  occ. eigenvalues --  -11.53647 -11.52815 -11.50544 -11.48096 -11.46456
 Alpha  occ. eigenvalues --  -11.43448 -11.43109 -11.38420  -1.85067  -1.79314
 Alpha  occ. eigenvalues --   -1.74155  -1.65297  -1.64134  -1.46525  -1.39872
 Alpha  occ. eigenvalues --   -1.35491  -1.22781  -1.16189  -1.13235  -1.03936
 Alpha  occ. eigenvalues --   -0.98128  -0.92939  -0.85969  -0.84860  -0.81669
 Alpha  occ. eigenvalues --   -0.78821  -0.73271  -0.71863  -0.70184  -0.68663
 Alpha  occ. eigenvalues --   -0.67725  -0.65779  -0.65227  -0.63382  -0.62638
 Alpha  occ. eigenvalues --   -0.61206  -0.59569  -0.58327  -0.57539  -0.55742
 Alpha  occ. eigenvalues --   -0.54479  -0.54070  -0.53396  -0.52053  -0.51028
 Alpha  occ. eigenvalues --   -0.49763  -0.48868  -0.48510  -0.47455  -0.46139
 Alpha  occ. eigenvalues --   -0.44991  -0.44532  -0.37777  -0.37283  -0.35696
 Alpha  occ. eigenvalues --   -0.33439  -0.32437  -0.31939  -0.30642  -0.27876
 Alpha virt. eigenvalues --    0.02894   0.03534   0.03857   0.04127   0.04637
 Alpha virt. eigenvalues --    0.04940   0.05316   0.05706   0.06559   0.06638
 Alpha virt. eigenvalues --    0.07098   0.07282   0.08110   0.08315   0.08587

 Mulliken charges:
               1
     1  C   -0.706823
     2  C   -3.133525
     3  C   -2.744733
     4  C   -3.807269
     5  C    8.625947
     6  C   -3.343248
     7  C    5.937502
     8  C   -4.489906
     9  C    5.428879
    10  C   -1.115994
    11  H    1.402877
    12  H    0.741924
    13  H    0.688004
    14  H    0.738975
    15  H    1.152618
    16  H    1.374342
    17  H    1.921584
    18  H    1.815411
    19  H    1.728023
    20  H    1.200891
    21  H    0.788375
    22  H    2.842503
    23  H    0.843452
    24  H    1.690735
    25  H    1.810983
    26  H    1.458292
    27  H    1.757435
    28  H    0.598947
    29  H    1.008121
    30  N   -2.976320
    31  N   -3.434779
    32  N   -2.087611
    33  O   -3.299604
    34  O   -3.788349
    35  O   -3.971101
    36  O   -3.392859
    37  O   -3.263695
 Sum of Mulliken charges =  -0.00000

 Dipole moment (field-independent basis, Debye):
    X=             -5.3428    Y=              0.4492    Z=             -1.6612  Tot=              5.6131

 Test job not archived.
 1\1\GINC-SE072\SP\RHF\Aug-CC-pVDZ\C10H19N3O5\OHZDE\08-Apr-2025\0\\#t h
 f aug-cc-pvdz iop(5/13=1,5/36=2,99/5=2) pseudo=read geom=check guess=(
 read,tcheck) scf=(maxcycle=1)\\title\\0,1\C,0,2.23954,-0.0937338,-0.82
 694\C,0,-2.46022,1.21765,-0.517626\C,0,-2.79895,-0.321185,-0.673471\C,
 0,-1.67224,-1.32174,-0.98139\C,0,-0.751737,-1.43913,1.32058\C,0,-3.782
 1,2.06511,-0.694938\C,0,3.01317,1.78815,0.73021\C,0,2.29322,0.419617,0
 .590257\C,0,1.84866,-1.62798,-0.94431\C,0,-0.438913,-1.15272,-0.037920
 1\H,0,-3.49404,-0.319228,-1.49965\H,0,-1.43828,-0.96889,2.92513\H,0,-5

 Normal termination of Gaussian 16 at Tue Apr  8 22:25:15 2025.
