 Gaussian 16, Revision C.01,

 ----------------------------------------------------------------------
 #t hf aug-cc-pvdz symm=none int=(grid=ultrafine) guess=(read,tcheck) s
 table=(opt,rrhf)
 ----------------------------------------------------------------------
 -----
 title
 -----
 Symbolic Z-matrix:
 Charge =  0 Multiplicity = 1

 SCF Done:  E(RHF) =  -505.016846453     A.U. after   15 cycles
 Normal termination of Gaussian 16 at Tue Apr  8 21:42:12 2025.
 Gaussian 16:  ES64L-G16RevC.01  3-Jul-2019

 ----------------------------------------------------------------------
 #t hf aug-cc-pvdz iop(5/13=1,5/36=2,99/5=2) pseudo=read geom=check gue
 ss=(read,tcheck) scf=(maxcycle=1)
 ----------------------------------------------------------------------
 -----
 title
 -----
 Structure from the checkpoint file:  "ANI1ccx_471_conf15_mol1.chk"
 Charge =  0 Multiplicity = 1

                         Standard orientation:
 ---------------------------------------------------------------------
 Center     Atomic      Atomic             Coordinates (Angstroms)
 Number     Number       Type             X           Y           Z
 ---------------------------------------------------------------------
      1          6           0        1.401280   -0.067823   -0.036880
      2          6           0       -0.673880    0.778489   -0.071726
      3          1           0       -2.078060   -1.090040    1.020350
      4          7           0       -0.756277   -0.604062   -0.454747
      5          8           0       -1.910680   -1.264950   -0.003282
      6          8           0        0.527877   -1.132530    0.161607
      7          8           0        2.559740   -0.151151    0.188906
      8          8           0        0.717621    1.082280   -0.268999
      9          8           0       -1.518610    1.598160    0.273584
 ---------------------------------------------------------------------

 SCF Done:  E(RHF) =  -507.062810459     A.U. after    2 cycles

 The electronic state is 1-A.
 Alpha  occ. eigenvalues --  -21.19053 -21.18540 -21.17926 -21.14368 -21.10888
 Alpha  occ. eigenvalues --  -15.91047 -11.61881 -11.59576  -2.01870  -1.85345
 Alpha  occ. eigenvalues --   -1.80535  -1.72389  -1.72128  -1.25763  -0.89781
 Alpha  occ. eigenvalues --   -0.88211  -0.75251  -0.71791  -0.67741  -0.61936
 Alpha  occ. eigenvalues --   -0.58934  -0.58180  -0.52420  -0.51457  -0.46803
 Alpha  occ. eigenvalues --   -0.43202  -0.39434  -0.38431  -0.35174  -0.33965
 Alpha virt. eigenvalues --    0.03554   0.07250   0.09503   0.09662   0.10330
 Alpha virt. eigenvalues --    0.10896   0.11185   0.11605   0.11754   0.13503
 Alpha virt. eigenvalues --    0.14800   0.16307   0.17121   0.18461   0.20622

 Mulliken charges:
               1
     1  C    5.735569
     2  C    5.087912
     3  H    0.660136
     4  N    1.332830
     5  O   -2.207996
     6  O   -2.238745
     7  O   -2.887827
     8  O   -2.739248
     9  O   -2.742631
 Sum of Mulliken charges =  -0.00000

 Dipole moment (field-independent basis, Debye):
    X=             -1.5837    Y=             -0.6768    Z=              0.7801  Tot=              1.8907

 Test job not archived.
 1\1\GINC-SE365\SP\RHF\Aug-CC-pVDZ\C2H1N1O5\OHZDE\08-Apr-2025\0\\#t hf
 aug-cc-pvdz iop(5/13=1,5/36=2,99/5=2) pseudo=read geom=check guess=(re
 ad,tcheck) scf=(maxcycle=1)\\title\\0,1\C,0,1.40128,-0.0678236,-0.0368
 799\C,0,-0.67388,0.778489,-0.0717263\H,0,-2.07806,-1.09004,1.02035\N,0
 ,-0.756277,-0.604062,-0.454747\O,0,-1.91068,-1.26495,-0.00328235\O,0,0
 .527877,-1.13253,0.161607\O,0,2.55974,-0.151151,0.188906\O,0,0.717621,
 1.08228,-0.268999\O,0,-1.51861,1.59816,0.273584\\Version=ES64L-G16RevC
 .01\State=1-A\HF=-507.0628105\RMSD=5.619e-02\Dipole=-0.6230799,-0.2662

 Normal termination of Gaussian 16 at Tue Apr  8 21:42:15 2025.
