 Gaussian 16, Revision C.01,

 ----------------------------------------------------------------------
 #t hf aug-cc-pvdz symm=none int=(grid=ultrafine) guess=(read,tcheck) s
 table=(opt,rrhf)
 ----------------------------------------------------------------------
 -----
 title
 -----
 Symbolic Z-matrix:
 Charge =  0 Multiplicity = 1

 SCF Done:  E(RHF) =  -509.542260283     A.U. after   14 cycles
 Normal termination of Gaussian 16 at Tue Apr  8 22:14:05 2025.
 Gaussian 16:  ES64L-G16RevC.01  3-Jul-2019

 ----------------------------------------------------------------------
 #t hf aug-cc-pvdz iop(5/13=1,5/36=2,99/5=2) pseudo=read geom=check gue
 ss=(read,tcheck) scf=(maxcycle=1)
 ----------------------------------------------------------------------
 -----
 title
 -----
 Structure from the checkpoint file:  "ANI1ccx_939_conf37_mol1.chk"
 Charge =  0 Multiplicity = 1

                         Standard orientation:
 ---------------------------------------------------------------------
 Center     Atomic      Atomic             Coordinates (Angstroms)
 Number     Number       Type             X           Y           Z
 ---------------------------------------------------------------------
      1          6           0       -0.673629    0.657922   -0.703059
      2          6           0       -1.536189   -0.330597    0.067459
      3          6           0        0.742518    0.142550   -1.057890
      4          6           0        1.727901   -0.224046    0.078778
      5          1           0        0.281957    2.361910   -0.178888
      6          1           0       -1.211758    2.124991    0.702850
      7          1           0       -1.128949    0.743148   -1.719520
      8          1           0        0.733034   -0.734206   -1.764310
      9          1           0        1.200721    0.949773   -1.573290
     10          1           0        1.723011   -0.294176    1.962590
     11          1           0       -2.203240   -2.029759   -0.316754
     12          7           0       -0.592194    1.870741   -0.073953
     13          8           0       -2.135689   -0.107443    1.065430
     14          8           0        2.909431   -0.477467   -0.015255
     15          8           0        1.106981   -0.134031    1.204330
     16          8           0       -1.482350   -1.492539   -0.617847
 ---------------------------------------------------------------------

 SCF Done:  E(RHF) =  -511.723986414     A.U. after    2 cycles

 The electronic state is 1-A.
 Alpha  occ. eigenvalues --  -21.13473 -21.13120 -21.06952 -21.04907 -15.73042
 Alpha  occ. eigenvalues --  -11.53943 -11.53068 -11.46869 -11.41590  -1.85753
 Alpha  occ. eigenvalues --   -1.84233  -1.68171  -1.65304  -1.38247  -1.13217
 Alpha  occ. eigenvalues --   -0.99986  -0.84216  -0.78113  -0.71215  -0.67936
 Alpha  occ. eigenvalues --   -0.65768  -0.61059  -0.60019  -0.59585  -0.58184
 Alpha  occ. eigenvalues --   -0.53709  -0.52748  -0.51328  -0.46334  -0.44793
 Alpha  occ. eigenvalues --   -0.35703  -0.34875  -0.32775  -0.30668  -0.29584
 Alpha virt. eigenvalues --    0.03594   0.04351   0.05518   0.05800   0.06188
 Alpha virt. eigenvalues --    0.06545   0.07967   0.09809   0.10330   0.11271
 Alpha virt. eigenvalues --    0.12463   0.13562   0.13704   0.14362   0.14717

 Mulliken charges:
               1
     1  C   -0.350238
     2  C    6.493340
     3  C   -3.088230
     4  C    5.579142
     5  H    0.550416
     6  H    0.712797
     7  H    1.545086
     8  H    1.226419
     9  H    1.279210
    10  H    0.920408
    11  H    0.922589
    12  N   -3.276604
    13  O   -3.216866
    14  O   -3.125674
    15  O   -2.920941
    16  O   -3.250853
 Sum of Mulliken charges =  -0.00000

 Dipole moment (field-independent basis, Debye):
    X=             -0.8447    Y=              0.1142    Z=              0.2014  Tot=              0.8758

 Test job not archived.
 1\1\GINC-SE329\SP\RHF\Aug-CC-pVDZ\C4H7N1O4\OHZDE\08-Apr-2025\0\\#t hf
 aug-cc-pvdz iop(5/13=1,5/36=2,99/5=2) pseudo=read geom=check guess=(re
 ad,tcheck) scf=(maxcycle=1)\\title\\0,1\C,0,-0.67363,0.657921,-0.70305
 9\C,0,-1.53619,-0.330598,0.067459\C,0,0.742517,0.14255,-1.05789\C,0,1.
 7279,-0.224046,0.0787782\H,0,0.281955,2.36191,-0.178888\H,0,-1.21176,2
 .12499,0.70285\H,0,-1.12895,0.743147,-1.71952\H,0,0.733033,-0.734206,-
 1.76431\H,0,1.20072,0.949773,-1.57329\H,0,1.72301,-0.294176,1.96259\H,
 0,-2.20324,-2.02976,-0.316754\N,0,-0.592196,1.87074,-0.0739525\O,0,-2.

 Normal termination of Gaussian 16 at Tue Apr  8 22:14:11 2025.
