 Gaussian 16, Revision C.01,

 ----------------------------------------------------------------------
 #t hf aug-cc-pvdz symm=none int=(grid=ultrafine) guess=(read,tcheck) s
 table=(opt,rrhf)
 ----------------------------------------------------------------------
 -----
 title
 -----
 Symbolic Z-matrix:
 Charge =  0 Multiplicity = 1

 SCF Done:  E(RHF) =  -736.665040222     A.U. after   14 cycles
 Normal termination of Gaussian 16 at Tue Apr  8 19:58:07 2025.
 Gaussian 16:  ES64L-G16RevC.01  3-Jul-2019

 ----------------------------------------------------------------------
 #t hf aug-cc-pvdz iop(5/13=1,5/36=2,99/5=2) pseudo=read geom=check gue
 ss=(read,tcheck) scf=(maxcycle=1)
 ----------------------------------------------------------------------
 -----
 title
 -----
 Structure from the checkpoint file:  "ANI1ccx_1451_conf1_mol1.chk"
 Charge =  0 Multiplicity = 1

                         Standard orientation:
 ---------------------------------------------------------------------
 Center     Atomic      Atomic             Coordinates (Angstroms)
 Number     Number       Type             X           Y           Z
 ---------------------------------------------------------------------
      1          6           0        1.533690    2.456850    0.305126
      2          6           0        0.138037    2.345090   -0.228114
      3          6           0       -0.616250    0.069767    0.111041
      4          6           0       -2.909440    0.813643    0.136777
      5          6           0       -3.670680   -0.449564    0.080159
      6          6           0        0.711387   -1.850630   -0.504039
      7          6           0        2.082130   -1.563140    0.154843
      8          1           0        3.786800   -1.908720    0.487296
      9          1           0        0.466441   -2.937930   -0.443598
     10          1           0        0.906269   -1.526630   -1.591510
     11          1           0       -2.215830   -1.765730   -0.140133
     12          1           0       -4.609840   -0.245407   -0.548512
     13          1           0       -4.001590   -0.644307    1.079640
     14          1           0       -3.461470    1.646220    0.656382
     15          1           0       -2.719090    1.195840   -0.849453
     16          1           0       -1.844940    0.017987    1.667120
     17          1           0        0.866026    0.596089   -1.057180
     18          1           0       -0.084061    3.032310   -1.109580
     19          1           0       -0.641728    2.632460    0.432881
     20          1           0        1.683860    3.518360    0.498321
     21          1           0        1.601500    1.846310    1.179110
     22          1           0        2.917310    1.235440   -0.061083
     23          7           0        0.002841    0.980776   -0.751502
     24          7           0       -1.625850    0.630161    0.884835
     25          7           0       -0.438943   -1.237760    0.116818
     26          8           0        2.549990    1.987300   -0.560753
     27          8           0       -3.105760   -1.580290   -0.494908
     28          8           0        3.056130   -2.448900    0.100927
     29          8           0        2.270980   -0.487686    0.669046
 ---------------------------------------------------------------------

 SCF Done:  E(RHF) =  -739.977439148     A.U. after    2 cycles

 The electronic state is 1-A.
 Alpha  occ. eigenvalues --  -21.15095 -21.06432 -21.05918 -21.03764 -15.75244
 Alpha  occ. eigenvalues --  -15.74375 -15.70640 -11.55702 -11.50601 -11.47050
 Alpha  occ. eigenvalues --  -11.46269 -11.44008 -11.38974 -11.38687  -1.87279
 Alpha  occ. eigenvalues --   -1.71406  -1.69915  -1.67552  -1.51531  -1.34882
 Alpha  occ. eigenvalues --   -1.32451  -1.11767  -1.07430  -1.02735  -0.88800
 Alpha  occ. eigenvalues --   -0.87851  -0.84001  -0.79707  -0.69970  -0.69010
 Alpha  occ. eigenvalues --   -0.67870  -0.67377  -0.65061  -0.63926  -0.63164
 Alpha  occ. eigenvalues --   -0.60161  -0.59247  -0.58091  -0.56675  -0.54403
 Alpha  occ. eigenvalues --   -0.52596  -0.51991  -0.51123  -0.50522  -0.47946
 Alpha  occ. eigenvalues --   -0.44053  -0.41973  -0.40513  -0.36897  -0.36242
 Alpha  occ. eigenvalues --   -0.35175  -0.33934  -0.32116  -0.30012  -0.28538
 Alpha virt. eigenvalues --    0.03787   0.04744   0.05065   0.05244   0.05578
 Alpha virt. eigenvalues --    0.05864   0.06107   0.06258   0.06623   0.07476
 Alpha virt. eigenvalues --    0.07547   0.08155   0.08538   0.09570   0.09919

 Mulliken charges:
               1
     1  C   -1.514780
     2  C   -3.059152
     3  C    8.802801
     4  C   -3.988733
     5  C   -0.505279
     6  C   -3.174701
     7  C    6.091431
     8  H    0.794527
     9  H    1.482119
    10  H    1.313904
    11  H    1.285834
    12  H    1.147481
    13  H    1.410099
    14  H    1.373152
    15  H    1.774525
    16  H    0.792319
    17  H    1.014300
    18  H    1.459136
    19  H    1.924188
    20  H    1.057823
    21  H    1.859646
    22  H    1.019727
    23  N   -3.026614
    24  N   -3.550982
    25  N   -3.360540
    26  O   -2.752375
    27  O   -3.342957
    28  O   -3.321228
    29  O   -3.005670
 Sum of Mulliken charges =  -0.00000

 Dipole moment (field-independent basis, Debye):
    X=              1.2176    Y=              0.8643    Z=              0.6400  Tot=              1.6245

 Test job not archived.
 1\1\GINC-SE366\SP\RHF\Aug-CC-pVDZ\C7H15N3O4\OHZDE\08-Apr-2025\0\\#t hf
  aug-cc-pvdz iop(5/13=1,5/36=2,99/5=2) pseudo=read geom=check guess=(r
 ead,tcheck) scf=(maxcycle=1)\\title\\0,1\C,0,1.53369,2.45685,0.305126\
 C,0,0.138037,2.34509,-0.228114\C,0,-0.61625,0.0697673,0.111041\C,0,-2.
 90944,0.813643,0.136777\C,0,-3.67068,-0.449564,0.0801591\C,0,0.711387,
 -1.85063,-0.504039\C,0,2.08213,-1.56314,0.154843\H,0,3.7868,-1.90872,0
 .487296\H,0,0.466441,-2.93793,-0.443598\H,0,0.906269,-1.52663,-1.59151
 \H,0,-2.21583,-1.76573,-0.140133\H,0,-4.60984,-0.245407,-0.548512\H,0,

 Normal termination of Gaussian 16 at Tue Apr  8 19:58:32 2025.
