 Gaussian 16, Revision C.01,

 ----------------------------------------------------------------------
 #t hf aug-cc-pvdz symm=none int=(grid=ultrafine) guess=(read,tcheck) s
 table=(opt,rrhf)
 ----------------------------------------------------------------------
 -----
 title
 -----
 Symbolic Z-matrix:
 Charge =  0 Multiplicity = 1

 SCF Done:  E(RHF) =  -389.487791867     A.U. after   15 cycles
 Normal termination of Gaussian 16 at Tue Apr  8 21:42:36 2025.
 Gaussian 16:  ES64L-G16RevC.01  3-Jul-2019

 ----------------------------------------------------------------------
 #t hf aug-cc-pvdz iop(5/13=1,5/36=2,99/5=2) pseudo=read geom=check gue
 ss=(read,tcheck) scf=(maxcycle=1)
 ----------------------------------------------------------------------
 -----
 title
 -----
 Structure from the checkpoint file:  "ANI1ccx_473_conf12_mol2.chk"
 Charge =  0 Multiplicity = 1

                         Standard orientation:
 ---------------------------------------------------------------------
 Center     Atomic      Atomic             Coordinates (Angstroms)
 Number     Number       Type             X           Y           Z
 ---------------------------------------------------------------------
      1          6           0        1.256130    0.924236   -0.007695
      2          6           0        1.146080   -1.453641   -0.011908
      3          1           0        1.882550   -2.243711   -0.089963
      4          7           0        1.773040   -0.189389    0.029139
      5          7           0       -3.018400   -0.104955   -0.049125
      6          7           0       -2.153110    0.594216    0.060873
      7          8           0        0.971183    2.045569   -0.021828
      8          8           0       -0.034498   -1.630441    0.011999
 ---------------------------------------------------------------------

 SCF Done:  E(RHF) =  -391.083688985     A.U. after    2 cycles

 The electronic state is 1-A.
 Alpha  occ. eigenvalues --  -21.16755 -21.08900 -15.86704 -15.86481 -15.79479
 Alpha  occ. eigenvalues --  -11.61682 -11.53335  -1.81147  -1.75411  -1.54535
 Alpha  occ. eigenvalues --   -1.41224  -0.97329  -0.78653  -0.74746  -0.67000
 Alpha  occ. eigenvalues --   -0.64235  -0.61735  -0.57565  -0.56489  -0.56092
 Alpha  occ. eigenvalues --   -0.54955  -0.50684  -0.42372  -0.35420  -0.32971
 Alpha virt. eigenvalues --    0.03538   0.07603   0.09457   0.10250   0.10383
 Alpha virt. eigenvalues --    0.10809   0.11132   0.11876   0.13083   0.13365
 Alpha virt. eigenvalues --    0.14478   0.15478   0.15977   0.16848   0.17012

 Mulliken charges:
               1
     1  C    3.709780
     2  C    1.935688
     3  H    1.694726
     4  N   -2.461712
     5  N    0.341270
     6  N   -0.306455
     7  O   -2.402688
     8  O   -2.510609
 Sum of Mulliken charges =  -0.00000

 Dipole moment (field-independent basis, Debye):
    X=              0.1713    Y=              0.7936    Z=             -0.0970  Tot=              0.8177

 Test job not archived.
 1\1\GINC-SE092\SP\RHF\Aug-CC-pVDZ\C2H1N3O2\OHZDE\08-Apr-2025\0\\#t hf
 aug-cc-pvdz iop(5/13=1,5/36=2,99/5=2) pseudo=read geom=check guess=(re
 ad,tcheck) scf=(maxcycle=1)\\title\\0,1\C,0,1.25613,0.924237,-0.007694
 65\C,0,1.14608,-1.45364,-0.0119083\H,0,1.88255,-2.24371,-0.0899626\N,0
 ,1.77304,-0.189388,0.029139\N,0,-3.0184,-0.104954,-0.0491251\N,0,-2.15
 311,0.594217,0.0608732\O,0,0.971183,2.04557,-0.0218276\O,0,-0.0344974,
 -1.63044,0.0119989\\Version=ES64L-G16RevC.01\State=1-A\HF=-391.083689\
 RMSD=8.064e-02\Dipole=0.0673768,0.3122409,-0.0381483\Quadrupole=-2.014

 Normal termination of Gaussian 16 at Tue Apr  8 21:42:40 2025.
