 Gaussian 16, Revision C.01,

 ----------------------------------------------------------------------
 #t hf aug-cc-pvdz symm=none int=(grid=ultrafine) guess=(read,tcheck) s
 table=(opt,rrhf)
 ----------------------------------------------------------------------
 -----
 title
 -----
 Symbolic Z-matrix:
 Charge =  0 Multiplicity = 1

 SCF Done:  E(RHF) =  -441.676961643     A.U. after   15 cycles
 Normal termination of Gaussian 16 at Tue Apr  8 21:39:00 2025.
 Gaussian 16:  ES64L-G16RevC.01  3-Jul-2019

 ----------------------------------------------------------------------
 #t hf aug-cc-pvdz iop(5/13=1,5/36=2,99/5=2) pseudo=read geom=check gue
 ss=(read,tcheck) scf=(maxcycle=1)
 ----------------------------------------------------------------------
 -----
 title
 -----
 Structure from the checkpoint file:  "ANI1ccx_405_conf4_mol1.chk"
 Charge =  0 Multiplicity = 1

                         Standard orientation:
 ---------------------------------------------------------------------
 Center     Atomic      Atomic             Coordinates (Angstroms)
 Number     Number       Type             X           Y           Z
 ---------------------------------------------------------------------
      1          6           0        0.024846    0.671991   -0.042177
      2          1           0        2.606500    0.747969   -0.615215
      3          1           0        2.396430    0.631869    0.945483
      4          1           0       -2.368180    1.258131   -0.238449
      5          1           0       -2.626810    0.419842    0.986522
      6          7           0        2.315770    0.080150    0.084695
      7          7           0        1.020530   -0.288652    0.000429
      8          7           0        0.528494   -1.544639   -0.052818
      9          7           0       -0.730259   -1.497169   -0.031365
     10          7           0       -1.051920   -0.150131   -0.046638
     11          7           0       -2.309260    0.272729    0.012820
     12          8           0        0.178687    1.850531   -0.074393
 ---------------------------------------------------------------------

 SCF Done:  E(RHF) =  -443.613637805     A.U. after    2 cycles

 The electronic state is 1-A.
 Alpha  occ. eigenvalues --  -21.05702 -15.84354 -15.83693 -15.82889 -15.82596
 Alpha  occ. eigenvalues --  -15.80117 -15.80083 -11.54506  -1.83057  -1.71812
 Alpha  occ. eigenvalues --   -1.57272  -1.45502  -1.22150  -1.19847  -0.91601
 Alpha  occ. eigenvalues --   -0.88598  -0.77214  -0.74751  -0.70808  -0.69217
 Alpha  occ. eigenvalues --   -0.62641  -0.57638  -0.51737  -0.51181  -0.49062
 Alpha  occ. eigenvalues --   -0.47628  -0.43016  -0.39206  -0.32398  -0.29171
 Alpha virt. eigenvalues --    0.03569   0.04860   0.06135   0.06301   0.10027
 Alpha virt. eigenvalues --    0.11433   0.12515   0.13022   0.13515   0.14329
 Alpha virt. eigenvalues --    0.14879   0.15227   0.15636   0.16868   0.17494

 Mulliken charges:
               1
     1  C    5.078997
     2  H    0.659929
     3  H    0.591484
     4  H    0.626018
     5  H    0.618257
     6  N   -1.976534
     7  N    0.192578
     8  N   -0.305150
     9  N   -0.774076
    10  N    0.548762
    11  N   -2.320103
    12  O   -2.940163
 Sum of Mulliken charges =  -0.00000

 Dipole moment (field-independent basis, Debye):
    X=              0.1096    Y=              2.0657    Z=              0.8944  Tot=              2.2537

 Test job not archived.
 1\1\GINC-SE220\SP\RHF\Aug-CC-pVDZ\C1H4N6O1\OHZDE\08-Apr-2025\0\\#t hf
 aug-cc-pvdz iop(5/13=1,5/36=2,99/5=2) pseudo=read geom=check guess=(re
 ad,tcheck) scf=(maxcycle=1)\\title\\0,1\C,0,0.0248465,0.67199,-0.04217
 71\H,0,2.6065,0.747968,-0.615215\H,0,2.39643,0.631868,0.945483\H,0,-2.
 36818,1.25813,-0.238449\H,0,-2.62681,0.419841,0.986522\N,0,2.31577,0.0
 801492,0.084695\N,0,1.02053,-0.288653,0.00042934\N,0,0.528494,-1.54464
 ,-0.052818\N,0,-0.730259,-1.49717,-0.0313651\N,0,-1.05192,-0.150132,-0
 .046638\N,0,-2.30926,0.272728,0.0128202\O,0,0.178687,1.85053,-0.074392

 Normal termination of Gaussian 16 at Tue Apr  8 21:39:06 2025.
