 Gaussian 16, Revision C.01,

 ----------------------------------------------------------------------
 #t hf aug-cc-pvdz symm=none int=(grid=ultrafine) guess=(read,tcheck) s
 table=(opt,rrhf)
 ----------------------------------------------------------------------
 -----
 title
 -----
 Symbolic Z-matrix:
 Charge =  0 Multiplicity = 1

 SCF Done:  E(RHF) =  -481.290038302     A.U. after   15 cycles
 Normal termination of Gaussian 16 at Tue Apr  8 21:36:52 2025.
 Gaussian 16:  ES64L-G16RevC.01  3-Jul-2019

 ----------------------------------------------------------------------
 #t hf aug-cc-pvdz iop(5/13=1,5/36=2,99/5=2) pseudo=read geom=check gue
 ss=(read,tcheck) scf=(maxcycle=1)
 ----------------------------------------------------------------------
 -----
 title
 -----
 Structure from the checkpoint file:  "ANI1ccx_380_conf1_mol1.chk"
 Charge =  0 Multiplicity = 1

                         Standard orientation:
 ---------------------------------------------------------------------
 Center     Atomic      Atomic             Coordinates (Angstroms)
 Number     Number       Type             X           Y           Z
 ---------------------------------------------------------------------
      1          6           0       -0.006566    0.718478    0.024169
      2          1           0        2.747520    0.188590   -0.755798
      3          1           0       -2.771670    0.148184    0.772740
      4          7           0        1.064540   -0.170329   -0.016824
      5          7           0        0.648250   -1.428520    0.004523
      6          7           0       -0.616938   -1.443260   -0.010715
      7          7           0       -1.040050   -0.189686    0.016268
      8          8           0        2.333280    0.166398    0.114794
      9          8           0       -2.356720    0.147327   -0.119456
     10          8           0       -0.017444    1.933140   -0.009678
 ---------------------------------------------------------------------

 SCF Done:  E(RHF) =  -483.306430693     A.U. after    2 cycles

 The electronic state is 1-A.
 Alpha  occ. eigenvalues --  -21.17184 -21.17047 -21.05001 -15.86634 -15.86406
 Alpha  occ. eigenvalues --  -15.84980 -15.84371 -11.55687  -1.95258  -1.88051
 Alpha  occ. eigenvalues --   -1.72492  -1.69251  -1.33850  -1.27395  -0.94933
 Alpha  occ. eigenvalues --   -0.89793  -0.78645  -0.76912  -0.67547  -0.65505
 Alpha  occ. eigenvalues --   -0.58400  -0.55604  -0.50683  -0.50505  -0.48963
 Alpha  occ. eigenvalues --   -0.42742  -0.41702  -0.40705  -0.31412  -0.28834
 Alpha virt. eigenvalues --    0.03316   0.04754   0.10006   0.10796   0.11770
 Alpha virt. eigenvalues --    0.12628   0.12935   0.13178   0.13961   0.14949
 Alpha virt. eigenvalues --    0.16568   0.17141   0.17938   0.19229   0.19667

 Mulliken charges:
               1
     1  C    4.902854
     2  H    0.593208
     3  H    0.605123
     4  N    2.251365
     5  N   -0.485155
     6  N   -0.534215
     7  N    1.887231
     8  O   -3.294805
     9  O   -3.031248
    10  O   -2.894359
 Sum of Mulliken charges =  -0.00000

 Dipole moment (field-independent basis, Debye):
    X=             -0.0897    Y=             -0.0411    Z=             -0.0308  Tot=              0.1033

 Test job not archived.
 1\1\GINC-SE273\SP\RHF\Aug-CC-pVDZ\C1H2N4O3\OHZDE\08-Apr-2025\0\\#t hf
 aug-cc-pvdz iop(5/13=1,5/36=2,99/5=2) pseudo=read geom=check guess=(re
 ad,tcheck) scf=(maxcycle=1)\\title\\0,1\C,0,-0.00656598,0.718478,0.024
 1692\H,0,2.74752,0.188591,-0.755798\H,0,-2.77167,0.148183,0.77274\N,0,
 1.06454,-0.170329,-0.016824\N,0,0.64825,-1.42852,0.00452253\N,0,-0.616
 938,-1.44326,-0.0107152\N,0,-1.04005,-0.189687,0.0162681\O,0,2.33328,0
 .166399,0.114794\O,0,-2.35672,0.147326,-0.119456\O,0,-0.0174452,1.9331
 4,-0.00967793\\Version=ES64L-G16RevC.01\State=1-A\HF=-483.3064307\RMSD

 Normal termination of Gaussian 16 at Tue Apr  8 21:36:56 2025.
