 Gaussian 16, Revision C.01,

 ----------------------------------------------------------------------
 #t hf aug-cc-pvdz symm=none int=(grid=ultrafine) guess=(read,tcheck) s
 table=(opt,rrhf)
 ----------------------------------------------------------------------
 -----
 title
 -----
 Symbolic Z-matrix:
 Charge =  0 Multiplicity = 1

 SCF Done:  E(RHF) =  -374.744072722     A.U. after   14 cycles
 Normal termination of Gaussian 16 at Tue Apr  8 21:39:49 2025.
 Gaussian 16:  ES64L-G16RevC.01  3-Jul-2019

 ----------------------------------------------------------------------
 #t hf aug-cc-pvdz iop(5/13=1,5/36=2,99/5=2) pseudo=read geom=check gue
 ss=(read,tcheck) scf=(maxcycle=1)
 ----------------------------------------------------------------------
 -----
 title
 -----
 Structure from the checkpoint file:  "ANI1ccx_427_conf1_mol1.chk"
 Charge =  0 Multiplicity = 1

                         Standard orientation:
 ---------------------------------------------------------------------
 Center     Atomic      Atomic             Coordinates (Angstroms)
 Number     Number       Type             X           Y           Z
 ---------------------------------------------------------------------
      1          6           0        1.144251    0.693281   -0.202472
      2          1           0       -3.308199    0.090952    0.181078
      3          1           0       -2.832509   -1.153840   -0.647658
      4          1           0       -0.458185   -0.327300    0.850294
      5          1           0       -0.134972    2.136300   -0.078273
      6          1           0        1.875761    1.337000   -0.685462
      7          1           0        3.248931   -1.184150    0.463775
      8          7           0       -0.102947    1.152420   -0.282760
      9          7           0        1.533891   -0.396315    0.385291
     10          8           0       -3.606899   -0.799148   -0.211910
     11          8           0       -1.009289    0.454344    0.533151
     12          8           0        2.707071   -0.949119   -0.269571
 ---------------------------------------------------------------------

 SCF Done:  E(RHF) =  -376.345574122     A.U. after    2 cycles

 The electronic state is 1-A.
 Alpha  occ. eigenvalues --  -21.12030 -21.11154 -21.07153 -15.83488 -15.77224
 Alpha  occ. eigenvalues --  -11.47273  -1.82908  -1.76200  -1.62605  -1.35723
 Alpha  occ. eigenvalues --   -1.18946  -0.84776  -0.76953  -0.67340  -0.63945
 Alpha  occ. eigenvalues --   -0.60563  -0.58145  -0.54441  -0.49749  -0.45373
 Alpha  occ. eigenvalues --   -0.43346  -0.39725  -0.33809  -0.33085  -0.28528
 Alpha virt. eigenvalues --    0.03071   0.04768   0.05584   0.06639   0.07744
 Alpha virt. eigenvalues --    0.08016   0.09709   0.11924   0.12157   0.14632
 Alpha virt. eigenvalues --    0.15030   0.16559   0.17643   0.18538   0.19015

 Mulliken charges:
               1
     1  C    1.649909
     2  H    0.952422
     3  H    0.966355
     4  H    0.912936
     5  H    0.723599
     6  H    1.713592
     7  H    0.864758
     8  N   -0.639542
     9  N   -0.717072
    10  O   -1.950222
    11  O   -2.389830
    12  O   -2.086905
 Sum of Mulliken charges =  -0.00000

 Dipole moment (field-independent basis, Debye):
    X=              1.9728    Y=              2.2251    Z=              0.1916  Tot=              2.9798

 Test job not archived.
 1\1\GINC-SE364\SP\RHF\Aug-CC-pVDZ\C1H6N2O3\OHZDE\08-Apr-2025\0\\#t hf
 aug-cc-pvdz iop(5/13=1,5/36=2,99/5=2) pseudo=read geom=check guess=(re
 ad,tcheck) scf=(maxcycle=1)\\title\\0,1\C,0,1.14425,0.693281,-0.202472
 \H,0,-3.3082,0.0909518,0.181078\H,0,-2.83251,-1.15384,-0.647658\H,0,-0
 .458186,-0.3273,0.850294\H,0,-0.134973,2.1363,-0.0782734\H,0,1.87576,1
 .337,-0.685462\H,0,3.24893,-1.18415,0.463775\N,0,-0.102948,1.15242,-0.
 28276\N,0,1.53389,-0.396315,0.385291\O,0,-3.6069,-0.799148,-0.21191\O,
 0,-1.00929,0.454344,0.533151\O,0,2.70707,-0.949119,-0.269571\\Version=

 Normal termination of Gaussian 16 at Tue Apr  8 21:39:53 2025.
