 Gaussian 16, Revision C.01,

 ----------------------------------------------------------------------
 #t hf aug-cc-pvdz symm=none int=(grid=ultrafine) guess=(read,tcheck) s
 table=(opt,rrhf)
 ----------------------------------------------------------------------
 -----
 title
 -----
 Symbolic Z-matrix:
 Charge =  0 Multiplicity = 1

 SCF Done:  E(RHF) =  -810.423079739     A.U. after   14 cycles
 Normal termination of Gaussian 16 at Tue Apr  8 19:55:09 2025.
 Gaussian 16:  ES64L-G16RevC.01  3-Jul-2019

 ----------------------------------------------------------------------
 #t hf aug-cc-pvdz iop(5/13=1,5/36=2,99/5=2) pseudo=read geom=check gue
 ss=(read,tcheck) scf=(maxcycle=1)
 ----------------------------------------------------------------------
 -----
 title
 -----
 Structure from the checkpoint file:  "ANI1ccx_1427_conf11_mol1.chk"
 Charge =  0 Multiplicity = 1

                         Standard orientation:
 ---------------------------------------------------------------------
 Center     Atomic      Atomic             Coordinates (Angstroms)
 Number     Number       Type             X           Y           Z
 ---------------------------------------------------------------------
      1          6           0       -2.194891   -0.763675   -0.542993
      2          6           0       -1.141071    0.354860   -0.137361
      3          6           0       -3.450071   -0.492559    0.343472
      4          6           0        1.208829    0.574817    0.238200
      5          6           0        1.575238    2.026412   -0.011019
      6          6           0        2.397619   -0.279110   -0.110435
      7          6           0        2.050530   -1.659988    0.018351
      8          1           0       -0.250076    2.472611    0.489711
      9          1           0        3.068370   -1.832858    1.745150
     10          1           0        2.277861   -3.348878    1.094590
     11          1           0        2.712449   -0.069077   -1.179630
     12          1           0        3.222439   -0.099004    0.560233
     13          1           0        0.850961    0.409969    1.215970
     14          1           0        0.277955   -0.502771   -1.301760
     15          1           0       -3.061752    1.275689    0.209592
     16          1           0       -3.196691   -0.536145    1.393070
     17          1           0       -4.159780   -1.269721    0.022343
     18          1           0       -2.492871   -0.602833   -1.656140
     19          1           0       -1.672490   -2.298940    0.719814
     20          1           0       -0.744317   -2.221740   -0.759711
     21          7           0       -1.699740   -2.116550   -0.283421
     22          7           0        0.055540    0.292607   -0.669498
     23          7           0        2.559710   -2.343328    1.003350
     24          8           0       -1.313471    1.056310    0.864122
     25          8           0       -3.864761    0.827793    0.061689
     26          8           0        2.606318    2.397972   -0.437026
     27          8           0        1.254280   -2.239869   -0.794523
     28          8           0        0.577919    2.861551    0.093794
 ---------------------------------------------------------------------

 SCF Done:  E(RHF) =  -813.979786833     A.U. after    2 cycles

 The electronic state is 1-A.
 Alpha  occ. eigenvalues --  -21.10047 -21.05847 -21.05686 -21.05117 -21.04272
 Alpha  occ. eigenvalues --  -15.82830 -15.78729 -15.74316 -11.56111 -11.54905
 Alpha  occ. eigenvalues --  -11.53539 -11.50908 -11.47543 -11.44920 -11.41169
 Alpha  occ. eigenvalues --   -1.84952  -1.77454  -1.72808  -1.70649  -1.66041
 Alpha  occ. eigenvalues --   -1.45116  -1.40471  -1.33906  -1.21540  -1.06412
 Alpha  occ. eigenvalues --   -1.03606  -0.91647  -0.85897  -0.82462  -0.81114
 Alpha  occ. eigenvalues --   -0.76878  -0.75230  -0.72312  -0.70874  -0.66634
 Alpha  occ. eigenvalues --   -0.64499  -0.64349  -0.62101  -0.60836  -0.57516
 Alpha  occ. eigenvalues --   -0.55496  -0.55058  -0.54360  -0.53132  -0.50785
 Alpha  occ. eigenvalues --   -0.50341  -0.50073  -0.48257  -0.44925  -0.41365
 Alpha  occ. eigenvalues --   -0.39155  -0.36512  -0.34134  -0.33438  -0.32157
 Alpha  occ. eigenvalues --   -0.30606  -0.30357  -0.29549
 Alpha virt. eigenvalues --    0.01947   0.03681   0.04414   0.04709   0.05690
 Alpha virt. eigenvalues --    0.05921   0.06190   0.06878   0.07334   0.07831
 Alpha virt. eigenvalues --    0.08093   0.08184   0.09120   0.09875   0.10990

 Mulliken charges:
               1
     1  C   -1.873654
     2  C    6.908107
     3  C   -0.483437
     4  C   -2.536385
     5  C    6.764299
     6  C   -4.358542
     7  C    6.940765
     8  H    1.313834
     9  H    0.713110
    10  H    0.810007
    11  H    1.226451
    12  H    1.329216
    13  H    2.262719
    14  H    0.963230
    15  H    1.082130
    16  H    1.425355
    17  H    1.217498
    18  H    1.667411
    19  H    0.605738
    20  H    0.757009
    21  N   -2.729217
    22  N   -3.043953
    23  N   -3.950722
    24  O   -3.355667
    25  O   -2.940606
    26  O   -3.470480
    27  O   -3.599389
    28  O   -3.644828
 Sum of Mulliken charges =   0.00000

 Dipole moment (field-independent basis, Debye):
    X=              2.8938    Y=             -3.7626    Z=              2.6136  Tot=              5.4187

 Test job not archived.
 1\1\GINC-SE402\SP\RHF\Aug-CC-pVDZ\C7H13N3O5\OHZDE\08-Apr-2025\0\\#t hf
  aug-cc-pvdz iop(5/13=1,5/36=2,99/5=2) pseudo=read geom=check guess=(r
 ead,tcheck) scf=(maxcycle=1)\\title\\0,1\C,0,-2.19489,-0.763675,-0.542
 993\C,0,-1.14107,0.35486,-0.137361\C,0,-3.45007,-0.492558,0.343472\C,0
 ,1.20883,0.574816,0.2382\C,0,1.57524,2.02641,-0.0110197\C,0,2.39762,-0
 .279112,-0.110435\C,0,2.05053,-1.65999,0.0183509\H,0,-0.250074,2.47261
 ,0.489711\H,0,3.06837,-1.83286,1.74515\H,0,2.27786,-3.34888,1.09459\H,
 0,2.71245,-0.0690786,-1.17963\H,0,3.22244,-0.0990059,0.560233\H,0,0.85

 Normal termination of Gaussian 16 at Tue Apr  8 19:55:40 2025.
