 Gaussian 16, Revision C.01,

 ----------------------------------------------------------------------
 #t hf aug-cc-pvdz symm=none int=(grid=ultrafine) guess=(read,tcheck) s
 table=(opt,rrhf)
 ----------------------------------------------------------------------
 -----
 title
 -----
 Symbolic Z-matrix:
 Charge =  0 Multiplicity = 1

 SCF Done:  E(RHF) =  -506.625245503     A.U. after   17 cycles
 Normal termination of Gaussian 16 at Tue Apr  8 21:59:46 2025.
 Gaussian 16:  ES64L-G16RevC.01  3-Jul-2019

 ----------------------------------------------------------------------
 #t hf aug-cc-pvdz iop(5/13=1,5/36=2,99/5=2) pseudo=read geom=check gue
 ss=(read,tcheck) scf=(maxcycle=1)
 ----------------------------------------------------------------------
 -----
 title
 -----
 Structure from the checkpoint file:  "ANI1ccx_787_conf5_mol1.chk"
 Charge =  0 Multiplicity = 1

                         Standard orientation:
 ---------------------------------------------------------------------
 Center     Atomic      Atomic             Coordinates (Angstroms)
 Number     Number       Type             X           Y           Z
 ---------------------------------------------------------------------
      1          6           0        0.441072    1.531250   -0.758059
      2          6           0        1.183660    0.163528    1.172750
      3          6           0        1.965580   -0.885899    0.342561
      4          1           0       -1.719210   -1.437369   -0.680179
      5          1           0        2.869980   -0.792285   -1.352530
      6          1           0        2.684070   -1.382880    1.037330
      7          1           0        0.755898   -0.300316    2.060210
      8          1           0        1.268740   -1.610850   -0.059041
      9          1           0       -0.481675    2.073291   -1.041510
     10          1           0        1.206430    2.275020   -0.421502
     11          1           0        0.836587    0.947830   -1.574600
     12          1           0        1.843820    0.985514    1.568530
     13          7           0        0.110971    0.809092    0.408152
     14          7           0       -0.951247   -0.034524    0.175958
     15          7           0       -2.193130    0.373661    0.420963
     16          8           0       -0.767242   -1.222899   -0.615340
     17          8           0        2.636750   -0.171345   -0.634180
     18          8           0       -3.066090   -0.311860   -0.139948
 ---------------------------------------------------------------------

 SCF Done:  E(RHF) =  -508.878368614     A.U. after    2 cycles

 The electronic state is 1-A.
 Alpha  occ. eigenvalues --  -21.12670 -21.08446 -21.07774 -15.89881 -15.84170
 Alpha  occ. eigenvalues --  -15.76784 -11.45972 -11.39764 -11.39209  -1.90325
 Alpha  occ. eigenvalues --   -1.77121  -1.73758  -1.52742  -1.28079  -1.11172
 Alpha  occ. eigenvalues --   -0.99314  -0.91435  -0.80296  -0.73516  -0.71116
 Alpha  occ. eigenvalues --   -0.69558  -0.65424  -0.63905  -0.59990  -0.57659
 Alpha  occ. eigenvalues --   -0.55767  -0.53779  -0.50791  -0.49980  -0.46952
 Alpha  occ. eigenvalues --   -0.43881  -0.42256  -0.36602  -0.31652  -0.30096
 Alpha  occ. eigenvalues --   -0.28344
 Alpha virt. eigenvalues --    0.03834   0.05099   0.05348   0.05395   0.05952
 Alpha virt. eigenvalues --    0.06230   0.06730   0.07645   0.08343   0.12209
 Alpha virt. eigenvalues --    0.12435   0.13134   0.13404   0.13849   0.14471

 Mulliken charges:
               1
     1  C   -3.547028
     2  C   -2.544023
     3  C   -0.608441
     4  H    1.217234
     5  H    0.723323
     6  H    1.306342
     7  H    1.538594
     8  H    1.706462
     9  H    1.294547
    10  H    1.281613
    11  H    1.655070
    12  H    1.519260
    13  N   -0.684456
    14  N    1.989774
    15  N    1.458112
    16  O   -3.352585
    17  O   -2.695179
    18  O   -2.258618
 Sum of Mulliken charges =   0.00000

 Dipole moment (field-independent basis, Debye):
    X=              2.8785    Y=             -1.1890    Z=             -0.8996  Tot=              3.2417

 Test job not archived.
 1\1\GINC-SE331\SP\RHF\Aug-CC-pVDZ\C3H9N3O3\OHZDE\08-Apr-2025\0\\#t hf
 aug-cc-pvdz iop(5/13=1,5/36=2,99/5=2) pseudo=read geom=check guess=(re
 ad,tcheck) scf=(maxcycle=1)\\title\\0,1\C,0,0.441072,1.53125,-0.758059
 \C,0,1.18366,0.163528,1.17275\C,0,1.96558,-0.885899,0.342561\H,0,-1.71
 921,-1.43737,-0.680179\H,0,2.86998,-0.792285,-1.35253\H,0,2.68407,-1.3
 8288,1.03733\H,0,0.755898,-0.300316,2.06021\H,0,1.26874,-1.61085,-0.05
 90409\H,0,-0.481675,2.07329,-1.04151\H,0,1.20643,2.27502,-0.421502\H,0
 ,0.836587,0.94783,-1.5746\H,0,1.84382,0.985514,1.56853\N,0,0.110971,0.

 Normal termination of Gaussian 16 at Tue Apr  8 21:59:53 2025.
