 Gaussian 16, Revision C.01,

 ----------------------------------------------------------------------
 #t hf aug-cc-pvdz symm=none int=(grid=ultrafine) guess=(read,tcheck) s
 table=(opt,rrhf)
 ----------------------------------------------------------------------
 -----
 title
 -----
 Symbolic Z-matrix:
 Charge =  0 Multiplicity = 1

 SCF Done:  E(RHF) =  -810.419581069     A.U. after   14 cycles
 Normal termination of Gaussian 16 at Tue Apr  8 19:56:45 2025.
 Gaussian 16:  ES64L-G16RevC.01  3-Jul-2019

 ----------------------------------------------------------------------
 #t hf aug-cc-pvdz iop(5/13=1,5/36=2,99/5=2) pseudo=read geom=check gue
 ss=(read,tcheck) scf=(maxcycle=1)
 ----------------------------------------------------------------------
 -----
 title
 -----
 Structure from the checkpoint file:  "ANI1ccx_1427_conf21_mol1.chk"
 Charge =  0 Multiplicity = 1

                         Standard orientation:
 ---------------------------------------------------------------------
 Center     Atomic      Atomic             Coordinates (Angstroms)
 Number     Number       Type             X           Y           Z
 ---------------------------------------------------------------------
      1          6           0       -2.253970   -0.971523    0.550157
      2          6           0       -0.929108   -0.378373    0.053507
      3          6           0       -3.330110   -0.071719   -0.101580
      4          6           0        1.322870    0.695776    0.407344
      5          6           0        0.795087    2.208400    0.194151
      6          6           0        2.215710    0.168369   -0.699014
      7          6           0        2.735310   -1.144330   -0.150097
      8          1           0        0.208599    1.391709   -1.307870
      9          1           0        2.011051   -2.158130   -1.820460
     10          1           0        3.022621   -3.059610   -0.696724
     11          1           0        3.103840    0.805799   -0.782010
     12          1           0        1.788380    0.028975   -1.658260
     13          1           0        1.927130    0.693615    1.324520
     14          1           0        0.356249   -0.431147    1.810950
     15          1           0       -2.752090   -0.191218   -1.970110
     16          1           0       -2.966260    0.946431   -0.016793
     17          1           0       -4.331210   -0.110287    0.342994
     18          1           0       -2.348859   -1.950652    0.013543
     19          1           0       -1.694590   -1.434361    2.433320
     20          1           0       -2.903580   -0.377834    2.188190
     21          7           0       -2.563020   -1.257852    1.905960
     22          7           0        0.169183   -0.086424    0.840575
     23          7           0        2.432071   -2.244030   -0.886242
     24          8           0       -0.717653   -0.221645   -1.146980
     25          8           0       -3.567580   -0.340558   -1.485090
     26          8           0        0.803331    3.062960    0.995853
     27          8           0        3.299190   -1.264530    0.892604
     28          8           0        0.304754    2.254429   -1.057660
 ---------------------------------------------------------------------

 SCF Done:  E(RHF) =  -813.968898675     A.U. after    2 cycles

 The electronic state is 1-A.
 Alpha  occ. eigenvalues --  -21.12642 -21.07109 -21.06733 -21.06106 -21.04367
 Alpha  occ. eigenvalues --  -15.79778 -15.78885 -15.77602 -11.57409 -11.54852
 Alpha  occ. eigenvalues --  -11.53510 -11.49789 -11.48870 -11.44148 -11.42747
 Alpha  occ. eigenvalues --   -1.84496  -1.76826  -1.74226  -1.70469  -1.68976
 Alpha  occ. eigenvalues --   -1.43470  -1.39243  -1.35726  -1.18915  -1.09416
 Alpha  occ. eigenvalues --   -1.01241  -0.93273  -0.85682  -0.81808  -0.77666
 Alpha  occ. eigenvalues --   -0.76570  -0.73497  -0.72100  -0.70902  -0.68729
 Alpha  occ. eigenvalues --   -0.65424  -0.63204  -0.60548  -0.59520  -0.57013
 Alpha  occ. eigenvalues --   -0.56562  -0.54880  -0.53789  -0.53354  -0.52098
 Alpha  occ. eigenvalues --   -0.51124  -0.49817  -0.49450  -0.46961  -0.42828
 Alpha  occ. eigenvalues --   -0.40867  -0.37162  -0.35171  -0.33780  -0.33159
 Alpha  occ. eigenvalues --   -0.31122  -0.30399  -0.28109
 Alpha virt. eigenvalues --    0.03088   0.03662   0.04391   0.04688   0.05584
 Alpha virt. eigenvalues --    0.05732   0.06119   0.06670   0.07498   0.07617
 Alpha virt. eigenvalues --    0.07922   0.08464   0.09237   0.10389   0.10837

 Mulliken charges:
               1
     1  C   -1.481768
     2  C    6.555000
     3  C   -0.792141
     4  C   -0.156466
     5  C    6.263762
     6  C   -5.019147
     7  C    6.378709
     8  H    1.917660
     9  H    0.671822
    10  H    0.730016
    11  H    1.239897
    12  H    1.755376
    13  H    2.006056
    14  H    0.572785
    15  H    1.011950
    16  H    1.362770
    17  H    1.417544
    18  H    1.660919
    19  H    0.600537
    20  H    0.440568
    21  N   -3.184110
    22  N   -2.917598
    23  N   -3.349645
    24  O   -3.879067
    25  O   -2.934736
    26  O   -3.688445
    27  O   -3.661156
    28  O   -3.521090
 Sum of Mulliken charges =   0.00000

 Dipole moment (field-independent basis, Debye):
    X=              0.6402    Y=             -2.5800    Z=             -0.8467  Tot=              2.7898

 Test job not archived.
 1\1\GINC-SE038\SP\RHF\Aug-CC-pVDZ\C7H13N3O5\OHZDE\08-Apr-2025\0\\#t hf
  aug-cc-pvdz iop(5/13=1,5/36=2,99/5=2) pseudo=read geom=check guess=(r
 ead,tcheck) scf=(maxcycle=1)\\title\\0,1\C,0,-2.25397,-0.971522,0.5501
 57\C,0,-0.929108,-0.378372,0.0535068\C,0,-3.33011,-0.0717174,-0.10158\
 C,0,1.32287,0.695776,0.407344\C,0,0.795088,2.2084,0.194151\C,0,2.21571
 ,0.168369,-0.699014\C,0,2.73531,-1.14433,-0.150097\H,0,0.208599,1.3917
 1,-1.30787\H,0,2.01105,-2.15813,-1.82046\H,0,3.02262,-3.05961,-0.69672
 4\H,0,3.10384,0.805799,-0.78201\H,0,1.78838,0.0289747,-1.65826\H,0,1.9

 Normal termination of Gaussian 16 at Tue Apr  8 19:57:16 2025.
