 Gaussian 16, Revision C.01,

 ----------------------------------------------------------------------
 #t hf aug-cc-pvdz symm=none int=(grid=ultrafine) guess=(read,tcheck) s
 table=(opt,rrhf)
 ----------------------------------------------------------------------
 -----
 title
 -----
 Symbolic Z-matrix:
 Charge =  0 Multiplicity = 1

 SCF Done:  E(RHF) =  -785.608324492     A.U. after   14 cycles
 Normal termination of Gaussian 16 at Tue Apr  8 19:33:26 2025.
 Gaussian 16:  ES64L-G16RevC.01  3-Jul-2019

 ----------------------------------------------------------------------
 #t hf aug-cc-pvdz iop(5/13=1,5/36=2,99/5=2) pseudo=read geom=check gue
 ss=(read,tcheck) scf=(maxcycle=1)
 ----------------------------------------------------------------------
 -----
 title
 -----
 Structure from the checkpoint file:  "ANI1ccx_1221_conf10_mol1.chk"
 Charge =  0 Multiplicity = 1

                         Standard orientation:
 ---------------------------------------------------------------------
 Center     Atomic      Atomic             Coordinates (Angstroms)
 Number     Number       Type             X           Y           Z
 ---------------------------------------------------------------------
      1          6           0        1.562849    2.766671    0.248767
      2          6           0       -0.017490    0.956415    0.015912
      3          6           0       -1.499540   -0.705854   -0.265383
      4          6           0       -3.918680   -0.229006   -0.255403
      5          6           0        0.697171   -1.214289   -0.213274
      6          6           0        3.071331   -1.792388   -0.056313
      7          1           0        2.719880   -0.510628    1.409041
      8          1           0        3.750821   -2.652288   -0.182833
      9          1           0        3.459451   -1.032968   -0.755217
     10          1           0        1.512112   -2.995519   -0.930617
     11          1           0       -4.797420   -0.814202   -0.593382
     12          1           0       -3.288140    0.887642    1.154881
     13          1           0       -3.000509   -2.097231   -0.394309
     14          1           0       -0.428336    2.818510   -0.306353
     15          1           0        1.436418    3.827591    0.535891
     16          1           0        2.184599    2.253282    0.997928
     17          1           0        2.301879    1.666532   -1.101059
     18          1           0       -3.784850    0.646781   -0.939270
     19          7           0        0.176303    2.274031    0.342033
     20          7           0       -1.349270    0.618086    0.058090
     21          7           0       -2.777779   -1.113911   -0.477185
     22          7           0       -0.535605   -1.628370   -0.429074
     23          7           0        1.705761   -2.147369   -0.311772
     24          7           0        1.030090    0.114349   -0.083859
     25          8           0       -4.040410    0.241033    1.083071
     26          8           0        2.102949    2.612692   -1.058689
     27          8           0        3.289181   -1.291788    1.297101
 ---------------------------------------------------------------------

 SCF Done:  E(RHF) =  -789.117741122     A.U. after    2 cycles

 The electronic state is 1-A.
 Alpha  occ. eigenvalues --  -21.07678 -21.07033 -21.06487 -15.77652 -15.76701
 Alpha  occ. eigenvalues --  -15.76556 -15.73846 -15.73246 -15.73081 -11.53358
 Alpha  occ. eigenvalues --  -11.53237 -11.49397 -11.45199 -11.44852 -11.44269
 Alpha  occ. eigenvalues --   -1.72772  -1.71076  -1.70494  -1.59390  -1.45421
 Alpha  occ. eigenvalues --   -1.44861  -1.32305  -1.27719  -1.27357  -1.02177
 Alpha  occ. eigenvalues --   -0.99552  -0.95715  -0.88789  -0.85559  -0.76321
 Alpha  occ. eigenvalues --   -0.74341  -0.69777  -0.67628  -0.66194  -0.65367
 Alpha  occ. eigenvalues --   -0.64163  -0.62512  -0.60392  -0.59688  -0.58040
 Alpha  occ. eigenvalues --   -0.57517  -0.57042  -0.54374  -0.53155  -0.51010
 Alpha  occ. eigenvalues --   -0.49574  -0.44846  -0.43489  -0.42173  -0.38130
 Alpha  occ. eigenvalues --   -0.37824  -0.37418  -0.33886  -0.33771  -0.33116
 Alpha  occ. eigenvalues --   -0.31653  -0.31292
 Alpha virt. eigenvalues --    0.03617   0.04514   0.05013   0.05276   0.05810
 Alpha virt. eigenvalues --    0.05960   0.06356   0.06816   0.07637   0.08120
 Alpha virt. eigenvalues --    0.08428   0.08942   0.09983   0.10896   0.11217

 Mulliken charges:
               1
     1  C   -0.872937
     2  C    5.562836
     3  C    4.536103
     4  C   -0.514021
     5  C    4.990025
     6  C   -0.992097
     7  H    1.085745
     8  H    1.553918
     9  H    1.607769
    10  H    0.672472
    11  H    1.506767
    12  H    0.937491
    13  H    0.707370
    14  H    0.493304
    15  H    1.545047
    16  H    1.550943
    17  H    1.044390
    18  H    1.516095
    19  N   -2.976192
    20  N   -3.222962
    21  N   -3.396877
    22  N   -3.511037
    23  N   -3.235568
    24  N   -2.631440
    25  O   -2.601785
    26  O   -2.766850
    27  O   -2.588510
 Sum of Mulliken charges =  -0.00000

 Dipole moment (field-independent basis, Debye):
    X=              0.0459    Y=             -0.8814    Z=             -1.4497  Tot=              1.6972

 Test job not archived.
 1\1\GINC-SE079\SP\RHF\Aug-CC-pVDZ\C6H12N6O3\OHZDE\08-Apr-2025\0\\#t hf
  aug-cc-pvdz iop(5/13=1,5/36=2,99/5=2) pseudo=read geom=check guess=(r
 ead,tcheck) scf=(maxcycle=1)\\title\\0,1\C,0,1.56285,2.76667,0.248766\
 C,0,-0.0174895,0.956414,0.0159111\C,0,-1.49954,-0.705854,-0.265384\C,0
 ,-3.91868,-0.229005,-0.255404\C,0,0.69717,-1.21429,-0.213275\C,0,3.071
 33,-1.79239,-0.0563135\H,0,2.71988,-0.51063,1.40904\H,0,3.75082,-2.652
 29,-0.182834\H,0,3.45945,-1.03297,-0.755218\H,0,1.51211,-2.99552,-0.93
 0618\H,0,-4.79742,-0.8142,-0.593383\H,0,-3.28814,0.887643,1.15488\H,0,

 Normal termination of Gaussian 16 at Tue Apr  8 19:33:59 2025.
