 Gaussian 16, Revision C.01,

 ----------------------------------------------------------------------
 #t hf aug-cc-pvdz symm=none int=(grid=ultrafine) guess=(read,tcheck) s
 table=(opt,rrhf)
 ----------------------------------------------------------------------
 -----
 title
 -----
 Symbolic Z-matrix:
 Charge =  0 Multiplicity = 1

 SCF Done:  E(RHF) =  -380.241010415     A.U. after   11 cycles
 Normal termination of Gaussian 16 at Tue Apr  8 21:05:28 2025.
 Gaussian 16:  ES64L-G16RevC.01  3-Jul-2019

 ----------------------------------------------------------------------
 #t hf aug-cc-pvdz iop(5/13=1,5/36=2,99/5=2) pseudo=read geom=check gue
 ss=(read,tcheck) scf=(maxcycle=1)
 ----------------------------------------------------------------------
 -----
 title
 -----
 Structure from the checkpoint file:  "ANI1ccx_1843_conf1_mol1.chk"
 Charge =  0 Multiplicity = 1

                         Standard orientation:
 ---------------------------------------------------------------------
 Center     Atomic      Atomic             Coordinates (Angstroms)
 Number     Number       Type             X           Y           Z
 ---------------------------------------------------------------------
      1          1           0        0.033520   -1.931249   -0.062615
      2          1           0        1.190225   -2.647062   -0.796864
      3          1           0       -1.927511   -0.667902   -0.060092
      4          1           0       -2.198774   -1.969894    0.737084
      5          1           0       -2.534286    1.488226    0.715906
      6          1           0       -1.192376    1.564273   -0.048669
      7          1           0        1.142084    1.622938    0.013285
      8          1           0        0.576666    2.784079   -0.861347
      9          1           0        1.900339   -0.557222    0.027739
     10          1           0        2.982331    0.199606    0.821429
     11          8           0        1.011936   -2.061132   -0.056024
     12          8           0       -1.687013   -1.629785   -0.021819
     13          8           0       -2.070797    1.110795   -0.041641
     14          8           0        0.406536    2.278570   -0.036073
     15          8           0        2.342811    0.315827    0.094826
 ---------------------------------------------------------------------

 SCF Done:  E(RHF) =  -381.885563028     A.U. after    2 cycles

 The electronic state is 1-A.
 Alpha  occ. eigenvalues --  -21.08149 -21.08048 -21.08036 -21.07997 -21.07862
 Alpha  occ. eigenvalues --   -1.68334  -1.66444  -1.66163  -1.63419  -1.63276
 Alpha  occ. eigenvalues --   -0.63846  -0.63800  -0.63429  -0.63219  -0.63024
 Alpha  occ. eigenvalues --   -0.51661  -0.51171  -0.45196  -0.44431  -0.40452
 Alpha  occ. eigenvalues --   -0.35495  -0.34852  -0.34662  -0.34321  -0.33686
 Alpha virt. eigenvalues --    0.03882   0.04959   0.05335   0.06162   0.06287
 Alpha virt. eigenvalues --    0.08823   0.09005   0.09511   0.10804   0.11465
 Alpha virt. eigenvalues --    0.18859   0.19043   0.20866   0.21312   0.21739

 Mulliken charges:
               1
     1  H    1.537643
     2  H    0.785428
     3  H    1.429090
     4  H    0.824017
     5  H    0.781219
     6  H    1.516339
     7  H    1.490803
     8  H    0.776920
     9  H    1.533908
    10  H    0.794657
    11  O   -2.305995
    12  O   -2.324692
    13  O   -2.258846
    14  O   -2.278546
    15  O   -2.301945
 Sum of Mulliken charges =  -0.00000

 Dipole moment (field-independent basis, Debye):
    X=             -0.0051    Y=             -0.1447    Z=              0.4794  Tot=              0.5008

 Test job not archived.
 1\1\GINC-SE038\SP\RHF\Aug-CC-pVDZ\H10O5\OHZDE\08-Apr-2025\0\\#t hf aug
 -cc-pvdz iop(5/13=1,5/36=2,99/5=2) pseudo=read geom=check guess=(read,
 tcheck) scf=(maxcycle=1)\\title\\0,1\H,0,0.0335239,-1.93125,-0.0626148
 \H,0,1.19023,-2.64706,-0.796864\H,0,-1.92751,-0.667907,-0.0600923\H,0,
 -2.19877,-1.9699,0.737084\H,0,-2.53429,1.48822,0.715906\H,0,-1.19238,1
 .56427,-0.0486691\H,0,1.14208,1.62294,0.0132851\H,0,0.576659,2.78408,-
 0.861347\H,0,1.90034,-0.557218,0.0277389\H,0,2.98233,0.199612,0.821429
 \O,0,1.01194,-2.06113,-0.0560244\O,0,-1.68701,-1.62979,-0.0218191\O,0,

 Normal termination of Gaussian 16 at Tue Apr  8 21:05:32 2025.
