 Gaussian 16, Revision C.01,

 ----------------------------------------------------------------------
 #t hf aug-cc-pvdz symm=none int=(grid=ultrafine) guess=(read,tcheck) s
 table=(opt,rrhf)
 ----------------------------------------------------------------------
 -----
 title
 -----
 Symbolic Z-matrix:
 Charge =  0 Multiplicity = 1

 SCF Done:  E(RHF) =  -672.922503138     A.U. after   17 cycles
 Normal termination of Gaussian 16 at Tue Apr  8 19:35:37 2025.
 Gaussian 16:  ES64L-G16RevC.01  3-Jul-2019

 ----------------------------------------------------------------------
 #t hf aug-cc-pvdz iop(5/13=1,5/36=2,99/5=2) pseudo=read geom=check gue
 ss=(read,tcheck) scf=(maxcycle=1)
 ----------------------------------------------------------------------
 -----
 title
 -----
 Structure from the checkpoint file:  "ANI1ccx_1321_conf2_mol1.chk"
 Charge =  0 Multiplicity = 1

                         Standard orientation:
 ---------------------------------------------------------------------
 Center     Atomic      Atomic             Coordinates (Angstroms)
 Number     Number       Type             X           Y           Z
 ---------------------------------------------------------------------
      1          6           0        1.287812   -0.838560    0.156529
      2          6           0        0.481634   -2.089049    0.392715
      3          6           0       -0.865471   -2.180500   -0.291104
      4          6           0       -1.516828   -0.842888   -0.157068
      5          6           0       -0.843156    0.380985   -0.026570
      6          6           0        0.607736    0.466195    0.152639
      7          1           0        1.156097    3.382762    0.049397
      8          1           0       -0.778535   -2.423720   -1.331460
      9          1           0       -1.468276   -2.904741    0.219545
     10          1           0        1.147104   -2.899118    0.178586
     11          1           0        2.765180    0.839956   -0.261221
     12          1           0        0.359705   -2.177799    1.486090
     13          7           0        2.541522   -0.997661    0.020889
     14          7           0       -2.793689   -0.600179   -0.131182
     15          7           0       -1.739571    1.327869    0.097904
     16          7           0        1.214119    1.593512    0.090114
     17          8           0       -2.937020    0.718496    0.045364
     18          8           0        3.377081    0.024030   -0.300163
     19          8           0        0.478902    2.700071   -0.026182
 ---------------------------------------------------------------------

 SCF Done:  E(RHF) =  -675.887458875     A.U. after    2 cycles

 The electronic state is 1-A.
 Alpha  occ. eigenvalues --  -21.17247 -21.15184 -21.10357 -15.83025 -15.82583
 Alpha  occ. eigenvalues --  -15.81116 -15.80047 -11.54052 -11.50575 -11.48894
 Alpha  occ. eigenvalues --  -11.47026 -11.45194 -11.41329  -2.00666  -1.87717
 Alpha  occ. eigenvalues --   -1.81143  -1.42205  -1.34619  -1.30028  -1.26984
 Alpha  occ. eigenvalues --   -1.17062  -1.01505  -0.96685  -0.87012  -0.85747
 Alpha  occ. eigenvalues --   -0.75914  -0.72212  -0.69802  -0.66383  -0.65731
 Alpha  occ. eigenvalues --   -0.64934  -0.62801  -0.62544  -0.58548  -0.56279
 Alpha  occ. eigenvalues --   -0.52576  -0.51367  -0.48522  -0.47051  -0.46369
 Alpha  occ. eigenvalues --   -0.43322  -0.42609  -0.41016  -0.39630  -0.34522
 Alpha  occ. eigenvalues --   -0.33878  -0.28942
 Alpha virt. eigenvalues --    0.02900   0.04601   0.05646   0.05848   0.06031
 Alpha virt. eigenvalues --    0.07414   0.08068   0.09470   0.10192   0.10919
 Alpha virt. eigenvalues --    0.11599   0.11895   0.12352   0.12612   0.13170

 Mulliken charges:
               1
     1  C    3.505325
     2  C   -2.700607
     3  C   -3.899273
     4  C    4.205216
     5  C    2.677291
     6  C    1.992019
     7  H    0.869842
     8  H    1.177729
     9  H    1.162495
    10  H    1.265496
    11  H    1.147715
    12  H    1.217344
    13  N   -1.310007
    14  N   -1.448150
    15  N   -1.040256
    16  N   -0.777308
    17  O   -2.651902
    18  O   -2.643377
    19  O   -2.749591
 Sum of Mulliken charges =   0.00000

 Dipole moment (field-independent basis, Debye):
    X=             -0.0876    Y=              0.9532    Z=             -0.1407  Tot=              0.9675

 Test job not archived.
 1\1\GINC-SE078\SP\RHF\Aug-CC-pVDZ\C6H6N4O3\OHZDE\08-Apr-2025\0\\#t hf
 aug-cc-pvdz iop(5/13=1,5/36=2,99/5=2) pseudo=read geom=check guess=(re
 ad,tcheck) scf=(maxcycle=1)\\title\\0,1\C,0,1.28781,-0.838562,0.156529
 \C,0,0.481631,-2.08905,0.392715\C,0,-0.865474,-2.1805,-0.291104\C,0,-1
 .51683,-0.842887,-0.157068\C,0,-0.843156,0.380985,-0.0265695\C,0,0.607
 736,0.466194,0.152639\H,0,1.1561,3.38276,0.0493969\H,0,-0.778538,-2.42
 372,-1.33146\H,0,-1.46828,-2.90474,0.219545\H,0,1.1471,-2.89912,0.1785
 86\H,0,2.76518,0.839952,-0.261221\H,0,0.359702,-2.1778,1.48609\N,0,2.5

 Normal termination of Gaussian 16 at Tue Apr  8 19:35:56 2025.
