 Gaussian 16, Revision C.01,

 ----------------------------------------------------------------------
 #t hf aug-cc-pvdz symm=none int=(grid=ultrafine) guess=(read,tcheck) s
 table=(opt,rrhf)
 ----------------------------------------------------------------------
 -----
 title
 -----
 Symbolic Z-matrix:
 Charge =  0 Multiplicity = 1

 SCF Done:  E(RHF) =  -603.078071605     A.U. after   14 cycles
 Normal termination of Gaussian 16 at Tue Apr  8 22:09:43 2025.
 Gaussian 16:  ES64L-G16RevC.01  3-Jul-2019

 ----------------------------------------------------------------------
 #t hf aug-cc-pvdz iop(5/13=1,5/36=2,99/5=2) pseudo=read geom=check gue
 ss=(read,tcheck) scf=(maxcycle=1)
 ----------------------------------------------------------------------
 -----
 title
 -----
 Structure from the checkpoint file:  "ANI1ccx_894_conf8_mol1.chk"
 Charge =  0 Multiplicity = 1

                         Standard orientation:
 ---------------------------------------------------------------------
 Center     Atomic      Atomic             Coordinates (Angstroms)
 Number     Number       Type             X           Y           Z
 ---------------------------------------------------------------------
      1          6           0        1.984729   -0.101731   -0.003104
      2          6           0        0.575287    0.470377   -0.000058
      3          6           0       -0.519130   -0.327949    0.010914
      4          6           0       -1.908792    0.244860   -0.017932
      5          1           0        1.312821   -1.864388   -0.004269
      6          1           0        1.491336    2.059332   -0.039154
      7          1           0       -1.317029   -2.046992    0.042535
      8          1           0       -3.701471   -0.379088    0.033556
      9          8           0        2.171840   -1.408017   -0.010545
     10          8           0        2.871008    0.692691    0.013500
     11          8           0        0.553672    1.798561   -0.006015
     12          8           0       -0.409683   -1.676470    0.005547
     13          8           0       -2.792411   -0.740188   -0.010172
     14          8           0       -2.216703    1.398147    0.011235
 ---------------------------------------------------------------------

 SCF Done:  E(RHF) =  -605.555267540     A.U. after    2 cycles

 The electronic state is 1-A.
 Alpha  occ. eigenvalues --  -21.15950 -21.14412 -21.13431 -21.11850 -21.07333
 Alpha  occ. eigenvalues --  -21.07148 -11.56827 -11.55623 -11.52472 -11.46415
 Alpha  occ. eigenvalues --   -1.90146  -1.86118  -1.79283  -1.77832  -1.68695
 Alpha  occ. eigenvalues --   -1.67856  -1.14975  -1.00024  -0.86559  -0.78317
 Alpha  occ. eigenvalues --   -0.75609  -0.68980  -0.64715  -0.64200  -0.60650
 Alpha  occ. eigenvalues --   -0.59144  -0.58785  -0.54016  -0.51805  -0.50682
 Alpha  occ. eigenvalues --   -0.48577  -0.46401  -0.41930  -0.37278  -0.35139
 Alpha  occ. eigenvalues --   -0.33563  -0.30919  -0.26872
 Alpha virt. eigenvalues --    0.02877   0.04561   0.06231   0.07415   0.08836
 Alpha virt. eigenvalues --    0.08940   0.09697   0.10481   0.11265   0.11731
 Alpha virt. eigenvalues --    0.12465   0.13400   0.13743   0.14391   0.14877

 Mulliken charges:
               1
     1  C    3.907698
     2  C    4.457586
     3  C    2.864418
     4  C    5.926911
     5  H    1.287777
     6  H    0.992189
     7  H    1.112461
     8  H    1.075023
     9  O   -3.253219
    10  O   -3.119303
    11  O   -4.179432
    12  O   -4.332609
    13  O   -3.409671
    14  O   -3.329828
 Sum of Mulliken charges =   0.00000

 Dipole moment (field-independent basis, Debye):
    X=             -2.2990    Y=             -1.9013    Z=              0.0293  Tot=              2.9835

 Test job not archived.
 1\1\GINC-SE367\SP\RHF\Aug-CC-pVDZ\C4H4O6\OHZDE\08-Apr-2025\0\\#t hf au
 g-cc-pvdz iop(5/13=1,5/36=2,99/5=2) pseudo=read geom=check guess=(read
 ,tcheck) scf=(maxcycle=1)\\title\\0,1\C,0,1.98473,-0.101734,-0.0031038
 \C,0,0.575289,0.470376,-0.00005754\C,0,-0.519129,-0.327949,0.0109142\C
 ,0,-1.90879,0.244862,-0.017932\H,0,1.31282,-1.86439,-0.00426916\H,0,1.
 49134,2.05933,-0.0391542\H,0,-1.31703,-2.04699,0.0425346\H,0,-3.70147,
 -0.379083,0.0335558\O,0,2.17184,-1.40802,-0.0105453\O,0,2.87101,0.6926
 87,0.0134999\O,0,0.553676,1.79856,-0.00601483\O,0,-0.409684,-1.67647,0

 Normal termination of Gaussian 16 at Tue Apr  8 22:09:48 2025.
