 Gaussian 16, Revision C.01,

 ----------------------------------------------------------------------
 #t hf aug-cc-pvdz symm=none int=(grid=ultrafine) guess=(read,tcheck) s
 table=(opt,rrhf)
 ----------------------------------------------------------------------
 -----
 title
 -----
 Symbolic Z-matrix:
 Charge =  0 Multiplicity = 1

 SCF Done:  E(RHF) =  -541.252672830     A.U. after   15 cycles
 Normal termination of Gaussian 16 at Tue Apr  8 22:05:21 2025.
 Gaussian 16:  ES64L-G16RevC.01  3-Jul-2019

 ----------------------------------------------------------------------
 #t hf aug-cc-pvdz iop(5/13=1,5/36=2,99/5=2) pseudo=read geom=check gue
 ss=(read,tcheck) scf=(maxcycle=1)
 ----------------------------------------------------------------------
 -----
 title
 -----
 Structure from the checkpoint file:  "ANI1ccx_869_conf7_mol1.chk"
 Charge =  0 Multiplicity = 1

                         Standard orientation:
 ---------------------------------------------------------------------
 Center     Atomic      Atomic             Coordinates (Angstroms)
 Number     Number       Type             X           Y           Z
 ---------------------------------------------------------------------
      1          6           0       -1.270260    0.070718    0.005948
      2          6           0       -0.423846    1.306781   -0.045977
      3          6           0        1.709040   -0.086743   -0.016281
      4          6           0       -0.488227   -1.219229   -0.016863
      5          1           0       -2.898460   -0.831388    0.106119
      6          1           0        1.468361    1.810219    0.124937
      7          1           0        1.273079   -2.119470   -0.089011
      8          7           0       -2.494450    0.165082    0.108274
      9          7           0        0.915210    1.030420   -0.060017
     10          7           0        0.885602   -1.220600   -0.001483
     11          8           0       -0.835188    2.446141   -0.034309
     12          8           0        2.941750   -0.061945    0.080316
     13          8           0       -1.125031   -2.273299   -0.049810
 ---------------------------------------------------------------------

 SCF Done:  E(RHF) =  -543.538915463     A.U. after    2 cycles

 The electronic state is 1-A.
 Alpha  occ. eigenvalues --  -21.09281 -21.09192 -21.08581 -15.84712 -15.83397
 Alpha  occ. eigenvalues --  -15.81626 -11.58478 -11.58028 -11.56860 -11.48403
 Alpha  occ. eigenvalues --   -1.79060  -1.75719  -1.74945  -1.51285  -1.40849
 Alpha  occ. eigenvalues --   -1.39745  -1.08868  -0.96291  -0.94109  -0.81354
 Alpha  occ. eigenvalues --   -0.77698  -0.70464  -0.67394  -0.63213  -0.60582
 Alpha  occ. eigenvalues --   -0.58280  -0.56656  -0.55318  -0.54536  -0.45517
 Alpha  occ. eigenvalues --   -0.43767  -0.37935  -0.37775  -0.37163  -0.35272
 Alpha  occ. eigenvalues --   -0.31174
 Alpha virt. eigenvalues --    0.03166   0.03908   0.05776   0.06292   0.07524
 Alpha virt. eigenvalues --    0.08840   0.09278   0.10012   0.11254   0.12118
 Alpha virt. eigenvalues --    0.12561   0.13037   0.13182   0.13750   0.14514

 Mulliken charges:
               1
     1  C    1.929827
     2  C    5.920658
     3  C    4.463451
     4  C    4.745907
     5  H    0.727870
     6  H    0.457291
     7  H    0.733339
     8  N   -3.352298
     9  N   -2.529796
    10  N   -2.785507
    11  O   -3.717948
    12  O   -3.085426
    13  O   -3.507368
 Sum of Mulliken charges =  -0.00000

 Dipole moment (field-independent basis, Debye):
    X=              0.6644    Y=             -1.4028    Z=              0.0223  Tot=              1.5523

 Test job not archived.
 1\1\GINC-SE110\SP\RHF\Aug-CC-pVDZ\C4H3N3O3\OHZDE\08-Apr-2025\0\\#t hf
 aug-cc-pvdz iop(5/13=1,5/36=2,99/5=2) pseudo=read geom=check guess=(re
 ad,tcheck) scf=(maxcycle=1)\\title\\0,1\C,0,-1.27026,0.0707168,0.00594
 765\C,0,-0.423847,1.30678,-0.045977\C,0,1.70904,-0.0867427,-0.0162812\
 C,0,-0.488226,-1.21923,-0.0168631\H,0,-2.89846,-0.83139,0.106119\H,0,1
 .46836,1.81022,0.124937\H,0,1.27308,-2.11947,-0.0890113\N,0,-2.49445,0
 .16508,0.108274\N,0,0.915209,1.03042,-0.0600167\N,0,0.885603,-1.2206,-
 0.00148256\O,0,-0.83519,2.44614,-0.0343093\O,0,2.94175,-0.0619437,0.08

 Normal termination of Gaussian 16 at Tue Apr  8 22:05:26 2025.
