 Gaussian 16, Revision C.01,

 ----------------------------------------------------------------------
 #t hf aug-cc-pvdz symm=none int=(grid=ultrafine) guess=(read,tcheck) s
 table=(opt,rrhf)
 ----------------------------------------------------------------------
 -----
 title
 -----
 Symbolic Z-matrix:
 Charge =  0 Multiplicity = 1

 SCF Done:  E(RHF) =  -465.437070951     A.U. after   14 cycles
 Normal termination of Gaussian 16 at Tue Apr  8 21:44:56 2025.
 Gaussian 16:  ES64L-G16RevC.01  3-Jul-2019

 ----------------------------------------------------------------------
 #t hf aug-cc-pvdz iop(5/13=1,5/36=2,99/5=2) pseudo=read geom=check gue
 ss=(read,tcheck) scf=(maxcycle=1)
 ----------------------------------------------------------------------
 -----
 title
 -----
 Structure from the checkpoint file:  "ANI1ccx_503_conf1_mol2.chk"
 Charge =  0 Multiplicity = 1

                         Standard orientation:
 ---------------------------------------------------------------------
 Center     Atomic      Atomic             Coordinates (Angstroms)
 Number     Number       Type             X           Y           Z
 ---------------------------------------------------------------------
      1          6           0        1.417109   -0.013292   -0.044714
      2          6           0       -0.742964    0.752366    0.097198
      3          1           0       -2.272139   -1.591302    0.333169
      4          1           0        0.928606   -1.846189    0.632386
      5          1           0        0.962300    2.047801   -0.165242
      6          7           0       -0.744516   -0.617504    0.383440
      7          7           0        0.542948   -1.102249    0.055724
      8          7           0        0.597279    1.118471   -0.066443
      9          8           0       -1.708289   -1.283332   -0.388998
     10          8           0        2.634300   -0.053579   -0.090759
     11          8           0       -1.730212    1.482438    0.014224
 ---------------------------------------------------------------------

 SCF Done:  E(RHF) =  -467.380499767     A.U. after    2 cycles

 The electronic state is 1-A.
 Alpha  occ. eigenvalues --  -21.14446 -21.07153 -21.06791 -15.84788 -15.82675
 Alpha  occ. eigenvalues --  -15.81895 -11.55798 -11.53946  -1.87513  -1.75181
 Alpha  occ. eigenvalues --   -1.72383  -1.55847  -1.37285  -1.18313  -0.92265
 Alpha  occ. eigenvalues --   -0.87235  -0.76491  -0.73667  -0.66137  -0.62222
 Alpha  occ. eigenvalues --   -0.61681  -0.55927  -0.53026  -0.52311  -0.46801
 Alpha  occ. eigenvalues --   -0.39944  -0.35547  -0.34702  -0.32291  -0.31257
 Alpha virt. eigenvalues --    0.03231   0.05326   0.05386   0.09260   0.10146
 Alpha virt. eigenvalues --    0.10675   0.11951   0.12420   0.12679   0.13301
 Alpha virt. eigenvalues --    0.14360   0.14723   0.16002   0.17177   0.17531

 Mulliken charges:
               1
     1  C    4.808271
     2  C    4.979862
     3  H    0.685665
     4  H    0.724755
     5  H    0.712517
     6  N    0.232623
     7  N   -1.720424
     8  N   -2.193739
     9  O   -2.284012
    10  O   -2.939114
    11  O   -3.006406
 Sum of Mulliken charges =  -0.00000

 Dipole moment (field-independent basis, Debye):
    X=             -0.5595    Y=             -0.9774    Z=              0.8243  Tot=              1.3956

 Test job not archived.
 1\1\GINC-SE334\SP\RHF\Aug-CC-pVDZ\C2H3N3O3\OHZDE\08-Apr-2025\0\\#t hf
 aug-cc-pvdz iop(5/13=1,5/36=2,99/5=2) pseudo=read geom=check guess=(re
 ad,tcheck) scf=(maxcycle=1)\\title\\0,1\C,0,1.41711,-0.0132942,-0.0447
 142\C,0,-0.742963,0.752367,0.0971984\H,0,-2.27214,-1.5913,0.333169\H,0
 ,0.928604,-1.84619,0.632386\H,0,0.962303,2.0478,-0.165242\N,0,-0.74451
 6,-0.617503,0.38344\N,0,0.542947,-1.10225,0.0557236\N,0,0.597281,1.118
 47,-0.0664433\O,0,-1.70829,-1.28333,-0.388998\O,0,2.6343,-0.053582,-0.
 0907586\O,0,-1.73021,1.48244,0.0142237\\Version=ES64L-G16RevC.01\State

 Normal termination of Gaussian 16 at Tue Apr  8 21:45:00 2025.
