 Gaussian 16, Revision C.01,

 ----------------------------------------------------------------------
 #t hf aug-cc-pvdz symm=none int=(grid=ultrafine) guess=(read,tcheck) s
 table=(opt,rrhf)
 ----------------------------------------------------------------------
 -----
 title
 -----
 Symbolic Z-matrix:
 Charge =  0 Multiplicity = 1

 SCF Done:  E(RHF) =  -459.996616026     A.U. after   12 cycles

 1\1\GINC-SE163\Stability\RHF\Aug-CC-pVDZ\C6H14O3\OHZDE\08-Apr-2025\0\\
 #t hf aug-cc-pvdz symm=none int=(grid=ultrafine) guess=(read,tcheck) s
 table=(opt,rrhf)\\title\\0,1\C,0,2.56741,0.946695,1.06526\C,0,2.35303,
 -0.422316,0.448067\C,0,1.13563,-0.301331,-0.512878\C,0,-1.12224,0.3843
 91,-0.503154\C,0,-2.31261,0.30722,0.418499\C,0,-2.59853,-1.09459,0.943
 422\H,0,-2.79045,-1.7927,0.129177\H,0,-3.47165,-1.14126,1.6229\H,0,-1.
 76397,-1.57774,1.52624\H,0,-2.26732,1.06934,1.23099\H,0,-3.18115,0.770
 647,-0.0652043\H,0,-1.03308,2.3215,-0.247173\H,0,-1.2904,-0.276895,-1.

 Normal termination of Gaussian 16 at Tue Apr  8 19:29:53 2025.
 Gaussian 16:  ES64L-G16RevC.01  3-Jul-2019

 ----------------------------------------------------------------------
 #t hf aug-cc-pvdz iop(5/13=1,5/36=2,99/5=2) pseudo=read geom=check gue
 ss=(read,tcheck) scf=(maxcycle=1)
 ----------------------------------------------------------------------
 -----
 title
 -----
 Structure from the checkpoint file:  "ANI1ccx_1253_conf1_mol1.chk"
 Charge =  0 Multiplicity = 1

                         Standard orientation:
 ---------------------------------------------------------------------
 Center     Atomic      Atomic             Coordinates (Angstroms)
 Number     Number       Type             X           Y           Z
 ---------------------------------------------------------------------
      1          6           0        2.567411    0.946694    1.065260
      2          6           0        2.353031   -0.422317    0.448067
      3          6           0        1.135631   -0.301332   -0.512878
      4          6           0       -1.122239    0.384390   -0.503154
      5          6           0       -2.312609    0.307219    0.418499
      6          6           0       -2.598529   -1.094591    0.943422
      7          1           0       -2.790449   -1.792701    0.129177
      8          1           0       -3.471649   -1.141261    1.622900
      9          1           0       -1.763969   -1.577741    1.526240
     10          1           0       -2.267319    1.069339    1.230990
     11          1           0       -3.181149    0.770646   -0.065204
     12          1           0       -1.033079    2.321499   -0.247173
     13          1           0       -1.290399   -0.276896   -1.351720
     14          1           0        1.330391    0.569025   -1.155450
     15          1           0        2.173031   -1.278801    1.133060
     16          1           0        3.235501   -0.694405   -0.127704
     17          1           0        1.736971    1.183039    1.742610
     18          1           0        3.567701    1.019869    1.559430
     19          1           0        2.637681    1.629589    0.261419
     20          1           0        1.068851   -2.234271   -0.701311
     21          8           0       -0.014943   -0.062574    0.223050
     22          8           0        0.978557   -1.471521   -1.272630
     23          8           0       -0.974651    1.723179   -1.039490
 ---------------------------------------------------------------------

 SCF Done:  E(RHF) =  -462.118191093     A.U. after    2 cycles

 The electronic state is 1-A.
 Alpha  occ. eigenvalues --  -21.06979 -21.06943 -21.04791 -11.49655 -11.46772
 Alpha  occ. eigenvalues --  -11.40877 -11.40002 -11.36415 -11.35806  -1.83990
 Alpha  occ. eigenvalues --   -1.70613  -1.64409  -1.19638  -1.15966  -0.98425
 Alpha  occ. eigenvalues --   -0.93031  -0.86209  -0.83829  -0.69407  -0.65010
 Alpha  occ. eigenvalues --   -0.64158  -0.61078  -0.58490  -0.57189  -0.54762
 Alpha  occ. eigenvalues --   -0.53722  -0.52379  -0.50412  -0.49696  -0.48091
 Alpha  occ. eigenvalues --   -0.46411  -0.44946  -0.42674  -0.35548  -0.32565
 Alpha  occ. eigenvalues --   -0.32534  -0.28907
 Alpha virt. eigenvalues --    0.04138   0.04701   0.04751   0.04856   0.05127
 Alpha virt. eigenvalues --    0.05827   0.06311   0.06353   0.07196   0.08011
 Alpha virt. eigenvalues --    0.08324   0.08764   0.08879   0.09455   0.13989

 Mulliken charges:
               1
     1  C   -3.552052
     2  C   -4.133530
     3  C    3.844627
     4  C    3.478950
     5  C   -4.243733
     6  C   -3.599836
     7  H    1.298269
     8  H    1.127034
     9  H    1.430942
    10  H    1.494146
    11  H    1.458431
    12  H    0.650110
    13  H    2.039848
    14  H    2.064375
    15  H    1.451507
    16  H    1.323643
    17  H    1.501405
    18  H    1.083145
    19  H    1.301605
    20  H    0.713219
    21  O   -4.442101
    22  O   -3.234619
    23  O   -3.055386
 Sum of Mulliken charges =  -0.00000

 Dipole moment (field-independent basis, Debye):
    X=              0.0889    Y=             -0.1419    Z=              0.7877  Tot=              0.8053

 Test job not archived.
 1\1\GINC-SE163\SP\RHF\Aug-CC-pVDZ\C6H14O3\OHZDE\08-Apr-2025\0\\#t hf a
 ug-cc-pvdz iop(5/13=1,5/36=2,99/5=2) pseudo=read geom=check guess=(rea
 d,tcheck) scf=(maxcycle=1)\\title\\0,1\C,0,2.56741,0.946695,1.06526\C,
 0,2.35303,-0.422316,0.448067\C,0,1.13563,-0.301331,-0.512878\C,0,-1.12
 224,0.384391,-0.503154\C,0,-2.31261,0.30722,0.418499\C,0,-2.59853,-1.0
 9459,0.943422\H,0,-2.79045,-1.7927,0.129177\H,0,-3.47165,-1.14126,1.62
 29\H,0,-1.76397,-1.57774,1.52624\H,0,-2.26732,1.06934,1.23099\H,0,-3.1
 8115,0.770647,-0.0652043\H,0,-1.03308,2.3215,-0.247173\H,0,-1.2904,-0.

 Normal termination of Gaussian 16 at Tue Apr  8 19:30:06 2025.
