 Gaussian 16, Revision C.01,

 ----------------------------------------------------------------------
 #t hf aug-cc-pvdz symm=none int=(grid=ultrafine) guess=(read,tcheck) s
 table=(opt,rrhf)
 ----------------------------------------------------------------------
 -----
 title
 -----
 Symbolic Z-matrix:
 Charge =  0 Multiplicity = 1

 SCF Done:  E(RHF) =  -380.218938480     A.U. after   11 cycles
 Normal termination of Gaussian 16 at Tue Apr  8 21:07:28 2025.
 Gaussian 16:  ES64L-G16RevC.01  3-Jul-2019

 ----------------------------------------------------------------------
 #t hf aug-cc-pvdz iop(5/13=1,5/36=2,99/5=2) pseudo=read geom=check gue
 ss=(read,tcheck) scf=(maxcycle=1)
 ----------------------------------------------------------------------
 -----
 title
 -----
 Structure from the checkpoint file:  "ANI1ccx_1843_conf92_mol1.chk"
 Charge =  0 Multiplicity = 1

                         Standard orientation:
 ---------------------------------------------------------------------
 Center     Atomic      Atomic             Coordinates (Angstroms)
 Number     Number       Type             X           Y           Z
 ---------------------------------------------------------------------
      1          1           0       -1.055868   -1.215431   -0.135772
      2          1           0       -0.655950   -2.627641    0.084169
      3          1           0       -1.766279    0.758525   -0.463290
      4          1           0       -2.721029    0.255574    0.542319
      5          1           0       -0.081878    2.719100   -0.034370
      6          1           0        0.154078    1.183630    0.642031
      7          1           0        1.665092    0.039868    0.582736
      8          1           0        0.630001   -0.665047    1.575600
      9          1           0        1.279541    0.549794   -1.271880
     10          1           0        1.235712   -0.896959   -0.978517
     11          8           0       -0.292913   -1.758780    0.124383
     12          8           0       -2.360558   -0.007024   -0.308456
     13          8           0       -0.235079    1.755700   -0.128587
     14          8           0        1.169772    0.190482    1.422810
     15          8           0        1.883352   -0.193054   -1.178030
 ---------------------------------------------------------------------

 SCF Done:  E(RHF) =  -381.862260949     A.U. after    2 cycles

 The electronic state is 1-A.
 Alpha  occ. eigenvalues --  -21.10668 -21.10217 -21.08812 -21.07852 -21.07439
 Alpha  occ. eigenvalues --   -1.70109  -1.67932  -1.67587  -1.65500  -1.62936
 Alpha  occ. eigenvalues --   -0.66814  -0.66013  -0.63365  -0.62850  -0.62063
 Alpha  occ. eigenvalues --   -0.54568  -0.50350  -0.48027  -0.47559  -0.42480
 Alpha  occ. eigenvalues --   -0.37392  -0.36390  -0.35277  -0.33753  -0.32879
 Alpha virt. eigenvalues --    0.03514   0.04686   0.05149   0.06948   0.07500
 Alpha virt. eigenvalues --    0.07767   0.08226   0.08714   0.09198   0.10925
 Alpha virt. eigenvalues --    0.17314   0.19320   0.21060   0.21309   0.22216

 Mulliken charges:
               1
     1  H    1.535894
     2  H    1.025253
     3  H    1.349311
     4  H    0.785460
     5  H    0.915302
     6  H    1.591209
     7  H    1.377993
     8  H    1.065256
     9  H    1.043995
    10  H    1.206367
    11  O   -2.561184
    12  O   -2.156431
    13  O   -2.403299
    14  O   -2.525787
    15  O   -2.249338
 Sum of Mulliken charges =  -0.00000

 Dipole moment (field-independent basis, Debye):
    X=             -1.3199    Y=             -0.0581    Z=              0.6638  Tot=              1.4786

 Test job not archived.
 1\1\GINC-SE252\SP\RHF\Aug-CC-pVDZ\H10O5\OHZDE\08-Apr-2025\0\\#t hf aug
 -cc-pvdz iop(5/13=1,5/36=2,99/5=2) pseudo=read geom=check guess=(read,
 tcheck) scf=(maxcycle=1)\\title\\0,1\H,0,-1.05587,-1.21543,-0.135772\H
 ,0,-0.655953,-2.62764,0.084169\H,0,-1.76628,0.758526,-0.46329\H,0,-2.7
 2103,0.255576,0.542319\H,0,-0.0818779,2.7191,-0.0343704\H,0,0.154077,1
 .18363,0.642031\H,0,1.66509,0.0398667,0.582736\H,0,0.629999,-0.665047,
 1.5756\H,0,1.27954,0.549793,-1.27188\H,0,1.23571,-0.89696,-0.978517\O,
 0,-0.292916,-1.75878,0.124383\O,0,-2.36056,-0.00702193,-0.308456\O,0,-

 Normal termination of Gaussian 16 at Tue Apr  8 21:07:31 2025.
