 Gaussian 16, Revision C.01,

 ----------------------------------------------------------------------
 #t hf aug-cc-pvdz symm=none int=(grid=ultrafine) guess=(read,tcheck) s
 table=(opt,rrhf)
 ----------------------------------------------------------------------
 -----
 title
 -----
 Symbolic Z-matrix:
 Charge =  0 Multiplicity = 1

 SCF Done:  E(RHF) =  -596.173480502     A.U. after   18 cycles
 Normal termination of Gaussian 16 at Tue Apr  8 22:07:43 2025.
 Gaussian 16:  ES64L-G16RevC.01  3-Jul-2019

 ----------------------------------------------------------------------
 #t hf aug-cc-pvdz iop(5/13=1,5/36=2,99/5=2) pseudo=read geom=check gue
 ss=(read,tcheck) scf=(maxcycle=1)
 ----------------------------------------------------------------------
 -----
 title
 -----
 Structure from the checkpoint file:  "ANI1ccx_883_conf5_mol1.chk"
 Charge =  0 Multiplicity = 1

                         Standard orientation:
 ---------------------------------------------------------------------
 Center     Atomic      Atomic             Coordinates (Angstroms)
 Number     Number       Type             X           Y           Z
 ---------------------------------------------------------------------
      1          6           0       -1.764731   -0.105534    0.073129
      2          6           0        0.259934   -1.140010    0.044333
      3          6           0        0.843825    0.213578   -0.073631
      4          6           0       -0.046991    1.313110    0.037284
      5          1           0       -3.328370   -1.536681   -0.311336
      6          1           0       -3.826021    0.149395    0.129948
      7          1           0        0.622006   -3.109810    0.299066
      8          1           0       -0.354612    3.119690    0.107525
      9          7           0       -3.051600   -0.521762   -0.239859
     10          7           0       -1.054900   -1.214500   -0.041510
     11          7           0        2.216599    0.596475   -0.117949
     12          7           0       -1.411771    1.161850    0.293069
     13          8           0        0.991470   -2.224360    0.102370
     14          8           0        2.954809   -0.362297   -0.040597
     15          8           0        0.334531    2.528670   -0.057791
 ---------------------------------------------------------------------

 SCF Done:  E(RHF) =  -598.729375408     A.U. after    2 cycles

 The electronic state is 1-A.
 Alpha  occ. eigenvalues --  -21.15545 -21.14201 -21.08410 -15.84986 -15.77449
 Alpha  occ. eigenvalues --  -15.74529 -15.73097 -11.56734 -11.55229 -11.50982
 Alpha  occ. eigenvalues --  -11.41958  -1.86319  -1.83114  -1.80654  -1.53596
 Alpha  occ. eigenvalues --   -1.31872  -1.30278  -1.19424  -0.99034  -0.93028
 Alpha  occ. eigenvalues --   -0.86604  -0.76577  -0.75346  -0.66287  -0.65410
 Alpha  occ. eigenvalues --   -0.63914  -0.62888  -0.60254  -0.55392  -0.54529
 Alpha  occ. eigenvalues --   -0.51599  -0.49390  -0.48259  -0.45796  -0.44224
 Alpha  occ. eigenvalues --   -0.38278  -0.37091  -0.34382  -0.29433  -0.25112
 Alpha virt. eigenvalues --    0.03280   0.04244   0.05326   0.06089   0.08712
 Alpha virt. eigenvalues --    0.10215   0.11141   0.11450   0.11570   0.12081
 Alpha virt. eigenvalues --    0.12792   0.12900   0.13180   0.14101   0.14728

 Mulliken charges:
               1
     1  C    4.151137
     2  C    5.028775
     3  C    0.588258
     4  C    5.699294
     5  H    0.699080
     6  H    0.559365
     7  H    1.046261
     8  H    1.057483
     9  N   -2.752790
    10  N   -2.669096
    11  N    0.352601
    12  N   -3.263307
    13  O   -3.918441
    14  O   -2.401626
    15  O   -4.176994
 Sum of Mulliken charges =  -0.00000

 Dipole moment (field-independent basis, Debye):
    X=             -2.7192    Y=             -1.6604    Z=              0.6103  Tot=              3.2440

 Test job not archived.
 1\1\GINC-SE367\SP\RHF\Aug-CC-pVDZ\C4H4N4O3\OHZDE\08-Apr-2025\0\\#t hf
 aug-cc-pvdz iop(5/13=1,5/36=2,99/5=2) pseudo=read geom=check guess=(re
 ad,tcheck) scf=(maxcycle=1)\\title\\0,1\C,0,-1.76473,-0.105534,0.07312
 9\C,0,0.259934,-1.14001,0.0443326\C,0,0.843826,0.213578,-0.073631\C,0,
 -0.0469906,1.31311,0.037284\H,0,-3.32837,-1.53668,-0.311336\H,0,-3.826
 02,0.149396,0.129948\H,0,0.622006,-3.10981,0.299066\H,0,-0.354611,3.11
 969,0.107525\N,0,-3.0516,-0.521761,-0.239859\N,0,-1.0549,-1.2145,-0.04
 15103\N,0,2.2166,0.596475,-0.117949\N,0,-1.41177,1.16185,0.293069\O,0,

 Normal termination of Gaussian 16 at Tue Apr  8 22:07:49 2025.
