 Gaussian 16, Revision C.01,

 ----------------------------------------------------------------------
 #t hf aug-cc-pvdz symm=none int=(grid=ultrafine) guess=(read,tcheck) s
 table=(opt,rrhf)
 ----------------------------------------------------------------------
 -----
 title
 -----
 Symbolic Z-matrix:
 Charge =  0 Multiplicity = 1

 SCF Done:  E(RHF) =  -464.286136404     A.U. after   16 cycles
 Normal termination of Gaussian 16 at Tue Apr  8 21:42:51 2025.
 Gaussian 16:  ES64L-G16RevC.01  3-Jul-2019

 ----------------------------------------------------------------------
 #t hf aug-cc-pvdz iop(5/13=1,5/36=2,99/5=2) pseudo=read geom=check gue
 ss=(read,tcheck) scf=(maxcycle=1)
 ----------------------------------------------------------------------
 -----
 title
 -----
 Structure from the checkpoint file:  "ANI1ccx_474_conf44_mol1.chk"
 Charge =  0 Multiplicity = 1

                         Standard orientation:
 ---------------------------------------------------------------------
 Center     Atomic      Atomic             Coordinates (Angstroms)
 Number     Number       Type             X           Y           Z
 ---------------------------------------------------------------------
      1          6           0        1.303398   -0.113145    0.187194
      2          6           0       -0.655280    1.417293   -0.007321
      3          1           0        2.077850    0.354302   -1.480120
      4          7           0        0.332150    0.700855   -0.559887
      5          7           0       -1.362196   -1.300124   -0.527724
      6          7           0       -1.947898   -2.100842    0.016951
      7          8           0        2.299828   -0.240632   -0.695502
      8          8           0       -1.622974    2.115346    0.224658
      9          8           0        1.183027   -0.534515    1.457780
 ---------------------------------------------------------------------

 SCF Done:  E(RHF) =  -466.200315676     A.U. after    2 cycles

 The electronic state is 1-A.
 Alpha  occ. eigenvalues --  -21.20221 -21.16699 -21.07695 -15.88564 -15.87788
 Alpha  occ. eigenvalues --  -15.81922 -11.64172 -11.58855  -1.84223  -1.80277
 Alpha  occ. eigenvalues --   -1.63719  -1.55559  -1.37999  -0.93012  -0.81379
 Alpha  occ. eigenvalues --   -0.77621  -0.67231  -0.64716  -0.63407  -0.57747
 Alpha  occ. eigenvalues --   -0.57592  -0.56691  -0.54857  -0.54265  -0.48999
 Alpha  occ. eigenvalues --   -0.44711  -0.38482  -0.34291  -0.32124
 Alpha virt. eigenvalues --    0.03484   0.07171   0.09038   0.09487   0.10017
 Alpha virt. eigenvalues --    0.10313   0.10988   0.11313   0.12682   0.12759
 Alpha virt. eigenvalues --    0.13443   0.14188   0.14698   0.15607   0.16748

 Mulliken charges:
               1
     1  C    5.123622
     2  C    3.127031
     3  H    0.935939
     4  N   -2.012527
     5  N   -0.018225
     6  N    0.106466
     7  O   -2.668422
     8  O   -2.240035
     9  O   -2.353849
 Sum of Mulliken charges =   0.00000

 Dipole moment (field-independent basis, Debye):
    X=             -1.3492    Y=              1.7398    Z=             -0.9642  Tot=              2.4035

 Test job not archived.
 1\1\GINC-SE331\SP\RHF\Aug-CC-pVDZ\C2H1N3O3\OHZDE\08-Apr-2025\0\\#t hf
 aug-cc-pvdz iop(5/13=1,5/36=2,99/5=2) pseudo=read geom=check guess=(re
 ad,tcheck) scf=(maxcycle=1)\\title\\0,1\C,0,1.3034,-0.113142,0.187194\
 C,0,-0.655284,1.41729,-0.00732089\H,0,2.07785,0.354308,-1.48012\N,0,0.
 332149,0.700855,-0.559887\N,0,-1.36219,-1.30013,-0.527724\N,0,-1.94789
 ,-2.10085,0.0169502\O,0,2.29983,-0.240625,-0.695502\O,0,-1.62298,2.115
 34,0.224658\O,0,1.18303,-0.534512,1.45778\\Version=ES64L-G16RevC.01\St
 ate=1-A\HF=-466.2003157\RMSD=7.647e-02\Dipole=-0.5308326,0.6844947,-0.

 Normal termination of Gaussian 16 at Tue Apr  8 21:42:54 2025.
