 Gaussian 16, Revision C.01,

 ----------------------------------------------------------------------
 #t hf aug-cc-pvdz symm=none int=(grid=ultrafine) guess=(read,tcheck) s
 table=(opt,rrhf)
 ----------------------------------------------------------------------
 -----
 title
 -----
 Symbolic Z-matrix:
 Charge =  0 Multiplicity = 1

 SCF Done:  E(RHF) =  -366.847429298     A.U. after   15 cycles
 Normal termination of Gaussian 16 at Tue Apr  8 21:38:50 2025.
 Gaussian 16:  ES64L-G16RevC.01  3-Jul-2019

 ----------------------------------------------------------------------
 #t hf aug-cc-pvdz iop(5/13=1,5/36=2,99/5=2) pseudo=read geom=check gue
 ss=(read,tcheck) scf=(maxcycle=1)
 ----------------------------------------------------------------------
 -----
 title
 -----
 Structure from the checkpoint file:  "ANI1ccx_404_conf1_mol1.chk"
 Charge =  0 Multiplicity = 1

                         Standard orientation:
 ---------------------------------------------------------------------
 Center     Atomic      Atomic             Coordinates (Angstroms)
 Number     Number       Type             X           Y           Z
 ---------------------------------------------------------------------
      1          6           0       -0.520064   -0.557475   -0.021264
      2          1           0       -2.418610   -0.016117    0.290298
      3          1           0       -2.153622   -1.738743    0.220086
      4          1           0        0.107318    2.428970    0.813094
      5          1           0       -0.453030    2.425554   -0.793058
      6          7           0       -1.881885   -0.790178   -0.073149
      7          7           0        0.455853   -1.448773    0.038082
      8          7           0        1.603925   -0.771582    0.062736
      9          7           0        1.404204    0.473046   -0.072337
     10          7           0        0.073392    0.658169   -0.113432
     11          7           0       -0.507156    1.914344    0.100551
 ---------------------------------------------------------------------

 SCF Done:  E(RHF) =  -368.487987865     A.U. after    2 cycles

 The electronic state is 1-A.
 Alpha  occ. eigenvalues --  -15.82932 -15.81621 -15.79751 -15.79067 -15.78538
 Alpha  occ. eigenvalues --  -15.73593 -11.49283  -1.76784  -1.49010  -1.40770
 Alpha  occ. eigenvalues --   -1.25831  -1.18539  -0.89852  -0.84352  -0.74488
 Alpha  occ. eigenvalues --   -0.73126  -0.68680  -0.65227  -0.61948  -0.51602
 Alpha  occ. eigenvalues --   -0.49339  -0.48520  -0.40405  -0.39582  -0.37807
 Alpha  occ. eigenvalues --   -0.32095
 Alpha virt. eigenvalues --    0.03128   0.04354   0.05663   0.06195   0.10677
 Alpha virt. eigenvalues --    0.11645   0.12456   0.12572   0.14110   0.14957
 Alpha virt. eigenvalues --    0.16042   0.16189   0.16663   0.17462   0.18297

 Mulliken charges:
               1
     1  C    4.597525
     2  H    0.618379
     3  H    0.629240
     4  H    0.687278
     5  H    0.702066
     6  N   -2.789274
     7  N   -1.707723
     8  N   -0.177006
     9  N   -0.737000
    10  N   -0.261896
    11  N   -1.561589
 Sum of Mulliken charges =  -0.00000

 Dipole moment (field-independent basis, Debye):
    X=             -4.1911    Y=              3.2386    Z=              0.4977  Tot=              5.3199

 Test job not archived.
 1\1\GINC-SE094\SP\RHF\Aug-CC-pVDZ\C1H4N6\OHZDE\08-Apr-2025\0\\#t hf au
 g-cc-pvdz iop(5/13=1,5/36=2,99/5=2) pseudo=read geom=check guess=(read
 ,tcheck) scf=(maxcycle=1)\\title\\0,1\C,0,-0.52006,-0.557479,-0.021263
 6\H,0,-2.41861,-0.0161351,0.290298\H,0,-2.15361,-1.73876,0.220086\H,0,
 0.107299,2.42897,0.813094\H,0,-0.453049,2.42555,-0.793058\N,0,-1.88188
 ,-0.790193,-0.0731487\N,0,0.455863,-1.44877,0.0380818\N,0,1.60393,-0.7
 71571,0.0627356\N,0,1.4042,0.473056,-0.0723367\N,0,0.0733867,0.658169,
 -0.113432\N,0,-0.507171,1.91434,0.100551\\Version=ES64L-G16RevC.01\Sta

 Normal termination of Gaussian 16 at Tue Apr  8 21:38:54 2025.
