 Gaussian 16, Revision C.01,

 ----------------------------------------------------------------------
 #t hf aug-cc-pvdz symm=none int=(grid=ultrafine) guess=(read,tcheck) s
 table=(opt,rrhf)
 ----------------------------------------------------------------------
 -----
 title
 -----
 Symbolic Z-matrix:
 Charge =  0 Multiplicity = 1

 SCF Done:  E(RHF) =  -814.734103703     A.U. after   15 cycles
 Normal termination of Gaussian 16 at Tue Apr  8 21:17:11 2025.
 Gaussian 16:  ES64L-G16RevC.01  3-Jul-2019

 ----------------------------------------------------------------------
 #t hf aug-cc-pvdz iop(5/13=1,5/36=2,99/5=2) pseudo=read geom=check gue
 ss=(read,tcheck) scf=(maxcycle=1)
 ----------------------------------------------------------------------
 -----
 title
 -----
 Structure from the checkpoint file:  "ANI1ccx_1785_conf17_mol1.chk"
 Charge =  0 Multiplicity = 1

                         Standard orientation:
 ---------------------------------------------------------------------
 Center     Atomic      Atomic             Coordinates (Angstroms)
 Number     Number       Type             X           Y           Z
 ---------------------------------------------------------------------
      1          6           0       -3.052550    0.760843    0.161040
      2          6           0        2.898540    0.986976    0.663373
      3          6           0        1.738510    1.881000    0.221778
      4          6           0        0.728090    1.271730   -0.777349
      5          6           0        3.772700    0.431127   -0.455236
      6          6           0       -0.091118    0.132455   -0.251923
      7          6           0       -3.781510   -0.266146   -0.692780
      8          6           0       -2.117750   -0.081265    1.122691
      9          6           0        0.855806   -1.065850   -0.116940
     10          1           0        1.252110    2.311040    1.103541
     11          1           0        1.808121   -2.251530   -1.030239
     12          1           0        4.919420   -0.758252    0.786977
     13          1           0        3.836651   -1.544759    0.007919
     14          1           0        3.140840    0.081242   -1.298919
     15          1           0        4.483680    1.136791   -0.825830
     16          1           0        2.604940    0.053491    1.210981
     17          1           0        3.497060    1.646981    1.291701
     18          1           0        2.108070    2.833430   -0.250688
     19          1           0        0.051562    1.951380   -1.320439
     20          1           0       -0.740900   -0.257157   -1.072669
     21          1           0       -0.279013   -0.355674    1.783141
     22          1           0       -3.130969   -1.471501   -2.053839
     23          1           0       -4.273510    0.291894   -1.544109
     24          1           0       -4.617770   -0.663415   -0.085432
     25          1           0       -3.732300    1.199869    0.903177
     26          1           0       -2.847270    2.394749   -1.108509
     27          1           0       -1.572080    2.155979   -0.154811
     28          1           0        1.221650    0.771930   -1.667889
     29          7           0       -2.269790    1.665569   -0.666329
     30          7           0       -0.782468    0.252249    1.102221
     31          7           0        4.566100   -0.845717   -0.120528
     32          8           0        1.244591   -1.441710    1.002151
     33          8           0       -2.548140   -0.877441    1.891761
     34          8           0       -2.828389   -1.197191   -1.169659
     35          8           0        1.128001   -1.650710   -1.240439
 ---------------------------------------------------------------------

 SCF Done:  E(RHF) =  -818.454611287     A.U. after    2 cycles

 The electronic state is 1-A.
 Alpha  occ. eigenvalues --  -21.16300 -21.08363 -21.05196 -21.02943 -15.74279
 Alpha  occ. eigenvalues --  -15.73928 -15.72878 -11.56961 -11.51521 -11.49784
 Alpha  occ. eigenvalues --  -11.47916 -11.45551 -11.42780 -11.41007 -11.40408
 Alpha  occ. eigenvalues --  -11.36329  -1.87595  -1.73722  -1.71285  -1.67297
 Alpha  occ. eigenvalues --   -1.40365  -1.33631  -1.32683  -1.21787  -1.11331
 Alpha  occ. eigenvalues --   -1.07894  -0.99756  -0.92023  -0.90978  -0.83551
 Alpha  occ. eigenvalues --   -0.80192  -0.77156  -0.70361  -0.69199  -0.68405
 Alpha  occ. eigenvalues --   -0.67325  -0.65859  -0.64243  -0.62578  -0.60317
 Alpha  occ. eigenvalues --   -0.59940  -0.58315  -0.56498  -0.55743  -0.55068
 Alpha  occ. eigenvalues --   -0.53042  -0.52498  -0.51161  -0.49889  -0.49173
 Alpha  occ. eigenvalues --   -0.47910  -0.45380  -0.44861  -0.44329  -0.42389
 Alpha  occ. eigenvalues --   -0.42063  -0.37356  -0.35303  -0.33903  -0.33561
 Alpha  occ. eigenvalues --   -0.32418  -0.30526  -0.27431
 Alpha virt. eigenvalues --    0.03513   0.04006   0.04136   0.04457   0.05165
 Alpha virt. eigenvalues --    0.05352   0.05780   0.06105   0.06241   0.06332
 Alpha virt. eigenvalues --    0.06907   0.07263   0.08441   0.09039   0.09547

 Mulliken charges:
               1
     1  C   -2.951136
     2  C   -3.972749
     3  C   -3.116853
     4  C   -4.287942
     5  C   -2.142606
     6  C    0.884567
     7  C   -0.728886
     8  C    7.195722
     9  C    8.349972
    10  H    1.367619
    11  H    0.766503
    12  H    0.730955
    13  H    0.503716
    14  H    1.854816
    15  H    1.310051
    16  H    1.809339
    17  H    1.247515
    18  H    1.453549
    19  H    1.448472
    20  H    2.574842
    21  H    0.518800
    22  H    0.784252
    23  H    1.378885
    24  H    1.363579
    25  H    1.678093
    26  H    0.514590
    27  H    0.950587
    28  H    1.462185
    29  N   -2.659789
    30  N   -3.156815
    31  N   -2.440963
    32  O   -3.437347
    33  O   -4.212977
    34  O   -2.869011
    35  O   -4.171534
 Sum of Mulliken charges =  -0.00000

 Dipole moment (field-independent basis, Debye):
    X=             -1.0760    Y=              1.5760    Z=             -1.9218  Tot=              2.7083

 Test job not archived.
 1\1\GINC-SE232\SP\RHF\Aug-CC-pVDZ\C9H19N3O4\OHZDE\08-Apr-2025\0\\#t hf
  aug-cc-pvdz iop(5/13=1,5/36=2,99/5=2) pseudo=read geom=check guess=(r
 ead,tcheck) scf=(maxcycle=1)\\title\\0,1\C,0,-3.05255,0.760844,0.16103
 9\C,0,2.89854,0.986976,0.663372\C,0,1.73851,1.881,0.221777\C,0,0.72809
 ,1.27173,-0.77735\C,0,3.7727,0.431126,-0.455237\C,0,-0.0911186,0.13245
 5,-0.251924\C,0,-3.78151,-0.266145,-0.692781\C,0,-2.11775,-0.0812641,1
 .12269\C,0,0.855806,-1.06585,-0.116941\H,0,1.25211,2.31104,1.10354\H,0
 ,1.80812,-2.25153,-1.03024\H,0,4.91942,-0.758253,0.786976\H,0,3.83665,

 Normal termination of Gaussian 16 at Tue Apr  8 21:18:04 2025.
