 Gaussian 16, Revision C.01,

 ----------------------------------------------------------------------
 #t hf aug-cc-pvdz symm=none int=(grid=ultrafine) guess=(read,tcheck) s
 table=(opt,rrhf)
 ----------------------------------------------------------------------
 -----
 title
 -----
 Symbolic Z-matrix:
 Charge =  0 Multiplicity = 1

 SCF Done:  E(RHF) =  -943.077258792     A.U. after   15 cycles
 Normal termination of Gaussian 16 at Tue Apr  8 20:15:38 2025.
 Gaussian 16:  ES64L-G16RevC.01  3-Jul-2019

 ----------------------------------------------------------------------
 #t hf aug-cc-pvdz iop(5/13=1,5/36=2,99/5=2) pseudo=read geom=check gue
 ss=(read,tcheck) scf=(maxcycle=1)
 ----------------------------------------------------------------------
 -----
 title
 -----
 Structure from the checkpoint file:  "ANI1ccx_1569_conf10_mol2.chk"
 Charge =  0 Multiplicity = 1

                         Standard orientation:
 ---------------------------------------------------------------------
 Center     Atomic      Atomic             Coordinates (Angstroms)
 Number     Number       Type             X           Y           Z
 ---------------------------------------------------------------------
      1          6           0        2.308808   -1.052903    0.351813
      2          6           0        0.860536   -1.239952   -0.060954
      3          6           0        2.900770    0.200864   -0.290201
      4          6           0        2.082741    1.417997   -0.056060
      5          6           0       -1.476901   -0.394026    0.503123
      6          6           0       -2.404922   -1.637698    0.215660
      7          6           0       -1.685380    0.589914   -0.625429
      8          6           0       -1.484028    2.010241   -0.121352
      9          1           0       -0.957125   -2.464030   -0.590392
     10          1           0       -1.925486    3.739382   -0.459467
     11          1           0       -2.692630    0.624887   -1.069751
     12          1           0       -0.955576    0.462483   -1.436301
     13          1           0       -1.933510    0.084714    1.388949
     14          1           0        0.283717   -0.168976    1.569639
     15          1           0        3.038860    0.113115   -1.394161
     16          1           0        3.944320    0.309914    0.066762
     17          1           0        2.428828   -0.986266    1.434229
     18          1           0        2.862537   -2.389794   -1.044201
     19          1           0        2.711846   -3.083304    0.391025
     20          1           0        1.016102    2.247638    1.217159
     21          7           0        3.071697   -2.255494   -0.060043
     22          7           0       -0.059111   -0.711602    0.791362
     23          8           0       -2.126337    2.891812   -0.875469
     24          8           0        0.496219   -1.814351   -1.082941
     25          8           0        1.744182    2.219117   -0.864079
     26          8           0        1.690771    1.514457    1.245589
     27          8           0       -3.594542   -1.584026    0.497063
     28          8           0       -0.804766    2.363730    0.827255
     29          8           0       -1.845494   -2.726578   -0.333966
 ---------------------------------------------------------------------

 SCF Done:  E(RHF) =  -947.126130426     A.U. after    2 cycles

 The electronic state is 1-A.
 Alpha  occ. eigenvalues --  -21.15698 -21.11860 -21.11226 -21.08154 -21.07587
 Alpha  occ. eigenvalues --  -21.07196 -21.04972 -15.80229 -15.75958 -11.58491
 Alpha  occ. eigenvalues --  -11.57405 -11.55756 -11.54916 -11.51584 -11.49984
 Alpha  occ. eigenvalues --  -11.44499 -11.43890  -1.87637  -1.84705  -1.82015
 Alpha  occ. eigenvalues --   -1.76344  -1.69094  -1.67251  -1.64966  -1.44701
 Alpha  occ. eigenvalues --   -1.37648  -1.21784  -1.16899  -1.04628  -0.97707
 Alpha  occ. eigenvalues --   -0.86358  -0.83030  -0.81435  -0.77810  -0.76767
 Alpha  occ. eigenvalues --   -0.73510  -0.70417  -0.67639  -0.67247  -0.65651
 Alpha  occ. eigenvalues --   -0.64218  -0.63145  -0.62015  -0.60202  -0.59261
 Alpha  occ. eigenvalues --   -0.56975  -0.55486  -0.54546  -0.53049  -0.52011
 Alpha  occ. eigenvalues --   -0.51180  -0.50791  -0.49293  -0.48763  -0.46973
 Alpha  occ. eigenvalues --   -0.45858  -0.39319  -0.37560  -0.37076  -0.35357
 Alpha  occ. eigenvalues --   -0.33427  -0.33108  -0.31939  -0.31155  -0.28935
 Alpha virt. eigenvalues --    0.03430   0.04363   0.04469   0.04743   0.05352
 Alpha virt. eigenvalues --    0.05837   0.06453   0.06957   0.07134   0.07494
 Alpha virt. eigenvalues --    0.08152   0.08623   0.09373   0.10011   0.11105

 Mulliken charges:
               1
     1  C   -2.276408
     2  C    7.786426
     3  C   -4.199280
     4  C    6.990010
     5  C   -1.500523
     6  C    6.240470
     7  C   -4.180574
     8  C    6.561445
     9  H    1.598191
    10  H    0.863598
    11  H    1.432340
    12  H    1.718199
    13  H    2.068184
    14  H    0.914145
    15  H    1.222540
    16  H    1.372273
    17  H    1.912457
    18  H    0.523810
    19  H    0.607854
    20  H    1.471518
    21  N   -2.679800
    22  N   -3.516214
    23  O   -3.508741
    24  O   -4.006040
    25  O   -3.677333
    26  O   -3.423805
    27  O   -3.429236
    28  O   -3.246758
    29  O   -3.638747
 Sum of Mulliken charges =  -0.00000

 Dipole moment (field-independent basis, Debye):
    X=              1.6806    Y=              1.7136    Z=              0.7083  Tot=              2.5025

 Test job not archived.
 1\1\GINC-SE462\SP\RHF\Aug-CC-pVDZ\C8H12N2O7\OHZDE\08-Apr-2025\0\\#t hf
  aug-cc-pvdz iop(5/13=1,5/36=2,99/5=2) pseudo=read geom=check guess=(r
 ead,tcheck) scf=(maxcycle=1)\\title\\0,1\C,0,2.30881,-1.0529,0.351814\
 C,0,0.860538,-1.23995,-0.0609534\C,0,2.90077,0.200868,-0.2902\C,0,2.08
 274,1.418,-0.056059\C,0,-1.4769,-0.394027,0.503124\C,0,-2.40492,-1.637
 7,0.215661\C,0,-1.68538,0.589913,-0.625428\C,0,-1.48403,2.01024,-0.121
 351\H,0,-0.957122,-2.46403,-0.590391\H,0,-1.92549,3.73938,-0.459466\H,
 0,-2.69263,0.624884,-1.06975\H,0,-0.955576,0.462483,-1.4363\H,0,-1.933

 Normal termination of Gaussian 16 at Tue Apr  8 20:16:16 2025.
