 Gaussian 16, Revision C.01,

 ----------------------------------------------------------------------
 #t hf aug-cc-pvdz symm=none int=(grid=ultrafine) guess=(read,tcheck) s
 table=(opt,rrhf)
 ----------------------------------------------------------------------
 -----
 title
 -----
 Symbolic Z-matrix:
 Charge =  0 Multiplicity = 1

 SCF Done:  E(RHF) =  -489.707679755     A.U. after   14 cycles
 Normal termination of Gaussian 16 at Tue Apr  8 22:16:05 2025.
 Gaussian 16:  ES64L-G16RevC.01  3-Jul-2019

 ----------------------------------------------------------------------
 #t hf aug-cc-pvdz iop(5/13=1,5/36=2,99/5=2) pseudo=read geom=check gue
 ss=(read,tcheck) scf=(maxcycle=1)
 ----------------------------------------------------------------------
 -----
 title
 -----
 Structure from the checkpoint file:  "ANI1ccx_957_conf2_mol1.chk"
 Charge =  0 Multiplicity = 1

                         Standard orientation:
 ---------------------------------------------------------------------
 Center     Atomic      Atomic             Coordinates (Angstroms)
 Number     Number       Type             X           Y           Z
 ---------------------------------------------------------------------
      1          6           0       -0.502383    0.699183   -0.157337
      2          6           0       -1.353070   -0.660757   -0.093818
      3          6           0        0.711241    0.526169    0.863062
      4          6           0        1.846110    0.027575    0.038517
      5          1           0       -2.617660    0.582493   -0.419108
      6          1           0        1.294111   -1.923000    0.282304
      7          1           0        2.607381   -1.582519   -0.746028
      8          1           0        1.031699    1.524340    1.216640
      9          1           0       -0.097153    0.822502   -1.169430
     10          1           0       -1.416921    1.900469    1.048770
     11          1           0       -1.016101    2.643479   -0.299467
     12          1           0        0.492795   -0.106187    1.699140
     13          7           0       -1.374261    1.778049    0.023843
     14          7           0        1.996131   -1.269260   -0.017968
     15          8           0        2.531340    0.856098   -0.542619
     16          8           0       -1.018449   -1.789001    0.187448
     17          8           0       -2.618220   -0.439113   -0.339390
 ---------------------------------------------------------------------

 SCF Done:  E(RHF) =  -491.871915177     A.U. after    2 cycles

 The electronic state is 1-A.
 Alpha  occ. eigenvalues --  -21.10838 -21.05039 -21.01738 -15.79255 -15.78225
 Alpha  occ. eigenvalues --  -11.53874 -11.51245 -11.47283 -11.41348  -1.84030
 Alpha  occ. eigenvalues --   -1.70839  -1.64994  -1.42500  -1.36745  -1.14503
 Alpha  occ. eigenvalues --   -0.98545  -0.82229  -0.79146  -0.75605  -0.72688
 Alpha  occ. eigenvalues --   -0.68024  -0.66079  -0.64638  -0.57592  -0.55644
 Alpha  occ. eigenvalues --   -0.53473  -0.51622  -0.51196  -0.48142  -0.43905
 Alpha  occ. eigenvalues --   -0.41401  -0.33537  -0.32001  -0.30156  -0.28290
 Alpha virt. eigenvalues --    0.03032   0.04600   0.04807   0.05596   0.05791
 Alpha virt. eigenvalues --    0.06852   0.07035   0.08422   0.10691   0.10872
 Alpha virt. eigenvalues --    0.11439   0.11968   0.12782   0.13687   0.14161

 Mulliken charges:
               1
     1  C   -0.276691
     2  C    5.758258
     3  C   -3.437007
     4  C    6.474929
     5  H    1.137781
     6  H    0.819883
     7  H    0.631482
     8  H    1.195615
     9  H    1.770657
    10  H    0.509997
    11  H    0.541486
    12  H    1.332349
    13  N   -3.171335
    14  N   -3.548962
    15  O   -3.548529
    16  O   -3.059489
    17  O   -3.130426
 Sum of Mulliken charges =  -0.00000

 Dipole moment (field-independent basis, Debye):
    X=             -1.0080    Y=              1.2629    Z=              0.6068  Tot=              1.7261

 Test job not archived.
 1\1\GINC-SE252\SP\RHF\Aug-CC-pVDZ\C4H8N2O3\OHZDE\08-Apr-2025\0\\#t hf
 aug-cc-pvdz iop(5/13=1,5/36=2,99/5=2) pseudo=read geom=check guess=(re
 ad,tcheck) scf=(maxcycle=1)\\title\\0,1\C,0,-0.502383,0.699184,-0.1573
 37\C,0,-1.35307,-0.660756,-0.0938184\C,0,0.711241,0.526169,0.863062\C,
 0,1.84611,0.027575,0.0385169\H,0,-2.61766,0.582495,-0.419108\H,0,1.294
 11,-1.923,0.282304\H,0,2.60738,-1.58252,-0.746028\H,0,1.0317,1.52434,1
 .21664\H,0,-0.0971529,0.822502,-1.16943\H,0,-1.41692,1.90047,1.04877\H
 ,0,-1.0161,2.64348,-0.299467\H,0,0.492795,-0.106187,1.69914\N,0,-1.374

 Normal termination of Gaussian 16 at Tue Apr  8 22:16:13 2025.
