 Gaussian 16, Revision C.01,

 ----------------------------------------------------------------------
 #t hf aug-cc-pvdz symm=none int=(grid=ultrafine) guess=(read,tcheck) s
 table=(opt,rrhf)
 ----------------------------------------------------------------------
 -----
 title
 -----
 Symbolic Z-matrix:
 Charge =  0 Multiplicity = 1

 SCF Done:  E(RHF) =  -256.787574186     A.U. after   15 cycles
 Normal termination of Gaussian 16 at Tue Apr  8 21:35:31 2025.
 Gaussian 16:  ES64L-G16RevC.01  3-Jul-2019

 ----------------------------------------------------------------------
 #t hf aug-cc-pvdz iop(5/13=1,5/36=2,99/5=2) pseudo=read geom=check gue
 ss=(read,tcheck) scf=(maxcycle=1)
 ----------------------------------------------------------------------
 -----
 title
 -----
 Structure from the checkpoint file:  "ANI1ccx_377_conf46_mol1.chk"
 Charge =  0 Multiplicity = 1

                         Standard orientation:
 ---------------------------------------------------------------------
 Center     Atomic      Atomic             Coordinates (Angstroms)
 Number     Number       Type             X           Y           Z
 ---------------------------------------------------------------------
      1          6           0       -1.057951   -0.333989   -0.002763
      2          1           0       -2.043250   -0.708843    0.071681
      3          1           0        1.956030   -0.552485   -0.028366
      4          7           0       -0.722962    0.940405    0.011000
      5          7           0        0.643068    0.961413   -0.032793
      6          7           0        1.005909   -0.299652    0.054812
      7          7           0       -0.006741   -1.135699   -0.036838
 ---------------------------------------------------------------------

 SCF Done:  E(RHF) =  -257.921807566     A.U. after    2 cycles

 The electronic state is 1-A.
 Alpha  occ. eigenvalues --  -15.88258 -15.82564 -15.78978 -15.77676 -11.43214
 Alpha  occ. eigenvalues --   -1.76515  -1.37756  -1.30512  -0.94906  -0.88227
 Alpha  occ. eigenvalues --   -0.76242  -0.69117  -0.63233  -0.52579  -0.44865
 Alpha  occ. eigenvalues --   -0.41818  -0.41509  -0.38730
 Alpha virt. eigenvalues --    0.03648   0.04929   0.10219   0.10861   0.11191
 Alpha virt. eigenvalues --    0.12659   0.13537   0.14837   0.16563   0.17124
 Alpha virt. eigenvalues --    0.17710   0.19327   0.19813   0.20041   0.20801

 Mulliken charges:
               1
     1  C    1.299274
     2  H    1.588614
     3  H    1.005613
     4  N   -1.710088
     5  N   -0.282677
     6  N   -0.302381
     7  N   -1.598355
 Sum of Mulliken charges =  -0.00000

 Dipole moment (field-independent basis, Debye):
    X=              1.3928    Y=             -1.7432    Z=              0.0313  Tot=              2.2315

 Test job not archived.
 1\1\GINC-SE186\SP\RHF\Aug-CC-pVDZ\C1H2N4\OHZDE\08-Apr-2025\0\\#t hf au
 g-cc-pvdz iop(5/13=1,5/36=2,99/5=2) pseudo=read geom=check guess=(read
 ,tcheck) scf=(maxcycle=1)\\title\\0,1\C,0,-1.05795,-0.333988,-0.002763
 44\H,0,-2.04325,-0.70884,0.0716813\H,0,1.95603,-0.552489,-0.0283656\N,
 0,-0.722959,0.940405,0.0109999\N,0,0.643071,0.961411,-0.0327934\N,0,1.
 00591,-0.299655,0.0548124\N,0,-0.00674183,-1.1357,-0.0368382\\Version=
 ES64L-G16RevC.01\State=1-A\HF=-257.9218076\RMSD=8.710e-02\Dipole=0.547
 9717,-0.6858293,0.0123303\Quadrupole=5.2528772,-4.7891859,-0.4636913,-

 Normal termination of Gaussian 16 at Tue Apr  8 21:35:33 2025.
