 Gaussian 16, Revision C.01,

 ----------------------------------------------------------------------
 #t hf aug-cc-pvdz symm=none int=(grid=ultrafine) guess=(read,tcheck) s
 table=(opt,rrhf)
 ----------------------------------------------------------------------
 -----
 title
 -----
 Symbolic Z-matrix:
 Charge =  0 Multiplicity = 1

 SCF Done:  E(RHF) =  -489.698096873     A.U. after   14 cycles
 Normal termination of Gaussian 16 at Tue Apr  8 22:16:06 2025.
 Gaussian 16:  ES64L-G16RevC.01  3-Jul-2019

 ----------------------------------------------------------------------
 #t hf aug-cc-pvdz iop(5/13=1,5/36=2,99/5=2) pseudo=read geom=check gue
 ss=(read,tcheck) scf=(maxcycle=1)
 ----------------------------------------------------------------------
 -----
 title
 -----
 Structure from the checkpoint file:  "ANI1ccx_957_conf21_mol1.chk"
 Charge =  0 Multiplicity = 1

                         Standard orientation:
 ---------------------------------------------------------------------
 Center     Atomic      Atomic             Coordinates (Angstroms)
 Number     Number       Type             X           Y           Z
 ---------------------------------------------------------------------
      1          6           0       -0.728431    0.633414   -0.330734
      2          6           0       -1.195381   -0.781122   -0.208816
      3          6           0        0.502138    0.971275    0.531586
      4          6           0        1.788239    0.133928    0.284207
      5          1           0       -2.562031   -0.026603    0.767127
      6          1           0        3.148669   -0.291682   -1.136470
      7          1           0        0.245607    0.707842    1.597360
      8          1           0        0.764681    2.064350    0.420376
      9          1           0        2.126189    0.985131   -1.595200
     10          1           0       -2.540091    1.529220   -0.584508
     11          1           0       -1.807222    1.938020    0.786216
     12          1           0       -0.355487    0.727044   -1.342080
     13          7           0       -1.671621    1.704520   -0.160805
     14          7           0        2.294969    0.204822   -0.960354
     15          8           0        2.204989   -0.676741    1.120740
     16          8           0       -0.603918   -1.695580   -0.738757
     17          8           0       -2.298961   -0.970638    0.527743
 ---------------------------------------------------------------------

 SCF Done:  E(RHF) =  -491.850744340     A.U. after    2 cycles

 The electronic state is 1-A.
 Alpha  occ. eigenvalues --  -21.13366 -21.04978 -21.02553 -15.78491 -15.78341
 Alpha  occ. eigenvalues --  -11.54084 -11.51420 -11.48994 -11.41978  -1.83248
 Alpha  occ. eigenvalues --   -1.69351  -1.65687  -1.41471  -1.35014  -1.14594
 Alpha  occ. eigenvalues --   -0.99548  -0.83072  -0.79770  -0.73475  -0.73099
 Alpha  occ. eigenvalues --   -0.69712  -0.63972  -0.62310  -0.59447  -0.54502
 Alpha  occ. eigenvalues --   -0.53607  -0.50498  -0.48415  -0.47072  -0.46443
 Alpha  occ. eigenvalues --   -0.41831  -0.34061  -0.32363  -0.29002  -0.28503
 Alpha virt. eigenvalues --    0.02891   0.03736   0.04568   0.04780   0.05876
 Alpha virt. eigenvalues --    0.06538   0.06669   0.08564   0.10712   0.10972
 Alpha virt. eigenvalues --    0.11313   0.12373   0.12742   0.13353   0.14188

 Mulliken charges:
               1
     1  C   -0.787530
     2  C    6.736846
     3  C   -3.398718
     4  C    5.565462
     5  H    1.012506
     6  H    0.753906
     7  H    1.281681
     8  H    1.298248
     9  H    0.763269
    10  H    0.633361
    11  H    0.530390
    12  H    1.677108
    13  N   -2.961122
    14  N   -3.117628
    15  O   -3.321586
    16  O   -3.378053
    17  O   -3.288141
 Sum of Mulliken charges =   0.00000

 Dipole moment (field-independent basis, Debye):
    X=             -1.0937    Y=              3.0189    Z=             -1.1083  Tot=              3.3968

 Test job not archived.
 1\1\GINC-SE094\SP\RHF\Aug-CC-pVDZ\C4H8N2O3\OHZDE\08-Apr-2025\0\\#t hf
 aug-cc-pvdz iop(5/13=1,5/36=2,99/5=2) pseudo=read geom=check guess=(re
 ad,tcheck) scf=(maxcycle=1)\\title\\0,1\C,0,-0.72843,0.633414,-0.33073
 4\C,0,-1.19538,-0.781122,-0.208816\C,0,0.502139,0.971275,0.531586\C,0,
 1.78824,0.133928,0.284207\H,0,-2.56203,-0.026603,0.767127\H,0,3.14867,
 -0.291682,-1.13647\H,0,0.245608,0.707842,1.59736\H,0,0.764683,2.06435,
 0.420376\H,0,2.12619,0.985131,-1.5952\H,0,-2.54009,1.52922,-0.584508\H
 ,0,-1.80722,1.93802,0.786216\H,0,-0.355486,0.727044,-1.34208\N,0,-1.67

 Normal termination of Gaussian 16 at Tue Apr  8 22:16:13 2025.
