 Gaussian 16, Revision C.01,

 ----------------------------------------------------------------------
 #t hf aug-cc-pvdz symm=none int=(grid=ultrafine) guess=(read,tcheck) s
 table=(opt,rrhf)
 ----------------------------------------------------------------------
 -----
 title
 -----
 Symbolic Z-matrix:
 Charge =  0 Multiplicity = 1

 SCF Done:  E(RHF) =  -660.928543422     A.U. after   16 cycles
 Normal termination of Gaussian 16 at Tue Apr  8 20:34:41 2025.
 Gaussian 16:  ES64L-G16RevC.01  3-Jul-2019

 ----------------------------------------------------------------------
 #t hf aug-cc-pvdz iop(5/13=1,5/36=2,99/5=2) pseudo=read geom=check gue
 ss=(read,tcheck) scf=(maxcycle=1)
 ----------------------------------------------------------------------
 -----
 title
 -----
 Structure from the checkpoint file:  "ANI1ccx_1675_conf2_mol1.chk"
 Charge =  0 Multiplicity = 1

                         Standard orientation:
 ---------------------------------------------------------------------
 Center     Atomic      Atomic             Coordinates (Angstroms)
 Number     Number       Type             X           Y           Z
 ---------------------------------------------------------------------
      1          6           0        1.566000   -1.097071    0.359465
      2          6           0       -0.799165   -0.806350   -0.144522
      3          6           0       -1.979230   -1.474630   -0.011336
      4          6           0       -3.176730   -0.785113    0.064131
      5          6           0       -3.113939    0.625009    0.146564
      6          6           0       -1.895579    1.269700    0.087116
      7          6           0       -0.701398    0.566281   -0.072717
      8          6           0        1.700980    0.385563    0.111785
      9          1           0        1.443271    2.610469   -0.788454
     10          1           0       -1.828409    2.365120    0.178261
     11          1           0       -4.005119    1.212041    0.261137
     12          1           0        1.387110   -1.234551    1.455860
     13          1           0       -2.014161   -2.601220   -0.030273
     14          1           0        3.414440   -1.259382    0.189347
     15          1           0       -4.130000   -1.298649    0.035894
     16          7           0        0.569887    1.058079   -0.189471
     17          8           0        0.782507    2.427009   -0.109116
     18          8           0        2.619800   -1.778672   -0.124924
     19          8           0        0.321777   -1.504761   -0.356455
     20          8           0        2.793171    0.943834    0.188197
 ---------------------------------------------------------------------

 SCF Done:  E(RHF) =  -663.805194310     A.U. after    2 cycles

 The electronic state is 1-A.
 Alpha  occ. eigenvalues --  -21.13363 -21.10851 -21.08471 -21.06182 -15.83029
 Alpha  occ. eigenvalues --  -11.56878 -11.55091 -11.49671 -11.47093 -11.46784
 Alpha  occ. eigenvalues --  -11.42991 -11.42305 -11.38387  -1.88961  -1.82865
 Alpha  occ. eigenvalues --   -1.73895  -1.70064  -1.39484  -1.29751  -1.11608
 Alpha  occ. eigenvalues --   -1.10217  -1.00019  -0.91779  -0.88860  -0.79212
 Alpha  occ. eigenvalues --   -0.75881  -0.72799  -0.70167  -0.66438  -0.66013
 Alpha  occ. eigenvalues --   -0.61451  -0.59598  -0.58397  -0.55826  -0.54037
 Alpha  occ. eigenvalues --   -0.51460  -0.49816  -0.48398  -0.45865  -0.44126
 Alpha  occ. eigenvalues --   -0.40894  -0.39309  -0.37662  -0.35255  -0.31728
 Alpha  occ. eigenvalues --   -0.29743  -0.26978
 Alpha virt. eigenvalues --    0.03318   0.04995   0.05273   0.05629   0.06343
 Alpha virt. eigenvalues --    0.06495   0.06980   0.09048   0.09715   0.10553
 Alpha virt. eigenvalues --    0.11159   0.11411   0.11981   0.12082   0.12927

 Mulliken charges:
               1
     1  C    2.153860
     2  C    7.483340
     3  C   -3.183061
     4  C   -2.994364
     5  C   -2.378217
     6  C   -0.001355
     7  C    1.641383
     8  C    4.099858
     9  H    0.721596
    10  H    1.782495
    11  H    1.517719
    12  H    1.402009
    13  H    1.675720
    14  H    0.626911
    15  H    1.498044
    16  N   -1.640798
    17  O   -2.784475
    18  O   -3.029422
    19  O   -5.130437
    20  O   -3.460804
 Sum of Mulliken charges =  -0.00000

 Dipole moment (field-independent basis, Debye):
    X=             -1.1413    Y=              0.6166    Z=              0.0390  Tot=              1.2978

 Test job not archived.
 1\1\GINC-SE099\SP\RHF\Aug-CC-pVDZ\C8H7N1O4\OHZDE\08-Apr-2025\0\\#t hf
 aug-cc-pvdz iop(5/13=1,5/36=2,99/5=2) pseudo=read geom=check guess=(re
 ad,tcheck) scf=(maxcycle=1)\\title\\0,1\C,0,1.566,-1.09707,0.359465\C,
 0,-0.799165,-0.80635,-0.144522\C,0,-1.97923,-1.47463,-0.0113358\C,0,-3
 .17673,-0.785114,0.0641313\C,0,-3.11394,0.625008,0.146564\C,0,-1.89558
 ,1.2697,0.0871159\C,0,-0.701399,0.566281,-0.0727169\C,0,1.70098,0.3855
 64,0.111785\H,0,1.44327,2.61047,-0.788454\H,0,-1.82841,2.36512,0.17826
 1\H,0,-4.00512,1.21204,0.261137\H,0,1.38711,-1.23455,1.45586\H,0,-2.01

 Normal termination of Gaussian 16 at Tue Apr  8 20:34:56 2025.
