 Gaussian 16, Revision C.01,

 ----------------------------------------------------------------------
 #t hf aug-cc-pvdz symm=none int=(grid=ultrafine) guess=(read,tcheck) s
 table=(opt,rrhf)
 ----------------------------------------------------------------------
 -----
 title
 -----
 Symbolic Z-matrix:
 Charge =  0 Multiplicity = 1

 SCF Done:  E(RHF) =  -355.482262333     A.U. after   16 cycles
 Normal termination of Gaussian 16 at Tue Apr  8 21:12:21 2025.
 Gaussian 16:  ES64L-G16RevC.01  3-Jul-2019

 ----------------------------------------------------------------------
 #t hf aug-cc-pvdz iop(5/13=1,5/36=2,99/5=2) pseudo=read geom=check gue
 ss=(read,tcheck) scf=(maxcycle=1)
 ----------------------------------------------------------------------
 -----
 title
 -----
 Structure from the checkpoint file:  "ANI1ccx_1871_conf1_mol1.chk"
 Charge =  0 Multiplicity = 1

                         Standard orientation:
 ---------------------------------------------------------------------
 Center     Atomic      Atomic             Coordinates (Angstroms)
 Number     Number       Type             X           Y           Z
 ---------------------------------------------------------------------
      1          1           0       -1.705999    0.097538    1.175080
      2          1           0       -2.072949   -0.332885   -1.133750
      3          1           0        2.892820    1.183831   -0.019993
      4          7           0        1.933361   -0.350017    0.380463
      5          8           0       -1.993940    0.669920    0.436379
      6          8           0       -2.671889   -0.284876   -0.391780
      7          8           0        2.128950    0.734750   -0.420151
      8          8           0        0.955954   -0.932091    0.039979
 ---------------------------------------------------------------------

 SCF Done:  E(RHF) =  -356.913870224     A.U. after    2 cycles

 The electronic state is 1-A.
 Alpha  occ. eigenvalues --  -21.15626 -21.15067 -21.11556 -21.11143 -15.94516
 Alpha  occ. eigenvalues --   -1.99364  -1.92106  -1.72229  -1.39282  -0.96974
 Alpha  occ. eigenvalues --   -0.73662  -0.62496  -0.61668  -0.60898  -0.60427
 Alpha  occ. eigenvalues --   -0.49119  -0.46207  -0.37648  -0.34688  -0.31849
 Alpha  occ. eigenvalues --   -0.30718
 Alpha virt. eigenvalues --    0.03743   0.06335   0.06699   0.11960   0.12426
 Alpha virt. eigenvalues --    0.13812   0.15203   0.17291   0.18444   0.19641
 Alpha virt. eigenvalues --    0.20055   0.20974   0.21550   0.22555   0.23596

 Mulliken charges:
               1
     1  H    0.939304
     2  H    0.959591
     3  H    0.909352
     4  N    2.679607
     5  O   -0.894092
     6  O   -1.009336
     7  O   -2.038915
     8  O   -1.545512
 Sum of Mulliken charges =  -0.00000

 Dipole moment (field-independent basis, Debye):
    X=              1.6590    Y=              0.5439    Z=             -0.3114  Tot=              1.7735

 Test job not archived.
 1\1\GINC-SE328\SP\RHF\Aug-CC-pVDZ\H3N1O4\OHZDE\08-Apr-2025\0\\#t hf au
 g-cc-pvdz iop(5/13=1,5/36=2,99/5=2) pseudo=read geom=check guess=(read
 ,tcheck) scf=(maxcycle=1)\\title\\0,1\H,0,-1.706,0.0975383,1.17508\H,0
 ,-2.07295,-0.332884,-1.13375\H,0,2.89282,1.18383,-0.0199929\N,0,1.9333
 6,-0.350017,0.380463\O,0,-1.99394,0.669921,0.436379\O,0,-2.67189,-0.28
 4875,-0.39178\O,0,2.12895,0.73475,-0.420151\O,0,0.955953,-0.932091,0.0
 399783\\Version=ES64L-G16RevC.01\State=1-A\HF=-356.9138702\RMSD=4.847e
 -02\Dipole=0.6527125,0.2139841,-0.1225276\Quadrupole=-0.8866939,-0.516

 Normal termination of Gaussian 16 at Tue Apr  8 21:12:22 2025.
