 Gaussian 16, Revision C.01,

 ----------------------------------------------------------------------
 #t hf aug-cc-pvdz symm=none int=(grid=ultrafine) guess=(read,tcheck) s
 table=(opt,rrhf)
 ----------------------------------------------------------------------
 -----
 title
 -----
 Symbolic Z-matrix:
 Charge =  0 Multiplicity = 1

 SCF Done:  E(RHF) =  -396.766117683     A.U. after   14 cycles
 Normal termination of Gaussian 16 at Tue Apr  8 21:55:16 2025.
 Gaussian 16:  ES64L-G16RevC.01  3-Jul-2019

 ----------------------------------------------------------------------
 #t hf aug-cc-pvdz iop(5/13=1,5/36=2,99/5=2) pseudo=read geom=check gue
 ss=(read,tcheck) scf=(maxcycle=1)
 ----------------------------------------------------------------------
 -----
 title
 -----
 Structure from the checkpoint file:  "ANI1ccx_744_conf18_mol1.chk"
 Charge =  0 Multiplicity = 1

                         Standard orientation:
 ---------------------------------------------------------------------
 Center     Atomic      Atomic             Coordinates (Angstroms)
 Number     Number       Type             X           Y           Z
 ---------------------------------------------------------------------
      1          6           0        0.198754    0.750881   -0.393408
      2          6           0       -1.141980   -0.078237   -0.071207
      3          6           0        1.250190   -0.184079   -0.923978
      4          1           0        0.961454    0.830398    1.505300
      5          1           0        0.159707    2.200180    1.137780
      6          1           0       -0.084452    1.508130   -1.197070
      7          1           0        0.862746   -0.796899   -1.732160
      8          1           0        2.220060    0.316388   -1.154390
      9          1           0        2.144220   -1.708119   -0.073768
     10          1           0       -0.100148   -0.938920    1.170040
     11          7           0        0.762901    1.495990    0.737617
     12          8           0       -2.172690    0.078474   -0.680768
     13          8           0        1.561650   -0.977044    0.153388
     14          8           0       -1.057170   -0.953240    0.966443
 ---------------------------------------------------------------------

 SCF Done:  E(RHF) =  -398.493284945     A.U. after    2 cycles

 The electronic state is 1-A.
 Alpha  occ. eigenvalues --  -21.11207 -21.09926 -21.04811 -15.75462 -11.52030
 Alpha  occ. eigenvalues --  -11.48101 -11.42313  -1.81673  -1.77074  -1.64723
 Alpha  occ. eigenvalues --   -1.35134  -1.08992  -0.91537  -0.78122  -0.74268
 Alpha  occ. eigenvalues --   -0.71594  -0.63351  -0.62893  -0.57842  -0.54604
 Alpha  occ. eigenvalues --   -0.51342  -0.49259  -0.48506  -0.43084  -0.39642
 Alpha  occ. eigenvalues --   -0.35921  -0.32131  -0.27300
 Alpha virt. eigenvalues --    0.03158   0.04641   0.05049   0.05573   0.05882
 Alpha virt. eigenvalues --    0.06306   0.07990   0.10386   0.11152   0.12419
 Alpha virt. eigenvalues --    0.13408   0.13755   0.14819   0.15806   0.15972

 Mulliken charges:
               1
     1  C   -1.122358
     2  C    6.090164
     3  C   -1.061497
     4  H    0.523809
     5  H    0.651034
     6  H    1.588939
     7  H    1.528358
     8  H    1.368550
     9  H    0.869285
    10  H    1.400324
    11  N   -2.694440
    12  O   -3.237968
    13  O   -2.718696
    14  O   -3.185504
 Sum of Mulliken charges =   0.00000

 Dipole moment (field-independent basis, Debye):
    X=              2.5523    Y=             -0.5041    Z=              0.4248  Tot=              2.6360

 Test job not archived.
 1\1\GINC-SE334\SP\RHF\Aug-CC-pVDZ\C3H7N1O3\OHZDE\08-Apr-2025\0\\#t hf
 aug-cc-pvdz iop(5/13=1,5/36=2,99/5=2) pseudo=read geom=check guess=(re
 ad,tcheck) scf=(maxcycle=1)\\title\\0,1\C,0,0.198754,0.750881,-0.39340
 8\C,0,-1.14198,-0.0782362,-0.0712073\C,0,1.25019,-0.184079,-0.923978\H
 ,0,0.961454,0.830398,1.5053\H,0,0.159708,2.20018,1.13778\H,0,-0.084451
 6,1.50813,-1.19707\H,0,0.862746,-0.796899,-1.73216\H,0,2.22006,0.31638
 7,-1.15439\H,0,2.14422,-1.70812,-0.0737679\H,0,-0.100148,-0.93892,1.17
 004\N,0,0.762902,1.49599,0.737617\O,0,-2.17269,0.0784743,-0.680768\O,0

 Normal termination of Gaussian 16 at Tue Apr  8 21:55:20 2025.
