 Gaussian 16, Revision C.01,

 ----------------------------------------------------------------------
 #t hf aug-cc-pvdz symm=none int=(grid=ultrafine) guess=(read,tcheck) s
 table=(opt,rrhf)
 ----------------------------------------------------------------------
 -----
 title
 -----
 Symbolic Z-matrix:
 Charge =  0 Multiplicity = 1

 SCF Done:  E(RHF) =  -560.063930419     A.U. after   14 cycles
 Normal termination of Gaussian 16 at Tue Apr  8 21:44:00 2025.
 Gaussian 16:  ES64L-G16RevC.01  3-Jul-2019

 ----------------------------------------------------------------------
 #t hf aug-cc-pvdz iop(5/13=1,5/36=2,99/5=2) pseudo=read geom=check gue
 ss=(read,tcheck) scf=(maxcycle=1)
 ----------------------------------------------------------------------
 -----
 title
 -----
 Structure from the checkpoint file:  "ANI1ccx_485_conf1_mol2.chk"
 Charge =  0 Multiplicity = 1

                         Standard orientation:
 ---------------------------------------------------------------------
 Center     Atomic      Atomic             Coordinates (Angstroms)
 Number     Number       Type             X           Y           Z
 ---------------------------------------------------------------------
      1          6           0       -1.112029   -0.686063   -0.171065
      2          6           0        1.107241   -0.709750    0.152885
      3          1           0        1.770531    2.128371    0.240685
      4          1           0       -1.730829    1.322431    1.126900
      5          7           0        0.644402    0.626081    0.303838
      6          7           0       -0.633244    0.651363   -0.290144
      7          8           0        1.497841    1.482201   -0.423723
      8          8           0       -1.474299    1.610061    0.231268
      9          8           0       -2.254529   -1.052449   -0.083465
     10          8           0       -0.012098   -1.468229   -0.061630
     11          8           0        2.231951   -1.073839    0.168254
 ---------------------------------------------------------------------

 SCF Done:  E(RHF) =  -562.338521401     A.U. after    2 cycles

 The electronic state is 1-A.
 Alpha  occ. eigenvalues --  -21.18434 -21.15826 -21.15364 -21.11286 -21.10952
 Alpha  occ. eigenvalues --  -15.86499 -15.85811 -11.60440 -11.58053  -1.99657
 Alpha  occ. eigenvalues --   -1.87276  -1.83989  -1.76435  -1.71844  -1.43428
 Alpha  occ. eigenvalues --   -1.16668  -0.91358  -0.89207  -0.78044  -0.73705
 Alpha  occ. eigenvalues --   -0.67854  -0.63854  -0.61408  -0.59253  -0.56771
 Alpha  occ. eigenvalues --   -0.54731  -0.50578  -0.46737  -0.42321  -0.42016
 Alpha  occ. eigenvalues --   -0.37799  -0.36164  -0.34262  -0.33260
 Alpha virt. eigenvalues --    0.03625   0.04853   0.08194   0.09576   0.10255
 Alpha virt. eigenvalues --    0.10625   0.11699   0.12017   0.12178   0.13258
 Alpha virt. eigenvalues --    0.13392   0.13749   0.16494   0.16976   0.18003

 Mulliken charges:
               1
     1  C    5.727527
     2  C    5.693515
     3  H    0.757678
     4  H    0.628768
     5  N    0.241385
     6  N    1.123234
     7  O   -2.371978
     8  O   -2.608030
     9  O   -3.104762
    10  O   -2.965169
    11  O   -3.122166
 Sum of Mulliken charges =   0.00000

 Dipole moment (field-independent basis, Debye):
    X=              0.2786    Y=              1.8496    Z=              0.9266  Tot=              2.0874

 Test job not archived.
 1\1\GINC-SE247\SP\RHF\Aug-CC-pVDZ\C2H2N2O5\OHZDE\08-Apr-2025\0\\#t hf
 aug-cc-pvdz iop(5/13=1,5/36=2,99/5=2) pseudo=read geom=check guess=(re
 ad,tcheck) scf=(maxcycle=1)\\title\\0,1\C,0,-1.11203,-0.686064,-0.1710
 65\C,0,1.10724,-0.709751,0.152885\H,0,1.77053,2.12837,0.240685\H,0,-1.
 73083,1.32243,1.1269\N,0,0.644401,0.62608,0.303838\N,0,-0.633245,0.651
 362,-0.290144\O,0,1.49784,1.4822,-0.423723\O,0,-1.4743,1.61006,0.23126
 8\O,0,-2.25453,-1.05245,-0.0834652\O,0,-0.0120985,-1.46823,-0.06163\O,
 0,2.23195,-1.07384,0.168254\\Version=ES64L-G16RevC.01\State=1-A\HF=-56

 Normal termination of Gaussian 16 at Tue Apr  8 21:44:05 2025.
