 Gaussian 16, Revision C.01,

 ----------------------------------------------------------------------
 #t hf aug-cc-pvdz symm=none int=(grid=ultrafine) guess=(read,tcheck) s
 table=(opt,rrhf)
 ----------------------------------------------------------------------
 -----
 title
 -----
 Symbolic Z-matrix:
 Charge =  0 Multiplicity = 1

 SCF Done:  E(RHF) =  -555.305299479     A.U. after   16 cycles
 Normal termination of Gaussian 16 at Tue Apr  8 22:08:55 2025.
 Gaussian 16:  ES64L-G16RevC.01  3-Jul-2019

 ----------------------------------------------------------------------
 #t hf aug-cc-pvdz iop(5/13=1,5/36=2,99/5=2) pseudo=read geom=check gue
 ss=(read,tcheck) scf=(maxcycle=1)
 ----------------------------------------------------------------------
 -----
 title
 -----
 Structure from the checkpoint file:  "ANI1ccx_886_conf18_mol1.chk"
 Charge =  0 Multiplicity = 1

                         Standard orientation:
 ---------------------------------------------------------------------
 Center     Atomic      Atomic             Coordinates (Angstroms)
 Number     Number       Type             X           Y           Z
 ---------------------------------------------------------------------
      1          6           0        1.314821   -0.703076   -0.061687
      2          6           0       -0.925582   -0.680124    0.005957
      3          6           0       -0.966052    0.714953   -0.101993
      4          6           0        1.295891    0.698394    0.038784
      5          1           0        3.050671   -1.046992    0.728292
      6          1           0        2.379920   -2.343932    0.014062
      7          1           0        3.083572    1.013438   -0.690718
      8          1           0        2.480512    2.354658    0.132718
      9          7           0        2.533450   -1.327722   -0.107688
     10          7           0        0.230931   -1.425771    0.038113
     11          7           0       -2.143580   -1.132029   -0.010050
     12          7           0       -2.192288    1.119741   -0.057131
     13          7           0        0.176761    1.444129   -0.014259
     14          7           0        2.519292    1.342378    0.121509
     15          8           0       -2.897639   -0.037891    0.091978
 ---------------------------------------------------------------------

 SCF Done:  E(RHF) =  -557.761508626     A.U. after    2 cycles

 The electronic state is 1-A.
 Alpha  occ. eigenvalues --  -21.15294 -15.80492 -15.80228 -15.80017 -15.79761
 Alpha  occ. eigenvalues --  -15.78240 -15.77732 -11.57195 -11.49427 -11.47935
 Alpha  occ. eigenvalues --  -11.42987  -1.98965  -1.58333  -1.43361  -1.40386
 Alpha  occ. eigenvalues --   -1.35578  -1.25416  -1.22632  -1.01234  -0.89265
 Alpha  occ. eigenvalues --   -0.88709  -0.78046  -0.72220  -0.70148  -0.68684
 Alpha  occ. eigenvalues --   -0.66878  -0.65528  -0.61655  -0.55187  -0.53698
 Alpha  occ. eigenvalues --   -0.52799  -0.49231  -0.46206  -0.45036  -0.44108
 Alpha  occ. eigenvalues --   -0.41488  -0.36788  -0.34170  -0.31471
 Alpha virt. eigenvalues --    0.02871   0.04087   0.05392   0.05766   0.06719
 Alpha virt. eigenvalues --    0.07799   0.09526   0.09956   0.10308   0.11724
 Alpha virt. eigenvalues --    0.12277   0.13026   0.13155   0.13443   0.14886

 Mulliken charges:
               1
     1  C    5.018586
     2  C    3.879776
     3  C    4.137701
     4  C    4.240277
     5  H    0.501689
     6  H    0.713093
     7  H    0.466061
     8  H    0.780007
     9  N   -3.513951
    10  N   -3.764507
    11  N   -1.293264
    12  N   -1.491491
    13  N   -3.687321
    14  N   -3.502361
    15  O   -2.484294
 Sum of Mulliken charges =   0.00000

 Dipole moment (field-independent basis, Debye):
    X=              4.4744    Y=             -0.0182    Z=              0.2040  Tot=              4.4790

 Test job not archived.
 1\1\GINC-SE187\SP\RHF\Aug-CC-pVDZ\C4H4N6O1\OHZDE\08-Apr-2025\0\\#t hf
 aug-cc-pvdz iop(5/13=1,5/36=2,99/5=2) pseudo=read geom=check guess=(re
 ad,tcheck) scf=(maxcycle=1)\\title\\0,1\C,0,1.31482,-0.703075,-0.06168
 68\C,0,-0.925583,-0.680124,0.00595655\C,0,-0.966053,0.714953,-0.101993
 \C,0,1.29589,0.698395,0.0387836\H,0,3.05067,-1.04699,0.728292\H,0,2.37
 992,-2.34393,0.0140619\H,0,3.08357,1.01344,-0.690718\H,0,2.48051,2.354
 66,0.132718\N,0,2.53345,-1.32772,-0.107688\N,0,0.230931,-1.42577,0.038
 1132\N,0,-2.14358,-1.13203,-0.0100502\N,0,-2.19229,1.11974,-0.0571311\

 Normal termination of Gaussian 16 at Tue Apr  8 22:09:03 2025.
