 Gaussian 16, Revision C.01,

 ----------------------------------------------------------------------
 #t hf aug-cc-pvdz symm=none int=(grid=ultrafine) guess=(read,tcheck) s
 table=(opt,rrhf)
 ----------------------------------------------------------------------
 -----
 title
 -----
 Symbolic Z-matrix:
 Charge =  0 Multiplicity = 1

 SCF Done:  E(RHF) =  -276.589964944     A.U. after   14 cycles
 Normal termination of Gaussian 16 at Tue Apr  8 21:30:29 2025.
 Gaussian 16:  ES64L-G16RevC.01  3-Jul-2019

 ----------------------------------------------------------------------
 #t hf aug-cc-pvdz iop(5/13=1,5/36=2,99/5=2) pseudo=read geom=check gue
 ss=(read,tcheck) scf=(maxcycle=1)
 ----------------------------------------------------------------------
 -----
 title
 -----
 Structure from the checkpoint file:  "ANI1ccx_370_conf42_mol1.chk"
 Charge =  0 Multiplicity = 1

                         Standard orientation:
 ---------------------------------------------------------------------
 Center     Atomic      Atomic             Coordinates (Angstroms)
 Number     Number       Type             X           Y           Z
 ---------------------------------------------------------------------
      1          6           0        1.067030   -0.047694    0.024195
      2          1           0        2.084979   -0.279854   -0.001127
      3          7           0        0.476677    1.095358    0.008636
      4          7           0       -0.912247    0.715637   -0.037622
      5          7           0       -1.031342   -0.512683    0.049524
      6          8           0        0.222653   -1.065271   -0.035976
 ---------------------------------------------------------------------

 SCF Done:  E(RHF) =  -277.758378482     A.U. after    2 cycles

 The electronic state is 1-A.
 Alpha  occ. eigenvalues --  -21.17901 -15.86560 -15.83926 -15.79644 -11.50248
 Alpha  occ. eigenvalues --   -2.00161  -1.53619  -1.35225  -0.92231  -0.90599
 Alpha  occ. eigenvalues --   -0.76025  -0.70126  -0.59880  -0.50435  -0.46891
 Alpha  occ. eigenvalues --   -0.45052  -0.41816  -0.41187
 Alpha virt. eigenvalues --    0.03157   0.09048   0.09334   0.09910   0.13126
 Alpha virt. eigenvalues --    0.13547   0.14424   0.14924   0.15827   0.17189
 Alpha virt. eigenvalues --    0.18527   0.20183   0.20647   0.22709   0.24706

 Mulliken charges:
               1
     1  C    1.525806
     2  H    1.615360
     3  N   -1.919697
     4  N    0.691159
     5  N    0.605196
     6  O   -2.517824
 Sum of Mulliken charges =   0.00000

 Dipole moment (field-independent basis, Debye):
    X=              2.4767    Y=             -1.8179    Z=             -0.0416  Tot=              3.0726

 Test job not archived.
 1\1\GINC-SE250\SP\RHF\Aug-CC-pVDZ\C1H1N3O1\OHZDE\08-Apr-2025\0\\#t hf
 aug-cc-pvdz iop(5/13=1,5/36=2,99/5=2) pseudo=read geom=check guess=(re
 ad,tcheck) scf=(maxcycle=1)\\title\\0,1\C,0,1.06703,-0.0476897,0.02419
 48\H,0,2.08498,-0.279845,-0.00112692\N,0,0.476672,1.09536,0.0086361\N,
 0,-0.912251,0.715633,-0.0376224\N,0,-1.03134,-0.512688,0.0495239\O,0,0
 .222657,-1.06527,-0.0359757\\Version=ES64L-G16RevC.01\State=1-A\HF=-27
 7.7583785\RMSD=9.553e-02\Dipole=0.974431,-0.7152036,-0.0163826\Quadrup
 ole=1.6320079,-2.4284314,0.7964235,-1.1055414,0.0281546,0.0344825\PG=C

 Normal termination of Gaussian 16 at Tue Apr  8 21:30:31 2025.
