 Gaussian 16, Revision C.01,

 ----------------------------------------------------------------------
 #t hf aug-cc-pvdz symm=none int=(grid=ultrafine) guess=(read,tcheck) s
 table=(opt,rrhf)
 ----------------------------------------------------------------------
 -----
 title
 -----
 Symbolic Z-matrix:
 Charge =  0 Multiplicity = 1

 SCF Done:  E(RHF) =  -905.376291577     A.U. after   15 cycles
 Normal termination of Gaussian 16 at Tue Apr  8 22:07:01 2025.
 Gaussian 16:  ES64L-G16RevC.01  3-Jul-2019

 ----------------------------------------------------------------------
 #t hf aug-cc-pvdz iop(5/13=1,5/36=2,99/5=2) pseudo=read geom=check gue
 ss=(read,tcheck) scf=(maxcycle=1)
 ----------------------------------------------------------------------
 -----
 title
 -----
 Structure from the checkpoint file:  "ANI1ccx_56_conf15_mol2.chk"
 Charge =  0 Multiplicity = 1

                         Standard orientation:
 ---------------------------------------------------------------------
 Center     Atomic      Atomic             Coordinates (Angstroms)
 Number     Number       Type             X           Y           Z
 ---------------------------------------------------------------------
      1          6           0       -2.026660   -0.178516    0.526136
      2          6           0        3.599869   -1.745123    0.749607
      3          6           0        2.064880   -0.896249   -0.634043
      4          6           0        1.112191    0.130872   -1.200490
      5          6           0        1.472633    2.397169    0.115722
      6          6           0        2.086988   -2.246112   -0.848365
      7          6           0       -3.060901   -1.616477   -1.390590
      8          6           0       -3.137491   -1.118057    0.039478
      9          6           0       -1.935758    1.117632   -0.232472
     10          6           0        0.601626    1.115970   -0.059235
     11          1           0        0.592741    0.575811    0.897893
     12          1           0        2.763932    1.175578    0.771384
     13          1           0        3.335077   -3.713123    0.050983
     14          1           0        4.281959   -1.822224    1.566690
     15          1           0        1.457478   -2.885611   -1.456040
     16          1           0        1.468431    0.660259   -2.066420
     17          1           0        0.220685   -0.324901   -1.532100
     18          1           0       -0.719010    2.521461   -0.942594
     19          1           0       -3.884952   -2.287416   -1.550830
     20          1           0       -3.196620   -0.774874   -2.046100
     21          1           0       -3.048571   -1.971387    1.817100
     22          1           0       -4.116410   -0.630149    0.094143
     23          1           0       -1.110890   -0.779538    0.448203
     24          1           0       -3.021009    0.767208    2.071920
     25          1           0       -1.491699    0.285751    2.515540
     26          1           0       -2.089972   -2.123788   -1.514890
     27          7           0       -2.291749    0.064655    1.933690
     28          7           0       -0.723781    1.663881   -0.390214
     29          7           0        3.011770   -0.584394    0.356751
     30          7           0        3.099788   -2.734313   -0.002116
     31          8           0        1.072964    3.462659   -0.223523
     32          8           0       -2.933088    1.706973   -0.641563
     33          8           0       -3.040322   -2.258787    0.866504
     34          8           0        2.678243    2.175588    0.647817
 ---------------------------------------------------------------------

 SCF Done:  E(RHF) =  -909.464763083     A.U. after    2 cycles

 The electronic state is 1-A.
 Alpha  occ. eigenvalues --  -21.09860 -21.04881 -21.04432 -21.01318 -15.84124
 Alpha  occ. eigenvalues --  -15.75657 -15.75467 -15.74935 -11.54416 -11.53186
 Alpha  occ. eigenvalues --  -11.51709 -11.50018 -11.47750 -11.47533 -11.45745
 Alpha  occ. eigenvalues --  -11.42875 -11.41865 -11.37142  -1.81730  -1.71879
 Alpha  occ. eigenvalues --   -1.68710  -1.66036  -1.59090  -1.41403  -1.34685
 Alpha  occ. eigenvalues --   -1.29884  -1.19011  -1.13345  -1.09735  -1.02028
 Alpha  occ. eigenvalues --   -0.98676  -0.89222  -0.86937  -0.82069  -0.79245
 Alpha  occ. eigenvalues --   -0.78527  -0.78290  -0.72670  -0.70031  -0.67273
 Alpha  occ. eigenvalues --   -0.64826  -0.64131  -0.63190  -0.62387  -0.61919
 Alpha  occ. eigenvalues --   -0.60453  -0.59461  -0.57107  -0.56208  -0.54444
 Alpha  occ. eigenvalues --   -0.53059  -0.51791  -0.50953  -0.49685  -0.49277
 Alpha  occ. eigenvalues --   -0.46646  -0.45545  -0.45174  -0.39874  -0.39688
 Alpha  occ. eigenvalues --   -0.39030  -0.36990  -0.34545  -0.33360  -0.32107
 Alpha  occ. eigenvalues --   -0.29749  -0.29234  -0.26412
 Alpha virt. eigenvalues --    0.02068   0.03403   0.03813   0.04594   0.05599
 Alpha virt. eigenvalues --    0.05839   0.06178   0.06352   0.06665   0.07491
 Alpha virt. eigenvalues --    0.07735   0.08103   0.08383   0.08888   0.09253

 Mulliken charges:
               1
     1  C   -0.485721
     2  C    0.285150
     3  C    4.777375
     4  C   -3.955490
     5  C    6.599569
     6  C   -2.343909
     7  C   -4.078190
     8  C    0.423230
     9  C    6.886791
    10  C   -1.735985
    11  H    2.523194
    12  H    1.571789
    13  H    0.900953
    14  H    1.830241
    15  H    1.232720
    16  H    1.418172
    17  H    2.189985
    18  H    0.763226
    19  H    1.019732
    20  H    1.306354
    21  H    0.866599
    22  H    1.760100
    23  H    1.963746
    24  H    0.622201
    25  H    0.637429
    26  H    1.411336
    27  N   -3.238383
    28  N   -3.651685
    29  N   -3.556087
    30  N   -3.382592
    31  O   -3.384924
    32  O   -4.275911
    33  O   -3.304572
    34  O   -3.596445
 Sum of Mulliken charges =   0.00000

 Dipole moment (field-independent basis, Debye):
    X=              4.2740    Y=             -6.0383    Z=              0.8501  Tot=              7.4466

 Test job not archived.
 1\1\GINC-SE110\SP\RHF\Aug-CC-pVDZ\C10H16N4O4\OHZDE\08-Apr-2025\0\\#t h
 f aug-cc-pvdz iop(5/13=1,5/36=2,99/5=2) pseudo=read geom=check guess=(
 read,tcheck) scf=(maxcycle=1)\\title\\0,1\C,0,-2.02666,-0.178518,0.526
 136\C,0,3.59987,-1.74512,0.749607\C,0,2.06488,-0.896247,-0.634043\C,0,
 1.11219,0.130873,-1.20049\C,0,1.47263,2.39717,0.115722\C,0,2.08699,-2.
 24611,-0.848365\C,0,-3.0609,-1.61648,-1.39059\C,0,-3.13749,-1.11806,0.
 0394779\C,0,-1.93576,1.11763,-0.232472\C,0,0.601624,1.11597,-0.0592351
 \H,0,0.59274,0.575811,0.897893\H,0,2.76393,1.17558,0.771384\H,0,3.3350

 Normal termination of Gaussian 16 at Tue Apr  8 22:07:56 2025.
