 Gaussian 16, Revision C.01,

 ----------------------------------------------------------------------
 #t hf aug-cc-pvdz symm=none int=(grid=ultrafine) guess=(read,tcheck) s
 table=(opt,rrhf)
 ----------------------------------------------------------------------
 -----
 title
 -----
 Symbolic Z-matrix:
 Charge =  0 Multiplicity = 1

 SCF Done:  E(RHF) =  -541.237809931     A.U. after   16 cycles
 Normal termination of Gaussian 16 at Tue Apr  8 22:04:23 2025.
 Gaussian 16:  ES64L-G16RevC.01  3-Jul-2019

 ----------------------------------------------------------------------
 #t hf aug-cc-pvdz iop(5/13=1,5/36=2,99/5=2) pseudo=read geom=check gue
 ss=(read,tcheck) scf=(maxcycle=1)
 ----------------------------------------------------------------------
 -----
 title
 -----
 Structure from the checkpoint file:  "ANI1ccx_869_conf13_mol1.chk"
 Charge =  0 Multiplicity = 1

                         Standard orientation:
 ---------------------------------------------------------------------
 Center     Atomic      Atomic             Coordinates (Angstroms)
 Number     Number       Type             X           Y           Z
 ---------------------------------------------------------------------
      1          6           0        1.275981    0.057230   -0.082729
      2          6           0        0.397420    1.302949   -0.055460
      3          6           0       -1.746540   -0.060481    0.030500
      4          6           0        0.557387   -1.267672   -0.019220
      5          1           0        3.096699   -0.542241    0.038296
      6          1           0       -1.562464    1.968735    0.499853
      7          1           0       -1.330416   -2.062446   -0.221032
      8          7           0        2.544391    0.274266   -0.134219
      9          7           0       -1.091726    1.142893    0.107061
     10          7           0       -0.862459   -1.211497   -0.093023
     11          8           0        0.771642    2.428608    0.048713
     12          8           0       -2.896080   -0.258774   -0.084190
     13          8           0        1.219344   -2.294314    0.196178
 ---------------------------------------------------------------------

 SCF Done:  E(RHF) =  -543.522430319     A.U. after    2 cycles

 The electronic state is 1-A.
 Alpha  occ. eigenvalues --  -21.09941 -21.09283 -21.08112 -15.82743 -15.82440
 Alpha  occ. eigenvalues --  -15.81822 -11.58395 -11.57239 -11.56874 -11.49600
 Alpha  occ. eigenvalues --   -1.79230  -1.77435  -1.74215  -1.46075  -1.38805
 Alpha  occ. eigenvalues --   -1.36037  -1.07556  -0.92840  -0.91512  -0.80241
 Alpha  occ. eigenvalues --   -0.76766  -0.68506  -0.66020  -0.63109  -0.60833
 Alpha  occ. eigenvalues --   -0.56432  -0.55795  -0.55163  -0.54951  -0.46027
 Alpha  occ. eigenvalues --   -0.43013  -0.37844  -0.37613  -0.36968  -0.35106
 Alpha  occ. eigenvalues --   -0.30455
 Alpha virt. eigenvalues --    0.03226   0.03502   0.05812   0.06042   0.07853
 Alpha virt. eigenvalues --    0.09162   0.09418   0.10009   0.11170   0.12106
 Alpha virt. eigenvalues --    0.12825   0.13022   0.13415   0.13752   0.14661

 Mulliken charges:
               1
     1  C    2.417521
     2  C    4.399411
     3  C    4.507290
     4  C    4.355561
     5  H    0.781152
     6  H    0.637034
     7  H    0.589268
     8  N   -3.337799
     9  N   -2.350135
    10  N   -2.342727
    11  O   -3.304773
    12  O   -3.106140
    13  O   -3.245661
 Sum of Mulliken charges =  -0.00000

 Dipole moment (field-independent basis, Debye):
    X=              0.0519    Y=             -0.5828    Z=              0.4315  Tot=              0.7270

 Test job not archived.
 1\1\GINC-SE110\SP\RHF\Aug-CC-pVDZ\C4H3N3O3\OHZDE\08-Apr-2025\0\\#t hf
 aug-cc-pvdz iop(5/13=1,5/36=2,99/5=2) pseudo=read geom=check guess=(re
 ad,tcheck) scf=(maxcycle=1)\\title\\0,1\C,0,1.27598,0.057234,-0.082728
 7\C,0,0.397416,1.30295,-0.0554605\C,0,-1.74654,-0.0604861,0.0305004\C,
 0,0.55739,-1.26767,-0.0192202\H,0,3.0967,-0.542232,0.038296\H,0,-1.562
 47,1.96873,0.499853\H,0,-1.33041,-2.06245,-0.221032\N,0,2.54439,0.2742
 73,-0.134219\N,0,-1.09173,1.14289,0.107061\N,0,-0.862456,-1.2115,-0.09
 30226\O,0,0.771634,2.42861,0.0487125\O,0,-2.89608,-0.258783,-0.0841904

 Normal termination of Gaussian 16 at Tue Apr  8 22:04:28 2025.
