 Gaussian 16, Revision C.01,

 ----------------------------------------------------------------------
 #t hf aug-cc-pvdz symm=none int=(grid=ultrafine) guess=(read,tcheck) s
 table=(opt,rrhf)
 ----------------------------------------------------------------------
 -----
 title
 -----
 Symbolic Z-matrix:
 Charge =  0 Multiplicity = 1

 SCF Done:  E(RHF) =  -479.983997274     A.U. after   19 cycles
 Normal termination of Gaussian 16 at Tue Apr  8 21:42:14 2025.
 Gaussian 16:  ES64L-G16RevC.01  3-Jul-2019

 ----------------------------------------------------------------------
 #t hf aug-cc-pvdz iop(5/13=1,5/36=2,99/5=2) pseudo=read geom=check gue
 ss=(read,tcheck) scf=(maxcycle=1)
 ----------------------------------------------------------------------
 -----
 title
 -----
 Structure from the checkpoint file:  "ANI1ccx_456_conf27_mol1.chk"
 Charge =  0 Multiplicity = 1

                         Standard orientation:
 ---------------------------------------------------------------------
 Center     Atomic      Atomic             Coordinates (Angstroms)
 Number     Number       Type             X           Y           Z
 ---------------------------------------------------------------------
      1          6           0        0.003524   -0.006012   -0.227593
      2          7           0        1.371730   -0.066544   -0.142533
      3          7           0       -0.563386    1.130770    0.240628
      4          7           0       -1.993121    0.682027    0.265924
      5          7           0       -2.098110   -0.496474   -0.000177
      6          8           0        1.753770   -1.152699    0.495835
      7          8           0        1.936089    1.084541   -0.233482
      8          8           0       -0.819976   -1.020890   -0.410020
 ---------------------------------------------------------------------

 SCF Done:  E(RHF) =  -481.975652088     A.U. after    2 cycles

 The electronic state is 1-A.
 Alpha  occ. eigenvalues --  -21.21708 -21.17496 -21.16161 -16.05484 -15.91436
 Alpha  occ. eigenvalues --  -15.88561 -15.85347 -11.58225  -2.02555  -1.96242
 Alpha  occ. eigenvalues --   -1.72650  -1.57912  -1.40446  -1.17545  -0.94989
 Alpha  occ. eigenvalues --   -0.85501  -0.77918  -0.75616  -0.68432  -0.65838
 Alpha  occ. eigenvalues --   -0.64806  -0.55828  -0.51188  -0.49395  -0.44363
 Alpha  occ. eigenvalues --   -0.43833  -0.40187  -0.36653  -0.35558
 Alpha virt. eigenvalues --    0.03501   0.07297   0.09855   0.10305   0.10595
 Alpha virt. eigenvalues --    0.11946   0.12576   0.12756   0.13138   0.14930
 Alpha virt. eigenvalues --    0.15960   0.16960   0.17702   0.18806   0.20428

 Mulliken charges:
               1
     1  C    5.192555
     2  N    2.231716
     3  N   -1.901782
     4  N    0.748686
     5  N    0.530534
     6  O   -2.026180
     7  O   -2.309778
     8  O   -2.465751
 Sum of Mulliken charges =  -0.00000

 Dipole moment (field-independent basis, Debye):
    X=              0.5696    Y=             -1.2640    Z=             -0.5932  Tot=              1.5080

 Test job not archived.
 1\1\GINC-SE150\SP\RHF\Aug-CC-pVDZ\C1N4O3\OHZDE\08-Apr-2025\0\\#t hf au
 g-cc-pvdz iop(5/13=1,5/36=2,99/5=2) pseudo=read geom=check guess=(read
 ,tcheck) scf=(maxcycle=1)\\title\\0,1\C,0,0.00352402,-0.0060117,-0.227
 593\N,0,1.37173,-0.0665447,-0.142533\N,0,-0.563385,1.13077,0.240628\N,
 0,-1.99312,0.682028,0.265924\N,0,-2.09811,-0.496473,-0.00017688\O,0,1.
 75377,-1.1527,0.495835\O,0,1.93609,1.08454,-0.233482\O,0,-0.819976,-1.
 02089,-0.41002\\Version=ES64L-G16RevC.01\State=1-A\HF=-481.9756521\RMS
 D=8.152e-02\Dipole=0.224109,-0.4972806,-0.2334017\Quadrupole=-2.065936

 Normal termination of Gaussian 16 at Tue Apr  8 21:42:17 2025.
