 Gaussian 16, Revision C.01,

 ----------------------------------------------------------------------
 #t hf aug-cc-pvdz symm=none int=(grid=ultrafine) guess=(read,tcheck) s
 table=(opt,rrhf)
 ----------------------------------------------------------------------
 -----
 title
 -----
 Symbolic Z-matrix:
 Charge =  0 Multiplicity = 1

 SCF Done:  E(RHF) =  -962.275517611     A.U. after   14 cycles
 Normal termination of Gaussian 16 at Tue Apr  8 21:11:36 2025.
 Gaussian 16:  ES64L-G16RevC.01  3-Jul-2019

 ----------------------------------------------------------------------
 #t hf aug-cc-pvdz iop(5/13=1,5/36=2,99/5=2) pseudo=read geom=check gue
 ss=(read,tcheck) scf=(maxcycle=1)
 ----------------------------------------------------------------------
 -----
 title
 -----
 Structure from the checkpoint file:  "ANI1ccx_1756_conf2_mol1.chk"
 Charge =  0 Multiplicity = 1

                         Standard orientation:
 ---------------------------------------------------------------------
 Center     Atomic      Atomic             Coordinates (Angstroms)
 Number     Number       Type             X           Y           Z
 ---------------------------------------------------------------------
      1          6           0       -1.328291   -1.818260   -0.508712
      2          6           0       -0.210798   -0.852145   -0.665452
      3          6           0       -2.158550   -1.610269    0.767978
      4          6           0       -2.386310   -0.217929    1.203160
      5          6           0       -3.350010    0.552921    0.220454
      6          6           0        1.974700   -0.109880   -0.158782
      7          6           0        3.261550   -0.797407    0.214686
      8          6           0        1.678511    1.097879    0.782997
      9          6           0        0.924171    2.268520    0.164579
     10          1           0        5.107800   -0.568288   -0.014706
     11          1           0        0.899557    3.606060   -1.043510
     12          1           0        2.646721    1.569549    1.052250
     13          1           0        1.138040    0.779550    1.683460
     14          1           0        1.996110    0.260677   -1.194400
     15          1           0        1.224849   -2.019661    0.315360
     16          1           0       -2.157009    2.279711    0.289644
     17          1           0       -3.591839    2.343731   -0.699244
     18          1           0       -2.844830   -0.135018    2.237000
     19          1           0       -1.460840    0.346063    1.161130
     20          1           0       -1.701671   -2.203379    1.534560
     21          1           0       -3.172511   -2.066269    0.556443
     22          1           0       -1.936800   -1.593879   -1.394290
     23          1           0       -0.456487   -3.387820   -1.456610
     24          1           0       -1.567581   -3.838759   -0.357458
     25          7           0       -0.879960   -3.165400   -0.562434
     26          7           0       -2.951109    1.818601   -0.084561
     27          7           0        0.974385   -1.111750   -0.091117
     28          8           0       -0.328268    0.238971   -1.212580
     29          8           0       -4.321990   -0.048155   -0.275685
     30          8           0        3.373469   -1.899881    0.738027
     31          8           0       -0.113833    2.761510    0.615090
     32          8           0        1.491541    2.836249   -0.919053
     33          8           0        4.329510   -0.044070   -0.149332
 ---------------------------------------------------------------------

 SCF Done:  E(RHF) =  -966.490512629     A.U. after    2 cycles

 The electronic state is 1-A.
 Alpha  occ. eigenvalues --  -21.15381 -21.13408 -21.08725 -21.05852 -21.02569
 Alpha  occ. eigenvalues --  -21.00507 -15.76847 -15.75870 -15.74656 -11.57563
 Alpha  occ. eigenvalues --  -11.56437 -11.54614 -11.50678 -11.49555 -11.47800
 Alpha  occ. eigenvalues --  -11.44276 -11.43083 -11.38554  -1.85941  -1.83874
 Alpha  occ. eigenvalues --   -1.73102  -1.68407  -1.66823  -1.65111  -1.43741
 Alpha  occ. eigenvalues --   -1.38081  -1.32567  -1.18984  -1.17983  -1.05556
 Alpha  occ. eigenvalues --   -1.00925  -0.92217  -0.83771  -0.82060  -0.81506
 Alpha  occ. eigenvalues --   -0.77586  -0.70778  -0.69822  -0.69042  -0.67541
 Alpha  occ. eigenvalues --   -0.66165  -0.65285  -0.64918  -0.63366  -0.61981
 Alpha  occ. eigenvalues --   -0.60997  -0.59750  -0.57286  -0.56565  -0.54763
 Alpha  occ. eigenvalues --   -0.52155  -0.51447  -0.50195  -0.49809  -0.48901
 Alpha  occ. eigenvalues --   -0.47721  -0.46641  -0.46023  -0.44228  -0.43473
 Alpha  occ. eigenvalues --   -0.36983  -0.36517  -0.35417  -0.34035  -0.31977
 Alpha  occ. eigenvalues --   -0.30378  -0.30099  -0.29039  -0.26675
 Alpha virt. eigenvalues --    0.03613   0.04254   0.04483   0.04519   0.05303
 Alpha virt. eigenvalues --    0.05926   0.06315   0.06611   0.06958   0.07188
 Alpha virt. eigenvalues --    0.07590   0.08483   0.08935   0.09284   0.09587

 Mulliken charges:
               1
     1  C   -1.331571
     2  C    8.959264
     3  C   -3.221871
     4  C   -4.485155
     5  C    5.883016
     6  C   -3.210342
     7  C    7.639494
     8  C   -5.371878
     9  C    7.646978
    10  H    0.995170
    11  H    0.866869
    12  H    1.606624
    13  H    1.631356
    14  H    2.294519
    15  H    0.961158
    16  H    0.952553
    17  H    0.716437
    18  H    1.244027
    19  H    2.332471
    20  H    1.283596
    21  H    1.293760
    22  H    1.655403
    23  H    0.582119
    24  H    0.747999
    25  N   -3.427016
    26  N   -3.215073
    27  N   -3.843990
    28  O   -4.180682
    29  O   -3.374493
    30  O   -3.241796
    31  O   -3.562799
    32  O   -3.427041
    33  O   -3.399108
 Sum of Mulliken charges =  -0.00000

 Dipole moment (field-independent basis, Debye):
    X=              3.6226    Y=             -0.1530    Z=             -0.6554  Tot=              3.6846

 Test job not archived.
 1\1\GINC-SE132\SP\RHF\Aug-CC-pVDZ\C9H15N3O6\OHZDE\08-Apr-2025\0\\#t hf
  aug-cc-pvdz iop(5/13=1,5/36=2,99/5=2) pseudo=read geom=check guess=(r
 ead,tcheck) scf=(maxcycle=1)\\title\\0,1\C,0,-1.32829,-1.81826,-0.5087
 12\C,0,-0.210798,-0.852145,-0.665452\C,0,-2.15855,-1.61027,0.767978\C,
 0,-2.38631,-0.21793,1.20316\C,0,-3.35001,0.55292,0.220454\C,0,1.9747,-
 0.109879,-0.158782\C,0,3.26155,-0.797406,0.214686\C,0,1.67851,1.09788,
 0.782997\C,0,0.92417,2.26852,0.164579\H,0,5.1078,-0.568286,-0.0147054\
 H,0,0.899555,3.60606,-1.04351\H,0,2.64672,1.56955,1.05225\H,0,1.13804,

 Normal termination of Gaussian 16 at Tue Apr  8 21:12:30 2025.
