 Gaussian 16, Revision C.01,

 ----------------------------------------------------------------------
 #t hf aug-cc-pvdz symm=none int=(grid=ultrafine) guess=(read,tcheck) s
 table=(opt,rrhf)
 ----------------------------------------------------------------------
 -----
 title
 -----
 Symbolic Z-matrix:
 Charge =  0 Multiplicity = 1

 SCF Done:  E(RHF) =  -565.489666571     A.U. after   15 cycles
 Normal termination of Gaussian 16 at Tue Apr  8 19:38:05 2025.
 Gaussian 16:  ES64L-G16RevC.01  3-Jul-2019

 ----------------------------------------------------------------------
 #t hf aug-cc-pvdz iop(5/13=1,5/36=2,99/5=2) pseudo=read geom=check gue
 ss=(read,tcheck) scf=(maxcycle=1)
 ----------------------------------------------------------------------
 -----
 title
 -----
 Structure from the checkpoint file:  "ANI1ccx_1346_conf1_mol2.chk"
 Charge =  0 Multiplicity = 1

                         Standard orientation:
 ---------------------------------------------------------------------
 Center     Atomic      Atomic             Coordinates (Angstroms)
 Number     Number       Type             X           Y           Z
 ---------------------------------------------------------------------
      1          6           0        2.370171   -0.039645   -0.549119
      2          6           0        1.025970    0.007796    0.156560
      3          6           0        1.286110   -0.010350    1.687090
      4          6           0        0.228091    1.224651   -0.188828
      5          6           0       -1.828890    0.009449    0.074942
      6          6           0        0.218544   -1.220089   -0.209694
      7          1           0       -1.639667   -1.971371    0.011491
      8          1           0       -1.555812    2.023119   -0.140771
      9          1           0        0.362842    0.126680    2.281370
     10          1           0        1.720182   -0.993863    2.019430
     11          1           0        2.089300    0.735471    1.996130
     12          1           0        2.214450   -0.026626   -1.633180
     13          1           0        2.950571   -0.939799   -0.285915
     14          1           0        3.011370    0.837059   -0.312254
     15          7           0       -1.091231    1.151429    0.086536
     16          7           0       -1.094638   -1.155421    0.245956
     17          8           0        0.688528    2.261991   -0.659645
     18          8           0       -3.047230    0.000138   -0.085575
     19          8           0        0.652185   -2.211329   -0.765962
 ---------------------------------------------------------------------

 SCF Done:  E(RHF) =  -567.967898849     A.U. after    2 cycles

 The electronic state is 1-A.
 Alpha  occ. eigenvalues --  -21.08250 -21.07122 -21.06652 -15.82280 -15.81661
 Alpha  occ. eigenvalues --  -11.56731 -11.56536 -11.55931 -11.47500 -11.43284
 Alpha  occ. eigenvalues --  -11.40142  -1.78322  -1.74308  -1.73821  -1.49781
 Alpha  occ. eigenvalues --   -1.38855  -1.28240  -1.03670  -1.01080  -0.93491
 Alpha  occ. eigenvalues --   -0.91883  -0.78700  -0.75607  -0.69735  -0.65601
 Alpha  occ. eigenvalues --   -0.64612  -0.60664  -0.59523  -0.58574  -0.55198
 Alpha  occ. eigenvalues --   -0.54347  -0.52998  -0.52222  -0.49374  -0.48320
 Alpha  occ. eigenvalues --   -0.45364  -0.39391  -0.35039  -0.34069  -0.33227
 Alpha  occ. eigenvalues --   -0.29672
 Alpha virt. eigenvalues --    0.03243   0.04925   0.05296   0.05571   0.05874
 Alpha virt. eigenvalues --    0.05988   0.07239   0.07428   0.08970   0.09299
 Alpha virt. eigenvalues --    0.10771   0.11280   0.12198   0.12350   0.12716

 Mulliken charges:
               1
     1  C   -4.515166
     2  C    0.061683
     3  C   -4.168800
     4  C    5.928911
     5  C    5.180047
     6  C    5.392593
     7  H    0.484531
     8  H    0.588624
     9  H    1.360115
    10  H    1.247810
    11  H    1.232664
    12  H    1.220544
    13  H    1.157652
    14  H    1.161347
    15  N   -2.844878
    16  N   -2.793549
    17  O   -3.766277
    18  O   -3.207961
    19  O   -3.719890
 Sum of Mulliken charges =  -0.00000

 Dipole moment (field-independent basis, Debye):
    X=              0.9449    Y=             -0.1579    Z=              0.9287  Tot=              1.3343

 Test job not archived.
 1\1\GINC-SE159\SP\RHF\Aug-CC-pVDZ\C6H8N2O3\OHZDE\08-Apr-2025\0\\#t hf
 aug-cc-pvdz iop(5/13=1,5/36=2,99/5=2) pseudo=read geom=check guess=(re
 ad,tcheck) scf=(maxcycle=1)\\title\\0,1\C,0,2.37017,-0.0396482,-0.5491
 19\C,0,1.02597,0.00779421,0.15656\C,0,1.28611,-0.0103524,1.68709\C,0,0
 .228092,1.22465,-0.188828\C,0,-1.82889,0.00945033,0.0749415\C,0,0.2185
 42,-1.22009,-0.209694\H,0,-1.63967,-1.97137,0.011491\H,0,-1.55581,2.02
 312,-0.140771\H,0,0.362842,0.126679,2.28137\H,0,1.72018,-0.993865,2.01
 943\H,0,2.0893,0.735468,1.99613\H,0,2.21445,-0.0266285,-1.63318\H,0,2.

 Normal termination of Gaussian 16 at Tue Apr  8 19:38:16 2025.
