 Gaussian 16, Revision C.01,

 ----------------------------------------------------------------------
 #t hf aug-cc-pvdz symm=none int=(grid=ultrafine) guess=(read,tcheck) s
 table=(opt,rrhf)
 ----------------------------------------------------------------------
 -----
 title
 -----
 Symbolic Z-matrix:
 Charge =  0 Multiplicity = 1

 SCF Done:  E(RHF) =  -908.320998875     A.U. after   15 cycles
 Normal termination of Gaussian 16 at Tue Apr  8 21:13:15 2025.
 Gaussian 16:  ES64L-G16RevC.01  3-Jul-2019

 ----------------------------------------------------------------------
 #t hf aug-cc-pvdz iop(5/13=1,5/36=2,99/5=2) pseudo=read geom=check gue
 ss=(read,tcheck) scf=(maxcycle=1)
 ----------------------------------------------------------------------
 -----
 title
 -----
 Structure from the checkpoint file:  "ANI1ccx_1761_conf39_mol1.chk"
 Charge =  0 Multiplicity = 1

                         Standard orientation:
 ---------------------------------------------------------------------
 Center     Atomic      Atomic             Coordinates (Angstroms)
 Number     Number       Type             X           Y           Z
 ---------------------------------------------------------------------
      1          6           0        1.979720   -1.021009    0.031233
      2          6           0       -3.440930    0.380740   -0.175385
      3          6           0       -2.334950    0.718461    0.898501
      4          6           0       -0.422821    1.809130   -0.227958
      5          6           0       -3.534130   -1.132840   -0.398192
      6          6           0        4.241890   -1.566239   -0.991562
      7          6           0        3.413440   -0.510804   -0.132361
      8          6           0        1.350860   -0.311433    1.321180
      9          6           0       -0.902293    0.592249    0.435279
     10          1           0       -0.908786   -0.214985   -0.240872
     11          1           0       -0.912332    3.149550   -1.464410
     12          1           0       -2.979269   -2.719040    0.491436
     13          1           0       -3.279230    0.907544   -1.096500
     14          1           0       -4.480670    0.539087    0.280120
     15          1           0       -2.473900    1.792670    1.169900
     16          1           0       -2.556320    0.174819    1.922900
     17          1           0       -0.056007    0.451586    2.390090
     18          1           0        3.924980   -1.638429   -1.981510
     19          1           0        5.282940   -1.291838   -0.960707
     20          1           0        4.207431   -2.599899   -0.511323
     21          1           0        2.738960    1.344631   -0.476770
     22          1           0        3.968310   -0.360377    0.794307
     23          1           0        1.908251   -2.144419    0.095810
     24          1           0        1.000880   -1.331519   -1.691350
     25          1           0        1.405960    0.224183   -1.550180
     26          7           0        1.104790   -0.596864   -1.053920
     27          7           0        0.084596    0.190712    1.440780
     28          8           0        2.024200   -0.150749    2.319000
     29          8           0        3.429810    0.699355   -0.844748
     30          8           0        0.744547    2.149001   -0.273915
     31          8           0       -3.756280   -1.641370   -1.465570
     32          8           0       -3.298719   -1.865630    0.684548
     33          8           0       -1.296260    2.410640   -0.974735
 ---------------------------------------------------------------------

 SCF Done:  E(RHF) =  -912.336744889     A.U. after    2 cycles

 The electronic state is 1-A.
 Alpha  occ. eigenvalues --  -21.15292 -21.13767 -21.06162 -21.05818 -21.04884
 Alpha  occ. eigenvalues --  -21.01352 -15.75622 -15.73332 -11.57012 -11.54043
 Alpha  occ. eigenvalues --  -11.51931 -11.50618 -11.48360 -11.45435 -11.42569
 Alpha  occ. eigenvalues --  -11.42179 -11.36875  -1.88491  -1.85195  -1.72052
 Alpha  occ. eigenvalues --   -1.69632  -1.67631  -1.66477  -1.41178  -1.34852
 Alpha  occ. eigenvalues --   -1.21655  -1.11599  -1.09626  -1.00189  -0.94733
 Alpha  occ. eigenvalues --   -0.86538  -0.84662  -0.81663  -0.79043  -0.72410
 Alpha  occ. eigenvalues --   -0.70014  -0.68775  -0.66585  -0.65046  -0.63159
 Alpha  occ. eigenvalues --   -0.62322  -0.61352  -0.60402  -0.59958  -0.58286
 Alpha  occ. eigenvalues --   -0.57891  -0.56446  -0.53336  -0.52287  -0.51151
 Alpha  occ. eigenvalues --   -0.50488  -0.50068  -0.49494  -0.46902  -0.45877
 Alpha  occ. eigenvalues --   -0.44852  -0.43691  -0.40099  -0.35883  -0.35226
 Alpha  occ. eigenvalues --   -0.34955  -0.32187  -0.31316  -0.30368  -0.29890
 Alpha  occ. eigenvalues --   -0.27038
 Alpha virt. eigenvalues --    0.03127   0.03816   0.03994   0.04817   0.05368
 Alpha virt. eigenvalues --    0.05648   0.05724   0.06175   0.06582   0.06890
 Alpha virt. eigenvalues --    0.07677   0.07787   0.07947   0.08713   0.08961

 Mulliken charges:
               1
     1  C   -3.552632
     2  C   -5.083000
     3  C   -2.352231
     4  C    8.182255
     5  C    6.406978
     6  C   -3.958213
     7  C    1.209760
     8  C    6.672443
     9  C   -2.499828
    10  H    2.767580
    11  H    1.014157
    12  H    0.985751
    13  H    1.491418
    14  H    1.476678
    15  H    1.361538
    16  H    1.127505
    17  H    0.594208
    18  H    1.408528
    19  H    1.114708
    20  H    1.224623
    21  H    1.091519
    22  H    1.836140
    23  H    1.988245
    24  H    0.507705
    25  H    0.772766
    26  N   -1.926496
    27  N   -2.879472
    28  O   -3.773170
    29  O   -3.536417
    30  O   -3.371462
    31  O   -3.157664
    32  O   -3.247625
    33  O   -3.896293
 Sum of Mulliken charges =  -0.00000

 Dipole moment (field-independent basis, Debye):
    X=             -1.9000    Y=              0.4425    Z=             -1.2735  Tot=              2.3298

 Test job not archived.
 1\1\GINC-SE044\SP\RHF\Aug-CC-pVDZ\C9H16N2O6\OHZDE\08-Apr-2025\0\\#t hf
  aug-cc-pvdz iop(5/13=1,5/36=2,99/5=2) pseudo=read geom=check guess=(r
 ead,tcheck) scf=(maxcycle=1)\\title\\0,1\C,0,1.97972,-1.02101,0.031233
 3\C,0,-3.44093,0.38074,-0.175385\C,0,-2.33495,0.718461,0.898501\C,0,-0
 .422821,1.80913,-0.227958\C,0,-3.53413,-1.13284,-0.398192\C,0,4.24189,
 -1.56624,-0.991562\C,0,3.41344,-0.510805,-0.132361\C,0,1.35086,-0.3114
 34,1.32118\C,0,-0.902293,0.592249,0.435279\H,0,-0.908786,-0.214985,-0.
 240872\H,0,-0.912331,3.14955,-1.46441\H,0,-2.97927,-2.71904,0.491436\H

 Normal termination of Gaussian 16 at Tue Apr  8 21:14:02 2025.
