 Gaussian 16, Revision C.01,

 ----------------------------------------------------------------------
 #t hf aug-cc-pvdz symm=none int=(grid=ultrafine) guess=(read,tcheck) s
 table=(opt,rrhf)
 ----------------------------------------------------------------------
 -----
 title
 -----
 Symbolic Z-matrix:
 Charge =  0 Multiplicity = 1

 SCF Done:  E(RHF) =  -480.737492470     A.U. after   15 cycles
 Normal termination of Gaussian 16 at Tue Apr  8 21:48:31 2025.
 Gaussian 16:  ES64L-G16RevC.01  3-Jul-2019

 ----------------------------------------------------------------------
 #t hf aug-cc-pvdz iop(5/13=1,5/36=2,99/5=2) pseudo=read geom=check gue
 ss=(read,tcheck) scf=(maxcycle=1)
 ----------------------------------------------------------------------
 -----
 title
 -----
 Structure from the checkpoint file:  "ANI1ccx_558_conf3_mol1.chk"
 Charge =  0 Multiplicity = 1

                         Standard orientation:
 ---------------------------------------------------------------------
 Center     Atomic      Atomic             Coordinates (Angstroms)
 Number     Number       Type             X           Y           Z
 ---------------------------------------------------------------------
      1          6           0       -1.127199   -0.748372   -0.036259
      2          6           0        1.210091   -0.594466   -0.101341
      3          1           0        2.172085    1.949565   -0.115430
      4          1           0        1.340067    1.462893    1.253850
      5          1           0       -1.027775    2.336178    0.165029
      6          1           0       -2.502674    1.647295   -0.322008
      7          1           0        0.153327   -2.295429    0.344217
      8          1           0        2.647354   -1.805074    0.251849
      9          7           0        1.249336    1.665333    0.274148
     10          7           0        0.670438    0.647494   -0.468002
     11          7           0       -0.847418    0.545096   -0.427799
     12          7           0       -1.631134    1.528287    0.211206
     13          7           0        0.102437   -1.388279   -0.056874
     14          7           0        2.488661   -0.815913    0.089550
     15          8           0       -2.188247   -1.314064    0.236563
 ---------------------------------------------------------------------

 SCF Done:  E(RHF) =  -482.864346047     A.U. after    2 cycles

 The electronic state is 1-A.
 Alpha  occ. eigenvalues --  -21.05042 -15.81467 -15.80636 -15.80433 -15.78877
 Alpha  occ. eigenvalues --  -15.78686 -15.74073 -11.53532 -11.50685  -1.74877
 Alpha  occ. eigenvalues --   -1.64895  -1.47411  -1.43938  -1.29573  -1.19745
 Alpha  occ. eigenvalues --   -1.08635  -0.88655  -0.84467  -0.75969  -0.73546
 Alpha  occ. eigenvalues --   -0.68596  -0.68183  -0.62948  -0.60500  -0.60071
 Alpha  occ. eigenvalues --   -0.54222  -0.53611  -0.46135  -0.43232  -0.40669
 Alpha  occ. eigenvalues --   -0.40181  -0.33720  -0.32058  -0.28352
 Alpha virt. eigenvalues --    0.03549   0.04940   0.05296   0.06329   0.06611
 Alpha virt. eigenvalues --    0.07531   0.10128   0.11149   0.12037   0.12500
 Alpha virt. eigenvalues --    0.12811   0.13778   0.14569   0.14880   0.15294

 Mulliken charges:
               1
     1  C    5.740871
     2  C    4.401592
     3  H    0.693530
     4  H    0.654051
     5  H    0.746875
     6  H    0.637590
     7  H    0.636135
     8  H    0.601455
     9  N   -2.183719
    10  N   -0.517837
    11  N   -1.033060
    12  N   -2.024935
    13  N   -2.313853
    14  N   -2.861159
    15  O   -3.177537
 Sum of Mulliken charges =   0.00000

 Dipole moment (field-independent basis, Debye):
    X=              0.2491    Y=              0.9924    Z=              0.4295  Tot=              1.1097

 Test job not archived.
 1\1\GINC-SE455\SP\RHF\Aug-CC-pVDZ\C2H6N6O1\OHZDE\08-Apr-2025\0\\#t hf
 aug-cc-pvdz iop(5/13=1,5/36=2,99/5=2) pseudo=read geom=check guess=(re
 ad,tcheck) scf=(maxcycle=1)\\title\\0,1\C,0,-1.1272,-0.74837,-0.036259
 2\C,0,1.21009,-0.594469,-0.101341\H,0,2.17209,1.94956,-0.11543\H,0,1.3
 4007,1.46289,1.25385\H,0,-1.02777,2.33618,0.165029\H,0,-2.50267,1.6473
 ,-0.322008\H,0,0.153322,-2.29543,0.344217\H,0,2.64735,-1.80508,0.25184
 9\N,0,1.24934,1.66533,0.274148\N,0,0.67044,0.647492,-0.468002\N,0,-0.8
 47417,0.545097,-0.427799\N,0,-1.63113,1.52829,0.211206\N,0,0.102434,-1

 Normal termination of Gaussian 16 at Tue Apr  8 21:48:36 2025.
