 Gaussian 16, Revision C.01,

 ----------------------------------------------------------------------
 #t hf aug-cc-pvdz symm=none int=(grid=ultrafine) guess=(read,tcheck) s
 table=(opt,rrhf)
 ----------------------------------------------------------------------
 -----
 title
 -----
 Symbolic Z-matrix:
 Charge =  0 Multiplicity = 1

 SCF Done:  E(RHF) =  -414.372109554     A.U. after   14 cycles
 Normal termination of Gaussian 16 at Tue Apr  8 21:38:44 2025.
 Gaussian 16:  ES64L-G16RevC.01  3-Jul-2019

 ----------------------------------------------------------------------
 #t hf aug-cc-pvdz iop(5/13=1,5/36=2,99/5=2) pseudo=read geom=check gue
 ss=(read,tcheck) scf=(maxcycle=1)
 ----------------------------------------------------------------------
 -----
 title
 -----
 Structure from the checkpoint file:  "ANI1ccx_410_conf4_mol1.chk"
 Charge =  0 Multiplicity = 1

                         Standard orientation:
 ---------------------------------------------------------------------
 Center     Atomic      Atomic             Coordinates (Angstroms)
 Number     Number       Type             X           Y           Z
 ---------------------------------------------------------------------
      1          6           0        2.177940   -0.022187    0.259286
      2          1           0        3.403700   -1.475600    0.050712
      3          1           0        1.731900   -0.677966    1.038010
      4          1           0       -3.655870    0.692967    0.182069
      5          1           0       -0.776490    0.018989   -0.755976
      6          8           0        3.249530   -0.590973   -0.327370
      7          8           0        1.826160    1.080240    0.019055
      8          8           0       -3.368900   -0.065724   -0.349476
      9          8           0       -2.242380   -0.555365    0.317286
     10          8           0       -1.185770    0.328665    0.081689
 ---------------------------------------------------------------------

 SCF Done:  E(RHF) =  -416.049157419     A.U. after    2 cycles

 The electronic state is 1-A.
 Alpha  occ. eigenvalues --  -21.15017 -21.14029 -21.13158 -21.12963 -21.07237
 Alpha  occ. eigenvalues --  -11.52271  -2.08553  -1.83517  -1.69390  -1.67298
 Alpha  occ. eigenvalues --   -1.26866  -0.87203  -0.74072  -0.68782  -0.59346
 Alpha  occ. eigenvalues --   -0.55940  -0.55200  -0.54900  -0.54547  -0.48767
 Alpha  occ. eigenvalues --   -0.35611  -0.35424  -0.32745  -0.32081  -0.31388
 Alpha virt. eigenvalues --    0.02904   0.05554   0.05811   0.07206   0.10299
 Alpha virt. eigenvalues --    0.12550   0.12645   0.14326   0.15485   0.16181
 Alpha virt. eigenvalues --    0.17570   0.19379   0.19956   0.21241   0.21629

 Mulliken charges:
               1
     1  C    2.409673
     2  H    0.954859
     3  H    1.478041
     4  H    0.939699
     5  H    0.929276
     6  O   -2.377908
     7  O   -2.474922
     8  O   -1.051509
     9  O    0.294575
    10  O   -1.101783
 Sum of Mulliken charges =  -0.00000

 Dipole moment (field-independent basis, Debye):
    X=              0.7257    Y=             -1.1873    Z=              0.4261  Tot=              1.4553

 Test job not archived.
 1\1\GINC-SE339\SP\RHF\Aug-CC-pVDZ\C1H4O5\OHZDE\08-Apr-2025\0\\#t hf au
 g-cc-pvdz iop(5/13=1,5/36=2,99/5=2) pseudo=read geom=check guess=(read
 ,tcheck) scf=(maxcycle=1)\\title\\0,1\C,0,2.17794,-0.0221868,0.259286\
 H,0,3.4037,-1.4756,0.0507119\H,0,1.7319,-0.677966,1.03801\H,0,-3.65587
 ,0.692967,0.182069\H,0,-0.77649,0.0189887,-0.755976\O,0,3.24953,-0.590
 973,-0.32737\O,0,1.82616,1.08024,0.0190547\O,0,-3.3689,-0.0657243,-0.3
 49476\O,0,-2.24238,-0.555365,0.317286\O,0,-1.18577,0.328665,0.0816894\
 \Version=ES64L-G16RevC.01\State=1-A\HF=-416.0491574\RMSD=3.881e-02\Dip

 Normal termination of Gaussian 16 at Tue Apr  8 21:38:47 2025.
