 Gaussian 16, Revision C.01,

 ----------------------------------------------------------------------
 #t hf aug-cc-pvdz symm=none int=(grid=ultrafine) guess=(read,tcheck) s
 table=(opt,rrhf)
 ----------------------------------------------------------------------
 -----
 title
 -----
 Symbolic Z-matrix:
 Charge =  0 Multiplicity = 1

 SCF Done:  E(RHF) =  -509.541757960     A.U. after   14 cycles
 Normal termination of Gaussian 16 at Tue Apr  8 22:13:29 2025.
 Gaussian 16:  ES64L-G16RevC.01  3-Jul-2019

 ----------------------------------------------------------------------
 #t hf aug-cc-pvdz iop(5/13=1,5/36=2,99/5=2) pseudo=read geom=check gue
 ss=(read,tcheck) scf=(maxcycle=1)
 ----------------------------------------------------------------------
 -----
 title
 -----
 Structure from the checkpoint file:  "ANI1ccx_939_conf22_mol1.chk"
 Charge =  0 Multiplicity = 1

                         Standard orientation:
 ---------------------------------------------------------------------
 Center     Atomic      Atomic             Coordinates (Angstroms)
 Number     Number       Type             X           Y           Z
 ---------------------------------------------------------------------
      1          6           0       -0.783353   -0.583586    0.711362
      2          6           0       -1.086930    0.722058   -0.011916
      3          6           0        0.672821   -0.628979    1.153310
      4          6           0        1.551371   -0.094163   -0.032496
      5          1           0       -2.295467   -1.708323    0.095196
      6          1           0       -1.151917   -1.741051   -0.963288
      7          1           0       -1.289928   -0.545430    1.706100
      8          1           0        0.818349    0.014685    2.019600
      9          1           0        0.996383   -1.652778    1.430610
     10          1           0        1.573882   -0.703651   -1.914470
     11          1           0       -0.717005    2.548379   -0.075236
     12          7           0       -1.306647   -1.764652    0.028093
     13          8           0       -1.841810    0.820878   -0.963440
     14          8           0        2.425650    0.710441   -0.145411
     15          8           0        1.045102   -0.883053   -1.077280
     16          8           0       -0.492844    1.807829    0.509040
 ---------------------------------------------------------------------

 SCF Done:  E(RHF) =  -511.735738956     A.U. after    2 cycles

 The electronic state is 1-A.
 Alpha  occ. eigenvalues --  -21.13569 -21.11419 -21.07865 -21.05989 -15.74232
 Alpha  occ. eigenvalues --  -11.54695 -11.54094 -11.48773 -11.41841  -1.84625
 Alpha  occ. eigenvalues --   -1.81276  -1.66840  -1.65823  -1.36417  -1.15983
 Alpha  occ. eigenvalues --   -0.98528  -0.84092  -0.77596  -0.70654  -0.67257
 Alpha  occ. eigenvalues --   -0.63904  -0.60910  -0.60013  -0.58807  -0.58212
 Alpha  occ. eigenvalues --   -0.52198  -0.51340  -0.50249  -0.46502  -0.45286
 Alpha  occ. eigenvalues --   -0.37726  -0.37004  -0.32887  -0.30849  -0.30118
 Alpha virt. eigenvalues --    0.03596   0.04809   0.05228   0.05616   0.06240
 Alpha virt. eigenvalues --    0.06579   0.08416   0.09650   0.10044   0.11116
 Alpha virt. eigenvalues --    0.12615   0.13300   0.13473   0.14166   0.14631

 Mulliken charges:
               1
     1  C   -0.621677
     2  C    6.684050
     3  C   -3.972493
     4  C    6.155695
     5  H    0.502208
     6  H    0.647612
     7  H    1.731639
     8  H    1.325622
     9  H    1.373770
    10  H    0.880613
    11  H    0.847255
    12  N   -2.961352
    13  O   -3.250735
    14  O   -3.334736
    15  O   -2.854069
    16  O   -3.153403
 Sum of Mulliken charges =   0.00000

 Dipole moment (field-independent basis, Debye):
    X=             -0.4676    Y=              0.0100    Z=              0.1885  Tot=              0.5042

 Test job not archived.
 1\1\GINC-SE094\SP\RHF\Aug-CC-pVDZ\C4H7N1O4\OHZDE\08-Apr-2025\0\\#t hf
 aug-cc-pvdz iop(5/13=1,5/36=2,99/5=2) pseudo=read geom=check guess=(re
 ad,tcheck) scf=(maxcycle=1)\\title\\0,1\C,0,-0.783355,-0.583585,0.7113
 62\C,0,-1.08693,0.722059,-0.0119158\C,0,0.672819,-0.62898,1.15331\C,0,
 1.55137,-0.0941655,-0.0324963\H,0,-2.29547,-1.70832,0.095196\H,0,-1.15
 192,-1.74105,-0.963288\H,0,-1.28993,-0.545428,1.7061\H,0,0.818348,0.01
 46837,2.0196\H,0,0.99638,-1.65278,1.43061\H,0,1.57388,-0.703653,-1.914
 47\H,0,-0.717002,2.54838,-0.0752356\N,0,-1.30665,-1.76465,0.0280934\O,

 Normal termination of Gaussian 16 at Tue Apr  8 22:13:36 2025.
