 Gaussian 16, Revision C.01,

 ----------------------------------------------------------------------
 #t hf aug-cc-pvdz symm=none int=(grid=ultrafine) guess=(read,tcheck) s
 table=(opt,rrhf)
 ----------------------------------------------------------------------
 -----
 title
 -----
 Symbolic Z-matrix:
 Charge =  0 Multiplicity = 1

 SCF Done:  E(RHF) =  -355.463529441     A.U. after   17 cycles
 Normal termination of Gaussian 16 at Tue Apr  8 21:12:21 2025.
 Gaussian 16:  ES64L-G16RevC.01  3-Jul-2019

 ----------------------------------------------------------------------
 #t hf aug-cc-pvdz iop(5/13=1,5/36=2,99/5=2) pseudo=read geom=check gue
 ss=(read,tcheck) scf=(maxcycle=1)
 ----------------------------------------------------------------------
 -----
 title
 -----
 Structure from the checkpoint file:  "ANI1ccx_1871_conf9_mol1.chk"
 Charge =  0 Multiplicity = 1

                         Standard orientation:
 ---------------------------------------------------------------------
 Center     Atomic      Atomic             Coordinates (Angstroms)
 Number     Number       Type             X           Y           Z
 ---------------------------------------------------------------------
      1          1           0        3.421382   -0.142245   -0.518066
      2          1           0       -1.488068    0.927697   -0.450405
      3          1           0       -3.414018   -0.352109    0.589446
      4          7           0        1.664492    0.452821   -0.182439
      5          8           0        2.654132   -0.464114   -0.011225
      6          8           0        0.612012    0.134174    0.332045
      7          8           0       -1.639398    0.178176    0.120597
      8          8           0       -2.898088   -0.298622   -0.234405
 ---------------------------------------------------------------------

 SCF Done:  E(RHF) =  -356.906733362     A.U. after    2 cycles

 The electronic state is 1-A.
 Alpha  occ. eigenvalues --  -21.15252 -21.13430 -21.10155 -21.09702 -15.92917
 Alpha  occ. eigenvalues --   -1.96213  -1.94332  -1.71429  -1.37544  -0.96639
 Alpha  occ. eigenvalues --   -0.71933  -0.61792  -0.61163  -0.60348  -0.59288
 Alpha  occ. eigenvalues --   -0.48935  -0.45984  -0.36798  -0.34788  -0.30713
 Alpha  occ. eigenvalues --   -0.27803
 Alpha virt. eigenvalues --    0.03826   0.05685   0.06777   0.13040   0.13458
 Alpha virt. eigenvalues --    0.15448   0.16133   0.17346   0.18723   0.19475
 Alpha virt. eigenvalues --    0.20542   0.21459   0.22819   0.23195   0.25268

 Mulliken charges:
               1
     1  H    0.964285
     2  H    0.986067
     3  H    0.948513
     4  N    2.525353
     5  O   -2.200354
     6  O   -1.429460
     7  O   -1.118895
     8  O   -0.675510
 Sum of Mulliken charges =   0.00000

 Dipole moment (field-independent basis, Debye):
    X=              1.0230    Y=              0.1626    Z=              0.0811  Tot=              1.0390

 Test job not archived.
 1\1\GINC-SE457\SP\RHF\Aug-CC-pVDZ\H3N1O4\OHZDE\08-Apr-2025\0\\#t hf au
 g-cc-pvdz iop(5/13=1,5/36=2,99/5=2) pseudo=read geom=check guess=(read
 ,tcheck) scf=(maxcycle=1)\\title\\0,1\H,0,3.42138,-0.142245,-0.518066\
 H,0,-1.48807,0.927697,-0.450405\H,0,-3.41402,-0.352109,0.589446\N,0,1.
 66449,0.452821,-0.182439\O,0,2.65413,-0.464114,-0.0112253\O,0,0.61201,
 0.134174,0.332045\O,0,-1.6394,0.178176,0.120597\O,0,-2.89809,-0.298622
 ,-0.234405\\Version=ES64L-G16RevC.01\State=1-A\HF=-356.9067334\RMSD=4.
 936e-02\Dipole=0.4024905,0.0639708,0.0319078\Quadrupole=3.9057313,-2.7

 Normal termination of Gaussian 16 at Tue Apr  8 21:12:23 2025.
