 Gaussian 16, Revision C.01,

 ----------------------------------------------------------------------
 #t hf aug-cc-pvdz symm=none int=(grid=ultrafine) guess=(read,tcheck) s
 table=(opt,rrhf)
 ----------------------------------------------------------------------
 -----
 title
 -----
 Symbolic Z-matrix:
 Charge =  0 Multiplicity = 1

 SCF Done:  E(RHF) =  -764.586726893     A.U. after   12 cycles
 Normal termination of Gaussian 16 at Tue Apr  8 22:25:07 2025.
 Gaussian 16:  ES64L-G16RevC.01  3-Jul-2019

 ----------------------------------------------------------------------
 #t hf aug-cc-pvdz iop(5/13=1,5/36=2,99/5=2) pseudo=read geom=check gue
 ss=(read,tcheck) scf=(maxcycle=1)
 ----------------------------------------------------------------------
 -----
 title
 -----
 Structure from the checkpoint file:  "ANI1ccx_92_conf1_mol2.chk"
 Charge =  0 Multiplicity = 1

                         Standard orientation:
 ---------------------------------------------------------------------
 Center     Atomic      Atomic             Coordinates (Angstroms)
 Number     Number       Type             X           Y           Z
 ---------------------------------------------------------------------
      1          6           0       -0.246864   -2.745450   -0.038492
      2          6           0       -3.107422   -0.600859    0.226464
      3          6           0       -1.735638    1.026183   -0.882044
      4          6           0       -1.222545    2.460502   -0.765039
      5          6           0        0.486315    2.178998    0.886830
      6          6           0       -2.224454   -1.709636    0.751627
      7          6           0        2.843240    0.132080    0.443665
      8          6           0        3.083167   -1.221737   -0.196335
      9          6           0        0.794711   -1.702913   -0.409280
     10          6           0        1.817524    2.213505    0.053331
     11          1           0        0.224628    1.169399    1.041960
     12          1           0       -1.536553   -1.380268    1.610940
     13          1           0       -2.847716   -2.467885    1.167660
     14          1           0       -4.179232   -0.544371    0.735738
     15          1           0       -3.437482   -0.791235   -0.865546
     16          1           0       -0.832610    0.334064   -1.030460
     17          1           0       -2.422209    0.899572   -1.688070
     18          1           0       -2.125424    3.068254   -1.007070
     19          1           0       -0.552601    2.503150   -1.639450
     20          1           0        0.696176    2.536558    1.860310
     21          1           0        2.435269   -0.162939    1.437160
     22          1           0        2.644755    2.489544    0.662711
     23          1           0        3.787201    0.630954    0.645062
     24          1           0        3.338127   -1.170798   -1.280980
     25          1           0        3.872646   -1.730349    0.318667
     26          1           0        0.789408   -1.388483   -1.437410
     27          1           0        0.450396   -0.791317    0.124508
     28          1           0       -0.288524   -3.567200   -0.781677
     29          1           0       -0.111460   -3.080281    0.972228
     30          1           0        1.677926    2.896436   -0.779950
     31          8           0       -2.495619    0.671766    0.339534
     32          8           0        2.048965   -2.199775    0.000264
     33          8           0        2.040891    0.915402   -0.441119
     34          8           0       -0.586727    2.901560    0.345167
     35          8           0       -1.571375   -2.243558   -0.305182
 ---------------------------------------------------------------------

 SCF Done:  E(RHF) =  -768.080948631     A.U. after    2 cycles

 The electronic state is 1-A.
 Alpha  occ. eigenvalues --  -21.05331 -21.04881 -21.04664 -21.03470 -21.03221
 Alpha  occ. eigenvalues --  -11.49223 -11.48075 -11.47937 -11.46384 -11.45672
 Alpha  occ. eigenvalues --  -11.40724 -11.40335 -11.40124 -11.39644 -11.38467
 Alpha  occ. eigenvalues --   -1.80498  -1.77785  -1.76462  -1.73107  -1.70619
 Alpha  occ. eigenvalues --   -1.14568  -1.13452  -1.07963  -1.06318  -0.99748
 Alpha  occ. eigenvalues --   -0.92123  -0.87808  -0.85532  -0.84751  -0.81579
 Alpha  occ. eigenvalues --   -0.70562  -0.68410  -0.67891  -0.66722  -0.65329
 Alpha  occ. eigenvalues --   -0.64216  -0.63167  -0.61741  -0.60707  -0.57257
 Alpha  occ. eigenvalues --   -0.56417  -0.55326  -0.54866  -0.54269  -0.53199
 Alpha  occ. eigenvalues --   -0.51284  -0.49437  -0.48578  -0.46004  -0.45698
 Alpha  occ. eigenvalues --   -0.41168  -0.39532  -0.38712  -0.37529  -0.35476
 Alpha  occ. eigenvalues --   -0.32242  -0.30980  -0.30028  -0.27084  -0.26015
 Alpha virt. eigenvalues --    0.03789   0.04155   0.04503   0.04650   0.05051
 Alpha virt. eigenvalues --    0.05665   0.05849   0.06004   0.06431   0.06642
 Alpha virt. eigenvalues --    0.06646   0.06800   0.07259   0.07913   0.08451

 Mulliken charges:
               1
     1  C   -2.763308
     2  C   -1.506178
     3  C   -2.436447
     4  C   -1.507647
     5  C   -1.492093
     6  C   -1.424009
     7  C   -1.866868
     8  C   -1.778907
     9  C   -1.637305
    10  C   -2.285272
    11  H    2.742344
    12  H    1.816136
    13  H    1.399584
    14  H    1.329686
    15  H    1.759371
    16  H    3.013843
    17  H    1.578572
    18  H    1.310775
    19  H    1.315988
    20  H    1.388338
    21  H    1.875303
    22  H    1.760174
    23  H    1.484053
    24  H    1.704804
    25  H    1.254251
    26  H    1.572027
    27  H    4.138495
    28  H    1.208715
    29  H    1.627156
    30  H    1.566630
    31  O   -3.011354
    32  O   -3.678812
    33  O   -3.217029
    34  O   -4.008560
    35  O   -3.232458
 Sum of Mulliken charges =   0.00000

 Dipole moment (field-independent basis, Debye):
    X=              1.0115    Y=              0.2439    Z=              0.0994  Tot=              1.0452

 Test job not archived.
 1\1\GINC-SE092\SP\RHF\Aug-CC-pVDZ\C10H20O5\OHZDE\08-Apr-2025\0\\#t hf
 aug-cc-pvdz iop(5/13=1,5/36=2,99/5=2) pseudo=read geom=check guess=(re
 ad,tcheck) scf=(maxcycle=1)\\title\\0,1\C,0,-0.246858,-2.74545,-0.0384
 922\C,0,-3.10742,-0.600865,0.226464\C,0,-1.73564,1.02618,-0.882044\C,0
 ,-1.22255,2.4605,-0.765039\C,0,0.486311,2.179,0.88683\C,0,-2.22445,-1.
 70964,0.751627\C,0,2.84324,0.132087,0.443665\C,0,3.08317,-1.22173,-0.1
 96335\C,0,0.794715,-1.70291,-0.40928\C,0,1.81752,2.21351,0.053331\H,0,
 0.224626,1.1694,1.04196\H,0,-1.53655,-1.38027,1.61094\H,0,-2.84771,-2.

 Normal termination of Gaussian 16 at Tue Apr  8 22:25:58 2025.
