 Gaussian 16, Revision C.01,

 ----------------------------------------------------------------------
 #t hf aug-cc-pvdz symm=none int=(grid=ultrafine) guess=(read,tcheck) s
 table=(opt,rrhf)
 ----------------------------------------------------------------------
 -----
 title
 -----
 Symbolic Z-matrix:
 Charge =  0 Multiplicity = 1

 SCF Done:  E(RHF) =  -276.594876719     A.U. after   15 cycles
 Normal termination of Gaussian 16 at Tue Apr  8 21:30:29 2025.
 Gaussian 16:  ES64L-G16RevC.01  3-Jul-2019

 ----------------------------------------------------------------------
 #t hf aug-cc-pvdz iop(5/13=1,5/36=2,99/5=2) pseudo=read geom=check gue
 ss=(read,tcheck) scf=(maxcycle=1)
 ----------------------------------------------------------------------
 -----
 title
 -----
 Structure from the checkpoint file:  "ANI1ccx_370_conf35_mol2.chk"
 Charge =  0 Multiplicity = 1

                         Standard orientation:
 ---------------------------------------------------------------------
 Center     Atomic      Atomic             Coordinates (Angstroms)
 Number     Number       Type             X           Y           Z
 ---------------------------------------------------------------------
      1          6           0       -1.061061    0.057768    0.007249
      2          1           0       -2.132531   -0.019821    0.010662
      3          7           0       -0.333233    1.131827   -0.001465
      4          7           0        0.960181    0.633637   -0.006051
      5          7           0        0.987270   -0.612509    0.011280
      6          8           0       -0.350079   -1.049684   -0.010063
 ---------------------------------------------------------------------

 SCF Done:  E(RHF) =  -277.761367205     A.U. after    2 cycles

 The electronic state is 1-A.
 Alpha  occ. eigenvalues --  -21.18001 -15.86396 -15.84090 -15.79406 -11.50466
 Alpha  occ. eigenvalues --   -1.98745  -1.55355  -1.34577  -0.92829  -0.89745
 Alpha  occ. eigenvalues --   -0.76025  -0.69965  -0.59458  -0.50873  -0.45583
 Alpha  occ. eigenvalues --   -0.44817  -0.42124  -0.41851
 Alpha virt. eigenvalues --    0.03160   0.09054   0.09341   0.09929   0.13251
 Alpha virt. eigenvalues --    0.13811   0.14346   0.14468   0.16116   0.17143
 Alpha virt. eigenvalues --    0.18905   0.19969   0.20442   0.22627   0.24744

 Mulliken charges:
               1
     1  C    1.525523
     2  H    1.615362
     3  N   -1.877147
     4  N    0.833150
     5  N    0.369964
     6  O   -2.466851
 Sum of Mulliken charges =   0.00000

 Dipole moment (field-independent basis, Debye):
    X=             -2.7241    Y=             -1.5505    Z=             -0.0006  Tot=              3.1345

 Test job not archived.
 1\1\GINC-SE126\SP\RHF\Aug-CC-pVDZ\C1H1N3O1\OHZDE\08-Apr-2025\0\\#t hf
 aug-cc-pvdz iop(5/13=1,5/36=2,99/5=2) pseudo=read geom=check guess=(re
 ad,tcheck) scf=(maxcycle=1)\\title\\0,1\C,0,-1.06106,0.0577764,0.00724
 852\H,0,-2.13253,-0.0198068,0.0106622\N,0,-0.333225,1.13183,-0.0014645
 1\N,0,0.960186,0.633632,-0.00605106\N,0,0.987267,-0.612514,0.0112802\O
 ,0,-0.350085,-1.04968,-0.0100632\\Version=ES64L-G16RevC.01\State=1-A\H
 F=-277.7613672\RMSD=9.690e-02\Dipole=-1.0717647,-0.609993,-0.0002187\Q
 uadrupole=1.8273927,-2.5650824,0.7376897,0.6712894,-0.025383,0.0124301

 Normal termination of Gaussian 16 at Tue Apr  8 21:30:31 2025.
