 Gaussian 16, Revision C.01,

 ----------------------------------------------------------------------
 #t hf aug-cc-pvdz symm=none int=(grid=ultrafine) guess=(read,tcheck) s
 table=(opt,rrhf)
 ----------------------------------------------------------------------
 -----
 title
 -----
 Symbolic Z-matrix:
 Charge =  0 Multiplicity = 1

 SCF Done:  E(RHF) =  -946.782740630     A.U. after   14 cycles
 Normal termination of Gaussian 16 at Tue Apr  8 21:42:56 2025.
 Gaussian 16:  ES64L-G16RevC.01  3-Jul-2019

 ----------------------------------------------------------------------
 #t hf aug-cc-pvdz iop(5/13=1,5/36=2,99/5=2) pseudo=read geom=check gue
 ss=(read,tcheck) scf=(maxcycle=1)
 ----------------------------------------------------------------------
 -----
 title
 -----
 Structure from the checkpoint file:  "ANI1ccx_207_conf2_mol2.chk"
 Charge =  0 Multiplicity = 1

                         Standard orientation:
 ---------------------------------------------------------------------
 Center     Atomic      Atomic             Coordinates (Angstroms)
 Number     Number       Type             X           Y           Z
 ---------------------------------------------------------------------
      1          6           0        0.797326   -2.433140    0.674430
      2          6           0       -0.509858    1.984340   -0.909773
      3          6           0       -1.763040    1.191360   -1.138150
      4          6           0       -3.418740   -0.527722   -0.326837
      5          6           0       -2.013760    0.086336   -0.074141
      6          6           0       -0.633767    2.905010    0.298288
      7          6           0        2.960900   -0.129586   -0.429700
      8          6           0        3.087010   -1.637359   -0.318213
      9          6           0        1.759341   -2.413339   -0.526505
     10          6           0       -0.004552   -1.067070    0.787106
     11          6           0        4.346430    0.550485   -0.396387
     12          1           0        3.775160    2.289421   -1.339000
     13          1           0       -4.336679   -2.050170   -0.523744
     14          1           0       -0.141863    3.042240    2.249320
     15          1           0        0.330792    1.608040    1.498680
     16          1           0        0.352383    1.333540   -0.797387
     17          1           0       -0.291753    2.627660   -1.781530
     18          1           0       -2.671840    1.829360   -1.165700
     19          1           0       -1.657760    0.658477   -2.099270
     20          1           0       -2.071390    0.489418    0.947622
     21          1           0       -1.266589   -1.805480   -0.558878
     22          1           0        3.784720    2.380341    0.345287
     23          1           0        4.974730    0.169217   -1.217130
     24          1           0       -0.813735   -3.591050    1.304100
     25          1           0        2.412280    0.259763    0.422196
     26          1           0        2.412800    0.138151   -1.373030
     27          1           0        3.587151   -1.968039    0.625823
     28          1           0        3.805741   -2.015949   -1.070850
     29          1           0        1.230161   -2.067249   -1.432630
     30          1           0        1.932511   -3.474989   -0.738860
     31          1           0        1.352611   -2.462839    1.628500
     32          1           0        4.930190    0.234609    0.484647
     33          1           0        0.257615   -4.404370    0.511259
     34          7           0       -0.201474   -3.500970    0.491027
     35          7           0        4.223710    1.998591   -0.485141
     36          7           0       -0.981131   -0.951749   -0.147225
     37          7           0        0.084032    2.558640    1.388110
     38          8           0       -4.471130    0.080091   -0.251666
     39          8           0       -1.353300    3.892840    0.345201
     40          8           0        0.275111   -0.257479    1.639500
     41          8           0       -3.376549   -1.841400   -0.543970
 ---------------------------------------------------------------------

 SCF Done:  E(RHF) =  -951.130289234     A.U. after    2 cycles

 The electronic state is 1-A.
 Alpha  occ. eigenvalues --  -21.15102 -21.07073 -21.05144 -21.00532 -15.77725
 Alpha  occ. eigenvalues --  -15.76377 -15.74898 -15.72213 -11.56502 -11.55144
 Alpha  occ. eigenvalues --  -11.50627 -11.49822 -11.48553 -11.45435 -11.44556
 Alpha  occ. eigenvalues --  -11.43252 -11.40925 -11.39780 -11.36585  -1.86482
 Alpha  occ. eigenvalues --   -1.74419  -1.68735  -1.66906  -1.44488  -1.37313
 Alpha  occ. eigenvalues --   -1.33823  -1.33245  -1.21191  -1.20336  -1.09485
 Alpha  occ. eigenvalues --   -1.06802  -0.97207  -0.92804  -0.89800  -0.84479
 Alpha  occ. eigenvalues --   -0.83282  -0.81008  -0.78086  -0.72392  -0.70162
 Alpha  occ. eigenvalues --   -0.68595  -0.68184  -0.66179  -0.65287  -0.63924
 Alpha  occ. eigenvalues --   -0.63121  -0.62286  -0.61551  -0.61187  -0.58886
 Alpha  occ. eigenvalues --   -0.57024  -0.56225  -0.55308  -0.53713  -0.53689
 Alpha  occ. eigenvalues --   -0.52357  -0.51688  -0.50084  -0.48873  -0.48707
 Alpha  occ. eigenvalues --   -0.47861  -0.47113  -0.46065  -0.45654  -0.44794
 Alpha  occ. eigenvalues --   -0.43300  -0.39772  -0.36479  -0.34955  -0.32347
 Alpha  occ. eigenvalues --   -0.31731  -0.30531  -0.29322  -0.26762
 Alpha virt. eigenvalues --    0.03274   0.03753   0.03889   0.04110   0.04767
 Alpha virt. eigenvalues --    0.04846   0.05502   0.05725   0.06248   0.06394
 Alpha virt. eigenvalues --    0.06908   0.07077   0.07504   0.07857   0.08261

 Mulliken charges:
               1
     1  C   -1.190880
     2  C   -4.950775
     3  C   -3.028475
     4  C    8.197346
     5  C   -4.349551
     6  C    6.756141
     7  C   -2.800165
     8  C   -3.526863
     9  C   -3.280113
    10  C    7.942360
    11  C   -2.688720
    12  H    0.686714
    13  H    0.930669
    14  H    0.759627
    15  H    0.969793
    16  H    2.733438
    17  H    1.202669
    18  H    1.572689
    19  H    1.519449
    20  H    2.160959
    21  H    0.888538
    22  H    0.648182
    23  H    1.429338
    24  H    0.615719
    25  H    2.588944
    26  H    1.882547
    27  H    1.418296
    28  H    1.495318
    29  H    1.615491
    30  H    1.569069
    31  H    1.827921
    32  H    1.366662
    33  H    0.603765
    34  N   -3.277577
    35  N   -2.928010
    36  N   -2.869729
    37  N   -3.372245
    38  O   -3.533057
    39  O   -3.771674
    40  O   -4.543641
    41  O   -3.270171
 Sum of Mulliken charges =  -0.00000

 Dipole moment (field-independent basis, Debye):
    X=              0.4159    Y=             -6.0957    Z=              0.2810  Tot=              6.1163

 Test job not archived.
 1\1\GINC-SE132\SP\RHF\Aug-CC-pVDZ\C11H22N4O4\OHZDE\08-Apr-2025\0\\#t h
 f aug-cc-pvdz iop(5/13=1,5/36=2,99/5=2) pseudo=read geom=check guess=(
 read,tcheck) scf=(maxcycle=1)\\title\\0,1\C,0,0.797325,-2.43314,0.6744
 3\C,0,-0.509858,1.98434,-0.909773\C,0,-1.76304,1.19136,-1.13815\C,0,-3
 .41874,-0.527722,-0.326837\C,0,-2.01376,0.0863354,-0.0741406\C,0,-0.63
 3767,2.90501,0.298288\C,0,2.9609,-0.129587,-0.4297\C,0,3.08701,-1.6373
 6,-0.318213\C,0,1.75934,-2.41334,-0.526505\C,0,-0.00455239,-1.06707,0.
 787106\C,0,4.34643,0.550484,-0.396387\H,0,3.77516,2.28942,-1.339\H,0,-

 Normal termination of Gaussian 16 at Tue Apr  8 21:44:22 2025.
