 Gaussian 16, Revision C.01,

 ----------------------------------------------------------------------
 #t hf aug-cc-pvdz symm=none int=(grid=ultrafine) guess=(read,tcheck) s
 table=(opt,rrhf)
 ----------------------------------------------------------------------
 -----
 title
 -----
 Symbolic Z-matrix:
 Charge =  0 Multiplicity = 1

 SCF Done:  E(RHF) =  -332.532573447     A.U. after   16 cycles
 Normal termination of Gaussian 16 at Tue Apr  8 21:50:55 2025.
 Gaussian 16:  ES64L-G16RevC.01  3-Jul-2019

 ----------------------------------------------------------------------
 #t hf aug-cc-pvdz iop(5/13=1,5/36=2,99/5=2) pseudo=read geom=check gue
 ss=(read,tcheck) scf=(maxcycle=1)
 ----------------------------------------------------------------------
 -----
 title
 -----
 Structure from the checkpoint file:  "ANI1ccx_658_conf3_mol1.chk"
 Charge =  0 Multiplicity = 1

                         Standard orientation:
 ---------------------------------------------------------------------
 Center     Atomic      Atomic             Coordinates (Angstroms)
 Number     Number       Type             X           Y           Z
 ---------------------------------------------------------------------
      1          6           0       -1.803669   -0.027240   -0.060688
      2          6           0       -0.297255   -0.089254   -0.239375
      3          6           0        1.747001   -0.673466    0.105550
      4          1           0        2.727101   -1.195119    0.447564
      5          1           0        2.421950    1.385211    0.273201
      6          7           0       -2.948219   -0.011593    0.197643
      7          7           0        0.548715   -1.138089   -0.105868
      8          7           0        1.589960    0.693693    0.057395
      9          7           0        0.377329    1.105941   -0.085412
 ---------------------------------------------------------------------

 SCF Done:  E(RHF) =  -334.003549647     A.U. after    2 cycles

 The electronic state is 1-A.
 Alpha  occ. eigenvalues --  -15.86540 -15.81366 -15.77980 -15.77503 -11.50862
 Alpha  occ. eigenvalues --  -11.48632 -11.44838  -1.70463  -1.35847  -1.30670
 Alpha  occ. eigenvalues --   -1.21848  -0.92986  -0.88940  -0.79110  -0.68445
 Alpha  occ. eigenvalues --   -0.67223  -0.63581  -0.52508  -0.49385  -0.48559
 Alpha  occ. eigenvalues --   -0.45365  -0.42455  -0.41818  -0.35594
 Alpha virt. eigenvalues --    0.02039   0.04207   0.07724   0.08846   0.09474
 Alpha virt. eigenvalues --    0.10198   0.11750   0.12180   0.12941   0.13706
 Alpha virt. eigenvalues --    0.14334   0.14590   0.15108   0.15779   0.16538

 Mulliken charges:
               1
     1  C    1.567817
     2  C    3.392281
     3  C    1.106034
     4  H    1.391432
     5  H    0.842581
     6  N   -2.397573
     7  N   -2.971759
     8  N   -0.941537
     9  N   -1.989276
 Sum of Mulliken charges =  -0.00000

 Dipole moment (field-independent basis, Debye):
    X=              6.4157    Y=              0.9683    Z=              0.5171  Tot=              6.5089

 Test job not archived.
 1\1\GINC-SE402\SP\RHF\Aug-CC-pVDZ\C3H2N4\OHZDE\08-Apr-2025\0\\#t hf au
 g-cc-pvdz iop(5/13=1,5/36=2,99/5=2) pseudo=read geom=check guess=(read
 ,tcheck) scf=(maxcycle=1)\\title\\0,1\C,0,-1.80367,-0.0272406,-0.06068
 79\C,0,-0.297256,-0.089255,-0.239375\C,0,1.747,-0.673467,0.10555\H,0,2
 .7271,-1.19512,0.447564\H,0,2.42195,1.38521,0.273201\N,0,-2.94822,-0.0
 115936,0.197643\N,0,0.548714,-1.13809,-0.105868\N,0,1.58996,0.693692,0
 .0573953\N,0,0.377329,1.10594,-0.0854116\\Version=ES64L-G16RevC.01\Sta
 te=1-A\HF=-334.0035496\RMSD=3.721e-01\Dipole=2.5241181,0.3809545,0.203

 Normal termination of Gaussian 16 at Tue Apr  8 21:50:58 2025.
