 Gaussian 16, Revision C.01,

 ----------------------------------------------------------------------
 #t hf aug-cc-pvdz symm=none int=(grid=ultrafine) guess=(read,tcheck) s
 table=(opt,rrhf)
 ----------------------------------------------------------------------
 -----
 title
 -----
 Symbolic Z-matrix:
 Charge =  0 Multiplicity = 1

 SCF Done:  E(RHF) =  -531.409523586     A.U. after   14 cycles
 Normal termination of Gaussian 16 at Tue Apr  8 19:39:32 2025.
 Gaussian 16:  ES64L-G16RevC.01  3-Jul-2019

 ----------------------------------------------------------------------
 #t hf aug-cc-pvdz iop(5/13=1,5/36=2,99/5=2) pseudo=read geom=check gue
 ss=(read,tcheck) scf=(maxcycle=1)
 ----------------------------------------------------------------------
 -----
 title
 -----
 Structure from the checkpoint file:  "ANI1ccx_1356_conf2_mol2.chk"
 Charge =  0 Multiplicity = 1

                         Standard orientation:
 ---------------------------------------------------------------------
 Center     Atomic      Atomic             Coordinates (Angstroms)
 Number     Number       Type             X           Y           Z
 ---------------------------------------------------------------------
      1          6           0       -2.680781   -0.125838   -0.382044
      2          6           0       -1.204531   -0.041196    0.036901
      3          6           0       -0.505200    1.131519   -0.605306
      4          6           0        0.917768    1.233409   -0.135355
      5          6           0        1.044119   -1.171701   -0.124731
      6          6           0       -0.438410   -1.299041   -0.446274
      7          1           0       -0.567196   -1.437461   -1.528909
      8          1           0       -0.796500   -2.157881    0.134981
      9          1           0       -0.487544    0.955236   -1.671729
     10          1           0       -0.992183    2.092289   -0.372914
     11          1           0       -3.116121   -1.038621   -0.037474
     12          1           0       -3.336121    0.651611    0.052085
     13          1           0       -2.759061   -0.092227   -1.454759
     14          1           0       -1.149181    0.934477    1.788531
     15          8           0        1.631859    0.070716    0.020857
     16          8           0       -1.074991   -0.018389    1.501591
     17          8           0        1.473279    2.269629    0.030597
     18          8           0        1.770619   -2.105751    0.075838
 ---------------------------------------------------------------------

 SCF Done:  E(RHF) =  -533.726673453     A.U. after    2 cycles

 The electronic state is 1-A.
 Alpha  occ. eigenvalues --  -21.12778 -21.09789 -21.07472 -21.06772 -11.55933
 Alpha  occ. eigenvalues --  -11.54858 -11.51248 -11.47285 -11.44878 -11.40642
 Alpha  occ. eigenvalues --   -1.90263  -1.74452  -1.73107  -1.64972  -1.27957
 Alpha  occ. eigenvalues --   -1.12110  -1.08389  -0.88894  -0.87445  -0.76200
 Alpha  occ. eigenvalues --   -0.70750  -0.69491  -0.66063  -0.63846  -0.60440
 Alpha  occ. eigenvalues --   -0.57222  -0.57051  -0.56049  -0.53856  -0.52770
 Alpha  occ. eigenvalues --   -0.47277  -0.46752  -0.45521  -0.42278  -0.36451
 Alpha  occ. eigenvalues --   -0.33332  -0.32499  -0.29249
 Alpha virt. eigenvalues --    0.02566   0.03829   0.04406   0.04682   0.05032
 Alpha virt. eigenvalues --    0.05381   0.07166   0.08020   0.10314   0.10584
 Alpha virt. eigenvalues --    0.10882   0.11827   0.12041   0.12817   0.13401

 Mulliken charges:
               1
     1  C   -5.497052
     2  C    7.417066
     3  C   -4.845537
     4  C    6.256165
     5  C    5.685248
     6  C   -4.699069
     7  H    1.372709
     8  H    1.320678
     9  H    1.458886
    10  H    1.187928
    11  H    1.167952
    12  H    1.214800
    13  H    1.146678
    14  H    0.627753
    15  O   -3.568776
    16  O   -3.478540
    17  O   -3.421145
    18  O   -3.345744
 Sum of Mulliken charges =   0.00000

 Dipole moment (field-independent basis, Debye):
    X=             -3.2369    Y=              0.0627    Z=             -0.7731  Tot=              3.3285

 Test job not archived.
 1\1\GINC-SE048\SP\RHF\Aug-CC-pVDZ\C6H8O4\OHZDE\08-Apr-2025\0\\#t hf au
 g-cc-pvdz iop(5/13=1,5/36=2,99/5=2) pseudo=read geom=check guess=(read
 ,tcheck) scf=(maxcycle=1)\\title\\0,1\C,0,-2.68078,-0.125837,-0.382045
 \C,0,-1.20453,-0.0411951,0.0369\C,0,-0.505199,1.13152,-0.605307\C,0,0.
 917769,1.23341,-0.135356\C,0,1.04412,-1.1717,-0.124732\C,0,-0.438409,-
 1.29904,-0.446275\H,0,-0.567195,-1.43746,-1.52891\H,0,-0.796499,-2.157
 88,0.13498\H,0,-0.487543,0.955237,-1.67173\H,0,-0.992182,2.09229,-0.37
 2915\H,0,-3.11612,-1.03862,-0.0374748\H,0,-3.33612,0.651612,0.0520844\

 Normal termination of Gaussian 16 at Tue Apr  8 19:39:42 2025.
