 Gaussian 16, Revision C.01,

 ----------------------------------------------------------------------
 #t hf aug-cc-pvdz symm=none int=(grid=ultrafine) guess=(read,tcheck) s
 table=(opt,rrhf)
 ----------------------------------------------------------------------
 -----
 title
 -----
 Symbolic Z-matrix:
 Charge =  0 Multiplicity = 1

 SCF Done:  E(RHF) =  -501.254710623     A.U. after   17 cycles
 Normal termination of Gaussian 16 at Tue Apr  8 19:30:12 2025.
 Gaussian 16:  ES64L-G16RevC.01  3-Jul-2019

 ----------------------------------------------------------------------
 #t hf aug-cc-pvdz iop(5/13=1,5/36=2,99/5=2) pseudo=read geom=check gue
 ss=(read,tcheck) scf=(maxcycle=1)
 ----------------------------------------------------------------------
 -----
 title
 -----
 Structure from the checkpoint file:  "ANI1ccx_1284_conf4_mol2.chk"
 Charge =  0 Multiplicity = 1

                         Standard orientation:
 ---------------------------------------------------------------------
 Center     Atomic      Atomic             Coordinates (Angstroms)
 Number     Number       Type             X           Y           Z
 ---------------------------------------------------------------------
      1          6           0       -2.361790   -0.535482   -0.014560
      2          6           0       -1.132811    0.198824    0.019640
      3          6           0       -0.023476    2.225199   -0.018201
      4          6           0        1.230169    0.406416    0.023143
      5          6           0        1.781380   -1.722680   -0.020028
      6          6           0        0.118125   -0.455929    0.012415
      7          1           0       -0.147524    3.313169   -0.021916
      8          1           0        3.288559   -0.148204    0.065498
      9          1           0        2.400811   -2.600090   -0.038180
     10          7           0       -3.283790   -1.222303    0.010263
     11          7           0       -1.180801    1.529928    0.007638
     12          7           0        1.217009    1.742539   -0.022526
     13          7           0        2.310880   -0.452206    0.024710
     14          7           0        0.477928   -1.778381   -0.022923
 ---------------------------------------------------------------------

 SCF Done:  E(RHF) =  -503.481362988     A.U. after    2 cycles

 The electronic state is 1-A.
 Alpha  occ. eigenvalues --  -15.83739 -15.78207 -15.77809 -15.76993 -15.76563
 Alpha  occ. eigenvalues --  -11.55534 -11.52631 -11.48853 -11.46956 -11.45107
 Alpha  occ. eigenvalues --  -11.43865  -1.63802  -1.49529  -1.37818  -1.31267
 Alpha  occ. eigenvalues --   -1.29141  -1.16181  -1.00938  -0.93085  -0.89805
 Alpha  occ. eigenvalues --   -0.82651  -0.74242  -0.67648  -0.67031  -0.64830
 Alpha  occ. eigenvalues --   -0.62836  -0.58465  -0.57063  -0.53166  -0.51021
 Alpha  occ. eigenvalues --   -0.49015  -0.45434  -0.44227  -0.42566  -0.37569
 Alpha  occ. eigenvalues --   -0.37241  -0.33750
 Alpha virt. eigenvalues --    0.02369   0.04317   0.04735   0.06043   0.07536
 Alpha virt. eigenvalues --    0.09024   0.09498   0.09652   0.09995   0.11041
 Alpha virt. eigenvalues --    0.11460   0.12065   0.12239   0.12700   0.13466

 Mulliken charges:
               1
     1  C    2.209013
     2  C    2.917972
     3  C    0.760390
     4  C    3.184557
     5  C    0.857313
     6  C    2.880529
     7  H    1.680834
     8  H    0.860692
     9  H    1.670764
    10  N   -2.538884
    11  N   -3.725237
    12  N   -3.657967
    13  N   -3.347559
    14  N   -3.752417
 Sum of Mulliken charges =  -0.00000

 Dipole moment (field-independent basis, Debye):
    X=              6.5182    Y=              0.4691    Z=              0.0659  Tot=              6.5354

 Test job not archived.
 1\1\GINC-SE343\SP\RHF\Aug-CC-pVDZ\C6H3N5\OHZDE\08-Apr-2025\0\\#t hf au
 g-cc-pvdz iop(5/13=1,5/36=2,99/5=2) pseudo=read geom=check guess=(read
 ,tcheck) scf=(maxcycle=1)\\title\\0,1\C,0,-2.36179,-0.53548,-0.0145604
 \C,0,-1.13281,0.198826,0.0196402\C,0,-0.0234749,2.2252,-0.0182014\C,0,
 1.23017,0.406417,0.0231435\C,0,1.78138,-1.72268,-0.0200276\C,0,0.11812
 5,-0.455928,0.0124155\H,0,-0.147522,3.31317,-0.0219162\H,0,3.28856,-0.
 148204,0.0654978\H,0,2.40081,-2.60009,-0.0381804\N,0,-3.28379,-1.2223,
 0.0102634\N,0,-1.1808,1.52993,0.00763811\N,0,1.21701,1.74254,-0.022525

 Normal termination of Gaussian 16 at Tue Apr  8 19:30:18 2025.
