 Gaussian 16, Revision C.01,

 ----------------------------------------------------------------------
 #t hf aug-cc-pvdz symm=none int=(grid=ultrafine) guess=(read,tcheck) s
 table=(opt,rrhf)
 ----------------------------------------------------------------------
 -----
 title
 -----
 Symbolic Z-matrix:
 Charge =  0 Multiplicity = 1

 SCF Done:  E(RHF) =  -563.428724998     A.U. after   14 cycles
 Normal termination of Gaussian 16 at Tue Apr  8 22:11:10 2025.
 Gaussian 16:  ES64L-G16RevC.01  3-Jul-2019

 ----------------------------------------------------------------------
 #t hf aug-cc-pvdz iop(5/13=1,5/36=2,99/5=2) pseudo=read geom=check gue
 ss=(read,tcheck) scf=(maxcycle=1)
 ----------------------------------------------------------------------
 -----
 title
 -----
 Structure from the checkpoint file:  "ANI1ccx_918_conf10_mol2.chk"
 Charge =  0 Multiplicity = 1

                         Standard orientation:
 ---------------------------------------------------------------------
 Center     Atomic      Atomic             Coordinates (Angstroms)
 Number     Number       Type             X           Y           Z
 ---------------------------------------------------------------------
      1          6           0       -1.126639   -0.094280    0.025572
      2          6           0        0.951096   -1.217705   -0.066397
      3          6           0        1.518860    0.073385    0.440026
      4          6           0        0.808189    1.311564   -0.151056
      5          1           0       -1.555085    0.851601    1.767700
      6          1           0       -1.872396   -0.742708    1.759290
      7          1           0       -2.991623    0.587098   -0.560597
      8          1           0       -2.190898   -0.383133   -1.636050
      9          1           0        1.367510    0.112673    1.503040
     10          1           0        2.628450    0.062897    0.317116
     11          7           0       -1.178970   -0.036056    1.467840
     12          7           0       -2.359099   -0.234054   -0.642914
     13          8           0       -0.369807   -1.218983   -0.357619
     14          8           0        1.627912   -2.181211   -0.258895
     15          8           0        1.316727    2.386097   -0.262645
     16          8           0       -0.515896    1.134667   -0.422570
 ---------------------------------------------------------------------

 SCF Done:  E(RHF) =  -565.829647707     A.U. after    2 cycles

 The electronic state is 1-A.
 Alpha  occ. eigenvalues --  -21.12265 -21.11721 -21.07331 -21.06883 -15.78100
 Alpha  occ. eigenvalues --  -15.77357 -11.55823 -11.55138 -11.54925 -11.44490
 Alpha  occ. eigenvalues --   -1.94198  -1.82986  -1.71684  -1.67483  -1.40035
 Alpha  occ. eigenvalues --   -1.30749  -1.17695  -0.95706  -0.87442  -0.76499
 Alpha  occ. eigenvalues --   -0.74585  -0.72504  -0.71666  -0.65898  -0.64449
 Alpha  occ. eigenvalues --   -0.61556  -0.56044  -0.54751  -0.53136  -0.52034
 Alpha  occ. eigenvalues --   -0.48321  -0.44638  -0.43440  -0.40397  -0.35489
 Alpha  occ. eigenvalues --   -0.33721  -0.33204  -0.29009
 Alpha virt. eigenvalues --    0.02868   0.04135   0.04461   0.05519   0.06264
 Alpha virt. eigenvalues --    0.07348   0.09462   0.10468   0.10655   0.11534
 Alpha virt. eigenvalues --    0.11923   0.13045   0.13714   0.13783   0.14241

 Mulliken charges:
               1
     1  C    8.969192
     2  C    5.408492
     3  C   -3.880392
     4  C    5.224410
     5  H    0.437200
     6  H    0.559049
     7  H    0.558400
     8  H    0.547403
     9  H    1.458643
    10  H    1.175630
    11  N   -3.168593
    12  N   -3.178080
    13  O   -3.693547
    14  O   -3.466689
    15  O   -3.377898
    16  O   -3.573220
 Sum of Mulliken charges =   0.00000

 Dipole moment (field-independent basis, Debye):
    X=             -3.1868    Y=              0.7894    Z=              0.8208  Tot=              3.3841

 Test job not archived.
 1\1\GINC-SE082\SP\RHF\Aug-CC-pVDZ\C4H6N2O4\OHZDE\08-Apr-2025\0\\#t hf
 aug-cc-pvdz iop(5/13=1,5/36=2,99/5=2) pseudo=read geom=check guess=(re
 ad,tcheck) scf=(maxcycle=1)\\title\\0,1\C,0,-1.12664,-0.0942732,0.0255
 724\C,0,0.951089,-1.21771,-0.0663969\C,0,1.51886,0.0733768,0.440026\C,
 0,0.808196,1.31156,-0.151056\H,0,-1.55508,0.85161,1.7677\H,0,-1.8724,-
 0.742697,1.75929\H,0,-2.99162,0.587115,-0.560597\H,0,-2.1909,-0.38312,
 -1.63605\H,0,1.36751,0.112666,1.50304\H,0,2.62845,0.0628828,0.317116\N
 ,0,-1.17897,-0.0360487,1.46784\N,0,-2.3591,-0.23404,-0.642914\O,0,-0.3

 Normal termination of Gaussian 16 at Tue Apr  8 22:11:17 2025.
