 Gaussian 16, Revision C.01,

 ----------------------------------------------------------------------
 #t hf aug-cc-pvdz symm=none int=(grid=ultrafine) guess=(read,tcheck) s
 table=(opt,rrhf)
 ----------------------------------------------------------------------
 -----
 title
 -----
 Symbolic Z-matrix:
 Charge =  0 Multiplicity = 1

 SCF Done:  E(RHF) =  -445.628528542     A.U. after   16 cycles
 Normal termination of Gaussian 16 at Tue Apr  8 21:45:59 2025.
 Gaussian 16:  ES64L-G16RevC.01  3-Jul-2019

 ----------------------------------------------------------------------
 #t hf aug-cc-pvdz iop(5/13=1,5/36=2,99/5=2) pseudo=read geom=check gue
 ss=(read,tcheck) scf=(maxcycle=1)
 ----------------------------------------------------------------------
 -----
 title
 -----
 Structure from the checkpoint file:  "ANI1ccx_521_conf1_mol2.chk"
 Charge =  0 Multiplicity = 1

                         Standard orientation:
 ---------------------------------------------------------------------
 Center     Atomic      Atomic             Coordinates (Angstroms)
 Number     Number       Type             X           Y           Z
 ---------------------------------------------------------------------
      1          6           0        1.313051   -0.080426   -0.308036
      2          6           0       -1.299789   -0.046985    0.306922
      3          1           0        2.619341    0.639479    1.084609
      4          1           0        3.009411   -0.909835    0.392649
      5          1           0       -2.909089   -0.992074   -0.450603
      6          1           0       -2.514519    0.509204   -1.247191
      7          7           0        2.412211   -0.100519    0.433790
      8          7           0        0.615393    1.209200   -0.164189
      9          7           0       -0.600539    1.200061    0.077796
     10          7           0       -2.395629   -0.119909   -0.476353
     11          8           0        0.940702   -0.939162   -1.079551
     12          8           0       -1.003799   -0.786356    1.220789
 ---------------------------------------------------------------------

 SCF Done:  E(RHF) =  -447.533750857     A.U. after    2 cycles

 The electronic state is 1-A.
 Alpha  occ. eigenvalues --  -21.04950 -21.04871 -15.83501 -15.82872 -15.80570
 Alpha  occ. eigenvalues --  -15.79941 -11.52719 -11.52374  -1.75421  -1.72927
 Alpha  occ. eigenvalues --   -1.55380  -1.38911  -1.36664  -1.08972  -0.90060
 Alpha  occ. eigenvalues --   -0.78779  -0.75756  -0.70932  -0.69942  -0.63055
 Alpha  occ. eigenvalues --   -0.59460  -0.56398  -0.53503  -0.49924  -0.47434
 Alpha  occ. eigenvalues --   -0.42392  -0.36606  -0.32973  -0.32526  -0.28109
 Alpha virt. eigenvalues --    0.03221   0.04873   0.05528   0.06434   0.08827
 Alpha virt. eigenvalues --    0.10344   0.10614   0.12683   0.13033   0.13714
 Alpha virt. eigenvalues --    0.13776   0.14547   0.15900   0.15954   0.16460

 Mulliken charges:
               1
     1  C    5.430217
     2  C    5.717530
     3  H    0.707780
     4  H    0.629549
     5  H    0.603928
     6  H    0.702220
     7  N   -2.922359
     8  N   -1.142254
     9  N   -1.207080
    10  N   -2.957657
    11  O   -2.734608
    12  O   -2.827266
 Sum of Mulliken charges =  -0.00000

 Dipole moment (field-independent basis, Debye):
    X=              0.4599    Y=             -0.6446    Z=             -0.2259  Tot=              0.8234

 Test job not archived.
 1\1\GINC-SE455\SP\RHF\Aug-CC-pVDZ\C2H4N4O2\OHZDE\08-Apr-2025\0\\#t hf
 aug-cc-pvdz iop(5/13=1,5/36=2,99/5=2) pseudo=read geom=check guess=(re
 ad,tcheck) scf=(maxcycle=1)\\title\\0,1\C,0,1.31305,-0.0804257,-0.3080
 35\C,0,-1.29979,-0.0469854,0.306923\H,0,2.61934,0.639479,1.08461\H,0,3
 .00941,-0.909835,0.39265\H,0,-2.90909,-0.992075,-0.450602\H,0,-2.51452
 ,0.509203,-1.24719\N,0,2.41221,-0.100519,0.433791\N,0,0.615392,1.2092,
 -0.164188\N,0,-0.60054,1.20006,0.0777969\N,0,-2.39563,-0.11991,-0.4763
 52\O,0,0.940701,-0.939162,-1.07955\O,0,-1.0038,-0.786357,1.22079\\Vers

 Normal termination of Gaussian 16 at Tue Apr  8 21:46:04 2025.
