 Gaussian 16, Revision C.01,

 ----------------------------------------------------------------------
 #t hf aug-cc-pvdz symm=none int=(grid=ultrafine) guess=(read,tcheck) s
 table=(opt,rrhf)
 ----------------------------------------------------------------------
 -----
 title
 -----
 Symbolic Z-matrix:
 Charge =  0 Multiplicity = 1

 SCF Done:  E(RHF) =  -925.741235889     A.U. after   14 cycles
 Normal termination of Gaussian 16 at Tue Apr  8 21:43:30 2025.
 Gaussian 16:  ES64L-G16RevC.01  3-Jul-2019

 ----------------------------------------------------------------------
 #t hf aug-cc-pvdz iop(5/13=1,5/36=2,99/5=2) pseudo=read geom=check gue
 ss=(read,tcheck) scf=(maxcycle=1)
 ----------------------------------------------------------------------
 -----
 title
 -----
 Structure from the checkpoint file:  "ANI1ccx_204_conf2_mol2.chk"
 Charge =  0 Multiplicity = 1

                         Standard orientation:
 ---------------------------------------------------------------------
 Center     Atomic      Atomic             Coordinates (Angstroms)
 Number     Number       Type             X           Y           Z
 ---------------------------------------------------------------------
      1          6           0        1.379549   -1.687951    0.098494
      2          6           0       -0.939119    3.234190    0.353825
      3          6           0       -1.478179    1.968281    1.087730
      4          6           0       -2.234970    0.989582    0.173973
      5          6           0       -3.151201   -1.338898   -0.130952
      6          6           0        1.276151    2.358209   -0.505375
      7          6           0        3.611089   -1.835022   -0.347352
      8          6           0        3.552979   -1.185842    0.988858
      9          6           0        2.040599   -1.215791    1.414110
     10          6           0       -0.010827   -1.125100   -0.233566
     11          6           0       -2.242771   -0.473257    0.734568
     12          1           0       -2.006989    2.329921    1.994710
     13          1           0       -3.490702   -3.095708   -0.697406
     14          1           0        2.462920    0.909471   -1.104760
     15          1           0        1.069270    1.053459   -2.054540
     16          1           0        1.491231    3.210019    1.143280
     17          1           0       -0.329239    2.907520   -1.592840
     18          1           0       -1.734188    3.787881   -0.197564
     19          1           0       -0.604749    3.979200    1.045010
     20          1           0       -0.563946    1.418760    1.447520
     21          1           0       -3.311500    1.242952    0.098710
     22          1           0       -0.634317   -1.470390    1.689530
     23          1           0       -2.758371   -0.514328    1.722810
     24          1           0        2.143079   -1.918191   -1.806270
     25          1           0       -1.834020    1.017971   -0.863090
     26          1           0        1.769699   -1.888371    2.180440
     27          1           0        1.761149   -0.200393    1.719510
     28          1           0        1.322898   -2.757281    0.241705
     29          1           0        3.901969   -0.142213    0.934241
     30          1           0        4.505869   -1.521822   -0.878083
     31          1           0        3.605168   -2.943732   -0.193430
     32          1           0        4.244909   -1.662812    1.704690
     33          7           0        2.352069   -1.376851   -0.947199
     34          7           0       -0.882341   -1.062370    0.804340
     35          7           0        0.070697    2.999170   -0.676431
     36          7           0        1.955241    2.538129    0.567498
     37          7           0        1.728170    1.529939   -1.455980
     38          8           0       -4.227151   -0.903371   -0.507199
     39          8           0       -0.299236   -0.733326   -1.347810
     40          8           0       -2.773212   -2.646859   -0.193197
 ---------------------------------------------------------------------

 SCF Done:  E(RHF) =  -930.023612747     A.U. after    2 cycles

 The electronic state is 1-A.
 Alpha  occ. eigenvalues --  -21.13439 -21.06012 -21.03166 -15.77362 -15.73010
 Alpha  occ. eigenvalues --  -15.72817 -15.72349 -15.66166 -11.55734 -11.55338
 Alpha  occ. eigenvalues --  -11.52451 -11.48671 -11.45502 -11.45435 -11.42876
 Alpha  occ. eigenvalues --  -11.42262 -11.40348 -11.37855 -11.36381  -1.82707
 Alpha  occ. eigenvalues --   -1.72385  -1.66127  -1.48224  -1.45652  -1.40722
 Alpha  occ. eigenvalues --   -1.30941  -1.20700  -1.19118  -1.13720  -1.10775
 Alpha  occ. eigenvalues --   -1.06811  -0.97122  -0.90131  -0.86810  -0.84068
 Alpha  occ. eigenvalues --   -0.82182  -0.77707  -0.76312  -0.74857  -0.71432
 Alpha  occ. eigenvalues --   -0.70776  -0.67888  -0.65856  -0.64656  -0.63090
 Alpha  occ. eigenvalues --   -0.62699  -0.62297  -0.58351  -0.57940  -0.56867
 Alpha  occ. eigenvalues --   -0.56324  -0.54513  -0.52947  -0.52528  -0.51464
 Alpha  occ. eigenvalues --   -0.50082  -0.49790  -0.48978  -0.47536  -0.46724
 Alpha  occ. eigenvalues --   -0.46441  -0.45530  -0.45229  -0.44469  -0.43474
 Alpha  occ. eigenvalues --   -0.36375  -0.35347  -0.34938  -0.33846  -0.32702
 Alpha  occ. eigenvalues --   -0.29419  -0.29248  -0.27855
 Alpha virt. eigenvalues --    0.03447   0.03902   0.04080   0.04567   0.05084
 Alpha virt. eigenvalues --    0.05268   0.05762   0.05932   0.06414   0.06464
 Alpha virt. eigenvalues --    0.06950   0.07173   0.07274   0.07739   0.08342

 Mulliken charges:
               1
     1  C   -1.859537
     2  C   -3.372764
     3  C   -3.927561
     4  C   -1.998625
     5  C    7.391957
     6  C    6.536476
     7  C   -3.503596
     8  C   -2.754891
     9  C   -3.933317
    10  C    7.239705
    11  C   -4.092428
    12  H    1.254460
    13  H    0.960778
    14  H    0.842511
    15  H    0.801089
    16  H    0.751436
    17  H    0.669637
    18  H    1.563213
    19  H    1.411004
    20  H    2.427934
    21  H    1.617174
    22  H    0.865175
    23  H    1.970000
    24  H    0.615966
    25  H    1.975863
    26  H    1.545454
    27  H    1.781737
    28  H    1.843380
    29  H    1.497028
    30  H    1.366113
    31  H    1.338287
    32  H    1.270770
    33  N   -1.125564
    34  N   -2.227155
    35  N   -2.581832
    36  N   -3.713400
    37  N   -3.740186
    38  O   -3.272429
    39  O   -4.040942
    40  O   -3.392917
 Sum of Mulliken charges =   0.00000

 Dipole moment (field-independent basis, Debye):
    X=             -1.5566    Y=             -3.2011    Z=              0.5999  Tot=              3.6097

 Test job not archived.
 1\1\GINC-SE043\SP\RHF\Aug-CC-pVDZ\C11H21N5O3\OHZDE\08-Apr-2025\0\\#t h
 f aug-cc-pvdz iop(5/13=1,5/36=2,99/5=2) pseudo=read geom=check guess=(
 read,tcheck) scf=(maxcycle=1)\\title\\0,1\C,0,1.37955,-1.68795,0.09849
 35\C,0,-0.93912,3.23419,0.353825\C,0,-1.47818,1.96828,1.08773\C,0,-2.2
 3497,0.989581,0.173973\C,0,-3.1512,-1.3389,-0.130952\C,0,1.27615,2.358
 21,-0.505375\C,0,3.61109,-1.83502,-0.347352\C,0,3.55298,-1.18584,0.988
 858\C,0,2.0406,-1.21579,1.41411\C,0,-0.0108255,-1.1251,-0.233566\C,0,-
 2.24277,-0.473258,0.734568\H,0,-2.00699,2.32992,1.99471\H,0,-3.4907,-3

 Normal termination of Gaussian 16 at Tue Apr  8 21:44:54 2025.
