 Gaussian 16, Revision C.01,

 ----------------------------------------------------------------------
 #t hf aug-cc-pvdz symm=none int=(grid=ultrafine) guess=(read,tcheck) s
 table=(opt,rrhf)
 ----------------------------------------------------------------------
 -----
 title
 -----
 Symbolic Z-matrix:
 Charge =  0 Multiplicity = 1

 SCF Done:  E(RHF) =  -460.227317266     A.U. after   17 cycles
 Normal termination of Gaussian 16 at Tue Apr  8 21:34:40 2025.
 Gaussian 16:  ES64L-G16RevC.01  3-Jul-2019

 ----------------------------------------------------------------------
 #t hf aug-cc-pvdz iop(5/13=1,5/36=2,99/5=2) pseudo=read geom=check gue
 ss=(read,tcheck) scf=(maxcycle=1)
 ----------------------------------------------------------------------
 -----
 title
 -----
 Structure from the checkpoint file:  "ANI1ccx_373_conf16_mol1.chk"
 Charge =  0 Multiplicity = 1

                         Standard orientation:
 ---------------------------------------------------------------------
 Center     Atomic      Atomic             Coordinates (Angstroms)
 Number     Number       Type             X           Y           Z
 ---------------------------------------------------------------------
      1          6           0        0.000283   -0.077290   -0.064290
      2          1           0       -2.701948    1.356431   -0.023094
      3          7           0        1.405571    0.006885   -0.098838
      4          7           0       -0.744199   -1.215170   -0.203323
      5          7           0       -2.027839   -0.693703   -0.027672
      6          7           0       -1.937989    0.592937    0.188887
      7          7           0       -0.690836    1.072990    0.042625
      8          8           0        1.871262    1.152608   -0.101879
      9          8           0        1.962150   -1.057642    0.239014
 ---------------------------------------------------------------------

 SCF Done:  E(RHF) =  -462.177090475     A.U. after    2 cycles

 The electronic state is 1-A.
 Alpha  occ. eigenvalues --  -21.12605 -21.12337 -16.02825 -15.91601 -15.87189
 Alpha  occ. eigenvalues --  -15.83935 -15.83794 -11.51423  -2.01170  -1.77925
 Alpha  occ. eigenvalues --   -1.71678  -1.41318  -1.35866  -1.10887  -0.97834
 Alpha  occ. eigenvalues --   -0.83392  -0.78515  -0.74896  -0.69319  -0.66327
 Alpha  occ. eigenvalues --   -0.62740  -0.57532  -0.49171  -0.47042  -0.45054
 Alpha  occ. eigenvalues --   -0.42092  -0.37331  -0.34049  -0.33053
 Alpha virt. eigenvalues --    0.02441   0.07523   0.08638   0.09684   0.10273
 Alpha virt. eigenvalues --    0.10718   0.12217   0.12580   0.13070   0.14907
 Alpha virt. eigenvalues --    0.15443   0.17019   0.17509   0.18226   0.19210

 Mulliken charges:
               1
     1  C    4.606454
     2  H    0.907841
     3  N    3.375682
     4  N   -1.598333
     5  N   -0.207103
     6  N    0.123575
     7  N   -1.929492
     8  O   -2.741000
     9  O   -2.537625
 Sum of Mulliken charges =   0.00000

 Dipole moment (field-independent basis, Debye):
    X=             -3.1784    Y=              2.1573    Z=              0.1113  Tot=              3.8430

 Test job not archived.
 1\1\GINC-SE016\SP\RHF\Aug-CC-pVDZ\C1H1N5O2\OHZDE\08-Apr-2025\0\\#t hf
 aug-cc-pvdz iop(5/13=1,5/36=2,99/5=2) pseudo=read geom=check guess=(re
 ad,tcheck) scf=(maxcycle=1)\\title\\0,1\C,0,0.00028177,-0.0772893,-0.0
 642902\H,0,-2.70195,1.35643,-0.0230944\N,0,1.40557,0.00688658,-0.09883
 76\N,0,-0.744199,-1.21517,-0.203323\N,0,-2.02784,-0.693703,-0.0276721\
 N,0,-1.93799,0.592937,0.188887\N,0,-0.690838,1.07299,0.0426249\O,0,1.8
 7126,1.15261,-0.101879\O,0,1.96215,-1.05764,0.239014\\Version=ES64L-G1
 6RevC.01\State=1-A\HF=-462.1770905\RMSD=8.677e-02\Dipole=-1.2504772,0.

 Normal termination of Gaussian 16 at Tue Apr  8 21:34:43 2025.
