 Gaussian 16, Revision C.01,

 ----------------------------------------------------------------------
 #t hf aug-cc-pvdz symm=none int=(grid=ultrafine) guess=(read,tcheck) s
 table=(opt,rrhf)
 ----------------------------------------------------------------------
 -----
 title
 -----
 Symbolic Z-matrix:
 Charge =  0 Multiplicity = 1

 SCF Done:  E(RHF) =  -981.398242970     A.U. after   15 cycles
 Normal termination of Gaussian 16 at Tue Apr  8 22:29:04 2025.
 Gaussian 16:  ES64L-G16RevC.01  3-Jul-2019

 ----------------------------------------------------------------------
 #t hf aug-cc-pvdz iop(5/13=1,5/36=2,99/5=2) pseudo=read geom=check gue
 ss=(read,tcheck) scf=(maxcycle=1)
 ----------------------------------------------------------------------
 -----
 title
 -----
 Structure from the checkpoint file:  "ANI1ccx_69_conf10_mol1.chk"
 Charge =  0 Multiplicity = 1

                         Standard orientation:
 ---------------------------------------------------------------------
 Center     Atomic      Atomic             Coordinates (Angstroms)
 Number     Number       Type             X           Y           Z
 ---------------------------------------------------------------------
      1          6           0        2.675510   -0.758653    0.324490
      2          6           0       -2.426810    0.801727    1.198410
      3          6           0       -2.109430   -0.595038    1.645900
      4          6           0       -1.343130   -1.283230   -0.692040
      5          6           0       -0.988980   -1.308730    0.866873
      6          6           0       -3.237099    0.968973   -0.135095
      7          6           0        1.845951    1.193569   -1.149990
      8          6           0        3.006030    0.156333   -0.875354
      9          6           0        1.295369   -1.425251    0.370790
     10          6           0        1.858131    2.126359    0.024062
     11          1           0       -0.842205   -2.303330    1.251660
     12          1           0       -0.701076   -0.619132   -2.225780
     13          1           0       -5.070890    0.554590    0.891086
     14          1           0       -5.200730    0.878647   -0.814623
     15          1           0       -2.936489    1.281901    2.042360
     16          1           0       -1.391199    1.374580    0.967699
     17          1           0       -1.678130   -0.511656    2.649700
     18          1           0       -3.000860   -1.255369    1.758200
     19          1           0        0.365942    0.291820    0.983043
     20          1           0        3.005162    3.694508    0.755882
     21          1           0        3.260662    3.357568   -0.912362
     22          1           0        0.921621    0.659794   -1.237000
     23          1           0        1.946921    1.847739   -2.006500
     24          1           0        3.132600   -0.560593   -1.645850
     25          1           0        3.857160    0.685308   -0.630843
     26          1           0        2.777420   -0.120389    1.172350
     27          1           0        3.866289   -2.361792    1.351260
     28          1           0        3.483279   -2.469572   -0.290887
     29          7           0       -4.624070    0.835428    0.043880
     30          7           0        0.266535   -0.727348    0.990450
     31          7           0        3.783969   -1.862902    0.420285
     32          7           0        3.002331    2.978218    0.057968
     33          8           0       -2.870759    1.283771   -1.241190
     34          8           0        1.063659   -2.537241   -0.079043
     35          8           0        1.069351    2.114339    1.012670
     36          8           0       -2.026101   -1.945460   -1.430480
     37          8           0       -0.517410   -0.446002   -1.276420
 ---------------------------------------------------------------------

 SCF Done:  E(RHF) =  -985.808413827     A.U. after    2 cycles

 The electronic state is 1-A.
 Alpha  occ. eigenvalues --  -21.09896 -21.05467 -21.03733 -21.03049 -21.03012
 Alpha  occ. eigenvalues --  -15.78955 -15.76405 -15.74541 -15.73407 -11.54977
 Alpha  occ. eigenvalues --  -11.54299 -11.53520 -11.52566 -11.48768 -11.47607
 Alpha  occ. eigenvalues --  -11.45608 -11.44088 -11.40472 -11.40290  -1.85493
 Alpha  occ. eigenvalues --   -1.72048  -1.71098  -1.70811  -1.63396  -1.42510
 Alpha  occ. eigenvalues --   -1.36178  -1.32257  -1.31656  -1.20457  -1.18453
 Alpha  occ. eigenvalues --   -1.06849  -1.02548  -0.93886  -0.91090  -0.81937
 Alpha  occ. eigenvalues --   -0.81461  -0.79130  -0.77926  -0.72272  -0.70323
 Alpha  occ. eigenvalues --   -0.69948  -0.67622  -0.67127  -0.65185  -0.63680
 Alpha  occ. eigenvalues --   -0.63202  -0.61357  -0.60015  -0.59057  -0.57941
 Alpha  occ. eigenvalues --   -0.57364  -0.54155  -0.53585  -0.52990  -0.52288
 Alpha  occ. eigenvalues --   -0.51975  -0.49094  -0.48107  -0.47650  -0.46626
 Alpha  occ. eigenvalues --   -0.46446  -0.45498  -0.43649  -0.42982  -0.36485
 Alpha  occ. eigenvalues --   -0.35790  -0.34475  -0.32243  -0.31900  -0.30849
 Alpha  occ. eigenvalues --   -0.28994  -0.28255  -0.26271
 Alpha virt. eigenvalues --    0.03076   0.03633   0.04224   0.04693   0.04998
 Alpha virt. eigenvalues --    0.05626   0.05802   0.05966   0.06167   0.06675
 Alpha virt. eigenvalues --    0.07055   0.07553   0.08270   0.08613   0.08874

 Mulliken charges:
               1
     1  C   -2.170774
     2  C   -3.986009
     3  C   -3.352403
     4  C    7.994264
     5  C   -2.032063
     6  C    6.335489
     7  C   -4.226766
     8  C   -4.409431
     9  C    9.023666
    10  C    6.055704
    11  H    1.830425
    12  H    0.807223
    13  H    0.818242
    14  H    0.753719
    15  H    1.376049
    16  H    1.591805
    17  H    1.311819
    18  H    1.385234
    19  H    1.245211
    20  H    0.849136
    21  H    0.562943
    22  H    3.329974
    23  H    1.202932
    24  H    1.422310
    25  H    1.549164
    26  H    2.070020
    27  H    0.613443
    28  H    0.603788
    29  N   -3.715323
    30  N   -3.702295
    31  N   -2.625629
    32  N   -3.281907
    33  O   -3.610440
    34  O   -4.197524
    35  O   -3.576891
    36  O   -4.528727
    37  O   -3.316380
 Sum of Mulliken charges =  -0.00000

 Dipole moment (field-independent basis, Debye):
    X=             -0.0720    Y=              2.9866    Z=              1.2504  Tot=              3.2386

 Test job not archived.
 1\1\GINC-SE363\SP\RHF\Aug-CC-pVDZ\C10H18N4O5\OHZDE\08-Apr-2025\0\\#t h
 f aug-cc-pvdz iop(5/13=1,5/36=2,99/5=2) pseudo=read geom=check guess=(
 read,tcheck) scf=(maxcycle=1)\\title\\0,1\C,0,2.67551,-0.758651,0.3244
 9\C,0,-2.42681,0.801726,1.19841\C,0,-2.10943,-0.595038,1.6459\C,0,-1.3
 4313,-1.28323,-0.69204\C,0,-0.98898,-1.30873,0.866873\C,0,-3.2371,0.96
 8972,-0.135095\C,0,1.84595,1.19357,-1.14999\C,0,3.00603,0.156335,-0.87
 5354\C,0,1.29537,-1.42525,0.37079\C,0,1.85813,2.12636,0.0240627\H,0,-0
 .842204,-2.30333,1.25166\H,0,-0.701076,-0.619132,-2.22578\H,0,-5.07089

 Normal termination of Gaussian 16 at Tue Apr  8 22:30:16 2025.
