 Gaussian 16, Revision C.01,

 ----------------------------------------------------------------------
 #t hf aug-cc-pvdz symm=none int=(grid=ultrafine) guess=(read,tcheck) s
 table=(opt,rrhf)
 ----------------------------------------------------------------------
 -----
 title
 -----
 Symbolic Z-matrix:
 Charge =  0 Multiplicity = 1

 SCF Done:  E(RHF) =  -962.292669214     A.U. after   14 cycles
 Normal termination of Gaussian 16 at Tue Apr  8 21:08:44 2025.
 Gaussian 16:  ES64L-G16RevC.01  3-Jul-2019

 ----------------------------------------------------------------------
 #t hf aug-cc-pvdz iop(5/13=1,5/36=2,99/5=2) pseudo=read geom=check gue
 ss=(read,tcheck) scf=(maxcycle=1)
 ----------------------------------------------------------------------
 -----
 title
 -----
 Structure from the checkpoint file:  "ANI1ccx_1756_conf22_mol2.chk"
 Charge =  0 Multiplicity = 1

                         Standard orientation:
 ---------------------------------------------------------------------
 Center     Atomic      Atomic             Coordinates (Angstroms)
 Number     Number       Type             X           Y           Z
 ---------------------------------------------------------------------
      1          6           0        1.474802   -1.757189    0.529987
      2          6           0        0.354490   -0.751960    0.818108
      3          6           0        2.005442   -1.617769   -0.882573
      4          6           0        2.314811   -0.166805   -1.308060
      5          6           0        3.212940    0.572185   -0.306751
      6          6           0       -1.977599   -0.095644    0.167507
      7          6           0       -3.211249   -0.850035   -0.234752
      8          6           0       -1.787410    1.138918   -0.783554
      9          6           0       -0.972124    2.221309   -0.123696
     10          1           0       -5.066979   -0.776601   -0.237891
     11          1           0       -0.992681    3.456499    1.228580
     12          1           0       -2.799490    1.541647   -1.042510
     13          1           0       -1.268870    0.870579   -1.732240
     14          1           0       -2.161620    0.273790    1.179710
     15          1           0       -0.944218   -1.849531   -0.365204
     16          1           0        1.993639    2.228261   -0.446446
     17          1           0        3.449369    2.408052    0.547300
     18          1           0        2.889331   -0.207950   -2.254270
     19          1           0        1.380970    0.390050   -1.453700
     20          1           0        1.384222   -2.065970   -1.664520
     21          1           0        3.006092   -2.075388   -0.940611
     22          1           0        2.260652   -1.591949    1.296350
     23          1           0        0.714870   -3.198630    1.708550
     24          1           0        1.648893   -3.771999    0.519579
     25          7           0        0.911351   -3.090670    0.704967
     26          7           0        2.951819    1.885262   -0.173475
     27          7           0       -0.793594   -0.970019    0.096942
     28          8           0        0.465178    0.206745    1.572900
     29          8           0        4.129851   -0.008947    0.243585
     30          8           0       -3.205208   -1.894923   -0.838185
     31          8           0        0.124021    2.553610   -0.462995
     32          8           0       -1.589011    2.768788    0.920273
     33          8           0       -4.358059   -0.195388    0.064549
 ---------------------------------------------------------------------

 SCF Done:  E(RHF) =  -966.502512911     A.U. after    2 cycles

 The electronic state is 1-A.
 Alpha  occ. eigenvalues --  -21.15170 -21.14165 -21.08360 -21.07047 -21.03449
 Alpha  occ. eigenvalues --  -21.00112 -15.76755 -15.74556 -15.74360 -11.57545
 Alpha  occ. eigenvalues --  -11.56505 -11.54052 -11.50600 -11.49238 -11.47206
 Alpha  occ. eigenvalues --  -11.44102 -11.42436 -11.38249  -1.86964  -1.85342
 Alpha  occ. eigenvalues --   -1.71346  -1.68612  -1.68496  -1.68181  -1.42449
 Alpha  occ. eigenvalues --   -1.36210  -1.32004  -1.19185  -1.17119  -1.04848
 Alpha  occ. eigenvalues --   -1.00373  -0.91402  -0.83175  -0.82499  -0.80614
 Alpha  occ. eigenvalues --   -0.76445  -0.70667  -0.69742  -0.67819  -0.67056
 Alpha  occ. eigenvalues --   -0.65869  -0.64883  -0.64147  -0.63473  -0.62138
 Alpha  occ. eigenvalues --   -0.61563  -0.59364  -0.57887  -0.57018  -0.54292
 Alpha  occ. eigenvalues --   -0.53162  -0.51403  -0.51032  -0.49746  -0.48877
 Alpha  occ. eigenvalues --   -0.47870  -0.47231  -0.45610  -0.44412  -0.43491
 Alpha  occ. eigenvalues --   -0.38053  -0.36884  -0.36319  -0.33852  -0.32424
 Alpha  occ. eigenvalues --   -0.30911  -0.30130  -0.28847  -0.26551
 Alpha virt. eigenvalues --    0.03621   0.04322   0.04430   0.04654   0.05312
 Alpha virt. eigenvalues --    0.05907   0.06340   0.06601   0.06888   0.07164
 Alpha virt. eigenvalues --    0.07672   0.08239   0.08651   0.09445   0.09650

 Mulliken charges:
               1
     1  C   -1.052155
     2  C    7.770865
     3  C   -3.214709
     4  C   -4.408679
     5  C    6.281721
     6  C   -3.223288
     7  C    8.039487
     8  C   -4.923471
     9  C    7.887981
    10  H    0.954865
    11  H    0.962230
    12  H    1.516030
    13  H    1.559894
    14  H    2.095092
    15  H    0.855796
    16  H    1.014273
    17  H    0.742970
    18  H    1.218223
    19  H    2.207007
    20  H    1.299159
    21  H    1.343444
    22  H    1.737099
    23  H    0.529718
    24  H    0.652773
    25  N   -3.313078
    26  N   -3.425821
    27  N   -3.194063
    28  O   -4.044318
    29  O   -3.562145
    30  O   -3.352684
    31  O   -3.889227
    32  O   -3.615129
    33  O   -3.449864
 Sum of Mulliken charges =  -0.00000

 Dipole moment (field-independent basis, Debye):
    X=             -3.8324    Y=              0.4883    Z=              0.4797  Tot=              3.8930

 Test job not archived.
 1\1\GINC-SE110\SP\RHF\Aug-CC-pVDZ\C9H15N3O6\OHZDE\08-Apr-2025\0\\#t hf
  aug-cc-pvdz iop(5/13=1,5/36=2,99/5=2) pseudo=read geom=check guess=(r
 ead,tcheck) scf=(maxcycle=1)\\title\\0,1\C,0,1.4748,-1.75719,0.529987\
 C,0,0.354489,-0.75196,0.818108\C,0,2.00544,-1.61777,-0.882573\C,0,2.31
 481,-0.166806,-1.30806\C,0,3.21294,0.572183,-0.306751\C,0,-1.9776,-0.0
 956424,0.167507\C,0,-3.21125,-0.850032,-0.234752\C,0,-1.78741,1.13892,
 -0.783554\C,0,-0.972123,2.22131,-0.123696\H,0,-5.06698,-0.776597,-0.23
 7891\H,0,-0.992679,3.4565,1.22858\H,0,-2.79949,1.54165,-1.04251\H,0,-1

 Normal termination of Gaussian 16 at Tue Apr  8 21:09:38 2025.
