 Gaussian 16, Revision C.01,

 ----------------------------------------------------------------------
 #t hf aug-cc-pvdz symm=none int=(grid=ultrafine) guess=(read,tcheck) s
 table=(opt,rrhf)
 ----------------------------------------------------------------------
 -----
 title
 -----
 Symbolic Z-matrix:
 Charge =  0 Multiplicity = 1

 SCF Done:  E(RHF) =  -535.533157548     A.U. after   16 cycles
 Normal termination of Gaussian 16 at Tue Apr  8 22:11:28 2025.
 Gaussian 16:  ES64L-G16RevC.01  3-Jul-2019

 ----------------------------------------------------------------------
 #t hf aug-cc-pvdz iop(5/13=1,5/36=2,99/5=2) pseudo=read geom=check gue
 ss=(read,tcheck) scf=(maxcycle=1)
 ----------------------------------------------------------------------
 -----
 title
 -----
 Structure from the checkpoint file:  "ANI1ccx_911_conf2_mol1.chk"
 Charge =  0 Multiplicity = 1

                         Standard orientation:
 ---------------------------------------------------------------------
 Center     Atomic      Atomic             Coordinates (Angstroms)
 Number     Number       Type             X           Y           Z
 ---------------------------------------------------------------------
      1          6           0        1.650449   -0.518221   -0.042997
      2          6           0        0.343265    1.318940    0.008677
      3          6           0       -0.848816    0.430846    0.018488
      4          6           0       -2.213992    0.482984    0.008277
      5          1           0        3.025270   -1.944829   -0.117919
      6          1           0        3.622839   -0.310923   -0.078504
      7          1           0        0.783207    3.313370    0.193542
      8          1           0       -0.851384    2.945249    0.100806
      9          1           0       -2.918562    1.272238   -0.079314
     10          7           0        2.912859   -0.982845    0.066103
     11          7           0        1.581658    0.868740   -0.055609
     12          7           0        0.081542    2.622260   -0.025869
     13          7           0       -2.641431   -0.799699    0.010493
     14          7           0       -1.667991   -1.644321   -0.024865
     15          7           0       -0.558419   -0.869666    0.002150
     16          7           0        0.685094   -1.417670    0.031412
 ---------------------------------------------------------------------

 SCF Done:  E(RHF) =  -537.961980393     A.U. after    2 cycles

 The electronic state is 1-A.
 Alpha  occ. eigenvalues --  -15.84322 -15.82090 -15.78810 -15.78013 -15.75558
 Alpha  occ. eigenvalues --  -15.75252 -15.74554 -11.56180 -11.50078 -11.47619
 Alpha  occ. eigenvalues --  -11.43167  -1.73931  -1.54991  -1.46267  -1.39099
 Alpha  occ. eigenvalues --   -1.29231  -1.21114  -1.16992  -0.96346  -0.91640
 Alpha  occ. eigenvalues --   -0.86050  -0.79732  -0.73709  -0.70488  -0.69720
 Alpha  occ. eigenvalues --   -0.68066  -0.62844  -0.60495  -0.59847  -0.58661
 Alpha  occ. eigenvalues --   -0.54294  -0.48258  -0.46408  -0.43908  -0.38345
 Alpha  occ. eigenvalues --   -0.38003  -0.37894  -0.35299  -0.27997
 Alpha virt. eigenvalues --    0.02573   0.04311   0.04617   0.05956   0.06912
 Alpha virt. eigenvalues --    0.08657   0.09604   0.10927   0.11145   0.11957
 Alpha virt. eigenvalues --    0.12264   0.12636   0.13419   0.13699   0.13813

 Mulliken charges:
               1
     1  C    4.365496
     2  C    3.309642
     3  C    4.876848
     4  C   -1.460440
     5  H    0.736326
     6  H    0.614902
     7  H    0.738879
     8  H    0.646686
     9  H    1.243371
    10  N   -3.046509
    11  N   -3.272835
    12  N   -3.424816
    13  N   -1.773596
    14  N   -0.664525
    15  N   -0.275490
    16  N   -2.613940
 Sum of Mulliken charges =  -0.00000

 Dipole moment (field-independent basis, Debye):
    X=              3.4715    Y=              5.0616    Z=             -0.0744  Tot=              6.1381

 Test job not archived.
 1\1\GINC-SE334\SP\RHF\Aug-CC-pVDZ\C4H5N7\OHZDE\08-Apr-2025\0\\#t hf au
 g-cc-pvdz iop(5/13=1,5/36=2,99/5=2) pseudo=read geom=check guess=(read
 ,tcheck) scf=(maxcycle=1)\\title\\0,1\C,0,1.65045,-0.518221,-0.0429965
 \C,0,0.343267,1.31894,0.00867744\C,0,-0.848814,0.430847,0.0184884\C,0,
 -2.21399,0.482986,0.00827663\H,0,3.02527,-1.94483,-0.117919\H,0,3.6228
 4,-0.310924,-0.0785042\H,0,0.78321,3.31337,0.193542\H,0,-0.851381,2.94
 525,0.100806\H,0,-2.91856,1.27224,-0.0793142\N,0,2.91286,-0.982846,0.0
 661028\N,0,1.58166,0.86874,-0.0556088\N,0,0.0815453,2.62226,-0.0258689

 Normal termination of Gaussian 16 at Tue Apr  8 22:11:35 2025.
