 Gaussian 16, Revision C.01,

 ----------------------------------------------------------------------
 #t hf aug-cc-pvdz symm=none int=(grid=ultrafine) guess=(read,tcheck) s
 table=(opt,rrhf)
 ----------------------------------------------------------------------
 -----
 title
 -----
 Symbolic Z-matrix:
 Charge =  0 Multiplicity = 1

 SCF Done:  E(RHF) =  -634.175729785     A.U. after   16 cycles
 Normal termination of Gaussian 16 at Tue Apr  8 19:23:39 2025.
 Gaussian 16:  ES64L-G16RevC.01  3-Jul-2019

 ----------------------------------------------------------------------
 #t hf aug-cc-pvdz iop(5/13=1,5/36=2,99/5=2) pseudo=read geom=check gue
 ss=(read,tcheck) scf=(maxcycle=1)
 ----------------------------------------------------------------------
 -----
 title
 -----
 Structure from the checkpoint file:  "ANI1ccx_1093_conf5_mol1.chk"
 Charge =  0 Multiplicity = 1

                         Standard orientation:
 ---------------------------------------------------------------------
 Center     Atomic      Atomic             Coordinates (Angstroms)
 Number     Number       Type             X           Y           Z
 ---------------------------------------------------------------------
      1          6           0       -0.869509    1.300911   -0.021581
      2          6           0        0.286193    0.606015   -0.016522
      3          6           0        2.445839   -0.204072    0.007962
      4          6           0        0.266808   -0.815912   -0.058315
      5          6           0       -1.954071   -0.943644   -0.024391
      6          1           0       -1.767778    2.887872    0.551870
      7          1           0        2.004021    1.848759   -0.064019
      8          1           0        1.716488   -2.271331   -0.100141
      9          1           0       -2.910370    0.905827   -0.024949
     10          7           0        1.665000    0.930200    0.045588
     11          7           0        1.557269   -1.256481   -0.027132
     12          7           0       -0.774187   -1.587439   -0.140950
     13          7           0       -1.988310    0.484470   -0.050377
     14          8           0       -1.060228    2.616012   -0.073383
     15          8           0        3.689339   -0.229527    0.091200
     16          8           0       -3.043152   -1.514757    0.172734
 ---------------------------------------------------------------------

 SCF Done:  E(RHF) =  -636.892738505     A.U. after    2 cycles

 The electronic state is 1-A.
 Alpha  occ. eigenvalues --  -21.17993 -21.04712 -21.01672 -15.82582 -15.81486
 Alpha  occ. eigenvalues --  -15.81237 -15.75008 -11.58653 -11.55611 -11.54104
 Alpha  occ. eigenvalues --  -11.51544 -11.46361  -1.84922  -1.73407  -1.70306
 Alpha  occ. eigenvalues --   -1.59043  -1.44791  -1.39160  -1.32427  -1.14626
 Alpha  occ. eigenvalues --   -0.97723  -0.94362  -0.89680  -0.77901  -0.75688
 Alpha  occ. eigenvalues --   -0.73682  -0.70704  -0.67835  -0.64434  -0.62996
 Alpha  occ. eigenvalues --   -0.61821  -0.56942  -0.52902  -0.51070  -0.49027
 Alpha  occ. eigenvalues --   -0.46618  -0.44714  -0.41465  -0.39593  -0.32562
 Alpha  occ. eigenvalues --   -0.32093  -0.29370  -0.25732
 Alpha virt. eigenvalues --    0.01689   0.04482   0.05300   0.06120   0.07144
 Alpha virt. eigenvalues --    0.08774   0.09142   0.09765   0.10212   0.10516
 Alpha virt. eigenvalues --    0.11040   0.11831   0.12446   0.12964   0.13570

 Mulliken charges:
               1
     1  C    6.418379
     2  C    0.800636
     3  C    5.324818
     4  C    3.275854
     5  C    5.007520
     6  H    0.687413
     7  H    0.695139
     8  H    0.832766
     9  H    0.598838
    10  N   -3.475971
    11  N   -3.392613
    12  N   -3.441433
    13  N   -2.665972
    14  O   -3.942081
    15  O   -3.440166
    16  O   -3.283127
 Sum of Mulliken charges =   0.00000

 Dipole moment (field-independent basis, Debye):
    X=             -0.0331    Y=              4.9214    Z=              0.1323  Tot=              4.9233

 Test job not archived.
 1\1\GINC-SE048\SP\RHF\Aug-CC-pVDZ\C5H4N4O3\OHZDE\08-Apr-2025\0\\#t hf
 aug-cc-pvdz iop(5/13=1,5/36=2,99/5=2) pseudo=read geom=check guess=(re
 ad,tcheck) scf=(maxcycle=1)\\title\\0,1\C,0,-0.86951,1.30091,-0.021580
 5\C,0,0.286193,0.606015,-0.016522\C,0,2.44584,-0.204071,0.00796201\C,0
 ,0.266809,-0.815913,-0.058315\C,0,-1.95407,-0.943646,-0.0243913\H,0,-1
 .76778,2.88787,0.55187\H,0,2.00402,1.84876,-0.064019\H,0,1.71649,-2.27
 133,-0.100141\H,0,-2.91037,0.905824,-0.0249493\N,0,1.665,0.930201,0.04
 55882\N,0,1.55727,-1.25648,-0.0271316\N,0,-0.774185,-1.58744,-0.14095\

 Normal termination of Gaussian 16 at Tue Apr  8 19:23:48 2025.
