 Gaussian 16, Revision C.01,

 ----------------------------------------------------------------------
 #t hf aug-cc-pvdz symm=none int=(grid=ultrafine) guess=(read,tcheck) s
 table=(opt,rrhf)
 ----------------------------------------------------------------------
 -----
 title
 -----
 Symbolic Z-matrix:
 Charge =  0 Multiplicity = 1

 SCF Done:  E(RHF) =  -222.386390635     A.U. after   12 cycles
 Normal termination of Gaussian 16 at Tue Apr  8 21:14:24 2025.
 Gaussian 16:  ES64L-G16RevC.01  3-Jul-2019

 ----------------------------------------------------------------------
 #t hf aug-cc-pvdz iop(5/13=1,5/36=2,99/5=2) pseudo=read geom=check gue
 ss=(read,tcheck) scf=(maxcycle=1)
 ----------------------------------------------------------------------
 -----
 title
 -----
 Structure from the checkpoint file:  "ANI1ccx_1903_conf9_mol2.chk"
 Charge =  0 Multiplicity = 1

                         Standard orientation:
 ---------------------------------------------------------------------
 Center     Atomic      Atomic             Coordinates (Angstroms)
 Number     Number       Type             X           Y           Z
 ---------------------------------------------------------------------
      1          1           0       -2.634861    0.437155    1.024820
      2          1           0       -3.188381   -0.072561   -0.414137
      3          1           0       -1.227301    1.073620   -0.723078
      4          1           0       -1.015921   -0.586862   -0.952402
      5          1           0        0.887185    0.982568   -0.140049
      6          1           0        2.074329    1.129970    0.895828
      7          1           0        2.183789   -1.183620   -0.823817
      8          1           0        1.188969   -1.062810    0.596713
      9          7           0       -2.466491   -0.253891    0.274592
     10          7           0       -1.148611    0.155277   -0.288586
     11          7           0        1.850319    0.710859   -0.022179
     12          7           0        2.012239   -0.714739    0.112762
 ---------------------------------------------------------------------

 SCF Done:  E(RHF) =  -223.443459094     A.U. after    2 cycles

 The electronic state is 1-A.
 Alpha  occ. eigenvalues --  -15.76889 -15.76462 -15.73217 -15.72709  -1.42577
 Alpha  occ. eigenvalues --   -1.39893  -1.09054  -1.04805  -0.69786  -0.65786
 Alpha  occ. eigenvalues --   -0.64521  -0.63193  -0.55559  -0.55226  -0.42024
 Alpha  occ. eigenvalues --   -0.37780  -0.35256  -0.34812
 Alpha virt. eigenvalues --    0.03383   0.04698   0.05156   0.05789   0.07000
 Alpha virt. eigenvalues --    0.07878   0.08058   0.10033   0.15949   0.16586
 Alpha virt. eigenvalues --    0.17513   0.18050   0.18597   0.18627   0.19082

 Mulliken charges:
               1
     1  H    0.689180
     2  H    0.635734
     3  H    0.613124
     4  H    0.734771
     5  H    0.895564
     6  H    0.596392
     7  H    0.693324
     8  H    0.660540
     9  N   -1.429708
    10  N   -1.213933
    11  N   -1.425601
    12  N   -1.449389
 Sum of Mulliken charges =  -0.00000

 Dipole moment (field-independent basis, Debye):
    X=             -3.0431    Y=              0.8664    Z=             -0.8617  Tot=              3.2793

 Test job not archived.
 1\1\GINC-SE460\SP\RHF\Aug-CC-pVDZ\H8N4\OHZDE\08-Apr-2025\0\\#t hf aug-
 cc-pvdz iop(5/13=1,5/36=2,99/5=2) pseudo=read geom=check guess=(read,t
 check) scf=(maxcycle=1)\\title\\0,1\H,0,-2.63486,0.437155,1.02482\H,0,
 -3.18838,-0.0725602,-0.414137\H,0,-1.2273,1.07362,-0.723078\H,0,-1.015
 92,-0.586862,-0.952402\H,0,0.887186,0.982568,-0.140049\H,0,2.07433,1.1
 2997,0.895828\H,0,2.18379,-1.18362,-0.823817\H,0,1.18897,-1.06281,0.59
 6713\N,0,-2.46649,-0.253891,0.274592\N,0,-1.14861,0.155277,-0.288586\N
 ,0,1.85032,0.710859,-0.0221791\N,0,2.01224,-0.714739,0.112762\\Version

 Normal termination of Gaussian 16 at Tue Apr  8 21:14:26 2025.
