 Gaussian 16, Revision C.01,

 ----------------------------------------------------------------------
 #t hf aug-cc-pvdz symm=none int=(grid=ultrafine) guess=(read,tcheck) s
 table=(opt,rrhf)
 ----------------------------------------------------------------------
 -----
 title
 -----
 Symbolic Z-matrix:
 Charge =  0 Multiplicity = 1

 SCF Done:  E(RHF) =  -281.813344131     A.U. after   13 cycles
 Normal termination of Gaussian 16 at Tue Apr  8 21:13:21 2025.
 Gaussian 16:  ES64L-G16RevC.01  3-Jul-2019

 ----------------------------------------------------------------------
 #t hf aug-cc-pvdz iop(5/13=1,5/36=2,99/5=2) pseudo=read geom=check gue
 ss=(read,tcheck) scf=(maxcycle=1)
 ----------------------------------------------------------------------
 -----
 title
 -----
 Structure from the checkpoint file:  "ANI1ccx_1889_conf21_mol2.chk"
 Charge =  0 Multiplicity = 1

                         Standard orientation:
 ---------------------------------------------------------------------
 Center     Atomic      Atomic             Coordinates (Angstroms)
 Number     Number       Type             X           Y           Z
 ---------------------------------------------------------------------
      1          1           0       -0.537882    1.039751    0.102727
      2          1           0       -2.284800   -0.838444    0.030108
      3          1           0        0.580532   -1.120050    0.169316
      4          1           0        1.836231    0.577519    1.112110
      5          1           0        2.018452    1.075758   -0.519450
      6          7           0        1.399281    0.618648    0.198757
      7          8           0       -1.416278    0.763534   -0.230051
      8          8           0       -1.374160   -0.634407    0.224245
      9          8           0        1.364500   -0.762261   -0.279958
 ---------------------------------------------------------------------

 SCF Done:  E(RHF) =  -282.976384472     A.U. after    2 cycles

 The electronic state is 1-A.
 Alpha  occ. eigenvalues --  -21.11763 -21.10302 -21.08210 -15.79175  -1.90107
 Alpha  occ. eigenvalues --   -1.73664  -1.40692  -1.16875  -0.69664  -0.65872
 Alpha  occ. eigenvalues --   -0.56695  -0.56015  -0.52680  -0.47231  -0.41851
 Alpha  occ. eigenvalues --   -0.37722  -0.30457  -0.26553
 Alpha virt. eigenvalues --    0.04045   0.05324   0.05741   0.07211   0.08093
 Alpha virt. eigenvalues --    0.14005   0.15889   0.17645   0.19295   0.19917
 Alpha virt. eigenvalues --    0.20475   0.21657   0.22697   0.23324   0.23837

 Mulliken charges:
               1
     1  H    1.400640
     2  H    1.128978
     3  H    1.030585
     4  H    0.742042
     5  H    0.755491
     6  N   -0.550456
     7  O   -1.186351
     8  O   -1.330852
     9  O   -1.990076
 Sum of Mulliken charges =  -0.00000

 Dipole moment (field-independent basis, Debye):
    X=              0.8293    Y=              0.1152    Z=              0.4813  Tot=              0.9657

 Test job not archived.
 1\1\GINC-SE393\SP\RHF\Aug-CC-pVDZ\H5N1O3\OHZDE\08-Apr-2025\0\\#t hf au
 g-cc-pvdz iop(5/13=1,5/36=2,99/5=2) pseudo=read geom=check guess=(read
 ,tcheck) scf=(maxcycle=1)\\title\\0,1\H,0,-0.537884,1.03975,0.102727\H
 ,0,-2.2848,-0.838446,0.0301081\H,0,0.580532,-1.12005,0.169316\H,0,1.83
 623,0.577521,1.11211\H,0,2.01845,1.07576,-0.51945\N,0,1.39928,0.618649
 ,0.198757\O,0,-1.41628,0.763533,-0.230051\O,0,-1.37416,-0.634408,0.224
 245\O,0,1.3645,-0.76226,-0.279958\\Version=ES64L-G16RevC.01\State=1-A\
 HF=-282.9763845\RMSD=2.983e-02\Dipole=0.3262696,0.0453242,0.1893444\Qu

 Normal termination of Gaussian 16 at Tue Apr  8 21:13:23 2025.
