 Gaussian 16, Revision C.01,

 ----------------------------------------------------------------------
 #t hf aug-cc-pvdz symm=none int=(grid=ultrafine) guess=(read,tcheck) s
 table=(opt,rrhf)
 ----------------------------------------------------------------------
 -----
 title
 -----
 Symbolic Z-matrix:
 Charge =  0 Multiplicity = 1

 SCF Done:  E(RHF) =  -923.154417426     A.U. after   14 cycles
 Normal termination of Gaussian 16 at Tue Apr  8 20:25:55 2025.
 Gaussian 16:  ES64L-G16RevC.01  3-Jul-2019

 ----------------------------------------------------------------------
 #t hf aug-cc-pvdz iop(5/13=1,5/36=2,99/5=2) pseudo=read geom=check gue
 ss=(read,tcheck) scf=(maxcycle=1)
 ----------------------------------------------------------------------
 -----
 title
 -----
 Structure from the checkpoint file:  "ANI1ccx_1584_conf34_mol1.chk"
 Charge =  0 Multiplicity = 1

                         Standard orientation:
 ---------------------------------------------------------------------
 Center     Atomic      Atomic             Coordinates (Angstroms)
 Number     Number       Type             X           Y           Z
 ---------------------------------------------------------------------
      1          6           0       -2.488219   -1.214130    0.079924
      2          6           0       -1.193789   -1.293350   -0.679149
      3          6           0       -3.101809    0.142924   -0.354268
      4          6           0       -2.061869    1.257830    0.012174
      5          6           0        1.278701   -0.951730   -0.685965
      6          6           0        2.233911   -1.326460    0.388655
      7          6           0        1.701081    0.445216   -1.346920
      8          6           0        1.998581    1.560270   -0.350211
      9          1           0        2.882781   -0.881403    2.000420
     10          1           0        0.014788    2.412930    0.148964
     11          1           0        1.373621    2.870290    0.968403
     12          1           0        0.901460    0.749860   -2.182780
     13          1           0        2.709411    0.323665   -1.820030
     14          1           0        1.247951   -1.601650   -1.564200
     15          1           0       -0.004625   -0.619818    0.803599
     16          1           0       -1.554759    0.439184    1.689710
     17          1           0       -4.116559    0.272435    0.066058
     18          1           0       -3.068419    0.254911   -1.401270
     19          1           0       -3.216629   -1.957400   -0.365195
     20          1           0       -3.332579   -0.795982    2.013680
     21          1           0       -2.100739   -1.939740    1.995690
     22          7           0       -2.593909   -1.139250    1.498930
     23          7           0       -0.055403   -0.799481   -0.121420
     24          7           0        1.011061    2.356060    0.207290
     25          8           0       -1.179309   -1.865600   -1.775480
     26          8           0       -2.051849    2.298230   -0.683360
     27          8           0       -1.499929    1.300780    1.219590
     28          8           0        3.265681   -2.016861    0.219006
     29          8           0        3.124571    1.776939   -0.050606
     30          8           0        2.032401   -0.764986    1.591840
 ---------------------------------------------------------------------

 SCF Done:  E(RHF) =  -927.183388951     A.U. after    2 cycles

 The electronic state is 1-A.
 Alpha  occ. eigenvalues --  -21.15536 -21.13232 -21.06908 -21.06192 -21.05614
 Alpha  occ. eigenvalues --  -21.02315 -15.80598 -15.79904 -15.75320 -11.58316
 Alpha  occ. eigenvalues --  -11.57149 -11.55558 -11.52469 -11.50557 -11.49796
 Alpha  occ. eigenvalues --  -11.44726 -11.43123  -1.86423  -1.84263  -1.73580
 Alpha  occ. eigenvalues --   -1.72662  -1.65585  -1.65444  -1.46328  -1.41701
 Alpha  occ. eigenvalues --   -1.31712  -1.19434  -1.16318  -1.03083  -0.98997
 Alpha  occ. eigenvalues --   -0.87188  -0.85733  -0.81827  -0.79437  -0.75889
 Alpha  occ. eigenvalues --   -0.73617  -0.71789  -0.69622  -0.69021  -0.66080
 Alpha  occ. eigenvalues --   -0.64820  -0.63656  -0.62989  -0.60285  -0.58336
 Alpha  occ. eigenvalues --   -0.57472  -0.54605  -0.53626  -0.53110  -0.51738
 Alpha  occ. eigenvalues --   -0.50632  -0.50300  -0.48862  -0.47920  -0.46881
 Alpha  occ. eigenvalues --   -0.46105  -0.37948  -0.35855  -0.35429  -0.34154
 Alpha  occ. eigenvalues --   -0.32162  -0.31440  -0.31246  -0.30531  -0.28486
 Alpha virt. eigenvalues --    0.02096   0.03223   0.03994   0.04275   0.05104
 Alpha virt. eigenvalues --    0.05883   0.06350   0.07059   0.07392   0.07494
 Alpha virt. eigenvalues --    0.07974   0.08812   0.09392   0.09481   0.09803

 Mulliken charges:
               1
     1  C   -2.396374
     2  C    7.154821
     3  C   -3.246501
     4  C    6.508743
     5  C   -4.018848
     6  C    7.848227
     7  C   -3.685271
     8  C    6.402225
     9  H    0.960676
    10  H    0.902122
    11  H    0.652575
    12  H    1.393233
    13  H    1.235941
    14  H    1.617833
    15  H    0.986277
    16  H    1.380885
    17  H    1.358253
    18  H    1.182493
    19  H    1.462668
    20  H    0.727996
    21  H    0.563947
    22  N   -2.692005
    23  N   -1.537587
    24  N   -3.423760
    25  O   -3.956071
    26  O   -3.322771
    27  O   -3.698223
    28  O   -3.294815
    29  O   -3.731812
    30  O   -3.334880
 Sum of Mulliken charges =   0.00000

 Dipole moment (field-independent basis, Debye):
    X=             -3.9997    Y=             -1.4439    Z=              3.9785  Tot=              5.8233

 Test job not archived.
 1\1\GINC-SE029\SP\RHF\Aug-CC-pVDZ\C8H13N3O6\OHZDE\08-Apr-2025\0\\#t hf
  aug-cc-pvdz iop(5/13=1,5/36=2,99/5=2) pseudo=read geom=check guess=(r
 ead,tcheck) scf=(maxcycle=1)\\title\\0,1\C,0,-2.48822,-1.21413,0.07992
 39\C,0,-1.19379,-1.29335,-0.679149\C,0,-3.10181,0.142924,-0.354268\C,0
 ,-2.06187,1.25783,0.0121739\C,0,1.2787,-0.95173,-0.685965\C,0,2.23391,
 -1.32646,0.388655\C,0,1.70108,0.445216,-1.34692\C,0,1.99858,1.56027,-0
 .350211\H,0,2.88278,-0.881402,2.00042\H,0,0.0147873,2.41293,0.148964\H
 ,0,1.37362,2.87029,0.968403\H,0,0.901459,0.74986,-2.18278\H,0,2.70941,

 Normal termination of Gaussian 16 at Tue Apr  8 20:26:38 2025.
