 Gaussian 16, Revision C.01,

 ----------------------------------------------------------------------
 #t hf aug-cc-pvdz symm=none int=(grid=ultrafine) guess=(read,tcheck) s
 table=(opt,rrhf)
 ----------------------------------------------------------------------
 -----
 title
 -----
 Symbolic Z-matrix:
 Charge =  0 Multiplicity = 1

 SCF Done:  E(RHF) =  -791.374871077     A.U. after   15 cycles
 Normal termination of Gaussian 16 at Tue Apr  8 20:57:02 2025.
 Gaussian 16:  ES64L-G16RevC.01  3-Jul-2019

 ----------------------------------------------------------------------
 #t hf aug-cc-pvdz iop(5/13=1,5/36=2,99/5=2) pseudo=read geom=check gue
 ss=(read,tcheck) scf=(maxcycle=1)
 ----------------------------------------------------------------------
 -----
 title
 -----
 Structure from the checkpoint file:  "ANI1ccx_1745_conf15_mol1.chk"
 Charge =  0 Multiplicity = 1

                         Standard orientation:
 ---------------------------------------------------------------------
 Center     Atomic      Atomic             Coordinates (Angstroms)
 Number     Number       Type             X           Y           Z
 ---------------------------------------------------------------------
      1          6           0       -0.203233    2.561701    0.501710
      2          6           0        0.535725    1.378417    0.029741
      3          6           0       -1.599030    2.255617    1.062850
      4          6           0        1.189456   -0.923161    0.493993
      5          6           0        2.720435   -1.042953    0.275546
      6          6           0        0.362803   -1.529242   -0.646774
      7          6           0       -1.089167   -1.396895   -0.431700
      8          6           0       -1.864341   -2.473292   -0.139810
      9          6           0       -3.117524   -0.724000   -0.117876
     10          1           0        2.480313    0.604792   -0.978513
     11          1           0       -3.858282   -2.530383    0.406615
     12          1           0       -3.917190    0.014939   -0.122748
     13          1           0       -1.367826   -3.484104   -0.252217
     14          1           0        0.763807   -1.018614   -1.438170
     15          1           0        0.627755   -2.560403   -0.882252
     16          1           0        1.066693   -1.598735    1.400220
     17          1           0       -1.970823    1.663939    1.918090
     18          1           0       -2.156362    1.793420    0.230257
     19          1           0       -2.252816    3.117990    1.111780
     20          1           0        0.453295    3.029548    1.208120
     21          1           0       -0.854880    2.923064   -1.298930
     22          1           0        0.569060    3.592697   -1.033070
     23          1           0        0.497355    0.516119    1.831290
     24          7           0       -0.346542    3.526611   -0.575476
     25          7           0        0.864440    0.370405    0.893556
     26          7           0       -1.847612   -0.287452   -0.516900
     27          7           0       -3.084429   -2.031096    0.178541
     28          8           0        3.290310   -2.067625    0.555317
     29          8           0        0.926949    1.281306   -1.185160
     30          8           0        3.183760    0.067482   -0.385729
 ---------------------------------------------------------------------

 SCF Done:  E(RHF) =  -794.973703843     A.U. after    2 cycles

 The electronic state is 1-A.
 Alpha  occ. eigenvalues --  -21.06882 -21.04796 -21.03844 -15.84665 -15.78359
 Alpha  occ. eigenvalues --  -15.73110 -15.73090 -11.56524 -11.52990 -11.49477
 Alpha  occ. eigenvalues --  -11.46917 -11.45552 -11.45001 -11.43140 -11.39097
 Alpha  occ. eigenvalues --  -11.38747  -1.77695  -1.71736  -1.63853  -1.59530
 Alpha  occ. eigenvalues --   -1.44287  -1.36273  -1.30710  -1.19195  -1.10359
 Alpha  occ. eigenvalues --   -1.07723  -0.99373  -0.93921  -0.88797  -0.82437
 Alpha  occ. eigenvalues --   -0.78561  -0.78298  -0.75689  -0.74149  -0.70681
 Alpha  occ. eigenvalues --   -0.67438  -0.64265  -0.62529  -0.61662  -0.60506
 Alpha  occ. eigenvalues --   -0.57193  -0.56889  -0.54773  -0.53573  -0.51983
 Alpha  occ. eigenvalues --   -0.51759  -0.50269  -0.49861  -0.47660  -0.47067
 Alpha  occ. eigenvalues --   -0.45968  -0.42883  -0.39627  -0.37785  -0.37509
 Alpha  occ. eigenvalues --   -0.34243  -0.31748  -0.31249  -0.29628  -0.26413
 Alpha virt. eigenvalues --    0.02491   0.03870   0.04119   0.04484   0.04911
 Alpha virt. eigenvalues --    0.05331   0.06380   0.06490   0.07191   0.07475
 Alpha virt. eigenvalues --    0.08076   0.08644   0.08928   0.09735   0.10032

 Mulliken charges:
               1
     1  C   -1.786342
     2  C    7.024792
     3  C   -4.248728
     4  C   -1.133649
     5  C    6.393850
     6  C   -3.739319
     7  C    5.447857
     8  C   -2.496793
     9  C    0.328381
    10  H    1.219905
    11  H    0.887735
    12  H    1.765255
    13  H    1.340313
    14  H    1.741909
    15  H    1.339986
    16  H    1.820793
    17  H    1.203245
    18  H    2.044811
    19  H    1.161401
    20  H    1.762098
    21  H    0.518564
    22  H    0.605915
    23  H    0.625687
    24  N   -3.027039
    25  N   -2.941282
    26  N   -4.010591
    27  N   -3.499404
    28  O   -3.397934
    29  O   -3.471488
    30  O   -3.479929
 Sum of Mulliken charges =   0.00000

 Dipole moment (field-independent basis, Debye):
    X=             -5.8964    Y=             -2.1719    Z=              1.3081  Tot=              6.4184

 Test job not archived.
 1\1\GINC-SE044\SP\RHF\Aug-CC-pVDZ\C9H14N4O3\OHZDE\08-Apr-2025\0\\#t hf
  aug-cc-pvdz iop(5/13=1,5/36=2,99/5=2) pseudo=read geom=check guess=(r
 ead,tcheck) scf=(maxcycle=1)\\title\\0,1\C,0,-0.203244,2.5617,0.50171\
 C,0,0.535719,1.37842,0.0297412\C,0,-1.59904,2.25561,1.06285\C,0,1.1894
 6,-0.923155,0.493993\C,0,2.72044,-1.04294,0.275546\C,0,0.36281,-1.5292
 4,-0.646774\C,0,-1.08916,-1.3969,-0.4317\C,0,-1.86433,-2.4733,-0.13981
 \C,0,-3.11752,-0.724014,-0.117876\H,0,2.48031,0.604804,-0.978513\H,0,-
 3.85827,-2.5304,0.406615\H,0,-3.91719,0.0149216,-0.122748\H,0,-1.36781

 Normal termination of Gaussian 16 at Tue Apr  8 20:57:42 2025.
