 Gaussian 16, Revision C.01,

 ----------------------------------------------------------------------
 #t hf aug-cc-pvdz symm=none int=(grid=ultrafine) guess=(read,tcheck) s
 table=(opt,rrhf)
 ----------------------------------------------------------------------
 -----
 title
 -----
 Symbolic Z-matrix:
 Charge =  0 Multiplicity = 1

 SCF Done:  E(RHF) =  -302.707888215     A.U. after   13 cycles
 Normal termination of Gaussian 16 at Tue Apr  8 21:46:49 2025.
 Gaussian 16:  ES64L-G16RevC.01  3-Jul-2019

 ----------------------------------------------------------------------
 #t hf aug-cc-pvdz iop(5/13=1,5/36=2,99/5=2) pseudo=read geom=check gue
 ss=(read,tcheck) scf=(maxcycle=1)
 ----------------------------------------------------------------------
 -----
 title
 -----
 Structure from the checkpoint file:  "ANI1ccx_528_conf38_mol2.chk"
 Charge =  0 Multiplicity = 1

                         Standard orientation:
 ---------------------------------------------------------------------
 Center     Atomic      Atomic             Coordinates (Angstroms)
 Number     Number       Type             X           Y           Z
 ---------------------------------------------------------------------
      1          6           0        0.744878   -0.763455    0.007102
      2          6           0       -0.622070   -0.096538    0.017148
      3          1           0        1.545520    1.030359    0.037032
      4          1           0        0.784066   -1.390091    0.929275
      5          1           0        0.738464   -1.425241   -0.878310
      6          1           0       -1.450890    1.581329   -0.068550
      7          8           0        1.866239    0.124868   -0.020455
      8          8           0       -0.520190    1.248889    0.011026
      9          8           0       -1.640301   -0.703308   -0.011190
 ---------------------------------------------------------------------

 SCF Done:  E(RHF) =  -303.970831223     A.U. after    2 cycles

 The electronic state is 1-A.
 Alpha  occ. eigenvalues --  -21.14402 -21.08229 -21.07204 -11.54018 -11.44083
 Alpha  occ. eigenvalues --   -1.85587  -1.70979  -1.68004  -1.06319  -0.82385
 Alpha  occ. eigenvalues --   -0.66905  -0.66381  -0.62487  -0.55211  -0.53578
 Alpha  occ. eigenvalues --   -0.50333  -0.44756  -0.37130  -0.32750  -0.30354
 Alpha virt. eigenvalues --    0.03314   0.05649   0.06441   0.06517   0.09474
 Alpha virt. eigenvalues --    0.11199   0.11877   0.12025   0.13976   0.15677
 Alpha virt. eigenvalues --    0.16339   0.17635   0.18251   0.20243   0.21649

 Mulliken charges:
               1
     1  C   -0.914122
     2  C    4.983376
     3  H    0.933183
     4  H    1.228847
     5  H    1.244701
     6  H    0.878103
     7  O   -2.598732
     8  O   -2.736411
     9  O   -3.018944
 Sum of Mulliken charges =   0.00000

 Dipole moment (field-independent basis, Debye):
    X=              0.0538    Y=              1.2442    Z=             -0.0186  Tot=              1.2455

 Test job not archived.
 1\1\GINC-SE179\SP\RHF\Aug-CC-pVDZ\C2H4O3\OHZDE\08-Apr-2025\0\\#t hf au
 g-cc-pvdz iop(5/13=1,5/36=2,99/5=2) pseudo=read geom=check guess=(read
 ,tcheck) scf=(maxcycle=1)\\title\\0,1\C,0,0.744879,-0.763454,0.0071016
 7\C,0,-0.622069,-0.096537,0.0171484\H,0,1.54552,1.03036,0.037032\H,0,0
 .784067,-1.39009,0.929275\H,0,0.738465,-1.42524,-0.87831\H,0,-1.45089,
 1.58133,-0.0685502\O,0,1.86624,0.124869,-0.0204549\O,0,-0.52019,1.2488
 9,0.011026\O,0,-1.6403,-0.703307,-0.0111896\\Version=ES64L-G16RevC.01\
 State=1-A\HF=-303.9708312\RMSD=1.777e-01\Dipole=0.0211595,0.4895043,-0

 Normal termination of Gaussian 16 at Tue Apr  8 21:46:52 2025.
