 Gaussian 16, Revision C.01,

 ----------------------------------------------------------------------
 #t hf aug-cc-pvdz symm=none int=(grid=ultrafine) guess=(read,tcheck) s
 table=(opt,rrhf)
 ----------------------------------------------------------------------
 -----
 title
 -----
 Symbolic Z-matrix:
 Charge =  0 Multiplicity = 1

 SCF Done:  E(RHF) =  -480.756537571     A.U. after   14 cycles
 Normal termination of Gaussian 16 at Tue Apr  8 21:48:39 2025.
 Gaussian 16:  ES64L-G16RevC.01  3-Jul-2019

 ----------------------------------------------------------------------
 #t hf aug-cc-pvdz iop(5/13=1,5/36=2,99/5=2) pseudo=read geom=check gue
 ss=(read,tcheck) scf=(maxcycle=1)
 ----------------------------------------------------------------------
 -----
 title
 -----
 Structure from the checkpoint file:  "ANI1ccx_558_conf2_mol1.chk"
 Charge =  0 Multiplicity = 1

                         Standard orientation:
 ---------------------------------------------------------------------
 Center     Atomic      Atomic             Coordinates (Angstroms)
 Number     Number       Type             X           Y           Z
 ---------------------------------------------------------------------
      1          6           0       -1.179850   -0.642122    0.177344
      2          6           0        1.107020   -0.715206   -0.210602
      3          1           0        2.098539    1.775349   -0.281924
      4          1           0        1.809969    1.345989    1.284230
      5          1           0       -1.020322    2.473898    0.103976
      6          1           0       -1.560551    1.671018   -1.254850
      7          1           0       -0.104278   -2.395741   -0.047304
      8          1           0        2.597750   -1.961700   -0.054275
      9          7           0        1.350129    1.612429    0.387313
     10          7           0        0.632646    0.616538   -0.341600
     11          7           0       -0.682468    0.599709    0.106858
     12          7           0       -1.469611    1.608628   -0.202694
     13          7           0       -0.017412   -1.435491   -0.044744
     14          7           0        2.325100   -0.955794   -0.060844
     15          8           0       -2.294100   -1.135872    0.192458
 ---------------------------------------------------------------------

 SCF Done:  E(RHF) =  -482.891944565     A.U. after    2 cycles

 The electronic state is 1-A.
 Alpha  occ. eigenvalues --  -21.04520 -15.80791 -15.80179 -15.79897 -15.78067
 Alpha  occ. eigenvalues --  -15.77886 -15.73225 -11.54174 -11.50583  -1.77522
 Alpha  occ. eigenvalues --   -1.67720  -1.49855  -1.42805  -1.30720  -1.20429
 Alpha  occ. eigenvalues --   -1.08427  -0.90392  -0.83612  -0.76989  -0.75119
 Alpha  occ. eigenvalues --   -0.69646  -0.66453  -0.63791  -0.62405  -0.60269
 Alpha  occ. eigenvalues --   -0.53336  -0.50827  -0.46831  -0.43180  -0.41998
 Alpha  occ. eigenvalues --   -0.39059  -0.33857  -0.30976  -0.29580
 Alpha virt. eigenvalues --    0.03585   0.05032   0.05439   0.06080   0.06557
 Alpha virt. eigenvalues --    0.07021   0.10085   0.10456   0.11830   0.12481
 Alpha virt. eigenvalues --    0.12900   0.13555   0.14707   0.15221   0.15515

 Mulliken charges:
               1
     1  C    5.110102
     2  C    4.449607
     3  H    0.684050
     4  H    0.684983
     5  H    0.767189
     6  H    0.571755
     7  H    0.730069
     8  H    0.616850
     9  N   -1.910248
    10  N   -0.797035
    11  N   -0.493942
    12  N   -1.928624
    13  N   -2.318016
    14  N   -3.025775
    15  O   -3.140963
 Sum of Mulliken charges =   0.00000

 Dipole moment (field-independent basis, Debye):
    X=              1.4056    Y=              0.1197    Z=             -0.4638  Tot=              1.4850

 Test job not archived.
 1\1\GINC-SE073\SP\RHF\Aug-CC-pVDZ\C2H6N6O1\OHZDE\08-Apr-2025\0\\#t hf
 aug-cc-pvdz iop(5/13=1,5/36=2,99/5=2) pseudo=read geom=check guess=(re
 ad,tcheck) scf=(maxcycle=1)\\title\\0,1\C,0,-1.17985,-0.64212,0.177344
 \C,0,1.10702,-0.715205,-0.210602\H,0,2.09854,1.77535,-0.281924\H,0,1.8
 0997,1.34599,1.28423\H,0,-1.02032,2.4739,0.103976\H,0,-1.56055,1.67102
 ,-1.25485\H,0,-0.104278,-2.39574,-0.0473036\H,0,2.59775,-1.9617,-0.054
 2747\N,0,1.35013,1.61243,0.387313\N,0,0.632647,0.616539,-0.3416\N,0,-0
 .682467,0.59971,0.106858\N,0,-1.46961,1.60863,-0.202694\N,0,-0.0174122

 Normal termination of Gaussian 16 at Tue Apr  8 21:48:45 2025.
