 Gaussian 16, Revision C.01,

 ----------------------------------------------------------------------
 #t hf aug-cc-pvdz symm=none int=(grid=ultrafine) guess=(read,tcheck) s
 table=(opt,rrhf)
 ----------------------------------------------------------------------
 -----
 title
 -----
 Symbolic Z-matrix:
 Charge =  0 Multiplicity = 1

 SCF Done:  E(RHF) =  -911.542346939     A.U. after   14 cycles
 Normal termination of Gaussian 16 at Tue Apr  8 21:42:26 2025.
 Gaussian 16:  ES64L-G16RevC.01  3-Jul-2019

 ----------------------------------------------------------------------
 #t hf aug-cc-pvdz iop(5/13=1,5/36=2,99/5=2) pseudo=read geom=check gue
 ss=(read,tcheck) scf=(maxcycle=1)
 ----------------------------------------------------------------------
 -----
 title
 -----
 Structure from the checkpoint file:  "ANI1ccx_191_conf11_mol1.chk"
 Charge =  0 Multiplicity = 1

                         Standard orientation:
 ---------------------------------------------------------------------
 Center     Atomic      Atomic             Coordinates (Angstroms)
 Number     Number       Type             X           Y           Z
 ---------------------------------------------------------------------
      1          6           0       -1.167111    2.107600    0.534583
      2          6           0        1.727921   -2.253489   -0.556470
      3          6           0        1.615991   -1.838549    1.962040
      4          6           0        2.205251   -1.405469    0.601604
      5          6           0        3.112050    0.332269   -0.688815
      6          6           0        0.230532   -2.041619   -0.886301
      7          6           0       -3.592850   -0.850359   -0.424685
      8          6           0       -2.908770    0.199512    0.480801
      9          6           0       -2.119370    1.221920   -0.382301
     10          6           0        0.015704    1.219540    1.037260
     11          6           0        2.081680    0.104295    0.391016
     12          1           0        1.675331   -2.940199    1.999850
     13          1           0        3.140790    1.166062   -2.443400
     14          1           0       -0.360233   -1.765840    0.022029
     15          1           0        0.132935   -1.156769   -1.557710
     16          1           0       -0.235787   -2.870880   -1.472400
     17          1           0        2.282811   -1.996379   -1.432160
     18          1           0        1.827371   -3.349759   -0.405026
     19          1           0        2.163501   -1.442329    2.818720
     20          1           0        0.552849   -1.630759    2.112900
     21          1           0        3.286481   -1.615118    0.781423
     22          1           0       -4.876189   -2.145861   -0.394466
     23          1           0        0.877961    1.329611   -0.726702
     24          1           0       -3.670990    0.727170    1.107820
     25          1           0       -2.181850   -0.198117    1.189200
     26          1           0       -2.906961    1.848789   -0.837476
     27          1           0       -1.444440    0.859521   -1.182780
     28          1           0       -1.690951    2.558920    1.376680
     29          1           0       -0.634596    2.970350   -1.335650
     30          1           0       -0.141017    3.886040    0.013068
     31          1           0        2.384110    0.551646    1.311220
     32          7           0       -0.824054    3.215310   -0.363521
     33          7           0        0.856174    0.772575    0.087157
     34          8           0        4.295700    0.069816   -0.657260
     35          8           0        0.179094    1.011881    2.229760
     36          8           0       -3.509470   -0.909217   -1.616930
     37          8           0       -4.439669   -1.615891    0.300472
     38          8           0        2.522830    1.009011   -1.683910
 ---------------------------------------------------------------------

 SCF Done:  E(RHF) =  -915.673459782     A.U. after    2 cycles

 The electronic state is 1-A.
 Alpha  occ. eigenvalues --  -21.14366 -21.12757 -21.06737 -21.06429 -21.03198
 Alpha  occ. eigenvalues --  -15.76667 -15.74737 -11.56351 -11.54161 -11.53485
 Alpha  occ. eigenvalues --  -11.49304 -11.46737 -11.45313 -11.44974 -11.41425
 Alpha  occ. eigenvalues --  -11.39492 -11.37861 -11.36200  -1.85624  -1.83640
 Alpha  occ. eigenvalues --   -1.71473  -1.67389  -1.66303  -1.43982  -1.35774
 Alpha  occ. eigenvalues --   -1.26145  -1.18238  -1.10998  -1.05552  -1.01308
 Alpha  occ. eigenvalues --   -0.92909  -0.90962  -0.86197  -0.81591  -0.79528
 Alpha  occ. eigenvalues --   -0.79194  -0.71863  -0.69193  -0.67676  -0.66234
 Alpha  occ. eigenvalues --   -0.64064  -0.63672  -0.61919  -0.61851  -0.61410
 Alpha  occ. eigenvalues --   -0.60191  -0.58464  -0.57647  -0.56732  -0.54136
 Alpha  occ. eigenvalues --   -0.53602  -0.52065  -0.51234  -0.51084  -0.49411
 Alpha  occ. eigenvalues --   -0.48866  -0.47853  -0.46866  -0.46183  -0.44785
 Alpha  occ. eigenvalues --   -0.43475  -0.42797  -0.41786  -0.38007  -0.36185
 Alpha  occ. eigenvalues --   -0.34714  -0.32629  -0.30908  -0.29847  -0.27563
 Alpha virt. eigenvalues --    0.03299   0.04063   0.04373   0.04723   0.05186
 Alpha virt. eigenvalues --    0.05654   0.05976   0.06289   0.06481   0.06518
 Alpha virt. eigenvalues --    0.06790   0.06992   0.07931   0.08186   0.08430

 Mulliken charges:
               1
     1  C   -2.276566
     2  C   -3.876666
     3  C   -5.451073
     4  C    1.134140
     5  C    8.797161
     6  C   -4.770600
     7  C    6.117192
     8  C   -4.928283
     9  C   -2.740272
    10  C    6.597986
    11  C   -4.265636
    12  H    1.085474
    13  H    1.125664
    14  H    2.105185
    15  H    1.717110
    16  H    1.170017
    17  H    1.457294
    18  H    1.299221
    19  H    1.147952
    20  H    1.612536
    21  H    1.478098
    22  H    0.868064
    23  H    1.083682
    24  H    1.262312
    25  H    2.073557
    26  H    1.504922
    27  H    1.833338
    28  H    1.840535
    29  H    0.668630
    30  H    0.648956
    31  H    2.113135
    32  N   -3.102699
    33  N   -1.829549
    34  O   -3.637984
    35  O   -4.152582
    36  O   -3.054723
    37  O   -3.152008
    38  O   -3.503519
 Sum of Mulliken charges =   0.00000

 Dipole moment (field-independent basis, Debye):
    X=             -0.0572    Y=              0.6865    Z=             -1.4971  Tot=              1.6480

 Test job not archived.
 1\1\GINC-SE071\SP\RHF\Aug-CC-pVDZ\C11H20N2O5\OHZDE\08-Apr-2025\0\\#t h
 f aug-cc-pvdz iop(5/13=1,5/36=2,99/5=2) pseudo=read geom=check guess=(
 read,tcheck) scf=(maxcycle=1)\\title\\0,1\C,0,-1.16711,2.1076,0.534583
 \C,0,1.72792,-2.25349,-0.55647\C,0,1.61599,-1.83855,1.96204\C,0,2.2052
 5,-1.40547,0.601604\C,0,3.11205,0.332267,-0.688815\C,0,0.230531,-2.041
 62,-0.886301\C,0,-3.59285,-0.850358,-0.424685\C,0,-2.90877,0.199513,0.
 480801\C,0,-2.11937,1.22192,-0.382301\C,0,0.0157041,1.21954,1.03726\C,
 0,2.08168,0.104294,0.391016\H,0,1.67533,-2.9402,1.99985\H,0,3.14079,1.

 Normal termination of Gaussian 16 at Tue Apr  8 21:43:36 2025.
