 Gaussian 16, Revision C.01,

 ----------------------------------------------------------------------
 #t hf aug-cc-pvdz symm=none int=(grid=ultrafine) guess=(read,tcheck) s
 table=(opt,rrhf)
 ----------------------------------------------------------------------
 -----
 title
 -----
 Symbolic Z-matrix:
 Charge =  0 Multiplicity = 1

 SCF Done:  E(RHF) =  -464.384124798     A.U. after   15 cycles
 Normal termination of Gaussian 16 at Tue Apr  8 21:42:51 2025.
 Gaussian 16:  ES64L-G16RevC.01  3-Jul-2019

 ----------------------------------------------------------------------
 #t hf aug-cc-pvdz iop(5/13=1,5/36=2,99/5=2) pseudo=read geom=check gue
 ss=(read,tcheck) scf=(maxcycle=1)
 ----------------------------------------------------------------------
 -----
 title
 -----
 Structure from the checkpoint file:  "ANI1ccx_474_conf14_mol1.chk"
 Charge =  0 Multiplicity = 1

                         Standard orientation:
 ---------------------------------------------------------------------
 Center     Atomic      Atomic             Coordinates (Angstroms)
 Number     Number       Type             X           Y           Z
 ---------------------------------------------------------------------
      1          6           0        1.271329   -0.540140    0.160641
      2          6           0        0.108551    1.489421   -0.000046
      3          1           0        2.792299   -0.238299   -0.920471
      4          7           0        1.069931    0.760541   -0.195331
      5          7           0       -2.364121   -0.413180   -0.356752
      6          7           0       -2.889882   -1.338216   -0.145867
      7          8           0        2.398739   -0.979627   -0.448566
      8          8           0       -0.637705    2.361562    0.193922
      9          8           0        0.516081   -1.197110    0.859963
 ---------------------------------------------------------------------

 SCF Done:  E(RHF) =  -466.278461753     A.U. after    2 cycles

 The electronic state is 1-A.
 Alpha  occ. eigenvalues --  -21.17981 -21.15033 -21.07309 -15.87124 -15.86872
 Alpha  occ. eigenvalues --  -15.80856 -11.63709 -11.57041  -1.85342  -1.81894
 Alpha  occ. eigenvalues --   -1.68777  -1.57112  -1.43549  -0.96413  -0.78706
 Alpha  occ. eigenvalues --   -0.76648  -0.68244  -0.67473  -0.65460  -0.58754
 Alpha  occ. eigenvalues --   -0.58225  -0.58196  -0.56051  -0.55233  -0.50106
 Alpha  occ. eigenvalues --   -0.43502  -0.39029  -0.35092  -0.32760
 Alpha virt. eigenvalues --    0.03631   0.07361   0.09612   0.09969   0.10355
 Alpha virt. eigenvalues --    0.11055   0.11745   0.12182   0.13257   0.13527
 Alpha virt. eigenvalues --    0.14027   0.14676   0.15556   0.16342   0.16848

 Mulliken charges:
               1
     1  C    5.638637
     2  C    3.614060
     3  H    0.964316
     4  N   -2.414652
     5  N   -0.280838
     6  N    0.308776
     7  O   -2.727999
     8  O   -2.506177
     9  O   -2.596124
 Sum of Mulliken charges =  -0.00000

 Dipole moment (field-independent basis, Debye):
    X=             -0.1733    Y=              1.9545    Z=             -0.7836  Tot=              2.1128

 Test job not archived.
 1\1\GINC-SE094\SP\RHF\Aug-CC-pVDZ\C2H1N3O3\OHZDE\08-Apr-2025\0\\#t hf
 aug-cc-pvdz iop(5/13=1,5/36=2,99/5=2) pseudo=read geom=check guess=(re
 ad,tcheck) scf=(maxcycle=1)\\title\\0,1\C,0,1.27133,-0.54014,0.160641\
 C,0,0.10855,1.48942,-0.0000459\H,0,2.7923,-0.238297,-0.920471\N,0,1.06
 993,0.760541,-0.195331\N,0,-2.36412,-0.413184,-0.356752\N,0,-2.88988,-
 1.33822,-0.145867\O,0,2.39874,-0.979625,-0.448566\O,0,-0.637707,2.3615
 6,0.193922\O,0,0.516083,-1.19711,0.859963\\Version=ES64L-G16RevC.01\St
 ate=1-A\HF=-466.2784618\RMSD=8.244e-02\Dipole=-0.068173,0.7689533,-0.3

 Normal termination of Gaussian 16 at Tue Apr  8 21:42:55 2025.
