 Gaussian 16, Revision C.01,

 ----------------------------------------------------------------------
 #t hf aug-cc-pvdz symm=none int=(grid=ultrafine) guess=(read,tcheck) s
 table=(opt,rrhf)
 ----------------------------------------------------------------------
 -----
 title
 -----
 Symbolic Z-matrix:
 Charge =  0 Multiplicity = 1

 SCF Done:  E(RHF) =  -460.247806890     A.U. after   16 cycles
 Normal termination of Gaussian 16 at Tue Apr  8 21:33:43 2025.
 Gaussian 16:  ES64L-G16RevC.01  3-Jul-2019

 ----------------------------------------------------------------------
 #t hf aug-cc-pvdz iop(5/13=1,5/36=2,99/5=2) pseudo=read geom=check gue
 ss=(read,tcheck) scf=(maxcycle=1)
 ----------------------------------------------------------------------
 -----
 title
 -----
 Structure from the checkpoint file:  "ANI1ccx_373_conf12_mol1.chk"
 Charge =  0 Multiplicity = 1

                         Standard orientation:
 ---------------------------------------------------------------------
 Center     Atomic      Atomic             Coordinates (Angstroms)
 Number     Number       Type             X           Y           Z
 ---------------------------------------------------------------------
      1          6           0       -0.030895   -0.070167   -0.172511
      2          1           0       -2.637150    1.275650   -0.124746
      3          7           0        1.413310    0.016690   -0.065122
      4          7           0       -0.824142   -1.111040    0.040461
      5          7           0       -2.048759   -0.658937    0.227193
      6          7           0       -1.931350    0.579316   -0.019329
      7          7           0       -0.635431    1.026070   -0.213797
      8          8           0        1.973781   -1.083539   -0.088536
      9          8           0        1.902110    1.106121    0.260283
 ---------------------------------------------------------------------

 SCF Done:  E(RHF) =  -462.200950687     A.U. after    2 cycles

 The electronic state is 1-A.
 Alpha  occ. eigenvalues --  -21.12588 -21.12358 -16.02992 -15.90991 -15.88275
 Alpha  occ. eigenvalues --  -15.83370 -15.80978 -11.51392  -2.01345  -1.82839
 Alpha  occ. eigenvalues --   -1.71595  -1.42876  -1.38612  -1.10600  -0.99459
 Alpha  occ. eigenvalues --   -0.84866  -0.79837  -0.76531  -0.69790  -0.67514
 Alpha  occ. eigenvalues --   -0.63140  -0.58871  -0.50603  -0.45608  -0.44961
 Alpha  occ. eigenvalues --   -0.43551  -0.38066  -0.33898  -0.33082
 Alpha virt. eigenvalues --    0.02747   0.08345   0.09012   0.10100   0.10410
 Alpha virt. eigenvalues --    0.11402   0.12276   0.12710   0.13249   0.14941
 Alpha virt. eigenvalues --    0.15969   0.16684   0.16906   0.18531   0.19195

 Mulliken charges:
               1
     1  C    4.810093
     2  H    0.974788
     3  N    3.542036
     4  N   -1.597629
     5  N   -0.183225
     6  N   -0.236521
     7  N   -1.963631
     8  O   -2.770101
     9  O   -2.575810
 Sum of Mulliken charges =  -0.00000

 Dipole moment (field-independent basis, Debye):
    X=             -3.2392    Y=              2.1147    Z=             -0.2197  Tot=              3.8746

 Test job not archived.
 1\1\GINC-SE364\SP\RHF\Aug-CC-pVDZ\C1H1N5O2\OHZDE\08-Apr-2025\0\\#t hf
 aug-cc-pvdz iop(5/13=1,5/36=2,99/5=2) pseudo=read geom=check guess=(re
 ad,tcheck) scf=(maxcycle=1)\\title\\0,1\C,0,-0.0308956,-0.0701672,-0.1
 72511\H,0,-2.63715,1.27565,-0.124746\N,0,1.41331,0.016689,-0.0651224\N
 ,0,-0.824143,-1.11104,0.0404614\N,0,-2.04876,-0.658937,0.227193\N,0,-1
 .93135,0.579316,-0.0193294\N,0,-0.635431,1.02607,-0.213797\O,0,1.97378
 ,-1.08354,-0.0885363\O,0,1.90211,1.10612,0.260283\\Version=ES64L-G16Re
 vC.01\State=1-A\HF=-462.2009507\RMSD=9.259e-02\Dipole=-1.27441,0.83196

 Normal termination of Gaussian 16 at Tue Apr  8 21:33:47 2025.
