 Gaussian 16, Revision C.01,

 ----------------------------------------------------------------------
 #t hf aug-cc-pvdz symm=none int=(grid=ultrafine) guess=(read,tcheck) s
 table=(opt,rrhf)
 ----------------------------------------------------------------------
 -----
 title
 -----
 Symbolic Z-matrix:
 Charge =  0 Multiplicity = 1

 SCF Done:  E(RHF) =  -617.822210860     A.U. after   14 cycles
 Normal termination of Gaussian 16 at Tue Apr  8 19:22:39 2025.
 Gaussian 16:  ES64L-G16RevC.01  3-Jul-2019

 ----------------------------------------------------------------------
 #t hf aug-cc-pvdz iop(5/13=1,5/36=2,99/5=2) pseudo=read geom=check gue
 ss=(read,tcheck) scf=(maxcycle=1)
 ----------------------------------------------------------------------
 -----
 title
 -----
 Structure from the checkpoint file:  "ANI1ccx_1023_conf7_mol2.chk"
 Charge =  0 Multiplicity = 1

                         Standard orientation:
 ---------------------------------------------------------------------
 Center     Atomic      Atomic             Coordinates (Angstroms)
 Number     Number       Type             X           Y           Z
 ---------------------------------------------------------------------
      1          6           0        1.805231   -0.815436    0.015919
      2          6           0        0.698585    1.302170    0.034839
      3          6           0       -1.744132    1.569767    0.224628
      4          6           0       -2.276371    0.373270   -0.574270
      5          6           0       -1.756309   -0.985518   -0.169029
      6          1           0       -1.879927   -2.090323    1.375200
      7          1           0       -2.053781    0.496110   -1.670790
      8          1           0       -3.388551    0.383297   -0.434712
      9          1           0       -1.838552    1.377567    1.323270
     10          1           0       -0.318559    3.046179   -0.062822
     11          1           0       -2.445433    2.436656   -0.002623
     12          1           0        2.653298    1.495053    0.202698
     13          1           0        3.720241   -1.028135    0.024008
     14          1           0        2.387984   -2.669747   -0.252683
     15          1           0        0.729626   -2.454969   -0.386982
     16          1           0        1.890926    3.044222   -0.218621
     17          7           0        1.600313   -2.157058    0.077982
     18          7           0        2.991660   -0.336329    0.065168
     19          7           0        0.613615   -0.023755    0.044826
     20          7           0        1.814107    2.048952    0.097838
     21          7           0       -0.431657    2.033169   -0.176007
     22          8           0       -2.105478   -1.184373    1.109760
     23          8           0       -1.136468   -1.772662   -0.841899
 ---------------------------------------------------------------------

 SCF Done:  E(RHF) =  -620.616280786     A.U. after    2 cycles

 The electronic state is 1-A.
 Alpha  occ. eigenvalues --  -21.11104 -21.03064 -15.75935 -15.75466 -15.73618
 Alpha  occ. eigenvalues --  -15.67790 -15.67459 -11.52523 -11.49886 -11.46425
 Alpha  occ. eigenvalues --  -11.44896 -11.39853  -1.81839  -1.64790  -1.52303
 Alpha  occ. eigenvalues --   -1.43364  -1.31758  -1.23289  -1.20208  -1.14286
 Alpha  occ. eigenvalues --   -0.96239  -0.87320  -0.79245  -0.75576  -0.72488
 Alpha  occ. eigenvalues --   -0.69344  -0.67095  -0.63891  -0.63300  -0.62050
 Alpha  occ. eigenvalues --   -0.59509  -0.57697  -0.57161  -0.54292  -0.52044
 Alpha  occ. eigenvalues --   -0.51616  -0.49677  -0.47148  -0.44110  -0.37914
 Alpha  occ. eigenvalues --   -0.36685  -0.34521  -0.33562  -0.31609  -0.28846
 Alpha  occ. eigenvalues --   -0.28098
 Alpha virt. eigenvalues --    0.03334   0.04467   0.05114   0.05500   0.05803
 Alpha virt. eigenvalues --    0.06189   0.06775   0.07250   0.07433   0.08933
 Alpha virt. eigenvalues --    0.09857   0.11332   0.11391   0.12020   0.12600

 Mulliken charges:
               1
     1  C    5.121465
     2  C    4.217559
     3  C   -2.686878
     4  C   -3.818761
     5  C    7.598850
     6  H    0.934201
     7  H    1.340703
     8  H    1.418911
     9  H    1.651136
    10  H    0.560200
    11  H    1.373733
    12  H    0.656296
    13  H    0.750963
    14  H    0.554119
    15  H    0.748452
    16  H    0.763642
    17  N   -2.854163
    18  N   -3.329770
    19  N   -2.303385
    20  N   -3.008619
    21  N   -2.477068
    22  O   -3.502251
    23  O   -3.709336
 Sum of Mulliken charges =  -0.00000

 Dipole moment (field-independent basis, Debye):
    X=             -1.1745    Y=              2.6046    Z=              0.0561  Tot=              2.8578

 Test job not archived.
 1\1\GINC-SE457\SP\RHF\Aug-CC-pVDZ\C5H11N5O2\OHZDE\08-Apr-2025\0\\#t hf
  aug-cc-pvdz iop(5/13=1,5/36=2,99/5=2) pseudo=read geom=check guess=(r
 ead,tcheck) scf=(maxcycle=1)\\title\\0,1\C,0,1.80523,-0.815438,0.01591
 95\C,0,0.698587,1.30217,0.0348388\C,0,-1.74413,1.56977,0.224628\C,0,-2
 .27637,0.373274,-0.57427\C,0,-1.75631,-0.985515,-0.169029\H,0,-1.87993
 ,-2.09032,1.3752\H,0,-2.05378,0.496113,-1.67079\H,0,-3.38855,0.383302,
 -0.434712\H,0,-1.83855,1.37757,1.32327\H,0,-0.318555,3.04618,-0.062821
 9\H,0,-2.44543,2.43666,-0.00262286\H,0,2.6533,1.49505,0.202698\H,0,3.7

 Normal termination of Gaussian 16 at Tue Apr  8 19:22:55 2025.
