 Gaussian 16, Revision C.01,

 ----------------------------------------------------------------------
 #t hf aug-cc-pvdz symm=none int=(grid=ultrafine) guess=(read,tcheck) s
 table=(opt,rrhf)
 ----------------------------------------------------------------------
 -----
 title
 -----
 Symbolic Z-matrix:
 Charge =  0 Multiplicity = 1

 SCF Done:  E(RHF) =  -537.869201048     A.U. after   16 cycles
 Normal termination of Gaussian 16 at Tue Apr  8 22:19:41 2025.
 Gaussian 16:  ES64L-G16RevC.01  3-Jul-2019

 ----------------------------------------------------------------------
 #t hf aug-cc-pvdz iop(5/13=1,5/36=2,99/5=2) pseudo=read geom=check gue
 ss=(read,tcheck) scf=(maxcycle=1)
 ----------------------------------------------------------------------
 -----
 title
 -----
 Structure from the checkpoint file:  "ANI1ccx_988_conf3_mol1.chk"
 Charge =  0 Multiplicity = 1

                         Standard orientation:
 ---------------------------------------------------------------------
 Center     Atomic      Atomic             Coordinates (Angstroms)
 Number     Number       Type             X           Y           Z
 ---------------------------------------------------------------------
      1          6           0       -2.371341   -0.349393   -0.188029
      2          6           0       -0.835555    1.478230    0.610592
      3          6           0        0.631794    1.692490    0.317315
      4          6           0        1.407840    0.480986    0.054373
      5          1           0        3.085890    1.080509   -1.041490
      6          1           0        1.112410    2.187740    1.184340
      7          1           0        0.712682    2.347550   -0.552307
      8          1           0       -1.002670    0.953500    1.555680
      9          1           0       -1.296930    2.470640    0.679298
     10          1           0       -3.767131    0.042197   -1.460650
     11          1           0       -0.897095   -1.174560    0.945344
     12          1           0       -2.412901   -2.058189    0.808529
     13          1           0       -1.772900    1.249151   -1.263670
     14          7           0        3.019859   -0.859745   -0.454051
     15          7           0       -1.912471   -1.190629    0.804777
     16          7           0       -3.483691   -0.630434   -0.761923
     17          7           0       -1.487690    0.707140   -0.443887
     18          7           0        1.044989   -0.751256    0.442558
     19          7           0        2.116199   -1.520230    0.139350
     20          7           0        2.594550    0.400523   -0.529763
 ---------------------------------------------------------------------

 SCF Done:  E(RHF) =  -540.339051777     A.U. after    2 cycles

 The electronic state is 1-A.
 Alpha  occ. eigenvalues --  -15.85661 -15.81105 -15.79989 -15.76178 -15.74825
 Alpha  occ. eigenvalues --  -15.72947 -15.68407 -11.52211 -11.47993 -11.46125
 Alpha  occ. eigenvalues --  -11.41782  -1.76987  -1.48674  -1.39842  -1.34740
 Alpha  occ. eigenvalues --   -1.29807  -1.21410  -1.14377  -0.96835  -0.92203
 Alpha  occ. eigenvalues --   -0.86370  -0.81641  -0.76574  -0.72265  -0.71218
 Alpha  occ. eigenvalues --   -0.66268  -0.63953  -0.60666  -0.58686  -0.57329
 Alpha  occ. eigenvalues --   -0.54503  -0.53292  -0.51892  -0.49780  -0.43153
 Alpha  occ. eigenvalues --   -0.42359  -0.41250  -0.38596  -0.37050  -0.34724
 Alpha  occ. eigenvalues --   -0.29829
 Alpha virt. eigenvalues --    0.02263   0.03734   0.04393   0.05081   0.05287
 Alpha virt. eigenvalues --    0.06324   0.06982   0.07957   0.09361   0.10340
 Alpha virt. eigenvalues --    0.10673   0.11223   0.11952   0.12558   0.13584

 Mulliken charges:
               1
     1  C    4.946992
     2  C   -2.541245
     3  C   -2.377485
     4  C    4.050933
     5  H    0.936565
     6  H    1.228528
     7  H    1.349223
     8  H    1.789123
     9  H    1.070686
    10  H    0.565669
    11  H    0.792095
    12  H    0.621017
    13  H    0.504194
    14  N   -0.544242
    15  N   -2.816728
    16  N   -3.191545
    17  N   -1.831530
    18  N   -1.751072
    19  N   -0.225509
    20  N   -2.575671
 Sum of Mulliken charges =   0.00000

 Dipole moment (field-independent basis, Debye):
    X=              3.1843    Y=              6.1607    Z=             -0.6495  Tot=              6.9653

 Test job not archived.
 1\1\GINC-SE227\SP\RHF\Aug-CC-pVDZ\C4H9N7\OHZDE\08-Apr-2025\0\\#t hf au
 g-cc-pvdz iop(5/13=1,5/36=2,99/5=2) pseudo=read geom=check guess=(read
 ,tcheck) scf=(maxcycle=1)\\title\\0,1\C,0,-2.37134,-0.349394,-0.188029
 \C,0,-0.835555,1.47823,0.610592\C,0,0.631794,1.69249,0.317315\C,0,1.40
 784,0.480986,0.0543734\H,0,3.08589,1.08051,-1.04149\H,0,1.11241,2.1877
 4,1.18434\H,0,0.712682,2.34755,-0.552307\H,0,-1.00267,0.9535,1.55568\H
 ,0,-1.29693,2.47064,0.679298\H,0,-3.76713,0.0421956,-1.46065\H,0,-0.89
 7094,-1.17456,0.945344\H,0,-2.4129,-2.05819,0.808529\H,0,-1.7729,1.249

 Normal termination of Gaussian 16 at Tue Apr  8 22:19:52 2025.
