 Gaussian 16, Revision C.01,

 ----------------------------------------------------------------------
 #t hf aug-cc-pvdz symm=none int=(grid=ultrafine) guess=(read,tcheck) s
 table=(opt,rrhf)
 ----------------------------------------------------------------------
 -----
 title
 -----
 Symbolic Z-matrix:
 Charge =  0 Multiplicity = 1

 SCF Done:  E(RHF) =  -456.201549665     A.U. after   12 cycles
 Normal termination of Gaussian 16 at Tue Apr  8 21:09:42 2025.
 Gaussian 16:  ES64L-G16RevC.01  3-Jul-2019

 ----------------------------------------------------------------------
 #t hf aug-cc-pvdz iop(5/13=1,5/36=2,99/5=2) pseudo=read geom=check gue
 ss=(read,tcheck) scf=(maxcycle=1)
 ----------------------------------------------------------------------
 -----
 title
 -----
 Structure from the checkpoint file:  "ANI1ccx_1844_conf642_mol1.chk"
 Charge =  0 Multiplicity = 1

                         Standard orientation:
 ---------------------------------------------------------------------
 Center     Atomic      Atomic             Coordinates (Angstroms)
 Number     Number       Type             X           Y           Z
 ---------------------------------------------------------------------
      1          1           0       -2.349890   -0.075318   -0.205854
      2          1           0       -1.098087   -1.892535   -0.060757
      3          1           0       -0.356039   -2.972978   -0.950307
      4          1           0        2.364552   -2.218598    0.774410
      5          1           0        1.094024   -1.743964   -0.031884
      6          1           0        0.785359    3.280028    0.655790
      7          1           0       -2.705763   -0.947966    1.150630
      8          1           0        1.032017    1.778747    0.016162
      9          1           0        3.181245    1.290758   -0.504054
     10          1           0        2.552330   -0.050586    0.011652
     11          1           0       -1.160342    2.100885   -0.110054
     12          1           0       -2.621821    2.259901   -0.586797
     13          8           0        2.148104   -1.707738   -0.012267
     14          8           0        2.341864    1.013922    0.047811
     15          8           0       -0.331702   -2.575998   -0.044846
     16          8           0        0.482443    2.582589   -0.045423
     17          8           0       -2.641224   -1.040349    0.054764
     18          8           0       -2.089184    1.626528   -0.019906
 ---------------------------------------------------------------------

 SCF Done:  E(RHF) =  -458.218850949     A.U. after    2 cycles

 The electronic state is 1-A.
 Alpha  occ. eigenvalues --  -21.08241 -21.07323 -21.07202 -21.06932 -21.06883
 Alpha  occ. eigenvalues --  -21.06072  -1.67836  -1.66396  -1.64594  -1.62604
 Alpha  occ. eigenvalues --   -1.60369  -1.59738  -0.65723  -0.63278  -0.62458
 Alpha  occ. eigenvalues --   -0.61254  -0.60097  -0.59842  -0.52780  -0.50479
 Alpha  occ. eigenvalues --   -0.49766  -0.43882  -0.42461  -0.38799  -0.35771
 Alpha  occ. eigenvalues --   -0.35120  -0.34491  -0.33918  -0.32904  -0.31387
 Alpha virt. eigenvalues --    0.03879   0.04951   0.05090   0.06072   0.06231
 Alpha virt. eigenvalues --    0.06369   0.09036   0.09287   0.09951   0.10297
 Alpha virt. eigenvalues --    0.11188   0.11622   0.18017   0.18926   0.20453

 Mulliken charges:
               1
     1  H    1.468505
     2  H    1.584057
     3  H    0.684828
     4  H    0.778325
     5  H    1.613318
     6  H    0.780263
     7  H    0.716299
     8  H    1.974003
     9  H    0.728833
    10  H    1.352626
    11  H    1.504667
    12  H    0.793063
    13  O   -2.327184
    14  O   -2.509235
    15  O   -2.304065
    16  O   -2.392681
    17  O   -2.154277
    18  O   -2.291345
 Sum of Mulliken charges =  -0.00000

 Dipole moment (field-independent basis, Debye):
    X=              0.4382    Y=              0.1932    Z=              0.0658  Tot=              0.4834

 Test job not archived.
 1\1\GINC-SE454\SP\RHF\Aug-CC-pVDZ\H12O6\OHZDE\08-Apr-2025\0\\#t hf aug
 -cc-pvdz iop(5/13=1,5/36=2,99/5=2) pseudo=read geom=check guess=(read,
 tcheck) scf=(maxcycle=1)\\title\\0,1\H,0,-2.34989,-0.0753274,-0.205854
 \H,0,-1.09808,-1.89254,-0.0607574\H,0,-0.356028,-2.97298,-0.950307\H,0
 ,2.36456,-2.21859,0.77441\H,0,1.09403,-1.74396,-0.0318839\H,0,0.785346
 ,3.28003,0.65579\H,0,-2.70576,-0.947977,1.15063\H,0,1.03201,1.77875,0.
 0161624\H,0,3.18124,1.29077,-0.504054\H,0,2.55233,-0.0505771,0.0116522
 \H,0,-1.16035,2.10088,-0.110054\H,0,-2.62183,2.25989,-0.586797\O,0,2.1

 Normal termination of Gaussian 16 at Tue Apr  8 21:09:47 2025.
