 Gaussian 16, Revision C.01,

 ----------------------------------------------------------------------
 #t hf aug-cc-pvdz symm=none int=(grid=ultrafine) guess=(read,tcheck) s
 table=(opt,rrhf)
 ----------------------------------------------------------------------
 -----
 title
 -----
 Symbolic Z-matrix:
 Charge =  0 Multiplicity = 1

 SCF Done:  E(RHF) =  -456.253573328     A.U. after   11 cycles
 Normal termination of Gaussian 16 at Tue Apr  8 21:08:47 2025.
 Gaussian 16:  ES64L-G16RevC.01  3-Jul-2019

 ----------------------------------------------------------------------
 #t hf aug-cc-pvdz iop(5/13=1,5/36=2,99/5=2) pseudo=read geom=check gue
 ss=(read,tcheck) scf=(maxcycle=1)
 ----------------------------------------------------------------------
 -----
 title
 -----
 Structure from the checkpoint file:  "ANI1ccx_1844_conf210_mol1.chk"
 Charge =  0 Multiplicity = 1

                         Standard orientation:
 ---------------------------------------------------------------------
 Center     Atomic      Atomic             Coordinates (Angstroms)
 Number     Number       Type             X           Y           Z
 ---------------------------------------------------------------------
      1          1           0        2.411882   -0.360783    1.612560
      2          1           0        0.300759   -2.033688   -0.602589
      3          1           0        1.515148   -3.068470   -0.136222
      4          1           0       -2.025215    0.796845    0.233132
      5          1           0       -2.711642    0.269925    1.598250
      6          1           0       -1.875873   -1.271240    0.322093
      7          1           0        2.027865   -0.915823    0.186090
      8          1           0       -1.966477   -2.309131   -0.829297
      9          1           0        1.844114    2.654792   -0.729484
     10          1           0        1.825022    1.239711    0.018382
     11          1           0       -0.188231    2.044590   -0.383050
     12          1           0       -1.511328    2.951612   -0.461504
     13          8           0       -2.694391    0.118090    0.651066
     14          8           0        1.429007    2.189029    0.027848
     15          8           0        1.310992   -2.178902   -0.619879
     16          8           0       -1.390928   -2.054587   -0.101973
     17          8           0        2.511670   -0.141017    0.652917
     18          8           0       -1.122103    2.067594   -0.713524
 ---------------------------------------------------------------------

 SCF Done:  E(RHF) =  -458.251638389     A.U. after    2 cycles

 The electronic state is 1-A.
 Alpha  occ. eigenvalues --  -21.08935 -21.07712 -21.07476 -21.07432 -21.07069
 Alpha  occ. eigenvalues --  -21.07043  -1.68330  -1.66860  -1.65919  -1.63374
 Alpha  occ. eigenvalues --   -1.62679  -1.61476  -0.64772  -0.64039  -0.63462
 Alpha  occ. eigenvalues --   -0.63375  -0.62671  -0.62613  -0.52232  -0.50145
 Alpha  occ. eigenvalues --   -0.48359  -0.44847  -0.42757  -0.41422  -0.35228
 Alpha  occ. eigenvalues --   -0.34602  -0.34355  -0.33992  -0.33660  -0.32228
 Alpha virt. eigenvalues --    0.03751   0.04671   0.05046   0.05464   0.06402
 Alpha virt. eigenvalues --    0.06783   0.08507   0.09270   0.10092   0.10408
 Alpha virt. eigenvalues --    0.11132   0.11296   0.17719   0.18839   0.19610

 Mulliken charges:
               1
     1  H    0.864307
     2  H    1.490895
     3  H    0.792430
     4  H    1.482496
     5  H    0.803138
     6  H    1.599663
     7  H    1.614419
     8  H    0.835495
     9  H    0.726301
    10  H    1.602086
    11  H    1.632396
    12  H    0.762312
    13  O   -2.371856
    14  O   -2.295698
    15  O   -2.368916
    16  O   -2.419249
    17  O   -2.476715
    18  O   -2.273505
 Sum of Mulliken charges =  -0.00000

 Dipole moment (field-independent basis, Debye):
    X=             -0.3836    Y=              0.0491    Z=              0.7954  Tot=              0.8844

 Test job not archived.
 1\1\GINC-SE186\SP\RHF\Aug-CC-pVDZ\H12O6\OHZDE\08-Apr-2025\0\\#t hf aug
 -cc-pvdz iop(5/13=1,5/36=2,99/5=2) pseudo=read geom=check guess=(read,
 tcheck) scf=(maxcycle=1)\\title\\0,1\H,0,2.41188,-0.360798,1.61256\H,0
 ,0.300748,-2.03369,-0.602589\H,0,1.51513,-3.06848,-0.136222\H,0,-2.025
 21,0.796856,0.233132\H,0,-2.71164,0.26994,1.59825\H,0,-1.87588,-1.2712
 3,0.322093\H,0,2.02786,-0.915836,0.18609\H,0,-1.96649,-2.30912,-0.8292
 97\H,0,1.84413,2.65478,-0.729484\H,0,1.82503,1.2397,0.0183821\H,0,-0.1
 88219,2.04459,-0.38305\H,0,-1.51131,2.95162,-0.461504\O,0,-2.69439,0.1

 Normal termination of Gaussian 16 at Tue Apr  8 21:08:52 2025.
