 Gaussian 16, Revision C.01,

 ----------------------------------------------------------------------
 #t hf aug-cc-pvdz symm=none int=(grid=ultrafine) guess=(read,tcheck) s
 table=(opt,rrhf)
 ----------------------------------------------------------------------
 -----
 title
 -----
 Symbolic Z-matrix:
 Charge =  0 Multiplicity = 1

 SCF Done:  E(RHF) =  -548.555164375     A.U. after   14 cycles
 Normal termination of Gaussian 16 at Tue Apr  8 19:25:29 2025.
 Gaussian 16:  ES64L-G16RevC.01  3-Jul-2019

 ----------------------------------------------------------------------
 #t hf aug-cc-pvdz iop(5/13=1,5/36=2,99/5=2) pseudo=read geom=check gue
 ss=(read,tcheck) scf=(maxcycle=1)
 ----------------------------------------------------------------------
 -----
 title
 -----
 Structure from the checkpoint file:  "ANI1ccx_1168_conf70_mol1.chk"
 Charge =  0 Multiplicity = 1

                         Standard orientation:
 ---------------------------------------------------------------------
 Center     Atomic      Atomic             Coordinates (Angstroms)
 Number     Number       Type             X           Y           Z
 ---------------------------------------------------------------------
      1          6           0       -1.271842    0.677939   -0.191860
      2          6           0       -1.204081   -0.807467   -0.006130
      3          6           0       -0.072102    1.486130    0.285825
      4          6           0        1.121288    1.085401   -0.509778
      5          6           0        2.096359    0.023448   -0.071089
      6          1           0       -1.935180   -2.408061   -0.762550
      7          1           0        1.073859   -0.284835    1.394980
      8          1           0        0.984971    0.874762   -1.581320
      9          1           0        1.798198    1.988171   -0.565766
     10          1           0       -0.382004    2.494850    0.138188
     11          1           0        0.246242    1.342680    1.361310
     12          1           0       -1.258262    0.688946   -1.289710
     13          1           0       -2.698022    0.723736    1.215190
     14          1           0       -3.207502    1.169169   -0.429902
     15          7           0       -2.510612    1.296859    0.314023
     16          8           0       -0.444627   -1.468480    0.703266
     17          8           0        2.986909   -0.305677   -0.821174
     18          8           0        1.934909   -0.576929    1.077430
     19          8           0       -2.110411   -1.456431   -0.799570
 ---------------------------------------------------------------------

 SCF Done:  E(RHF) =  -550.939014354     A.U. after    2 cycles

 The electronic state is 1-A.
 Alpha  occ. eigenvalues --  -21.14365 -21.11057 -21.08233 -21.02002 -15.77242
 Alpha  occ. eigenvalues --  -11.57266 -11.52177 -11.49418 -11.44932 -11.40505
 Alpha  occ. eigenvalues --   -1.84935  -1.82902  -1.67362  -1.63508  -1.39258
 Alpha  occ. eigenvalues --   -1.21658  -1.05796  -0.96395  -0.80487  -0.78106
 Alpha  occ. eigenvalues --   -0.73849  -0.70053  -0.67225  -0.64436  -0.63006
 Alpha  occ. eigenvalues --   -0.59742  -0.58071  -0.54444  -0.53290  -0.52669
 Alpha  occ. eigenvalues --   -0.49139  -0.46993  -0.45305  -0.44204  -0.40037
 Alpha  occ. eigenvalues --   -0.36529  -0.33041  -0.29467  -0.28013
 Alpha virt. eigenvalues --    0.03289   0.04297   0.04615   0.04954   0.05179
 Alpha virt. eigenvalues --    0.05888   0.06841   0.08157   0.08558   0.10271
 Alpha virt. eigenvalues --    0.10761   0.11518   0.12065   0.12620   0.12883

 Mulliken charges:
               1
     1  C   -0.878342
     2  C    6.352288
     3  C   -2.370571
     4  C   -2.931886
     5  C    5.664880
     6  H    0.876830
     7  H    1.686149
     8  H    1.337263
     9  H    1.306922
    10  H    1.196156
    11  H    0.749864
    12  H    1.906200
    13  H    0.504896
    14  H    0.523095
    15  N   -2.797332
    16  O   -3.208059
    17  O   -3.344809
    18  O   -3.359710
    19  O   -3.213835
 Sum of Mulliken charges =   0.00000

 Dipole moment (field-independent basis, Debye):
    X=             -4.2299    Y=              0.3718    Z=              0.1613  Tot=              4.2493

 Test job not archived.
 1\1\GINC-SE060\SP\RHF\Aug-CC-pVDZ\C5H9N1O4\OHZDE\08-Apr-2025\0\\#t hf
 aug-cc-pvdz iop(5/13=1,5/36=2,99/5=2) pseudo=read geom=check guess=(re
 ad,tcheck) scf=(maxcycle=1)\\title\\0,1\C,0,-1.27184,0.677939,-0.19186
 \C,0,-1.20408,-0.807467,-0.00613013\C,0,-0.0720998,1.48613,0.285825\C,
 0,1.12129,1.0854,-0.509778\C,0,2.09636,0.023447,-0.0710891\H,0,-1.9351
 8,-2.40806,-0.76255\H,0,1.07386,-0.284836,1.39498\H,0,0.984973,0.87476
 1,-1.58132\H,0,1.7982,1.98817,-0.565766\H,0,-0.382002,2.49485,0.138188
 \H,0,0.246244,1.34268,1.36131\H,0,-1.25826,0.688946,-1.28971\H,0,-2.69

 Normal termination of Gaussian 16 at Tue Apr  8 19:25:40 2025.
