 Gaussian 16, Revision C.01,

 ----------------------------------------------------------------------
 #t hf aug-cc-pvdz symm=none int=(grid=ultrafine) guess=(read,tcheck) s
 table=(opt,rrhf)
 ----------------------------------------------------------------------
 -----
 title
 -----
 Symbolic Z-matrix:
 Charge =  0 Multiplicity = 1

 SCF Done:  E(RHF) =  -502.731676493     A.U. after   15 cycles
 Normal termination of Gaussian 16 at Tue Apr  8 22:15:33 2025.
 Gaussian 16:  ES64L-G16RevC.01  3-Jul-2019

 ----------------------------------------------------------------------
 #t hf aug-cc-pvdz iop(5/13=1,5/36=2,99/5=2) pseudo=read geom=check gue
 ss=(read,tcheck) scf=(maxcycle=1)
 ----------------------------------------------------------------------
 -----
 title
 -----
 Structure from the checkpoint file:  "ANI1ccx_948_conf1_mol1.chk"
 Charge =  0 Multiplicity = 1

                         Standard orientation:
 ---------------------------------------------------------------------
 Center     Atomic      Atomic             Coordinates (Angstroms)
 Number     Number       Type             X           Y           Z
 ---------------------------------------------------------------------
      1          6           0       -3.294260   -0.468182    0.076062
      2          6           0       -0.968323    0.390786   -0.013221
      3          6           0        1.923669   -1.521831    0.069921
      4          6           0        1.517540    0.498476    0.003400
      5          1           0        2.287140    2.372639    0.132446
      6          1           0        0.492361    2.255780    0.165674
      7          1           0       -1.476311   -1.526840    0.174732
      8          1           0        2.415359   -2.474911    0.152722
      9          1           0       -3.494930    0.601130    0.133364
     10          1           0       -3.645251   -0.960773    0.992118
     11          1           0       -3.822971   -0.891463   -0.796532
     12          7           0        1.453400    1.862769   -0.082050
     13          7           0       -1.861291   -0.635523   -0.130429
     14          7           0        0.366952   -0.172293   -0.112174
     15          7           0        0.637024   -1.521660   -0.075321
     16          7           0        2.545270   -0.329639    0.081493
     17          8           0       -1.227080    1.600420    0.057235
 ---------------------------------------------------------------------

 SCF Done:  E(RHF) =  -504.990748545     A.U. after    2 cycles

 The electronic state is 1-A.
 Alpha  occ. eigenvalues --  -21.06073 -15.80362 -15.77635 -15.77171 -15.75041
 Alpha  occ. eigenvalues --  -15.72477 -11.55020 -11.51599 -11.43284 -11.41222
 Alpha  occ. eigenvalues --   -1.75501  -1.67036  -1.43187  -1.37417  -1.31793
 Alpha  occ. eigenvalues --   -1.18498  -1.04239  -0.90904  -0.85353  -0.79916
 Alpha  occ. eigenvalues --   -0.74813  -0.69498  -0.67339  -0.64380  -0.63027
 Alpha  occ. eigenvalues --   -0.59544  -0.57356  -0.55582  -0.53426  -0.51622
 Alpha  occ. eigenvalues --   -0.47152  -0.46097  -0.39748  -0.38702  -0.34443
 Alpha  occ. eigenvalues --   -0.33021  -0.30342
 Alpha virt. eigenvalues --    0.03340   0.04941   0.05350   0.05811   0.06394
 Alpha virt. eigenvalues --    0.07283   0.08410   0.09548   0.10787   0.11325
 Alpha virt. eigenvalues --    0.11808   0.12116   0.13182   0.13570   0.14159

 Mulliken charges:
               1
     1  C   -3.677744
     2  C    5.577305
     3  C    1.294951
     4  C    3.838275
     5  H    0.706260
     6  H    0.686682
     7  H    0.749201
     8  H    1.694755
     9  H    1.301134
    10  H    1.346092
    11  H    1.361200
    12  N   -2.963876
    13  N   -2.804154
    14  N   -0.946898
    15  N   -2.044270
    16  N   -3.208803
    17  O   -2.910110
 Sum of Mulliken charges =   0.00000

 Dipole moment (field-independent basis, Debye):
    X=             -2.1803    Y=              0.4197    Z=              0.9356  Tot=              2.4094

 Test job not archived.
 1\1\GINC-SE099\SP\RHF\Aug-CC-pVDZ\C4H7N5O1\OHZDE\08-Apr-2025\0\\#t hf
 aug-cc-pvdz iop(5/13=1,5/36=2,99/5=2) pseudo=read geom=check guess=(re
 ad,tcheck) scf=(maxcycle=1)\\title\\0,1\C,0,-3.29426,-0.468183,0.07606
 18\C,0,-0.968323,0.390786,-0.0132208\C,0,1.92367,-1.52183,0.0699205\C,
 0,1.51754,0.498477,0.00339955\H,0,2.28714,2.37264,0.132446\H,0,0.49236
 1,2.25578,0.165674\H,0,-1.47631,-1.52684,0.174732\H,0,2.41536,-2.47491
 ,0.152722\H,0,-3.49493,0.601129,0.133364\H,0,-3.64525,-0.960774,0.9921
 18\H,0,-3.82297,-0.891464,-0.796532\N,0,1.4534,1.86277,-0.0820502\N,0,

 Normal termination of Gaussian 16 at Tue Apr  8 22:15:42 2025.
