 Gaussian 16, Revision C.01,

 ----------------------------------------------------------------------
 #t hf aug-cc-pvdz symm=none int=(grid=ultrafine) guess=(read,tcheck) s
 table=(opt,rrhf)
 ----------------------------------------------------------------------
 -----
 title
 -----
 Symbolic Z-matrix:
 Charge =  0 Multiplicity = 1

 SCF Done:  E(RHF) =  -962.251807656     A.U. after   15 cycles
 Normal termination of Gaussian 16 at Tue Apr  8 21:08:22 2025.
 Gaussian 16:  ES64L-G16RevC.01  3-Jul-2019

 ----------------------------------------------------------------------
 #t hf aug-cc-pvdz iop(5/13=1,5/36=2,99/5=2) pseudo=read geom=check gue
 ss=(read,tcheck) scf=(maxcycle=1)
 ----------------------------------------------------------------------
 -----
 title
 -----
 Structure from the checkpoint file:  "ANI1ccx_1756_conf10_mol1.chk"
 Charge =  0 Multiplicity = 1

                         Standard orientation:
 ---------------------------------------------------------------------
 Center     Atomic      Atomic             Coordinates (Angstroms)
 Number     Number       Type             X           Y           Z
 ---------------------------------------------------------------------
      1          6           0        0.527071    1.023320   -0.132396
      2          6           0       -0.536969    1.532250    0.856248
      3          6           0        1.846829    1.632350    0.255063
      4          6           0        3.031399    1.175250   -0.597671
      5          6           0        3.475309   -0.264605   -0.254076
      6          6           0       -2.012901   -0.248371   -0.041589
      7          6           0       -3.397741   -0.207287   -0.661006
      8          6           0       -1.692220   -1.690041    0.549077
      9          6           0       -0.196539   -1.961030    0.603943
     10          1           0       -3.392121    1.644419   -0.415248
     11          1           0        1.299989   -1.413260    1.581680
     12          1           0       -2.132370   -2.382091   -0.158611
     13          1           0       -2.112840   -1.719101    1.552250
     14          1           0       -1.383621   -0.048937   -0.866285
     15          1           0       -2.438531    1.095039    1.560840
     16          1           0        4.802800   -1.648200   -0.878987
     17          1           0        4.859639   -0.161110   -1.831870
     18          1           0        2.709509    1.195110   -1.671680
     19          1           0        3.909499    1.835050   -0.584777
     20          1           0        2.123119    1.423850    1.311800
     21          1           0        1.710839    2.744090    0.157112
     22          1           0        0.571502    0.011982    0.050453
     23          1           0        0.553192    0.733503   -2.190760
     24          1           0       -0.035805    2.174840   -1.791040
     25          7           0       -0.010530    1.218860   -1.456270
     26          7           0        4.537569   -0.675902   -1.018790
     27          7           0       -1.750841    0.816238    0.854132
     28          8           0       -0.391271    2.537490    1.539330
     29          8           0        2.882909   -0.995261    0.527902
     30          8           0       -3.908141   -1.214611   -1.130800
     31          8           0        0.419938   -2.317140   -0.389828
     32          8           0        0.361373   -1.593480    1.755130
     33          8           0       -3.957761    0.964182   -0.794727
 ---------------------------------------------------------------------

 SCF Done:  E(RHF) =  -966.472809656     A.U. after    2 cycles

 The electronic state is 1-A.
 Alpha  occ. eigenvalues --  -21.14026 -21.11520 -21.05413 -21.04832 -21.04241
 Alpha  occ. eigenvalues --  -21.04181 -15.79713 -15.77706 -15.76723 -11.54885
 Alpha  occ. eigenvalues --  -11.54874 -11.54511 -11.54120 -11.50148 -11.47459
 Alpha  occ. eigenvalues --  -11.45576 -11.41741 -11.40682  -1.85153  -1.82249
 Alpha  occ. eigenvalues --   -1.73708  -1.71884  -1.65333  -1.64830  -1.44745
 Alpha  occ. eigenvalues --   -1.38154  -1.36026  -1.19513  -1.15897  -1.06609
 Alpha  occ. eigenvalues --   -1.01459  -0.93767  -0.82454  -0.81706  -0.80569
 Alpha  occ. eigenvalues --   -0.79884  -0.74167  -0.73141  -0.72459  -0.68159
 Alpha  occ. eigenvalues --   -0.66666  -0.65941  -0.64920  -0.62325  -0.60830
 Alpha  occ. eigenvalues --   -0.60014  -0.59332  -0.57345  -0.56562  -0.54561
 Alpha  occ. eigenvalues --   -0.53638  -0.51936  -0.51211  -0.50792  -0.50073
 Alpha  occ. eigenvalues --   -0.48850  -0.46242  -0.46074  -0.44694  -0.42464
 Alpha  occ. eigenvalues --   -0.38563  -0.35667  -0.34816  -0.33474  -0.33286
 Alpha  occ. eigenvalues --   -0.31854  -0.30160  -0.28797  -0.28069
 Alpha virt. eigenvalues --    0.02402   0.03554   0.04099   0.04488   0.05249
 Alpha virt. eigenvalues --    0.05782   0.06004   0.06413   0.06893   0.07563
 Alpha virt. eigenvalues --    0.07922   0.08274   0.08705   0.09378   0.09834

 Mulliken charges:
               1
     1  C   -0.885290
     2  C    6.126219
     3  C   -3.613817
     4  C   -3.725573
     5  C    5.550712
     6  C   -2.266310
     7  C    6.533752
     8  C   -5.035494
     9  C    7.785068
    10  H    1.106584
    11  H    1.276280
    12  H    1.531326
    13  H    1.546416
    14  H    2.908615
    15  H    0.662082
    16  H    0.778942
    17  H    0.866750
    18  H    1.440628
    19  H    1.480870
    20  H    1.185256
    21  H    1.249510
    22  H    3.501909
    23  H    0.530749
    24  H    0.759490
    25  N   -3.310242
    26  N   -3.665952
    27  N   -2.622912
    28  O   -3.848099
    29  O   -3.430994
    30  O   -3.416529
    31  O   -3.660383
    32  O   -3.790817
    33  O   -3.548746
 Sum of Mulliken charges =  -0.00000

 Dipole moment (field-independent basis, Debye):
    X=              4.4149    Y=              2.0027    Z=             -1.6842  Tot=              5.1321

 Test job not archived.
 1\1\GINC-SE402\SP\RHF\Aug-CC-pVDZ\C9H15N3O6\OHZDE\08-Apr-2025\0\\#t hf
  aug-cc-pvdz iop(5/13=1,5/36=2,99/5=2) pseudo=read geom=check guess=(r
 ead,tcheck) scf=(maxcycle=1)\\title\\0,1\C,0,0.527072,1.02332,-0.13239
 6\C,0,-0.536968,1.53225,0.856248\C,0,1.84683,1.63235,0.255063\C,0,3.03
 14,1.17525,-0.597671\C,0,3.47531,-0.264605,-0.254076\C,0,-2.0129,-0.24
 837,-0.0415886\C,0,-3.39774,-0.207286,-0.661006\C,0,-1.69222,-1.69004,
 0.549077\C,0,-0.196539,-1.96103,0.603943\H,0,-3.39212,1.64442,-0.41524
 8\H,0,1.29999,-1.41326,1.58168\H,0,-2.13237,-2.38209,-0.158611\H,0,-2.

 Normal termination of Gaussian 16 at Tue Apr  8 21:09:14 2025.
