 Gaussian 16, Revision C.01,

 ----------------------------------------------------------------------
 #t hf aug-cc-pvdz symm=none int=(grid=ultrafine) guess=(read,tcheck) s
 table=(opt,rrhf)
 ----------------------------------------------------------------------
 -----
 title
 -----
 Symbolic Z-matrix:
 Charge =  0 Multiplicity = 1

 SCF Done:  E(RHF) =  -355.485371385     A.U. after   16 cycles
 Normal termination of Gaussian 16 at Tue Apr  8 21:12:20 2025.
 Gaussian 16:  ES64L-G16RevC.01  3-Jul-2019

 ----------------------------------------------------------------------
 #t hf aug-cc-pvdz iop(5/13=1,5/36=2,99/5=2) pseudo=read geom=check gue
 ss=(read,tcheck) scf=(maxcycle=1)
 ----------------------------------------------------------------------
 -----
 title
 -----
 Structure from the checkpoint file:  "ANI1ccx_1871_conf3_mol1.chk"
 Charge =  0 Multiplicity = 1

                         Standard orientation:
 ---------------------------------------------------------------------
 Center     Atomic      Atomic             Coordinates (Angstroms)
 Number     Number       Type             X           Y           Z
 ---------------------------------------------------------------------
      1          1           0        1.572930   -1.704170    0.026558
      2          1           0       -1.189900    0.578505    0.183170
      3          1           0       -3.449000   -0.151789    0.506422
      4          7           0        1.240840    0.113753    0.086566
      5          8           0        2.119450   -0.910370   -0.106316
      6          8           0        1.710880    1.155490   -0.017330
      7          8           0       -1.623950   -0.274969    0.218135
      8          8           0       -2.908870    0.089997   -0.259753
 ---------------------------------------------------------------------

 SCF Done:  E(RHF) =  -356.922505532     A.U. after    2 cycles

 The electronic state is 1-A.
 Alpha  occ. eigenvalues --  -21.15659 -21.14629 -21.12268 -21.11866 -15.93994
 Alpha  occ. eigenvalues --   -2.00598  -1.94523  -1.73164  -1.39715  -0.95665
 Alpha  occ. eigenvalues --   -0.73988  -0.63274  -0.62603  -0.62277  -0.61379
 Alpha  occ. eigenvalues --   -0.49959  -0.47526  -0.37814  -0.36576  -0.30979
 Alpha  occ. eigenvalues --   -0.30207
 Alpha virt. eigenvalues --    0.04402   0.05325   0.07747   0.13184   0.13798
 Alpha virt. eigenvalues --    0.15012   0.16496   0.17738   0.18243   0.19516
 Alpha virt. eigenvalues --    0.21086   0.21481   0.22386   0.22840   0.23697

 Mulliken charges:
               1
     1  H    0.877675
     2  H    1.064899
     3  H    0.960127
     4  N    3.049959
     5  O   -1.981730
     6  O   -1.971116
     7  O   -1.171204
     8  O   -0.828611
 Sum of Mulliken charges =  -0.00000

 Dipole moment (field-independent basis, Debye):
    X=              0.2267    Y=             -0.7420    Z=              0.6111  Tot=              0.9876

 Test job not archived.
 1\1\GINC-SE368\SP\RHF\Aug-CC-pVDZ\H3N1O4\OHZDE\08-Apr-2025\0\\#t hf au
 g-cc-pvdz iop(5/13=1,5/36=2,99/5=2) pseudo=read geom=check guess=(read
 ,tcheck) scf=(maxcycle=1)\\title\\0,1\H,0,1.57293,-1.70417,0.0265575\H
 ,0,-1.1899,0.578505,0.18317\H,0,-3.449,-0.151788,0.506422\N,0,1.24084,
 0.113753,0.0865663\O,0,2.11945,-0.91037,-0.106316\O,0,1.71088,1.15549,
 -0.0173305\O,0,-1.62395,-0.274969,0.218135\O,0,-2.90887,0.0899979,-0.2
 59753\\Version=ES64L-G16RevC.01\State=1-A\HF=-356.9225055\RMSD=5.309e-
 02\Dipole=0.0891968,-0.2919076,0.2404065\Quadrupole=-0.0071378,1.01901

 Normal termination of Gaussian 16 at Tue Apr  8 21:12:22 2025.
