 Gaussian 16, Revision C.01,

 ----------------------------------------------------------------------
 #t hf aug-cc-pvdz symm=none int=(grid=ultrafine) guess=(read,tcheck) s
 table=(opt,rrhf)
 ----------------------------------------------------------------------
 -----
 title
 -----
 Symbolic Z-matrix:
 Charge =  0 Multiplicity = 1

 SCF Done:  E(RHF) =  -408.765174271     A.U. after   13 cycles
 Normal termination of Gaussian 16 at Tue Apr  8 21:41:04 2025.
 Gaussian 16:  ES64L-G16RevC.01  3-Jul-2019

 ----------------------------------------------------------------------
 #t hf aug-cc-pvdz iop(5/13=1,5/36=2,99/5=2) pseudo=read geom=check gue
 ss=(read,tcheck) scf=(maxcycle=1)
 ----------------------------------------------------------------------
 -----
 title
 -----
 Structure from the checkpoint file:  "ANI1ccx_432_conf4_mol1.chk"
 Charge =  0 Multiplicity = 1

                         Standard orientation:
 ---------------------------------------------------------------------
 Center     Atomic      Atomic             Coordinates (Angstroms)
 Number     Number       Type             X           Y           Z
 ---------------------------------------------------------------------
      1          6           0       -0.281359   -0.256238    0.110157
      2          1           0        1.190437    2.170382    1.065150
      3          1           0        1.536507    2.233352   -0.590364
      4          1           0       -0.664831    1.671070   -0.480044
      5          1           0        0.425864   -2.145559    0.408865
      6          1           0        2.633900   -0.794464    0.139783
      7          1           0       -3.304110   -0.293026   -0.080441
      8          7           0        1.304888    1.642572    0.184987
      9          7           0        0.061028    1.047581   -0.113547
     10          7           0        0.758407   -1.181848    0.368629
     11          7           0       -1.497570   -0.776434    0.148941
     12          8           0        1.914621   -1.039807   -0.465066
     13          8           0       -2.479231    0.236380   -0.190803
 ---------------------------------------------------------------------

 SCF Done:  E(RHF) =  -410.546640111     A.U. after    2 cycles

 The electronic state is 1-A.
 Alpha  occ. eigenvalues --  -21.09927 -21.07190 -15.78562 -15.78060 -15.77637
 Alpha  occ. eigenvalues --  -15.73172 -11.47952  -1.77161  -1.73018  -1.50397
 Alpha  occ. eigenvalues --   -1.32256  -1.14457  -1.09246  -0.82904  -0.70562
 Alpha  occ. eigenvalues --   -0.68697  -0.64926  -0.63032  -0.59812  -0.55876
 Alpha  occ. eigenvalues --   -0.53791  -0.49937  -0.43641  -0.39243  -0.34965
 Alpha  occ. eigenvalues --   -0.34797  -0.33250  -0.23914
 Alpha virt. eigenvalues --    0.03661   0.05482   0.05572   0.05756   0.06783
 Alpha virt. eigenvalues --    0.07326   0.12504   0.13031   0.14105   0.14573
 Alpha virt. eigenvalues --    0.15804   0.16316   0.17377   0.18190   0.18866

 Mulliken charges:
               1
     1  C    4.696694
     2  H    0.671948
     3  H    0.709964
     4  H    0.711721
     5  H    0.733579
     6  H    0.812134
     7  H    0.884411
     8  N   -1.883269
     9  N   -1.566540
    10  N   -0.673185
    11  N   -0.667306
    12  O   -2.204166
    13  O   -2.225984
 Sum of Mulliken charges =  -0.00000

 Dipole moment (field-independent basis, Debye):
    X=              1.7343    Y=              2.7691    Z=             -0.2559  Tot=              3.2774

 Test job not archived.
 1\1\GINC-SE220\SP\RHF\Aug-CC-pVDZ\C1H6N4O2\OHZDE\08-Apr-2025\0\\#t hf
 aug-cc-pvdz iop(5/13=1,5/36=2,99/5=2) pseudo=read geom=check guess=(re
 ad,tcheck) scf=(maxcycle=1)\\title\\0,1\C,0,-0.281359,-0.256238,0.1101
 57\H,0,1.19044,2.17038,1.06515\H,0,1.53651,2.23335,-0.590364\H,0,-0.66
 4829,1.67107,-0.480044\H,0,0.425862,-2.14556,0.408865\H,0,2.6339,-0.79
 4468,0.139783\H,0,-3.30411,-0.293023,-0.0804411\N,0,1.30489,1.64257,0.
 184987\N,0,0.0610295,1.04758,-0.113547\N,0,0.758406,-1.18185,0.368629\
 N,0,-1.49757,-0.776433,0.148941\O,0,1.91462,-1.03981,-0.465066\O,0,-2.

 Normal termination of Gaussian 16 at Tue Apr  8 21:41:08 2025.
