 Gaussian 16, Revision C.01,

 ----------------------------------------------------------------------
 #t hf aug-cc-pvdz symm=none int=(grid=ultrafine) guess=(read,tcheck) s
 table=(opt,rrhf)
 ----------------------------------------------------------------------
 -----
 title
 -----
 Symbolic Z-matrix:
 Charge =  0 Multiplicity = 1

 SCF Done:  E(RHF) =  -334.008700939     A.U. after   14 cycles
 Normal termination of Gaussian 16 at Tue Apr  8 21:40:52 2025.
 Gaussian 16:  ES64L-G16RevC.01  3-Jul-2019

 ----------------------------------------------------------------------
 #t hf aug-cc-pvdz iop(5/13=1,5/36=2,99/5=2) pseudo=read geom=check gue
 ss=(read,tcheck) scf=(maxcycle=1)
 ----------------------------------------------------------------------
 -----
 title
 -----
 Structure from the checkpoint file:  "ANI1ccx_431_conf1_mol1.chk"
 Charge =  0 Multiplicity = 1

                         Standard orientation:
 ---------------------------------------------------------------------
 Center     Atomic      Atomic             Coordinates (Angstroms)
 Number     Number       Type             X           Y           Z
 ---------------------------------------------------------------------
      1          6           0        0.799977    0.011535   -0.001241
      2          1           0       -1.160293    0.784324   -1.136590
      3          1           0       -1.940065    1.214542    0.240928
      4          1           0        0.525042    1.897242    0.643760
      5          1           0        0.575544   -1.928677   -0.500348
      6          1           0       -1.942185   -1.139198   -0.279522
      7          1           0       -1.253616   -0.973593    1.243330
      8          7           0       -1.137806    1.415465   -0.360768
      9          7           0        0.003857    1.059570    0.413793
     10          7           0        0.024659   -1.076150   -0.369581
     11          7           0       -1.151254   -1.394165    0.304670
     12          8           0        2.027440    0.005388   -0.015114
 ---------------------------------------------------------------------

 SCF Done:  E(RHF) =  -335.502113779     A.U. after    2 cycles

 The electronic state is 1-A.
 Alpha  occ. eigenvalues --  -21.03279 -15.78547 -15.78155 -15.77637 -15.77592
 Alpha  occ. eigenvalues --  -11.50175  -1.72137  -1.53144  -1.46015  -1.18053
 Alpha  occ. eigenvalues --   -1.12266  -0.86767  -0.73367  -0.67970  -0.67500
 Alpha  occ. eigenvalues --   -0.65906  -0.60117  -0.55414  -0.53575  -0.45677
 Alpha  occ. eigenvalues --   -0.40992  -0.35765  -0.31897  -0.29445
 Alpha virt. eigenvalues --    0.03465   0.05087   0.05233   0.05781   0.06859
 Alpha virt. eigenvalues --    0.07273   0.11845   0.12615   0.12687   0.14854
 Alpha virt. eigenvalues --    0.15278   0.16352   0.17064   0.17973   0.18328

 Mulliken charges:
               1
     1  C    5.426930
     2  H    0.681443
     3  H    0.640981
     4  H    0.689867
     5  H    0.661762
     6  H    0.670942
     7  H    0.586487
     8  N   -1.682261
     9  N   -1.505475
    10  N   -1.469809
    11  N   -1.664166
    12  O   -3.036700
 Sum of Mulliken charges =  -0.00000

 Dipole moment (field-independent basis, Debye):
    X=             -2.6650    Y=             -0.0707    Z=              0.3232  Tot=              2.6855

 Test job not archived.
 1\1\GINC-SE109\SP\RHF\Aug-CC-pVDZ\C1H6N4O1\OHZDE\08-Apr-2025\0\\#t hf
 aug-cc-pvdz iop(5/13=1,5/36=2,99/5=2) pseudo=read geom=check guess=(re
 ad,tcheck) scf=(maxcycle=1)\\title\\0,1\C,0,0.799977,0.0115318,-0.0012
 4068\H,0,-1.16029,0.784329,-1.13659\H,0,-1.94006,1.21455,0.240928\H,0,
 0.52505,1.89724,0.64376\H,0,0.575535,-1.92868,-0.500348\H,0,-1.94219,-
 1.13919,-0.279522\H,0,-1.25362,-0.973588,1.24333\N,0,-1.1378,1.41547,-
 0.360768\N,0,0.0038616,1.05957,0.413793\N,0,0.0246542,-1.07615,-0.3695
 81\N,0,-1.15126,-1.39416,0.30467\O,0,2.02744,0.00537882,-0.0151145\\Ve

 Normal termination of Gaussian 16 at Tue Apr  8 21:40:56 2025.
