 Gaussian 16, Revision C.01,

 ----------------------------------------------------------------------
 #t hf aug-cc-pvdz symm=none int=(grid=ultrafine) guess=(read,tcheck) s
 table=(opt,rrhf)
 ----------------------------------------------------------------------
 -----
 title
 -----
 Symbolic Z-matrix:
 Charge =  0 Multiplicity = 1

 SCF Done:  E(RHF) =  -1016.59008250     A.U. after   14 cycles
 Normal termination of Gaussian 16 at Tue Apr  8 22:41:55 2025.
 Gaussian 16:  ES64L-G16RevC.01  3-Jul-2019

 ----------------------------------------------------------------------
 #t hf aug-cc-pvdz iop(5/13=1,5/36=2,99/5=2) pseudo=read geom=check gue
 ss=(read,tcheck) scf=(maxcycle=1)
 ----------------------------------------------------------------------
 -----
 title
 -----
 Structure from the checkpoint file:  "ANI1ccx_89_conf1_mol1.chk"
 Charge =  0 Multiplicity = 1

                         Standard orientation:
 ---------------------------------------------------------------------
 Center     Atomic      Atomic             Coordinates (Angstroms)
 Number     Number       Type             X           Y           Z
 ---------------------------------------------------------------------
      1          6           0       -2.537780   -1.667349    0.774287
      2          6           0        3.046392    1.420608    0.497622
      3          6           0        1.610052    1.590129   -0.033729
      4          6           0        0.567549    1.733500    1.001960
      5          6           0       -1.017668    2.740751   -0.679334
      6          6           0        3.168820   -0.956695    0.211978
      7          6           0       -0.720406   -2.109180   -1.120240
      8          6           0       -1.357351   -2.511649    0.152045
      9          6           0       -1.921839   -0.356073    1.340310
     10          6           0       -0.953652    1.804761    0.595466
     11          1           0        1.596342    2.446079   -0.718651
     12          1           0       -1.308108    2.744491   -2.402690
     13          1           0        4.461861   -0.355003   -1.332690
     14          1           0        3.761210   -1.877372   -1.398850
     15          1           0        2.212380   -2.015621    1.605010
     16          1           0        3.033421   -0.075237    1.835780
     17          1           0        3.778292    1.799288   -0.253520
     18          1           0        3.351932    2.037588    1.300460
     19          1           0        1.510041    0.708799   -0.695702
     20          1           0        0.739832    2.639640    1.643950
     21          1           0        0.687192    0.872851    1.737720
     22          1           0       -1.426768    2.122431    1.472750
     23          1           0       -1.561319    0.148752   -0.595072
     24          1           0        1.090399   -2.607061   -0.319859
     25          1           0        1.149970   -1.969361   -1.808290
     26          1           0       -0.562363   -2.668430    0.938635
     27          1           0       -1.891411   -3.444199    0.040936
     28          1           0       -3.022790   -2.248578    1.568590
     29          1           0       -3.505430   -0.875983   -1.000190
     30          1           0       -4.462980   -0.844057    0.433899
     31          7           0        3.594130   -0.866222   -1.129280
     32          7           0        2.708010   -2.082582    0.682070
     33          7           0        3.322881    0.147444    0.954867
     34          7           0       -3.696850   -1.274948   -0.102841
     35          7           0        0.601656   -2.512510   -1.228930
     36          7           0       -1.575549    0.553518    0.361299
     37          8           0       -1.090067    3.960721   -0.788331
     38          8           0       -1.764849   -0.069404    2.531010
     39          8           0       -1.383440   -1.420089   -1.909280
     40          8           0       -1.213688    1.975681   -1.740240
 ---------------------------------------------------------------------

 SCF Done:  E(RHF) =  -1021.21441780     A.U. after    2 cycles

 The electronic state is 1-A.
 Alpha  occ. eigenvalues --  -21.13106 -21.06402 -21.03555 -21.02500 -15.78819
 Alpha  occ. eigenvalues --  -15.78000 -15.76951 -15.74605 -15.72815 -15.72013
 Alpha  occ. eigenvalues --  -11.55721 -11.53442 -11.52474 -11.51079 -11.49573
 Alpha  occ. eigenvalues --  -11.47625 -11.47156 -11.44494 -11.41511 -11.38681
 Alpha  occ. eigenvalues --   -1.85466  -1.71244  -1.69525  -1.64972  -1.54789
 Alpha  occ. eigenvalues --   -1.41411  -1.36656  -1.35206  -1.31704  -1.25878
 Alpha  occ. eigenvalues --   -1.20372  -1.13482  -1.08428  -0.99332  -0.95298
 Alpha  occ. eigenvalues --   -0.90174  -0.84878  -0.82685  -0.80572  -0.77168
 Alpha  occ. eigenvalues --   -0.74992  -0.71203  -0.70975  -0.68356  -0.67236
 Alpha  occ. eigenvalues --   -0.66196  -0.64993  -0.63430  -0.63297  -0.61618
 Alpha  occ. eigenvalues --   -0.60720  -0.60334  -0.59222  -0.58099  -0.57336
 Alpha  occ. eigenvalues --   -0.55785  -0.54574  -0.53539  -0.52944  -0.50769
 Alpha  occ. eigenvalues --   -0.50112  -0.49384  -0.48337  -0.47894  -0.46039
 Alpha  occ. eigenvalues --   -0.45363  -0.43335  -0.40739  -0.39083  -0.36087
 Alpha  occ. eigenvalues --   -0.35077  -0.34370  -0.33081  -0.31701  -0.29729
 Alpha  occ. eigenvalues --   -0.29144  -0.25993
 Alpha virt. eigenvalues --    0.03055   0.04025   0.04598   0.04633   0.05050
 Alpha virt. eigenvalues --    0.05505   0.05972   0.06053   0.06635   0.06771
 Alpha virt. eigenvalues --    0.06890   0.07108   0.07447   0.08441   0.08704

 Mulliken charges:
               1
     1  C   -1.360056
     2  C   -4.129388
     3  C   -3.279377
     4  C   -1.724139
     5  C    7.713434
     6  C    7.268838
     7  C    5.701226
     8  C   -3.947795
     9  C    6.541472
    10  C   -3.911068
    11  H    1.470829
    12  H    0.903620
    13  H    0.674445
    14  H    0.605387
    15  H    0.642147
    16  H    0.610508
    17  H    1.325806
    18  H    1.635744
    19  H    2.301216
    20  H    1.313277
    21  H    1.887988
    22  H    1.910572
    23  H    1.135292
    24  H    0.892918
    25  H    0.803359
    26  H    1.721231
    27  H    1.341723
    28  H    1.631106
    29  H    0.674492
    30  H    0.659123
    31  N   -3.547327
    32  N   -3.615256
    33  N   -2.781870
    34  N   -3.020712
    35  N   -3.927442
    36  N   -1.947197
    37  O   -3.511157
    38  O   -3.900775
    39  O   -3.585781
    40  O   -3.176410
 Sum of Mulliken charges =   0.00000

 Dipole moment (field-independent basis, Debye):
    X=              3.8509    Y=              1.4232    Z=             -0.8510  Tot=              4.1927

 Test job not archived.
 1\1\GINC-SE403\SP\RHF\Aug-CC-pVDZ\C10H20N6O4\OHZDE\08-Apr-2025\0\\#t h
 f aug-cc-pvdz iop(5/13=1,5/36=2,99/5=2) pseudo=read geom=check guess=(
 read,tcheck) scf=(maxcycle=1)\\title\\0,1\C,0,-2.53778,-1.66735,0.7742
 87\C,0,3.04639,1.42061,0.497622\C,0,1.61005,1.59013,-0.0337296\C,0,0.5
 67547,1.7335,1.00196\C,0,-1.01767,2.74075,-0.679334\C,0,3.16882,-0.956
 693,0.211978\C,0,-0.720406,-2.10918,-1.12024\C,0,-1.35735,-2.51165,0.1
 52045\C,0,-1.92184,-0.356074,1.34031\C,0,-0.953654,1.80476,0.595466\H,
 0,1.59634,2.44608,-0.718651\H,0,-1.30811,2.74449,-2.40269\H,0,4.46186,

 Normal termination of Gaussian 16 at Tue Apr  8 22:43:14 2025.
