 Gaussian 16, Revision C.01,

 ----------------------------------------------------------------------
 #t hf aug-cc-pvdz symm=none int=(grid=ultrafine) guess=(read,tcheck) s
 table=(opt,rrhf)
 ----------------------------------------------------------------------
 -----
 title
 -----
 Symbolic Z-matrix:
 Charge =  0 Multiplicity = 1

 SCF Done:  E(RHF) =  -590.484205756     A.U. after   16 cycles
 Normal termination of Gaussian 16 at Tue Apr  8 22:13:51 2025.
 Gaussian 16:  ES64L-G16RevC.01  3-Jul-2019

 ----------------------------------------------------------------------
 #t hf aug-cc-pvdz iop(5/13=1,5/36=2,99/5=2) pseudo=read geom=check gue
 ss=(read,tcheck) scf=(maxcycle=1)
 ----------------------------------------------------------------------
 -----
 title
 -----
 Structure from the checkpoint file:  "ANI1ccx_928_conf1_mol2.chk"
 Charge =  0 Multiplicity = 1

                         Standard orientation:
 ---------------------------------------------------------------------
 Center     Atomic      Atomic             Coordinates (Angstroms)
 Number     Number       Type             X           Y           Z
 ---------------------------------------------------------------------
      1          6           0        0.671408    1.730389   -0.453010
      2          6           0       -0.458026    1.752599    0.528056
      3          6           0       -1.263870   -0.625433    1.003490
      4          6           0        1.101850   -0.716694   -0.904444
      5          1           0        0.249391   -0.894451   -1.554100
      6          1           0       -0.034942    1.712409    1.578780
      7          1           0       -0.529583   -0.877073    1.740330
      8          1           0        1.346160    2.529159   -0.198304
      9          1           0        0.325915    1.888299   -1.522200
     10          1           0       -1.084651    2.661919    0.412766
     11          7           0        2.692680   -0.884425    0.490791
     12          7           0       -1.288940    0.557465    0.368659
     13          7           0       -2.237310   -1.403721    0.483613
     14          7           0       -2.719640   -0.732964   -0.565993
     15          7           0       -2.142570    0.408301   -0.730610
     16          7           0        1.358880    0.476301   -0.380709
     17          7           0        1.934760   -1.604961   -0.384578
     18          7           0        2.319220    0.346084    0.504282
 ---------------------------------------------------------------------

 SCF Done:  E(RHF) =  -593.134206830     A.U. after    2 cycles

 The electronic state is 1-A.
 Alpha  occ. eigenvalues --  -15.84839 -15.84283 -15.82001 -15.81576 -15.81378
 Alpha  occ. eigenvalues --  -15.80356 -15.77480 -15.77407 -11.54204 -11.48873
 Alpha  occ. eigenvalues --  -11.48102 -11.46508  -1.78520  -1.74968  -1.47191
 Alpha  occ. eigenvalues --   -1.41154  -1.30931  -1.30187  -1.18679  -1.02709
 Alpha  occ. eigenvalues --   -0.91888  -0.90103  -0.88633  -0.84233  -0.77596
 Alpha  occ. eigenvalues --   -0.75349  -0.73958  -0.68477  -0.66025  -0.65837
 Alpha  occ. eigenvalues --   -0.60225  -0.59707  -0.57079  -0.53130  -0.51721
 Alpha  occ. eigenvalues --   -0.43051  -0.42906  -0.42786  -0.42184  -0.41789
 Alpha  occ. eigenvalues --   -0.41180  -0.39660  -0.38333
 Alpha virt. eigenvalues --    0.02675   0.04370   0.04553   0.04968   0.06221
 Alpha virt. eigenvalues --    0.06932   0.08632   0.09542   0.10011   0.10328
 Alpha virt. eigenvalues --    0.11543   0.12098   0.12444   0.12730   0.13046

 Mulliken charges:
               1
     1  C   -2.154008
     2  C   -2.403591
     3  C    0.742362
     4  C    0.359255
     5  H    1.755429
     6  H    1.712927
     7  H    1.767544
     8  H    1.475788
     9  H    1.681118
    10  H    1.481301
    11  N   -0.190046
    12  N   -0.665847
    13  N   -1.702241
    14  N   -0.083919
    15  N   -0.649713
    16  N   -1.037976
    17  N   -1.563570
    18  N   -0.524813
 Sum of Mulliken charges =   0.00000

 Dipole moment (field-independent basis, Debye):
    X=              0.1049    Y=              5.8014    Z=              0.3232  Tot=              5.8113

 Test job not archived.
 1\1\GINC-SE116\SP\RHF\Aug-CC-pVDZ\C4H6N8\OHZDE\08-Apr-2025\0\\#t hf au
 g-cc-pvdz iop(5/13=1,5/36=2,99/5=2) pseudo=read geom=check guess=(read
 ,tcheck) scf=(maxcycle=1)\\title\\0,1\C,0,0.671408,1.73039,-0.45301\C,
 0,-0.458026,1.7526,0.528056\C,0,-1.26387,-0.625432,1.00349\C,0,1.10185
 ,-0.716693,-0.904444\H,0,0.249391,-0.89445,-1.5541\H,0,-0.0349415,1.71
 241,1.57878\H,0,-0.529583,-0.877072,1.74033\H,0,1.34616,2.52916,-0.198
 304\H,0,0.325915,1.8883,-1.5222\H,0,-1.08465,2.66192,0.412766\N,0,2.69
 268,-0.884425,0.490791\N,0,-1.28894,0.557466,0.368659\N,0,-2.23731,-1.

 Normal termination of Gaussian 16 at Tue Apr  8 22:14:05 2025.
