 Gaussian 16, Revision C.01,

 ----------------------------------------------------------------------
 #t hf aug-cc-pvdz symm=none int=(grid=ultrafine) guess=(read,tcheck) s
 table=(opt,rrhf)
 ----------------------------------------------------------------------
 -----
 title
 -----
 Symbolic Z-matrix:
 Charge =  0 Multiplicity = 1

 SCF Done:  E(RHF) =  -903.320593023     A.U. after   15 cycles
 Normal termination of Gaussian 16 at Tue Apr  8 20:36:03 2025.
 Gaussian 16:  ES64L-G16RevC.01  3-Jul-2019

 ----------------------------------------------------------------------
 #t hf aug-cc-pvdz iop(5/13=1,5/36=2,99/5=2) pseudo=read geom=check gue
 ss=(read,tcheck) scf=(maxcycle=1)
 ----------------------------------------------------------------------
 -----
 title
 -----
 Structure from the checkpoint file:  "ANI1ccx_1597_conf25_mol1.chk"
 Charge =  0 Multiplicity = 1

                         Standard orientation:
 ---------------------------------------------------------------------
 Center     Atomic      Atomic             Coordinates (Angstroms)
 Number     Number       Type             X           Y           Z
 ---------------------------------------------------------------------
      1          6           0       -1.563520   -1.131870   -0.541969
      2          6           0       -0.712627   -0.869994    0.644665
      3          6           0       -3.056820   -0.711718   -0.178557
      4          6           0       -3.207090    0.789458    0.016305
      5          6           0        1.437410    0.734450    0.998912
      6          6           0        1.891470    1.881160    0.006648
      7          6           0        2.284830   -0.521046    0.999461
      8          6           0        2.654790   -0.878206   -0.392514
      9          1           0        1.314320    2.656820   -1.673420
     10          1           0        4.366500   -1.560020    0.568547
     11          1           0        4.107160   -2.321830   -0.956351
     12          1           0        1.650210   -1.391700    1.393630
     13          1           0        3.209490   -0.466360    1.560910
     14          1           0        1.490980    1.308860    1.917560
     15          1           0       -0.434427    1.099060    0.070302
     16          1           0       -5.118870    0.264262   -0.203096
     17          1           0       -3.842780   -1.006920   -0.924076
     18          1           0       -3.318090   -1.263120    0.684745
     19          1           0       -1.239970   -0.575967   -1.429290
     20          1           0       -0.561546   -2.926140   -1.018920
     21          1           0       -2.035690   -2.971810   -0.096563
     22          1           0       -5.008220    1.967910   -0.084306
     23          7           0       -1.576650   -2.546410   -0.917809
     24          7           0       -4.532370    1.101410   -0.246688
     25          7           0       -0.028431    0.292720    0.581703
     26          7           0        3.862550   -1.567970   -0.363495
     27          8           0        1.978040   -0.740401   -1.389370
     28          8           0       -0.654664   -1.679700    1.608460
     29          8           0       -2.294460    1.562400    0.286515
     30          8           0        2.980160    2.352130    0.006045
     31          8           0        0.862746    2.314980   -0.824565
 ---------------------------------------------------------------------

 SCF Done:  E(RHF) =  -907.311343195     A.U. after    2 cycles

 The electronic state is 1-A.
 Alpha  occ. eigenvalues --  -21.11315 -21.07394 -21.04128 -21.04006 -21.01547
 Alpha  occ. eigenvalues --  -15.78827 -15.77690 -15.72940 -15.72830 -11.55953
 Alpha  occ. eigenvalues --  -11.53885 -11.53580 -11.53122 -11.50462 -11.45098
 Alpha  occ. eigenvalues --  -11.42176 -11.40625  -1.81637  -1.71896  -1.71817
 Alpha  occ. eigenvalues --   -1.67795  -1.66511  -1.38446  -1.37283  -1.34686
 Alpha  occ. eigenvalues --   -1.31564  -1.17231  -1.11065  -1.01994  -0.94642
 Alpha  occ. eigenvalues --   -0.83252  -0.82503  -0.77291  -0.75989  -0.72141
 Alpha  occ. eigenvalues --   -0.71133  -0.69534  -0.68602  -0.66388  -0.65377
 Alpha  occ. eigenvalues --   -0.63593  -0.61531  -0.59750  -0.58867  -0.57983
 Alpha  occ. eigenvalues --   -0.54510  -0.53469  -0.52334  -0.51177  -0.49963
 Alpha  occ. eigenvalues --   -0.48499  -0.48475  -0.47509  -0.46135  -0.44638
 Alpha  occ. eigenvalues --   -0.41854  -0.37303  -0.35353  -0.34724  -0.34166
 Alpha  occ. eigenvalues --   -0.31370  -0.30576  -0.30101  -0.27978  -0.26220
 Alpha virt. eigenvalues --    0.03101   0.04215   0.04489   0.05074   0.05395
 Alpha virt. eigenvalues --    0.05558   0.06222   0.06919   0.06970   0.07601
 Alpha virt. eigenvalues --    0.08122   0.08682   0.09360   0.10590   0.11025

 Mulliken charges:
               1
     1  C   -0.375095
     2  C    6.884456
     3  C   -3.822346
     4  C    5.083868
     5  C   -3.359729
     6  C    7.294831
     7  C   -2.960799
     8  C    5.380979
     9  H    0.879138
    10  H    0.661519
    11  H    0.762577
    12  H    1.389797
    13  H    1.477532
    14  H    1.464536
    15  H    1.361839
    16  H    0.659282
    17  H    1.419295
    18  H    1.564525
    19  H    2.008705
    20  H    0.572793
    21  H    0.505711
    22  H    0.813423
    23  N   -3.139063
    24  N   -3.205369
    25  N   -3.090364
    26  N   -3.291483
    27  O   -3.245674
    28  O   -4.023451
    29  O   -3.242167
    30  O   -3.529697
    31  O   -2.899570
 Sum of Mulliken charges =  -0.00000

 Dipole moment (field-independent basis, Debye):
    X=             -1.0384    Y=             -0.0248    Z=              0.1672  Tot=              1.0521

 Test job not archived.
 1\1\GINC-SE081\SP\RHF\Aug-CC-pVDZ\C8H14N4O5\OHZDE\08-Apr-2025\0\\#t hf
  aug-cc-pvdz iop(5/13=1,5/36=2,99/5=2) pseudo=read geom=check guess=(r
 ead,tcheck) scf=(maxcycle=1)\\title\\0,1\C,0,-1.56352,-1.13187,-0.5419
 69\C,0,-0.712627,-0.869994,0.644665\C,0,-3.05682,-0.711718,-0.178557\C
 ,0,-3.20709,0.789458,0.0163049\C,0,1.43741,0.73445,0.998912\C,0,1.8914
 7,1.88116,0.00664857\C,0,2.28483,-0.521046,0.999461\C,0,2.65479,-0.878
 206,-0.392514\H,0,1.31432,2.65682,-1.67342\H,0,4.3665,-1.56002,0.56854
 7\H,0,4.10716,-2.32183,-0.956351\H,0,1.65021,-1.3917,1.39363\H,0,3.209

 Normal termination of Gaussian 16 at Tue Apr  8 20:36:46 2025.
