 Gaussian 16, Revision C.01,

 ----------------------------------------------------------------------
 #t hf aug-cc-pvdz symm=none int=(grid=ultrafine) guess=(read,tcheck) s
 table=(opt,rrhf)
 ----------------------------------------------------------------------
 -----
 title
 -----
 Symbolic Z-matrix:
 Charge =  0 Multiplicity = 1

 SCF Done:  E(RHF) =  -380.208617172     A.U. after   11 cycles
 Normal termination of Gaussian 16 at Tue Apr  8 21:04:26 2025.
 Gaussian 16:  ES64L-G16RevC.01  3-Jul-2019

 ----------------------------------------------------------------------
 #t hf aug-cc-pvdz iop(5/13=1,5/36=2,99/5=2) pseudo=read geom=check gue
 ss=(read,tcheck) scf=(maxcycle=1)
 ----------------------------------------------------------------------
 -----
 title
 -----
 Structure from the checkpoint file:  "ANI1ccx_1843_conf143_mol1.chk"
 Charge =  0 Multiplicity = 1

                         Standard orientation:
 ---------------------------------------------------------------------
 Center     Atomic      Atomic             Coordinates (Angstroms)
 Number     Number       Type             X           Y           Z
 ---------------------------------------------------------------------
      1          1           0        0.040092    1.302778    0.373695
      2          1           0        1.168166    2.086059    1.032120
      3          1           0       -1.908092    0.461379   -0.375011
      4          1           0       -1.737774    1.862667   -1.165770
      5          1           0       -2.714441   -1.651414    0.227331
      6          1           0       -1.173761   -1.263463   -0.041852
      7          1           0        0.978737   -1.184701   -0.024806
      8          1           0        0.481163   -0.556768    1.375710
      9          1           0        3.255488   -0.464917   -0.616425
     10          1           0        1.872118    0.324367   -0.312837
     11          8           0        0.948063    1.222629    0.691405
     12          8           0       -1.644323    1.414327   -0.258795
     13          8           0       -2.102401   -1.066523   -0.307941
     14          8           0        0.417101   -1.362181    0.764553
     15          8           0        2.348848   -0.322750   -0.948240
 ---------------------------------------------------------------------

 SCF Done:  E(RHF) =  -381.862621387     A.U. after    2 cycles

 The electronic state is 1-A.
 Alpha  occ. eigenvalues --  -21.11228 -21.08398 -21.06803 -21.06785 -21.06504
 Alpha  occ. eigenvalues --   -1.71533  -1.68149  -1.64803  -1.62702  -1.61916
 Alpha  occ. eigenvalues --   -0.67506  -0.66608  -0.66153  -0.62988  -0.62131
 Alpha  occ. eigenvalues --   -0.52527  -0.49326  -0.47011  -0.43764  -0.40167
 Alpha  occ. eigenvalues --   -0.36566  -0.35191  -0.34457  -0.34103  -0.32121
 Alpha virt. eigenvalues --    0.03608   0.04825   0.05384   0.05781   0.07342
 Alpha virt. eigenvalues --    0.08326   0.08685   0.09491   0.10466   0.11715
 Alpha virt. eigenvalues --    0.17994   0.18871   0.20641   0.21110   0.21723

 Mulliken charges:
               1
     1  H    1.571636
     2  H    0.876280
     3  H    1.753897
     4  H    0.802696
     5  H    0.794052
     6  H    1.406272
     7  H    1.324046
     8  H    1.119755
     9  H    0.759016
    10  H    1.745284
    11  O   -2.655098
    12  O   -2.311564
    13  O   -2.498520
    14  O   -2.663500
    15  O   -2.024252
 Sum of Mulliken charges =  -0.00000

 Dipole moment (field-independent basis, Debye):
    X=             -0.0126    Y=              0.9880    Z=              0.8789  Tot=              1.3224

 Test job not archived.
 1\1\GINC-SE083\SP\RHF\Aug-CC-pVDZ\H10O5\OHZDE\08-Apr-2025\0\\#t hf aug
 -cc-pvdz iop(5/13=1,5/36=2,99/5=2) pseudo=read geom=check guess=(read,
 tcheck) scf=(maxcycle=1)\\title\\0,1\H,0,0.0400948,1.30278,0.373695\H,
 0,1.16817,2.08606,1.03212\H,0,-1.90809,0.461382,-0.375011\H,0,-1.73777
 ,1.86267,-1.16577\H,0,-2.71444,-1.65141,0.227331\H,0,-1.17376,-1.26346
 ,-0.0418515\H,0,0.978738,-1.1847,-0.0248058\H,0,0.481165,-0.556767,1.3
 7571\H,0,3.25549,-0.464918,-0.616425\H,0,1.87212,0.324367,-0.312837\O,
 0,0.948066,1.22263,0.691405\O,0,-1.64432,1.41433,-0.258795\O,0,-2.1024

 Normal termination of Gaussian 16 at Tue Apr  8 21:04:30 2025.
