 Gaussian 16, Revision C.01,

 ----------------------------------------------------------------------
 #t hf aug-cc-pvdz symm=none int=(grid=ultrafine) guess=(read,tcheck) s
 table=(opt,rrhf)
 ----------------------------------------------------------------------
 -----
 title
 -----
 Symbolic Z-matrix:
 Charge =  0 Multiplicity = 1

 SCF Done:  E(RHF) =  -259.748725131     A.U. after   14 cycles
 Normal termination of Gaussian 16 at Tue Apr  8 21:11:17 2025.
 Gaussian 16:  ES64L-G16RevC.01  3-Jul-2019

 ----------------------------------------------------------------------
 #t hf aug-cc-pvdz iop(5/13=1,5/36=2,99/5=2) pseudo=read geom=check gue
 ss=(read,tcheck) scf=(maxcycle=1)
 ----------------------------------------------------------------------
 -----
 title
 -----
 Structure from the checkpoint file:  "ANI1ccx_1858_conf14_mol1.chk"
 Charge =  0 Multiplicity = 1

                         Standard orientation:
 ---------------------------------------------------------------------
 Center     Atomic      Atomic             Coordinates (Angstroms)
 Number     Number       Type             X           Y           Z
 ---------------------------------------------------------------------
      1          1           0       -3.174817   -0.194483    0.465979
      2          1           0       -1.867858    1.190010   -0.274146
      3          7           0        2.111322    0.333969   -0.112135
      4          7           0        2.904083   -0.404852    0.081242
      5          8           0       -2.405587   -0.501430   -0.119429
      6          8           0       -1.352558    0.439012    0.122481
 ---------------------------------------------------------------------

 SCF Done:  E(RHF) =  -260.811368313     A.U. after    2 cycles

 The electronic state is 1-A.
 Alpha  occ. eigenvalues --  -21.12667 -21.11694 -15.86356 -15.86189  -1.93005
 Alpha  occ. eigenvalues --   -1.55337  -1.38860  -0.77841  -0.65487  -0.57490
 Alpha  occ. eigenvalues --   -0.57089  -0.56595  -0.56532  -0.46442  -0.37599
 Alpha  occ. eigenvalues --   -0.30723
 Alpha virt. eigenvalues --    0.04156   0.05859   0.12011   0.14351   0.14614
 Alpha virt. eigenvalues --    0.15273   0.16090   0.16785   0.17552   0.19614
 Alpha virt. eigenvalues --    0.22057   0.22915   0.23580   0.25369   0.26542

 Mulliken charges:
               1
     1  H    0.847433
     2  H    0.918067
     3  N   -0.048204
     4  N    0.054410
     5  O   -0.842910
     6  O   -0.928796
 Sum of Mulliken charges =  -0.00000

 Dipole moment (field-independent basis, Debye):
    X=             -0.8868    Y=              1.0015    Z=              0.1501  Tot=              1.3461

 Test job not archived.
 1\1\GINC-SE252\SP\RHF\Aug-CC-pVDZ\H2N2O2\OHZDE\08-Apr-2025\0\\#t hf au
 g-cc-pvdz iop(5/13=1,5/36=2,99/5=2) pseudo=read geom=check guess=(read
 ,tcheck) scf=(maxcycle=1)\\title\\0,1\H,0,-3.17482,-0.194483,0.465979\
 H,0,-1.86786,1.19001,-0.274146\N,0,2.11132,0.333969,-0.112135\N,0,2.90
 408,-0.404852,0.0812416\O,0,-2.40559,-0.50143,-0.119429\O,0,-1.35256,0
 .439012,0.122481\\Version=ES64L-G16RevC.01\State=1-A\HF=-260.8113683\R
 MSD=1.011e-01\Dipole=-0.3488969,0.394008,0.0590561\Quadrupole=1.702391
 3,-0.3455686,-1.3568228,-1.4618413,-1.004328,-0.4164234\PG=C01 [X(H2N2

 Normal termination of Gaussian 16 at Tue Apr  8 21:11:18 2025.
