 Gaussian 16, Revision C.01,

 ----------------------------------------------------------------------
 #t hf aug-cc-pvdz symm=none int=(grid=ultrafine) guess=(read,tcheck) s
 table=(opt,rrhf)
 ----------------------------------------------------------------------
 -----
 title
 -----
 Symbolic Z-matrix:
 Charge =  0 Multiplicity = 1

 SCF Done:  E(RHF) =  -487.428235659     A.U. after   14 cycles
 Normal termination of Gaussian 16 at Tue Apr  8 22:06:38 2025.
 Gaussian 16:  ES64L-G16RevC.01  3-Jul-2019

 ----------------------------------------------------------------------
 #t hf aug-cc-pvdz iop(5/13=1,5/36=2,99/5=2) pseudo=read geom=check gue
 ss=(read,tcheck) scf=(maxcycle=1)
 ----------------------------------------------------------------------
 -----
 title
 -----
 Structure from the checkpoint file:  "ANI1ccx_877_conf4_mol2.chk"
 Charge =  0 Multiplicity = 1

                         Standard orientation:
 ---------------------------------------------------------------------
 Center     Atomic      Atomic             Coordinates (Angstroms)
 Number     Number       Type             X           Y           Z
 ---------------------------------------------------------------------
      1          6           0       -1.342937   -0.553509    0.009860
      2          6           0       -0.158070   -1.497053    0.005620
      3          6           0        1.193990   -0.817213   -0.015287
      4          6           0        0.159171    1.428615    0.032816
      5          1           0       -0.177078   -2.130564    0.900477
      6          1           0       -0.276001   -2.167126   -0.850059
      7          1           0        2.114305    0.982350   -0.196655
      8          1           0       -1.879615    1.385374    0.162088
      9          7           0        1.234436    0.532549    0.031662
     10          7           0       -1.110730    0.794971    0.018864
     11          8           0       -2.473447   -0.970308   -0.037513
     12          8           0        2.195476   -1.472855    0.001417
     13          8           0        0.307912    2.602198   -0.034852
 ---------------------------------------------------------------------

 SCF Done:  E(RHF) =  -489.496986753     A.U. after    2 cycles

 The electronic state is 1-A.
 Alpha  occ. eigenvalues --  -21.08521 -21.06781 -21.06746 -15.82455 -15.82311
 Alpha  occ. eigenvalues --  -11.57226 -11.55337 -11.54959 -11.44420  -1.79415
 Alpha  occ. eigenvalues --   -1.76545  -1.74343  -1.48061  -1.38567  -1.17922
 Alpha  occ. eigenvalues --   -0.95321  -0.91543  -0.84324  -0.75093  -0.70838
 Alpha  occ. eigenvalues --   -0.65181  -0.61733  -0.60829  -0.59279  -0.57209
 Alpha  occ. eigenvalues --   -0.54224  -0.52064  -0.46356  -0.37155  -0.36570
 Alpha  occ. eigenvalues --   -0.35882  -0.34655  -0.28920
 Alpha virt. eigenvalues --    0.02714   0.05794   0.05859   0.06170   0.08669
 Alpha virt. eigenvalues --    0.08934   0.09653   0.10147   0.11131   0.12307
 Alpha virt. eigenvalues --    0.12509   0.12708   0.13773   0.14134   0.14154

 Mulliken charges:
               1
     1  C    5.085836
     2  C   -3.743088
     3  C    5.210886
     4  C    4.801166
     5  H    1.348516
     6  H    1.353924
     7  H    0.586040
     8  H    0.658248
     9  N   -2.542869
    10  N   -2.531148
    11  O   -3.508042
    12  O   -3.537233
    13  O   -3.182237
 Sum of Mulliken charges =  -0.00000

 Dipole moment (field-independent basis, Debye):
    X=              0.0048    Y=              0.2617    Z=              0.0084  Tot=              0.2619

 Test job not archived.
 1\1\GINC-SE092\SP\RHF\Aug-CC-pVDZ\C4H4N2O3\OHZDE\08-Apr-2025\0\\#t hf
 aug-cc-pvdz iop(5/13=1,5/36=2,99/5=2) pseudo=read geom=check guess=(re
 ad,tcheck) scf=(maxcycle=1)\\title\\0,1\C,0,-1.34295,-0.553476,0.00985
 99\C,0,-0.158107,-1.49705,0.00561998\C,0,1.19397,-0.817243,-0.0152873\
 C,0,0.159207,1.42861,0.0328157\H,0,-0.17713,-2.13056,0.900477\H,0,-0.2
 76054,-2.16712,-0.850059\H,0,2.11433,0.982297,-0.196655\H,0,-1.87958,1
 .38542,0.162088\N,0,1.23445,0.532518,0.0316617\N,0,-1.11071,0.794998,0
 .0188643\O,0,-2.47347,-0.970247,-0.0375127\O,0,2.19544,-1.47291,0.0014

 Normal termination of Gaussian 16 at Tue Apr  8 22:06:44 2025.
