 Gaussian 16, Revision C.01,

 ----------------------------------------------------------------------
 #t hf aug-cc-pvdz symm=none int=(grid=ultrafine) guess=(read,tcheck) s
 table=(opt,rrhf)
 ----------------------------------------------------------------------
 -----
 title
 -----
 Symbolic Z-matrix:
 Charge =  0 Multiplicity = 1

 SCF Done:  E(RHF) =  -389.467453922     A.U. after   16 cycles
 Normal termination of Gaussian 16 at Tue Apr  8 21:42:47 2025.
 Gaussian 16:  ES64L-G16RevC.01  3-Jul-2019

 ----------------------------------------------------------------------
 #t hf aug-cc-pvdz iop(5/13=1,5/36=2,99/5=2) pseudo=read geom=check gue
 ss=(read,tcheck) scf=(maxcycle=1)
 ----------------------------------------------------------------------
 -----
 title
 -----
 Structure from the checkpoint file:  "ANI1ccx_473_conf21_mol1.chk"
 Charge =  0 Multiplicity = 1

                         Standard orientation:
 ---------------------------------------------------------------------
 Center     Atomic      Atomic             Coordinates (Angstroms)
 Number     Number       Type             X           Y           Z
 ---------------------------------------------------------------------
      1          6           0        0.942889    1.023690    0.006266
      2          6           0        1.358809   -1.229700   -0.035844
      3          1           0        2.198809   -1.981541   -0.041251
      4          7           0        1.729890    0.091318    0.027774
      5          7           0       -2.741030   -0.417284   -0.157071
      6          7           0       -1.913770    0.299361    0.212103
      7          8           0        0.367456    2.008690   -0.065325
      8          8           0        0.190716   -1.583210    0.020210
 ---------------------------------------------------------------------

 SCF Done:  E(RHF) =  -391.061683733     A.U. after    2 cycles

 The electronic state is 1-A.
 Alpha  occ. eigenvalues --  -21.17268 -21.07565 -15.87059 -15.86681 -15.79636
 Alpha  occ. eigenvalues --  -11.62268 -11.52447  -1.82450  -1.73920  -1.52422
 Alpha  occ. eigenvalues --   -1.42580  -0.96901  -0.79933  -0.74372  -0.67961
 Alpha  occ. eigenvalues --   -0.65443  -0.62410  -0.57717  -0.55166  -0.54585
 Alpha  occ. eigenvalues --   -0.52859  -0.50260  -0.42410  -0.34928  -0.32393
 Alpha virt. eigenvalues --    0.03601   0.07515   0.09341   0.10221   0.10383
 Alpha virt. eigenvalues --    0.10819   0.10946   0.11897   0.12555   0.13407
 Alpha virt. eigenvalues --    0.13927   0.15631   0.16049   0.16728   0.17426

 Mulliken charges:
               1
     1  C    3.803860
     2  C    1.905440
     3  H    1.640757
     4  N   -2.557493
     5  N    0.289013
     6  N   -0.228291
     7  O   -2.445756
     8  O   -2.407530
 Sum of Mulliken charges =   0.00000

 Dipole moment (field-independent basis, Debye):
    X=             -0.0394    Y=              1.0004    Z=             -0.0512  Tot=              1.0025

 Test job not archived.
 1\1\GINC-SE159\SP\RHF\Aug-CC-pVDZ\C2H1N3O2\OHZDE\08-Apr-2025\0\\#t hf
 aug-cc-pvdz iop(5/13=1,5/36=2,99/5=2) pseudo=read geom=check guess=(re
 ad,tcheck) scf=(maxcycle=1)\\title\\0,1\C,0,0.942889,1.02369,0.0062661
 5\C,0,1.35881,-1.2297,-0.0358439\H,0,2.19881,-1.98154,-0.0412505\N,0,1
 .72989,0.0913188,0.0277742\N,0,-2.74103,-0.417285,-0.157071\N,0,-1.913
 77,0.299361,0.212103\O,0,0.367456,2.00869,-0.0653253\O,0,0.190717,-1.5
 8321,0.0202099\\Version=ES64L-G16RevC.01\State=1-A\HF=-391.0616837\RMS
 D=7.301e-02\Dipole=-0.0154923,0.3935887,-0.0201291\Quadrupole=-1.77905

 Normal termination of Gaussian 16 at Tue Apr  8 21:42:50 2025.
