 Gaussian 16, Revision C.01,

 ----------------------------------------------------------------------
 #t hf aug-cc-pvdz symm=none int=(grid=ultrafine) guess=(read,tcheck) s
 table=(opt,rrhf)
 ----------------------------------------------------------------------
 -----
 title
 -----
 Symbolic Z-matrix:
 Charge =  0 Multiplicity = 1

 SCF Done:  E(RHF) =  -469.350546287     A.U. after   13 cycles
 Normal termination of Gaussian 16 at Tue Apr  8 21:52:03 2025.
 Gaussian 16:  ES64L-G16RevC.01  3-Jul-2019

 ----------------------------------------------------------------------
 #t hf aug-cc-pvdz iop(5/13=1,5/36=2,99/5=2) pseudo=read geom=check gue
 ss=(read,tcheck) scf=(maxcycle=1)
 ----------------------------------------------------------------------
 -----
 title
 -----
 Structure from the checkpoint file:  "ANI1ccx_672_conf1_mol1.chk"
 Charge =  0 Multiplicity = 1

                         Standard orientation:
 ---------------------------------------------------------------------
 Center     Atomic      Atomic             Coordinates (Angstroms)
 Number     Number       Type             X           Y           Z
 ---------------------------------------------------------------------
      1          6           0       -1.274351   -0.357933    0.015252
      2          6           0        1.269739   -0.376322   -0.020230
      3          6           0        0.024007    1.520130    0.303701
      4          1           0       -0.053489   -1.923520    0.377339
      5          1           0       -0.018340    1.369510    1.392890
      6          1           0       -0.014388    2.586660    0.089697
      7          7           0       -0.028921   -0.907791    0.203215
      8          8           0       -2.276980   -0.985435   -0.089118
      9          8           0        2.303290   -0.984547   -0.037202
     10          8           0        1.190859    0.955934   -0.287138
     11          8           0       -1.195631    0.964877   -0.220888
 ---------------------------------------------------------------------

 SCF Done:  E(RHF) =  -471.283043652     A.U. after    2 cycles

 The electronic state is 1-A.
 Alpha  occ. eigenvalues --  -21.14410 -21.13508 -21.08948 -21.07618 -15.82433
 Alpha  occ. eigenvalues --  -11.58061 -11.57020 -11.51472  -1.94871  -1.84651
 Alpha  occ. eigenvalues --   -1.72546  -1.69453  -1.42369  -1.04783  -0.94687
 Alpha  occ. eigenvalues --   -0.83874  -0.74004  -0.73047  -0.70878  -0.62913
 Alpha  occ. eigenvalues --   -0.58952  -0.56625  -0.55762  -0.51678  -0.45610
 Alpha  occ. eigenvalues --   -0.41219  -0.37266  -0.35870  -0.34514  -0.32463
 Alpha virt. eigenvalues --    0.02866   0.04583   0.05784   0.08615   0.09434
 Alpha virt. eigenvalues --    0.09849   0.10597   0.11216   0.11421   0.12408
 Alpha virt. eigenvalues --    0.13646   0.13853   0.14296   0.14731   0.16340

 Mulliken charges:
               1
     1  C    5.824308
     2  C    5.682082
     3  C   -0.703542
     4  H    0.604686
     5  H    1.553646
     6  H    1.485930
     7  N   -2.560366
     8  O   -3.089884
     9  O   -2.996851
    10  O   -2.898890
    11  O   -2.901120
 Sum of Mulliken charges =  -0.00000

 Dipole moment (field-independent basis, Debye):
    X=              0.2627    Y=              1.5334    Z=              0.6868  Tot=              1.7006

 Test job not archived.
 1\1\GINC-SE049\SP\RHF\Aug-CC-pVDZ\C3H3N1O4\OHZDE\08-Apr-2025\0\\#t hf
 aug-cc-pvdz iop(5/13=1,5/36=2,99/5=2) pseudo=read geom=check guess=(re
 ad,tcheck) scf=(maxcycle=1)\\title\\0,1\C,0,-1.27435,-0.357932,0.01525
 17\C,0,1.26974,-0.376323,-0.0202297\C,0,0.0240087,1.52013,0.303701\H,0
 ,-0.0534897,-1.92352,0.377339\H,0,-0.0183387,1.36951,1.39289\H,0,-0.01
 43856,2.58666,0.089697\N,0,-0.0289205,-0.907791,0.203215\O,0,-2.27698,
 -0.985434,-0.0891175\O,0,2.30329,-0.984549,-0.0372016\O,0,1.19086,0.95
 5933,-0.287138\O,0,-1.19563,0.964878,-0.220888\\Version=ES64L-G16RevC.

 Normal termination of Gaussian 16 at Tue Apr  8 21:52:08 2025.
