 Gaussian 16, Revision C.01,

 ----------------------------------------------------------------------
 #t hf aug-cc-pvdz symm=none int=(grid=ultrafine) guess=(read,tcheck) s
 table=(opt,rrhf)
 ----------------------------------------------------------------------
 -----
 title
 -----
 Symbolic Z-matrix:
 Charge =  0 Multiplicity = 1

 SCF Done:  E(RHF) =  -456.243221126     A.U. after   11 cycles
 Normal termination of Gaussian 16 at Tue Apr  8 21:09:40 2025.
 Gaussian 16:  ES64L-G16RevC.01  3-Jul-2019

 ----------------------------------------------------------------------
 #t hf aug-cc-pvdz iop(5/13=1,5/36=2,99/5=2) pseudo=read geom=check gue
 ss=(read,tcheck) scf=(maxcycle=1)
 ----------------------------------------------------------------------
 -----
 title
 -----
 Structure from the checkpoint file:  "ANI1ccx_1844_conf502_mol1.chk"
 Charge =  0 Multiplicity = 1

                         Standard orientation:
 ---------------------------------------------------------------------
 Center     Atomic      Atomic             Coordinates (Angstroms)
 Number     Number       Type             X           Y           Z
 ---------------------------------------------------------------------
      1          1           0       -0.564665    0.494838   -0.256312
      2          1           0        1.657991    1.286710    0.158300
      3          1           0        1.858811    2.689370    0.789276
      4          1           0       -1.129010   -1.199529   -0.548556
      5          1           0        1.542059   -2.961780   -0.159845
      6          1           0        0.606906   -1.880940    0.583056
      7          1           0       -1.940460   -0.777135    0.652998
      8          1           0       -4.456320    0.034131    0.195897
      9          1           0        3.986920    0.018209   -0.745012
     10          1           0        2.950090   -0.772862    0.079728
     11          1           0       -0.453040    2.029741   -0.268439
     12          1           0       -3.099850    0.561309   -0.240320
     13          8           0       -1.094040   -1.153789    0.389322
     14          8           0       -1.134669    1.342861   -0.385001
     15          8           0        3.150780    0.024480   -0.263737
     16          8           0       -3.637800   -0.205890   -0.151626
     17          8           0        1.422899   -1.996890   -0.009534
     18          8           0        1.172901    2.048970    0.390479
 ---------------------------------------------------------------------

 SCF Done:  E(RHF) =  -458.190389103     A.U. after    2 cycles

 The electronic state is 1-A.
 Alpha  occ. eigenvalues --  -21.10063 -21.09859 -21.09389 -21.08174 -21.08122
 Alpha  occ. eigenvalues --  -21.03652  -1.70017  -1.68239  -1.67292  -1.66124
 Alpha  occ. eigenvalues --   -1.63684  -1.59817  -0.67333  -0.66459  -0.64723
 Alpha  occ. eigenvalues --   -0.62804  -0.62598  -0.59962  -0.51905  -0.49863
 Alpha  occ. eigenvalues --   -0.46918  -0.44557  -0.43531  -0.38700  -0.35915
 Alpha  occ. eigenvalues --   -0.35712  -0.34883  -0.34666  -0.34342  -0.30451
 Alpha virt. eigenvalues --    0.03712   0.04833   0.04931   0.05595   0.07388
 Alpha virt. eigenvalues --    0.07916   0.07975   0.08663   0.09979   0.11069
 Alpha virt. eigenvalues --    0.11194   0.12851   0.18878   0.20424   0.20570

 Mulliken charges:
               1
     1  H    1.181373
     2  H    1.502974
     3  H    0.843252
     4  H    0.998179
     5  H    0.875381
     6  H    1.244663
     7  H    1.317016
     8  H    0.943416
     9  H    0.903322
    10  H    1.290718
    11  H    1.439522
    12  H    1.036907
    13  O   -2.417390
    14  O   -2.437729
    15  O   -2.174967
    16  O   -1.981987
    17  O   -2.228460
    18  O   -2.336190
 Sum of Mulliken charges =  -0.00000

 Dipole moment (field-independent basis, Debye):
    X=              0.7993    Y=             -0.7286    Z=              0.3429  Tot=              1.1346

 Test job not archived.
 1\1\GINC-SE368\SP\RHF\Aug-CC-pVDZ\H12O6\OHZDE\08-Apr-2025\0\\#t hf aug
 -cc-pvdz iop(5/13=1,5/36=2,99/5=2) pseudo=read geom=check guess=(read,
 tcheck) scf=(maxcycle=1)\\title\\0,1\H,0,-0.564665,0.494837,-0.256312\
 H,0,1.65799,1.28671,0.1583\H,0,1.85881,2.68937,0.789276\H,0,-1.12901,-
 1.19953,-0.548556\H,0,1.54206,-2.96178,-0.159845\H,0,0.606907,-1.88094
 ,0.583056\H,0,-1.94046,-0.777136,0.652998\H,0,-4.45632,0.0341283,0.195
 897\H,0,3.98692,0.0182104,-0.745012\H,0,2.95009,-0.772861,0.079728\H,0
 ,-0.453041,2.02974,-0.268439\H,0,-3.09985,0.561307,-0.24032\O,0,-1.094

 Normal termination of Gaussian 16 at Tue Apr  8 21:09:44 2025.
