 Gaussian 16, Revision C.01,

 ----------------------------------------------------------------------
 #t hf aug-cc-pvdz symm=none int=(grid=ultrafine) guess=(read,tcheck) s
 table=(opt,rrhf)
 ----------------------------------------------------------------------
 -----
 title
 -----
 Symbolic Z-matrix:
 Charge =  0 Multiplicity = 1

 SCF Done:  E(RHF) =  -405.926460539     A.U. after   15 cycles
 Normal termination of Gaussian 16 at Tue Apr  8 21:48:18 2025.
 Gaussian 16:  ES64L-G16RevC.01  3-Jul-2019

 ----------------------------------------------------------------------
 #t hf aug-cc-pvdz iop(5/13=1,5/36=2,99/5=2) pseudo=read geom=check gue
 ss=(read,tcheck) scf=(maxcycle=1)
 ----------------------------------------------------------------------
 -----
 title
 -----
 Structure from the checkpoint file:  "ANI1ccx_557_conf1_mol2.chk"
 Charge =  0 Multiplicity = 1

                         Standard orientation:
 ---------------------------------------------------------------------
 Center     Atomic      Atomic             Coordinates (Angstroms)
 Number     Number       Type             X           Y           Z
 ---------------------------------------------------------------------
      1          6           0        1.329810    0.039849   -0.014156
      2          6           0       -0.668254    0.645656   -0.026592
      3          1           0        3.078881   -0.838090    0.280948
      4          1           0        3.015689    0.702663    0.636772
      5          1           0       -1.767682    2.107358   -0.743368
      6          1           0       -1.826692    1.968118    0.869290
      7          1           0       -2.145449   -1.282802    0.935762
      8          1           0       -2.408699   -1.346812   -0.611591
      9          7           0        2.709320    0.072194   -0.028665
     10          7           0        0.552995    1.142621   -0.037357
     11          7           0       -1.851012    1.411058    0.021369
     12          7           0       -0.628029   -0.713934   -0.134931
     13          7           0       -1.722539   -1.550932    0.100956
     14          7           0        0.665639   -1.135789   -0.081847
 ---------------------------------------------------------------------

 SCF Done:  E(RHF) =  -407.786786944     A.U. after    2 cycles

 The electronic state is 1-A.
 Alpha  occ. eigenvalues --  -15.80992 -15.78927 -15.78039 -15.76233 -15.73006
 Alpha  occ. eigenvalues --  -15.72305 -11.48548 -11.44292  -1.67986  -1.44605
 Alpha  occ. eigenvalues --   -1.39050  -1.31184  -1.23809  -1.07446  -0.83750
 Alpha  occ. eigenvalues --   -0.81882  -0.73297  -0.70581  -0.67584  -0.65917
 Alpha  occ. eigenvalues --   -0.61292  -0.57553  -0.55501  -0.50060  -0.46188
 Alpha  occ. eigenvalues --   -0.43129  -0.39774  -0.37776  -0.36609  -0.28852
 Alpha virt. eigenvalues --    0.03320   0.04990   0.05426   0.05654   0.06837
 Alpha virt. eigenvalues --    0.07326   0.10515   0.11426   0.12171   0.12855
 Alpha virt. eigenvalues --    0.13815   0.14795   0.15088   0.16210   0.16514

 Mulliken charges:
               1
     1  C    4.779920
     2  C    4.229182
     3  H    0.583152
     4  H    0.577574
     5  H    0.569178
     6  H    0.555313
     7  H    0.706795
     8  H    0.700936
     9  N   -2.885752
    10  N   -3.127695
    11  N   -3.117645
    12  N    0.133412
    13  N   -1.582095
    14  N   -2.122273
 Sum of Mulliken charges =  -0.00000

 Dipole moment (field-independent basis, Debye):
    X=             -2.1373    Y=              1.2286    Z=              1.5313  Tot=              2.9021

 Test job not archived.
 1\1\GINC-SE334\SP\RHF\Aug-CC-pVDZ\C2H6N6\OHZDE\08-Apr-2025\0\\#t hf au
 g-cc-pvdz iop(5/13=1,5/36=2,99/5=2) pseudo=read geom=check guess=(read
 ,tcheck) scf=(maxcycle=1)\\title\\0,1\C,0,1.32981,0.0398474,-0.0141558
 \C,0,-0.668253,0.645657,-0.0265923\H,0,3.07888,-0.838093,0.280948\H,0,
 3.01569,0.70266,0.636772\H,0,-1.76768,2.10736,-0.743368\H,0,-1.82669,1
 .96812,0.86929\H,0,-2.14545,-1.2828,0.935762\H,0,-2.4087,-1.34681,-0.6
 11591\N,0,2.70932,0.0721917,-0.0286649\N,0,0.552996,1.14262,-0.0373572
 \N,0,-1.85101,1.41106,0.0213691\N,0,-0.62803,-0.713933,-0.134931\N,0,-

 Normal termination of Gaussian 16 at Tue Apr  8 21:48:23 2025.
