 Gaussian 16, Revision C.01,

 ----------------------------------------------------------------------
 #t hf aug-cc-pvdz symm=none int=(grid=ultrafine) guess=(read,tcheck) s
 table=(opt,rrhf)
 ----------------------------------------------------------------------
 -----
 title
 -----
 Symbolic Z-matrix:
 Charge =  0 Multiplicity = 1

 SCF Done:  E(RHF) =  -480.029515801     A.U. after   18 cycles
 Normal termination of Gaussian 16 at Tue Apr  8 21:41:40 2025.
 Gaussian 16:  ES64L-G16RevC.01  3-Jul-2019

 ----------------------------------------------------------------------
 #t hf aug-cc-pvdz iop(5/13=1,5/36=2,99/5=2) pseudo=read geom=check gue
 ss=(read,tcheck) scf=(maxcycle=1)
 ----------------------------------------------------------------------
 -----
 title
 -----
 Structure from the checkpoint file:  "ANI1ccx_456_conf18_mol1.chk"
 Charge =  0 Multiplicity = 1

                         Standard orientation:
 ---------------------------------------------------------------------
 Center     Atomic      Atomic             Coordinates (Angstroms)
 Number     Number       Type             X           Y           Z
 ---------------------------------------------------------------------
      1          6           0       -0.053317   -0.156629   -0.069692
      2          7           0        1.412491   -0.037998   -0.084758
      3          7           0       -0.732245   -1.175670   -0.087445
      4          7           0       -2.020529   -0.626988    0.020789
      5          7           0       -2.093838    0.547494    0.009744
      6          8           0        1.648503    1.208028   -0.061319
      7          8           0        2.122910   -0.975500    0.131332
      8          8           0       -0.726570    1.016460    0.106217
 ---------------------------------------------------------------------

 SCF Done:  E(RHF) =  -482.024488330     A.U. after    2 cycles

 The electronic state is 1-A.
 Alpha  occ. eigenvalues --  -21.19161 -21.17924 -21.13801 -16.06538 -15.91184
 Alpha  occ. eigenvalues --  -15.87439 -15.84501 -11.57609  -2.05997  -1.98673
 Alpha  occ. eigenvalues --   -1.75257  -1.60261  -1.43656  -1.14709  -0.94823
 Alpha  occ. eigenvalues --   -0.85344  -0.79362  -0.77545  -0.69900  -0.67647
 Alpha  occ. eigenvalues --   -0.66575  -0.56323  -0.50676  -0.49818  -0.44994
 Alpha  occ. eigenvalues --   -0.44794  -0.39617  -0.35935  -0.35633
 Alpha virt. eigenvalues --    0.05274   0.07282   0.09675   0.10073   0.10732
 Alpha virt. eigenvalues --    0.12018   0.12944   0.13616   0.14145   0.15152
 Alpha virt. eigenvalues --    0.16368   0.17713   0.18399   0.19109   0.20078

 Mulliken charges:
               1
     1  C    4.949144
     2  N    3.529539
     3  N   -2.060565
     4  N    0.913100
     5  N    0.248880
     6  O   -2.379195
     7  O   -2.853809
     8  O   -2.347094
 Sum of Mulliken charges =  -0.00000

 Dipole moment (field-independent basis, Debye):
    X=              0.8041    Y=              1.2678    Z=              0.1887  Tot=              1.5131

 Test job not archived.
 1\1\GINC-SE099\SP\RHF\Aug-CC-pVDZ\C1N4O3\OHZDE\08-Apr-2025\0\\#t hf au
 g-cc-pvdz iop(5/13=1,5/36=2,99/5=2) pseudo=read geom=check guess=(read
 ,tcheck) scf=(maxcycle=1)\\title\\0,1\C,0,-0.0533184,-0.156628,-0.0696
 918\N,0,1.41249,-0.0379964,-0.0847579\N,0,-0.732245,-1.17567,-0.087444
 9\N,0,-2.02053,-0.626989,0.0207892\N,0,-2.09384,0.547493,0.00974381\O,
 0,1.6485,1.20803,-0.0613189\O,0,2.12291,-0.975497,0.131332\O,0,-0.7265
 72,1.01646,0.106217\\Version=ES64L-G16RevC.01\State=1-A\HF=-482.024488
 3\RMSD=9.870e-02\Dipole=0.3163557,0.4987961,0.0742562\Quadrupole=-2.47

 Normal termination of Gaussian 16 at Tue Apr  8 21:42:03 2025.
