 Gaussian 16, Revision C.01,

 ----------------------------------------------------------------------
 #t hf aug-cc-pvdz symm=none int=(grid=ultrafine) guess=(read,tcheck) s
 table=(opt,rrhf)
 ----------------------------------------------------------------------
 -----
 title
 -----
 Symbolic Z-matrix:
 Charge =  0 Multiplicity = 1

 SCF Done:  E(RHF) =  -596.218619491     A.U. after   17 cycles
 Normal termination of Gaussian 16 at Tue Apr  8 22:07:52 2025.
 Gaussian 16:  ES64L-G16RevC.01  3-Jul-2019

 ----------------------------------------------------------------------
 #t hf aug-cc-pvdz iop(5/13=1,5/36=2,99/5=2) pseudo=read geom=check gue
 ss=(read,tcheck) scf=(maxcycle=1)
 ----------------------------------------------------------------------
 -----
 title
 -----
 Structure from the checkpoint file:  "ANI1ccx_883_conf3_mol1.chk"
 Charge =  0 Multiplicity = 1

                         Standard orientation:
 ---------------------------------------------------------------------
 Center     Atomic      Atomic             Coordinates (Angstroms)
 Number     Number       Type             X           Y           Z
 ---------------------------------------------------------------------
      1          6           0       -1.824220   -0.212091    0.087777
      2          6           0        0.273202   -1.058011   -0.047810
      3          6           0        0.827590    0.216797   -0.041782
      4          6           0       -0.091615    1.233179   -0.026786
      5          1           0       -3.522200   -1.355450   -0.084891
      6          1           0       -3.813929    0.280818   -0.044243
      7          1           0        0.528538   -2.950111   -0.062084
      8          1           0       -0.421650    3.075969   -0.108936
      9          7           0       -3.144800   -0.452287    0.043063
     10          7           0       -1.001650   -1.263551   -0.019352
     11          7           0        2.202231    0.600942    0.069179
     12          7           0       -1.404659    1.068249    0.020539
     13          8           0        1.099460   -2.125301   -0.042408
     14          8           0        2.989750   -0.324531    0.050581
     15          8           0        0.355995    2.474339   -0.048453
 ---------------------------------------------------------------------

 SCF Done:  E(RHF) =  -598.786512981     A.U. after    2 cycles

 The electronic state is 1-A.
 Alpha  occ. eigenvalues --  -21.12797 -21.12275 -21.09076 -15.84917 -15.80506
 Alpha  occ. eigenvalues --  -15.74024 -15.74000 -11.55554 -11.54663 -11.51929
 Alpha  occ. eigenvalues --  -11.41075  -1.84736  -1.80546  -1.78188  -1.55081
 Alpha  occ. eigenvalues --   -1.35648  -1.31473  -1.21384  -1.01139  -0.92533
 Alpha  occ. eigenvalues --   -0.88770  -0.77297  -0.73909  -0.66788  -0.66721
 Alpha  occ. eigenvalues --   -0.65614  -0.63654  -0.58346  -0.55506  -0.53885
 Alpha  occ. eigenvalues --   -0.51518  -0.48910  -0.48098  -0.47689  -0.47011
 Alpha  occ. eigenvalues --   -0.37987  -0.36477  -0.34166  -0.30092  -0.25126
 Alpha virt. eigenvalues --    0.02999   0.04271   0.05083   0.06381   0.08703
 Alpha virt. eigenvalues --    0.09783   0.11169   0.11559   0.12006   0.12176
 Alpha virt. eigenvalues --    0.12999   0.13173   0.13426   0.14616   0.14836

 Mulliken charges:
               1
     1  C    3.578691
     2  C    5.923756
     3  C   -0.224231
     4  C    6.600180
     5  H    0.710340
     6  H    0.699740
     7  H    0.896891
     8  H    0.924952
     9  N   -2.850408
    10  N   -3.099236
    11  N    0.362021
    12  N   -3.239136
    13  O   -3.762606
    14  O   -2.460166
    15  O   -4.060789
 Sum of Mulliken charges =  -0.00000

 Dipole moment (field-independent basis, Debye):
    X=             -3.5493    Y=             -1.2125    Z=             -0.3447  Tot=              3.7665

 Test job not archived.
 1\1\GINC-SE051\SP\RHF\Aug-CC-pVDZ\C4H4N4O3\OHZDE\08-Apr-2025\0\\#t hf
 aug-cc-pvdz iop(5/13=1,5/36=2,99/5=2) pseudo=read geom=check guess=(re
 ad,tcheck) scf=(maxcycle=1)\\title\\0,1\C,0,-1.82422,-0.21209,0.087776
 9\C,0,0.273202,-1.05801,-0.0478098\C,0,0.827589,0.216798,-0.0417825\C,
 0,-0.0916154,1.23318,-0.0267859\H,0,-3.5222,-1.35545,-0.0848913\H,0,-3
 .81393,0.280818,-0.0442427\H,0,0.528538,-2.95011,-0.0620844\H,0,-0.421
 651,3.07597,-0.108936\N,0,-3.1448,-0.452287,0.0430631\N,0,-1.00165,-1.
 26355,-0.0193522\N,0,2.20223,0.600943,0.069179\N,0,-1.40466,1.06825,0.

 Normal termination of Gaussian 16 at Tue Apr  8 22:08:00 2025.
