 Gaussian 16, Revision C.01,

 ----------------------------------------------------------------------
 #t hf aug-cc-pvdz symm=none int=(grid=ultrafine) guess=(read,tcheck) s
 table=(opt,rrhf)
 ----------------------------------------------------------------------
 -----
 title
 -----
 Symbolic Z-matrix:
 Charge =  0 Multiplicity = 1

 SCF Done:  E(RHF) =  -332.547243665     A.U. after   16 cycles
 Normal termination of Gaussian 16 at Tue Apr  8 21:50:57 2025.
 Gaussian 16:  ES64L-G16RevC.01  3-Jul-2019

 ----------------------------------------------------------------------
 #t hf aug-cc-pvdz iop(5/13=1,5/36=2,99/5=2) pseudo=read geom=check gue
 ss=(read,tcheck) scf=(maxcycle=1)
 ----------------------------------------------------------------------
 -----
 title
 -----
 Structure from the checkpoint file:  "ANI1ccx_658_conf3_mol2.chk"
 Charge =  0 Multiplicity = 1

                         Standard orientation:
 ---------------------------------------------------------------------
 Center     Atomic      Atomic             Coordinates (Angstroms)
 Number     Number       Type             X           Y           Z
 ---------------------------------------------------------------------
      1          6           0        1.680500    0.119594   -0.028014
      2          6           0        0.285366    0.021217    0.192327
      3          6           0       -1.646630    0.652679   -0.028642
      4          1           0       -2.628670    1.050650   -0.294296
      5          1           0       -2.346941   -1.441000   -0.143358
      6          7           0        2.820949   -0.068435   -0.108787
      7          7           0       -0.491285    1.228190    0.052234
      8          7           0       -1.572571   -0.703155   -0.101975
      9          7           0       -0.319922   -1.080970    0.104761
 ---------------------------------------------------------------------

 SCF Done:  E(RHF) =  -334.016804636     A.U. after    2 cycles

 The electronic state is 1-A.
 Alpha  occ. eigenvalues --  -15.85198 -15.80866 -15.77721 -15.77523 -11.50023
 Alpha  occ. eigenvalues --  -11.48540 -11.43994  -1.71190  -1.35903  -1.32207
 Alpha  occ. eigenvalues --   -1.24054  -0.94873  -0.90584  -0.79929  -0.69795
 Alpha  occ. eigenvalues --   -0.66578  -0.61730  -0.52587  -0.50098  -0.49615
 Alpha  occ. eigenvalues --   -0.45924  -0.43591  -0.42296  -0.36561
 Alpha virt. eigenvalues --    0.02180   0.04341   0.07762   0.08970   0.09582
 Alpha virt. eigenvalues --    0.10135   0.11658   0.12152   0.12880   0.13262
 Alpha virt. eigenvalues --    0.13603   0.14835   0.15061   0.16210   0.16662

 Mulliken charges:
               1
     1  C    1.832159
     2  C    3.440936
     3  C    1.295985
     4  H    1.464261
     5  H    0.877489
     6  N   -2.527097
     7  N   -2.795099
     8  N   -1.453065
     9  N   -2.135569
 Sum of Mulliken charges =  -0.00000

 Dipole moment (field-independent basis, Debye):
    X=             -6.2521    Y=             -1.2043    Z=             -0.2273  Tot=              6.3711

 Test job not archived.
 1\1\GINC-SE453\SP\RHF\Aug-CC-pVDZ\C3H2N4\OHZDE\08-Apr-2025\0\\#t hf au
 g-cc-pvdz iop(5/13=1,5/36=2,99/5=2) pseudo=read geom=check guess=(read
 ,tcheck) scf=(maxcycle=1)\\title\\0,1\C,0,1.6805,0.119594,-0.0280145\C
 ,0,0.285366,0.0212169,0.192327\C,0,-1.64663,0.652679,-0.0286423\H,0,-2
 .62867,1.05065,-0.294296\H,0,-2.34694,-1.441,-0.143358\N,0,2.82095,-0.
 0684345,-0.108787\N,0,-0.491285,1.22819,0.0522337\N,0,-1.57257,-0.7031
 55,-0.101975\N,0,-0.319921,-1.08097,0.104761\\Version=ES64L-G16RevC.01
 \State=1-A\HF=-334.0168046\RMSD=3.856e-01\Dipole=-2.4597716,-0.4738086

 Normal termination of Gaussian 16 at Tue Apr  8 21:51:00 2025.
