 Gaussian 16, Revision C.01,

 ----------------------------------------------------------------------
 #t hf aug-cc-pvdz symm=none int=(grid=ultrafine) guess=(read,tcheck) s
 table=(opt,rrhf)
 ----------------------------------------------------------------------
 -----
 title
 -----
 Symbolic Z-matrix:
 Charge =  0 Multiplicity = 1

 SCF Done:  E(RHF) =  -528.671037835     A.U. after   15 cycles
 Normal termination of Gaussian 16 at Tue Apr  8 22:19:56 2025.
 Gaussian 16:  ES64L-G16RevC.01  3-Jul-2019

 ----------------------------------------------------------------------
 #t hf aug-cc-pvdz iop(5/13=1,5/36=2,99/5=2) pseudo=read geom=check gue
 ss=(read,tcheck) scf=(maxcycle=1)
 ----------------------------------------------------------------------
 -----
 title
 -----
 Structure from the checkpoint file:  "ANI1ccx_998_conf121_mol1.chk"
 Charge =  0 Multiplicity = 1

                         Standard orientation:
 ---------------------------------------------------------------------
 Center     Atomic      Atomic             Coordinates (Angstroms)
 Number     Number       Type             X           Y           Z
 ---------------------------------------------------------------------
      1          6           0       -0.776135    0.218867   -0.016379
      2          6           0       -2.196690   -0.410752   -0.349586
      3          6           0        0.064771   -0.539935    0.952470
      4          6           0        1.329020   -1.100219    0.275485
      5          6           0        2.535040   -0.042419   -0.157126
      6          1           0       -2.656341    1.304040   -0.034407
      7          1           0        1.307429    1.679691   -0.101098
      8          1           0        3.145099    1.852392   -0.075560
      9          1           0        1.015650   -1.393249   -0.739990
     10          1           0        1.813520   -2.007829    0.728266
     11          1           0       -0.479256   -1.447770    1.249170
     12          1           0        0.079199   -0.003547    1.972490
     13          1           0       -0.138311    0.459442   -0.936441
     14          1           0       -0.774223    2.174430   -0.074450
     15          1           0       -0.896604    1.566860    1.492920
     16          7           0       -1.204781    1.453460    0.495349
     17          7           0        2.290809    1.282331   -0.158667
     18          8           0       -2.529210   -1.516750   -0.144679
     19          8           0        3.635640   -0.571115   -0.505975
     20          8           0       -3.075730    0.576834   -0.607704
 ---------------------------------------------------------------------

 SCF Done:  E(RHF) =  -531.038675885     A.U. after    2 cycles

 The electronic state is 1-A.
 Alpha  occ. eigenvalues --  -21.07498 -21.05611 -21.03131 -15.80571 -15.79029
 Alpha  occ. eigenvalues --  -11.53831 -11.52057 -11.50729 -11.44872 -11.41418
 Alpha  occ. eigenvalues --   -1.82149  -1.67807  -1.65971  -1.44320  -1.36133
 Alpha  occ. eigenvalues --   -1.19820  -1.02837  -0.93255  -0.82025  -0.79635
 Alpha  occ. eigenvalues --   -0.75216  -0.73271  -0.71939  -0.66449  -0.60420
 Alpha  occ. eigenvalues --   -0.59391  -0.58917  -0.56199  -0.53680  -0.52323
 Alpha  occ. eigenvalues --   -0.49964  -0.48847  -0.46532  -0.44940  -0.38133
 Alpha  occ. eigenvalues --   -0.33118  -0.32637  -0.28582  -0.28288
 Alpha virt. eigenvalues --    0.02329   0.03572   0.04104   0.04473   0.05718
 Alpha virt. eigenvalues --    0.05961   0.07001   0.07794   0.08265   0.09293
 Alpha virt. eigenvalues --    0.10568   0.10705   0.11559   0.11772   0.12331

 Mulliken charges:
               1
     1  C   -1.558788
     2  C    6.072030
     3  C   -2.282857
     4  C   -2.697149
     5  C    4.504057
     6  H    1.229971
     7  H    0.886122
     8  H    0.694805
     9  H    1.455375
    10  H    1.323085
    11  H    1.319653
    12  H    1.085107
    13  H    2.113341
    14  H    0.465360
    15  H    0.631417
    16  N   -3.018529
    17  N   -2.981762
    18  O   -3.174432
    19  O   -3.005867
    20  O   -3.060939
 Sum of Mulliken charges =   0.00000

 Dipole moment (field-independent basis, Debye):
    X=              0.5361    Y=              3.7325    Z=              1.7313  Tot=              4.1492

 Test job not archived.
 1\1\GINC-SE082\SP\RHF\Aug-CC-pVDZ\C5H10N2O3\OHZDE\08-Apr-2025\0\\#t hf
  aug-cc-pvdz iop(5/13=1,5/36=2,99/5=2) pseudo=read geom=check guess=(r
 ead,tcheck) scf=(maxcycle=1)\\title\\0,1\C,0,-0.776135,0.218867,-0.016
 3795\C,0,-2.19669,-0.410752,-0.349586\C,0,0.064771,-0.539936,0.95247\C
 ,0,1.32902,-1.10022,0.275485\C,0,2.53504,-0.0424203,-0.157126\H,0,-2.6
 5634,1.30404,-0.0344076\H,0,1.30743,1.67969,-0.101098\H,0,3.1451,1.852
 39,-0.0755605\H,0,1.01565,-1.39325,-0.73999\H,0,1.81352,-2.00783,0.728
 266\H,0,-0.479256,-1.44777,1.24917\H,0,0.0791995,-0.00354791,1.97249\H

 Normal termination of Gaussian 16 at Tue Apr  8 22:20:07 2025.
