 Gaussian 16, Revision C.01,

 ----------------------------------------------------------------------
 #t hf aug-cc-pvdz symm=none int=(grid=ultrafine) guess=(read,tcheck) s
 table=(opt,rrhf)
 ----------------------------------------------------------------------
 -----
 title
 -----
 Symbolic Z-matrix:
 Charge =  0 Multiplicity = 1

 SCF Done:  E(RHF) =  -456.255763128     A.U. after   11 cycles
 Normal termination of Gaussian 16 at Tue Apr  8 21:08:44 2025.
 Gaussian 16:  ES64L-G16RevC.01  3-Jul-2019

 ----------------------------------------------------------------------
 #t hf aug-cc-pvdz iop(5/13=1,5/36=2,99/5=2) pseudo=read geom=check gue
 ss=(read,tcheck) scf=(maxcycle=1)
 ----------------------------------------------------------------------
 -----
 title
 -----
 Structure from the checkpoint file:  "ANI1ccx_1844_conf194_mol1.chk"
 Charge =  0 Multiplicity = 1

                         Standard orientation:
 ---------------------------------------------------------------------
 Center     Atomic      Atomic             Coordinates (Angstroms)
 Number     Number       Type             X           Y           Z
 ---------------------------------------------------------------------
      1          1           0       -2.446920   -0.184631   -0.568345
      2          1           0        2.758259    1.539133   -1.306689
      3          1           0        2.479640    0.093903   -0.625122
      4          1           0       -2.204862    1.884649   -1.187429
      5          1           0       -1.115352    1.765750   -0.003798
      6          1           0        0.377726    1.795681    1.582281
      7          1           0       -3.296589   -1.470862   -0.344596
      8          1           0        1.043259    1.146242    0.302850
      9          1           0       -0.342547   -0.300503    1.211131
     10          1           0       -1.039338   -1.525880    0.539115
     11          1           0        1.104792   -1.592138   -0.012667
     12          1           0        2.554452   -1.862827    0.243545
     13          8           0       -2.125201    1.567029   -0.253665
     14          8           0       -0.272625   -1.280929    1.100011
     15          8           0        2.644799    1.062633   -0.492875
     16          8           0        0.204049    1.208051    0.853258
     17          8           0       -2.400429   -1.186081   -0.722099
     18          8           0        1.965342   -1.531767   -0.463411
 ---------------------------------------------------------------------

 SCF Done:  E(RHF) =  -458.240466063     A.U. after    2 cycles

 The electronic state is 1-A.
 Alpha  occ. eigenvalues --  -21.11370 -21.09158 -21.08273 -21.07858 -21.07042
 Alpha  occ. eigenvalues --  -21.04171  -1.72067  -1.68007  -1.65412  -1.64475
 Alpha  occ. eigenvalues --   -1.63042  -1.60817  -0.68476  -0.66121  -0.65028
 Alpha  occ. eigenvalues --   -0.63021  -0.61996  -0.60702  -0.52637  -0.49717
 Alpha  occ. eigenvalues --   -0.47470  -0.46967  -0.45093  -0.40363  -0.36459
 Alpha  occ. eigenvalues --   -0.35628  -0.34653  -0.34396  -0.32759  -0.31334
 Alpha virt. eigenvalues --    0.03508   0.04829   0.04894   0.05802   0.05988
 Alpha virt. eigenvalues --    0.07565   0.08435   0.08782   0.09571   0.10302
 Alpha virt. eigenvalues --    0.11139   0.12392   0.17539   0.18483   0.20057

 Mulliken charges:
               1
     1  H    1.416884
     2  H    0.863443
     3  H    1.398308
     4  H    0.795542
     5  H    1.444927
     6  H    0.938620
     7  H    0.733810
     8  H    1.688741
     9  H    1.603727
    10  H    1.288323
    11  H    1.501348
    12  H    0.691101
    13  O   -2.075405
    14  O   -2.600298
    15  O   -2.199142
    16  O   -3.195443
    17  O   -2.026809
    18  O   -2.267676
 Sum of Mulliken charges =  -0.00000

 Dipole moment (field-independent basis, Debye):
    X=              0.5003    Y=              1.6710    Z=             -0.1260  Tot=              1.7489

 Test job not archived.
 1\1\GINC-SE083\SP\RHF\Aug-CC-pVDZ\H12O6\OHZDE\08-Apr-2025\0\\#t hf aug
 -cc-pvdz iop(5/13=1,5/36=2,99/5=2) pseudo=read geom=check guess=(read,
 tcheck) scf=(maxcycle=1)\\title\\0,1\H,0,-2.44692,-0.18463,-0.568346\H
 ,0,2.75826,1.53913,-1.30669\H,0,2.47964,0.0939003,-0.625123\H,0,-2.204
 86,1.88465,-1.18743\H,0,-1.11535,1.76575,-0.0037984\H,0,0.377728,1.795
 68,1.58228\H,0,-3.29659,-1.47086,-0.344597\H,0,1.04326,1.14624,0.30284
 9\H,0,-0.342547,-0.300504,1.21113\H,0,-1.03934,-1.52588,0.539114\H,0,1
 .10479,-1.59214,-0.012668\H,0,2.55445,-1.86283,0.243544\O,0,-2.1252,1.

 Normal termination of Gaussian 16 at Tue Apr  8 21:08:50 2025.
