 Gaussian 16, Revision C.01,

 ----------------------------------------------------------------------
 #t hf aug-cc-pvdz symm=none int=(grid=ultrafine) guess=(read,tcheck) s
 table=(opt,rrhf)
 ----------------------------------------------------------------------
 -----
 title
 -----
 Symbolic Z-matrix:
 Charge =  0 Multiplicity = 1

 SCF Done:  E(RHF) =  -393.474594730     A.U. after   17 cycles
 Normal termination of Gaussian 16 at Tue Apr  8 21:37:35 2025.
 Gaussian 16:  ES64L-G16RevC.01  3-Jul-2019

 ----------------------------------------------------------------------
 #t hf aug-cc-pvdz iop(5/13=1,5/36=2,99/5=2) pseudo=read geom=check gue
 ss=(read,tcheck) scf=(maxcycle=1)
 ----------------------------------------------------------------------
 -----
 title
 -----
 Structure from the checkpoint file:  "ANI1ccx_388_conf2_mol2.chk"
 Charge =  0 Multiplicity = 1

                         Standard orientation:
 ---------------------------------------------------------------------
 Center     Atomic      Atomic             Coordinates (Angstroms)
 Number     Number       Type             X           Y           Z
 ---------------------------------------------------------------------
      1          6           0        2.232920   -0.196644   -0.367047
      2          1           0       -0.460210   -0.250678    0.643341
      3          1           0        2.581889    1.676971   -0.445843
      4          1           0        2.781590   -0.244470   -1.340510
      5          7           0       -1.982430   -0.198949   -0.378629
      6          8           0       -1.359940    0.086540    0.828783
      7          8           0       -3.084550    0.195534   -0.376079
      8          8           0        2.148600    1.042831    0.134924
      9          8           0        1.742920   -1.151069    0.161834
 ---------------------------------------------------------------------

 SCF Done:  E(RHF) =  -395.076356637     A.U. after    2 cycles

 The electronic state is 1-A.
 Alpha  occ. eigenvalues --  -21.16271 -21.13735 -21.12323 -21.09085 -15.92564
 Alpha  occ. eigenvalues --  -11.54221  -1.96991  -1.85594  -1.69829  -1.69077
 Alpha  occ. eigenvalues --   -0.94130  -0.89046  -0.76301  -0.70940  -0.60337
 Alpha  occ. eigenvalues --   -0.59560  -0.57717  -0.56759  -0.50470  -0.47479
 Alpha  occ. eigenvalues --   -0.37143  -0.35350  -0.34416  -0.29279
 Alpha virt. eigenvalues --    0.02114   0.04465   0.08591   0.08958   0.11161
 Alpha virt. eigenvalues --    0.11594   0.12952   0.14007   0.14250   0.15469
 Alpha virt. eigenvalues --    0.16558   0.18301   0.18781   0.20238   0.20478

 Mulliken charges:
               1
     1  C    2.335500
     2  H    1.157475
     3  H    1.018353
     4  H    1.510632
     5  N    2.789316
     6  O   -2.241664
     7  O   -1.760885
     8  O   -2.359529
     9  O   -2.449197
 Sum of Mulliken charges =  -0.00000

 Dipole moment (field-independent basis, Debye):
    X=              2.7344    Y=              1.6550    Z=             -0.6558  Tot=              3.2628

 Test job not archived.
 1\1\GINC-SE038\SP\RHF\Aug-CC-pVDZ\C1H3N1O4\OHZDE\08-Apr-2025\0\\#t hf
 aug-cc-pvdz iop(5/13=1,5/36=2,99/5=2) pseudo=read geom=check guess=(re
 ad,tcheck) scf=(maxcycle=1)\\title\\0,1\C,0,2.23292,-0.196645,-0.36704
 7\H,0,-0.46021,-0.250678,0.643341\H,0,2.58189,1.67697,-0.445843\H,0,2.
 78159,-0.244471,-1.34051\N,0,-1.98243,-0.198949,-0.378629\O,0,-1.35994
 ,0.0865399,0.828783\O,0,-3.08455,0.195534,-0.376079\O,0,2.1486,1.04283
 ,0.134924\O,0,1.74292,-1.15107,0.161834\\Version=ES64L-G16RevC.01\Stat
 e=1-A\HF=-395.0763566\RMSD=5.110e-02\Dipole=1.0757861,0.6511308,-0.258

 Normal termination of Gaussian 16 at Tue Apr  8 21:37:38 2025.
