 Gaussian 16, Revision C.01,

 ----------------------------------------------------------------------
 #t hf aug-cc-pvdz symm=none int=(grid=ultrafine) guess=(read,tcheck) s
 table=(opt,rrhf)
 ----------------------------------------------------------------------
 -----
 title
 -----
 Symbolic Z-matrix:
 Charge =  0 Multiplicity = 1

 SCF Done:  E(RHF) =  -774.558901240     A.U. after   15 cycles
 Normal termination of Gaussian 16 at Tue Apr  8 20:32:18 2025.
 Gaussian 16:  ES64L-G16RevC.01  3-Jul-2019

 ----------------------------------------------------------------------
 #t hf aug-cc-pvdz iop(5/13=1,5/36=2,99/5=2) pseudo=read geom=check gue
 ss=(read,tcheck) scf=(maxcycle=1)
 ----------------------------------------------------------------------
 -----
 title
 -----
 Structure from the checkpoint file:  "ANI1ccx_1610_conf23_mol1.chk"
 Charge =  0 Multiplicity = 1

                         Standard orientation:
 ---------------------------------------------------------------------
 Center     Atomic      Atomic             Coordinates (Angstroms)
 Number     Number       Type             X           Y           Z
 ---------------------------------------------------------------------
      1          6           0       -1.969279   -1.487010    0.347521
      2          6           0       -2.434409   -0.412439   -0.686611
      3          6           0       -2.248519   -1.127770    1.845640
      4          6           0       -0.203683    0.679324   -0.204317
      5          6           0       -0.067490    1.995450    0.520385
      6          6           0        0.827918    0.303375   -1.291410
      7          6           0        2.330741    0.452119   -0.799895
      8          6           0        3.004531   -0.689635   -0.148737
      9          1           0       -1.844459    2.500900    0.213061
     10          1           0        2.748311   -2.325340    1.004140
     11          1           0        1.318831   -1.687210    0.374862
     12          1           0        2.347321    1.230670   -0.043278
     13          1           0        2.972531    0.989767   -1.514850
     14          1           0        0.617481    0.911407   -2.149330
     15          1           0        0.616553   -0.737832   -1.594050
     16          1           0       -1.684609    1.261580   -1.604630
     17          1           0       -3.042329   -0.452071    2.036650
     18          1           0       -1.351089   -0.530627    2.109260
     19          1           0       -2.294019   -2.067470    2.502100
     20          1           0       -2.697769   -2.277260    0.191600
     21          1           0       -0.526076   -2.310240   -0.738172
     22          1           0       -0.591710   -2.980970    0.744493
     23          1           0       -0.186217   -0.089071    0.611023
     24          7           0       -0.612888   -2.055040    0.214165
     25          7           0       -1.533509    0.736168   -0.815022
     26          7           0        2.329241   -1.711570    0.387587
     27          8           0        4.238161   -0.591703   -0.035427
     28          8           0       -3.356199   -0.533821   -1.444200
     29          8           0        0.990389    2.159480    1.134480
     30          8           0       -1.012539    2.903090    0.576964
 ---------------------------------------------------------------------

 SCF Done:  E(RHF) =  -778.059373064     A.U. after    2 cycles

 The electronic state is 1-A.
 Alpha  occ. eigenvalues --  -21.14282 -21.08332 -21.04050 -20.99180 -15.79133
 Alpha  occ. eigenvalues --  -15.78698 -15.77111 -11.56530 -11.55454 -11.51670
 Alpha  occ. eigenvalues --  -11.50590 -11.49102 -11.44615 -11.42073 -11.39163
 Alpha  occ. eigenvalues --   -1.84779  -1.75506  -1.67540  -1.65373  -1.44912
 Alpha  occ. eigenvalues --   -1.38902  -1.34857  -1.19424  -1.14044  -1.07131
 Alpha  occ. eigenvalues --   -0.97245  -0.95635  -0.84561  -0.81431  -0.80446
 Alpha  occ. eigenvalues --   -0.73446  -0.72355  -0.71501  -0.68849  -0.67438
 Alpha  occ. eigenvalues --   -0.65492  -0.62791  -0.60536  -0.60049  -0.57748
 Alpha  occ. eigenvalues --   -0.56917  -0.56344  -0.54320  -0.53672  -0.52938
 Alpha  occ. eigenvalues --   -0.50996  -0.50590  -0.47973  -0.46820  -0.45243
 Alpha  occ. eigenvalues --   -0.44654  -0.40317  -0.36360  -0.33680  -0.33023
 Alpha  occ. eigenvalues --   -0.30378  -0.27934  -0.25800
 Alpha virt. eigenvalues --    0.02233   0.03466   0.03821   0.04249   0.04603
 Alpha virt. eigenvalues --    0.05215   0.05856   0.06669   0.06858   0.07170
 Alpha virt. eigenvalues --    0.08086   0.08134   0.09058   0.09554   0.09731

 Mulliken charges:
               1
     1  C   -2.516520
     2  C    5.737962
     3  C   -3.879454
     4  C   -1.474679
     5  C    6.915993
     6  C   -3.485697
     7  C   -3.777953
     8  C    5.342864
     9  H    0.980721
    10  H    0.808519
    11  H    0.922064
    12  H    1.727406
    13  H    1.452050
    14  H    1.231973
    15  H    1.766951
    16  H    0.811563
    17  H    1.554986
    18  H    1.406208
    19  H    1.111143
    20  H    1.483441
    21  H    0.830148
    22  H    0.508551
    23  H    3.047311
    24  N   -2.144303
    25  N   -2.879428
    26  N   -3.257215
    27  O   -3.504984
    28  O   -3.780730
    29  O   -3.420819
    30  O   -3.518072
 Sum of Mulliken charges =  -0.00000

 Dipole moment (field-independent basis, Debye):
    X=             -4.5339    Y=             -2.5265    Z=             -0.2003  Tot=              5.1942

 Test job not archived.
 1\1\GINC-SE088\SP\RHF\Aug-CC-pVDZ\C8H15N3O4\OHZDE\08-Apr-2025\0\\#t hf
  aug-cc-pvdz iop(5/13=1,5/36=2,99/5=2) pseudo=read geom=check guess=(r
 ead,tcheck) scf=(maxcycle=1)\\title\\0,1\C,0,-1.96928,-1.48701,0.34752
 1\C,0,-2.43441,-0.412439,-0.686611\C,0,-2.24852,-1.12777,1.84564\C,0,-
 0.203684,0.679324,-0.204317\C,0,-0.0674913,1.99545,0.520385\C,0,0.8279
 17,0.303375,-1.29141\C,0,2.33074,0.452119,-0.799895\C,0,3.00453,-0.689
 635,-0.148737\H,0,-1.84446,2.5009,0.213061\H,0,2.74831,-2.32534,1.0041
 4\H,0,1.31883,-1.68721,0.374862\H,0,2.34732,1.23067,-0.043278\H,0,2.97

 Normal termination of Gaussian 16 at Tue Apr  8 20:32:56 2025.
