 Gaussian 16, Revision C.01,

 ----------------------------------------------------------------------
 #t hf aug-cc-pvdz symm=none int=(grid=ultrafine) guess=(read,tcheck) s
 table=(opt,rrhf)
 ----------------------------------------------------------------------
 -----
 title
 -----
 Symbolic Z-matrix:
 Charge =  0 Multiplicity = 1

 SCF Done:  E(RHF) =  -380.188601252     A.U. after   11 cycles
 Normal termination of Gaussian 16 at Tue Apr  8 21:05:23 2025.
 Gaussian 16:  ES64L-G16RevC.01  3-Jul-2019

 ----------------------------------------------------------------------
 #t hf aug-cc-pvdz iop(5/13=1,5/36=2,99/5=2) pseudo=read geom=check gue
 ss=(read,tcheck) scf=(maxcycle=1)
 ----------------------------------------------------------------------
 -----
 title
 -----
 Structure from the checkpoint file:  "ANI1ccx_1843_conf264_mol1.chk"
 Charge =  0 Multiplicity = 1

                         Standard orientation:
 ---------------------------------------------------------------------
 Center     Atomic      Atomic             Coordinates (Angstroms)
 Number     Number       Type             X           Y           Z
 ---------------------------------------------------------------------
      1          1           0        1.888020    0.662151   -0.138595
      2          1           0        1.412171    1.569519   -1.256490
      3          1           0        1.266688   -1.329661   -0.049899
      4          1           0        2.799568   -1.478843    0.401545
      5          1           0       -0.574501   -1.741019    1.579550
      6          1           0       -0.397042   -0.283425    0.889448
      7          1           0       -1.531199    1.326242    0.145240
      8          1           0       -0.026400    1.800490    0.349996
      9          1           0       -3.213301   -0.570122   -0.548041
     10          1           0       -1.787842   -0.941894   -0.296061
     11          8           0        1.435171    1.576348   -0.268002
     12          8           0        2.247988   -1.181033   -0.384029
     13          8           0       -0.503317   -1.288649    0.685325
     14          8           0       -0.796742    1.355091    0.778054
     15          8           0       -2.362621   -0.338438   -0.945937
 ---------------------------------------------------------------------

 SCF Done:  E(RHF) =  -381.854025870     A.U. after    2 cycles

 The electronic state is 1-A.
 Alpha  occ. eigenvalues --  -21.10219 -21.09625 -21.08752 -21.06101 -21.05922
 Alpha  occ. eigenvalues --   -1.69544  -1.67536  -1.64902  -1.62361  -1.61829
 Alpha  occ. eigenvalues --   -0.66964  -0.65066  -0.63262  -0.61160  -0.59999
 Alpha  occ. eigenvalues --   -0.51701  -0.50457  -0.48141  -0.46584  -0.43315
 Alpha  occ. eigenvalues --   -0.36488  -0.35420  -0.35219  -0.32861  -0.30857
 Alpha virt. eigenvalues --    0.03079   0.04903   0.05579   0.05959   0.07608
 Alpha virt. eigenvalues --    0.07933   0.08339   0.09583   0.10197   0.11238
 Alpha virt. eigenvalues --    0.17231   0.18356   0.19886   0.20135   0.21579

 Mulliken charges:
               1
     1  H    1.333522
     2  H    0.791153
     3  H    1.304519
     4  H    0.806885
     5  H    0.761322
     6  H    1.628299
     7  H    1.033738
     8  H    1.415227
     9  H    0.807363
    10  H    1.502749
    11  O   -2.402978
    12  O   -2.052713
    13  O   -2.619124
    14  O   -2.404251
    15  O   -1.905712
 Sum of Mulliken charges =  -0.00000

 Dipole moment (field-independent basis, Debye):
    X=              0.4925    Y=             -0.9192    Z=              0.9063  Tot=              1.3816

 Test job not archived.
 1\1\GINC-SE366\SP\RHF\Aug-CC-pVDZ\H10O5\OHZDE\08-Apr-2025\0\\#t hf aug
 -cc-pvdz iop(5/13=1,5/36=2,99/5=2) pseudo=read geom=check guess=(read,
 tcheck) scf=(maxcycle=1)\\title\\0,1\H,0,1.88802,0.662153,-0.138595\H,
 0,1.41217,1.56952,-1.25649\H,0,1.26669,-1.32966,-0.049899\H,0,2.79957,
 -1.47884,0.401545\H,0,-0.574498,-1.74102,1.57955\H,0,-0.397041,-0.2834
 26,0.889448\H,0,-1.5312,1.32624,0.14524\H,0,-0.0264017,1.80049,0.34999
 6\H,0,-3.2133,-0.570126,-0.548041\H,0,-1.78784,-0.941896,-0.296061\O,0
 ,1.43517,1.57635,-0.268002\O,0,2.24799,-1.18103,-0.384029\O,0,-0.50331

 Normal termination of Gaussian 16 at Tue Apr  8 21:05:26 2025.
