 Gaussian 16, Revision C.01,

 ----------------------------------------------------------------------
 #t hf aug-cc-pvdz symm=none int=(grid=ultrafine) guess=(read,tcheck) s
 table=(opt,rrhf)
 ----------------------------------------------------------------------
 -----
 title
 -----
 Symbolic Z-matrix:
 Charge =  0 Multiplicity = 1

 SCF Done:  E(RHF) =  -603.568583051     A.U. after   15 cycles
 Normal termination of Gaussian 16 at Tue Apr  8 22:21:32 2025.
 Gaussian 16:  ES64L-G16RevC.01  3-Jul-2019

 ----------------------------------------------------------------------
 #t hf aug-cc-pvdz iop(5/13=1,5/36=2,99/5=2) pseudo=read geom=check gue
 ss=(read,tcheck) scf=(maxcycle=1)
 ----------------------------------------------------------------------
 -----
 title
 -----
 Structure from the checkpoint file:  "ANI1ccx_999_conf19_mol1.chk"
 Charge =  0 Multiplicity = 1

                         Standard orientation:
 ---------------------------------------------------------------------
 Center     Atomic      Atomic             Coordinates (Angstroms)
 Number     Number       Type             X           Y           Z
 ---------------------------------------------------------------------
      1          6           0       -2.233150    0.086479   -0.546925
      2          6           0       -1.507870    0.147817    0.801234
      3          6           0        0.738163    0.209121   -0.223894
      4          6           0        1.718901   -0.879342    0.097051
      5          6           0        1.427849    1.556440   -0.341565
      6          1           0        0.363655   -2.177181   -0.298197
      7          1           0       -0.022481    2.716589   -0.038135
      8          1           0        2.269099    1.447411   -1.016780
      9          1           0        1.843609    1.848981    0.616203
     10          1           0        0.422492   -0.065536   -1.222790
     11          1           0       -1.763261    0.789345   -1.243140
     12          1           0       -3.175110    0.421504   -0.215354
     13          1           0       -1.890899   -1.258562   -2.193570
     14          1           0       -3.056139   -1.659563   -1.234550
     15          1           0        0.297786    0.091977    1.768380
     16          7           0       -2.190649   -1.215423   -1.209280
     17          7           0       -0.156501    0.074107    0.866118
     18          8           0        0.573482    2.528330   -0.869273
     19          8           0       -2.188700    0.241255    1.722390
     20          8           0        2.819670   -0.716041    0.611064
     21          8           0        1.330292   -2.164650   -0.368594
 ---------------------------------------------------------------------

 SCF Done:  E(RHF) =  -606.215177849     A.U. after    2 cycles

 The electronic state is 1-A.
 Alpha  occ. eigenvalues --  -21.12059 -21.09432 -21.07359 -21.04726 -15.78790
 Alpha  occ. eigenvalues --  -15.76656 -11.56210 -11.52959 -11.50252 -11.43589
 Alpha  occ. eigenvalues --  -11.43289  -1.80741  -1.76995  -1.73195  -1.65894
 Alpha  occ. eigenvalues --   -1.45263  -1.35352  -1.14564  -1.04565  -0.95663
 Alpha  occ. eigenvalues --   -0.84620  -0.80513  -0.72324  -0.71074  -0.69887
 Alpha  occ. eigenvalues --   -0.67264  -0.64542  -0.62870  -0.60534  -0.56566
 Alpha  occ. eigenvalues --   -0.54906  -0.53388  -0.52537  -0.51802  -0.49928
 Alpha  occ. eigenvalues --   -0.46291  -0.44263  -0.39376  -0.36663  -0.36439
 Alpha  occ. eigenvalues --   -0.33418  -0.30019  -0.28461
 Alpha virt. eigenvalues --    0.03128   0.04581   0.04911   0.05159   0.05745
 Alpha virt. eigenvalues --    0.06290   0.06709   0.07011   0.07541   0.08665
 Alpha virt. eigenvalues --    0.10305   0.10899   0.11592   0.12092   0.12740

 Mulliken charges:
               1
     1  C   -2.973612
     2  C    5.707549
     3  C   -1.715636
     4  C    6.209716
     5  C   -0.674289
     6  H    1.048683
     7  H    0.641128
     8  H    1.096097
     9  H    1.359119
    10  H    2.364953
    11  H    1.554841
    12  H    1.101391
    13  H    0.561507
    14  H    0.588006
    15  H    0.789562
    16  N   -2.043361
    17  N   -2.499260
    18  O   -2.767515
    19  O   -3.824368
    20  O   -3.331334
    21  O   -3.193177
 Sum of Mulliken charges =  -0.00000

 Dipole moment (field-independent basis, Debye):
    X=             -1.3520    Y=              0.4653    Z=             -2.3134  Tot=              2.7196

 Test job not archived.
 1\1\GINC-SE094\SP\RHF\Aug-CC-pVDZ\C5H10N2O4\OHZDE\08-Apr-2025\0\\#t hf
  aug-cc-pvdz iop(5/13=1,5/36=2,99/5=2) pseudo=read geom=check guess=(r
 ead,tcheck) scf=(maxcycle=1)\\title\\0,1\C,0,-2.23315,0.0864811,-0.546
 925\C,0,-1.50787,0.147819,0.801234\C,0,0.738163,0.209121,-0.223894\C,0
 ,1.7189,-0.879343,0.0970515\C,0,1.42785,1.55644,-0.341565\H,0,0.363653
 ,-2.17718,-0.298197\H,0,-0.0224788,2.71659,-0.0381341\H,0,2.2691,1.447
 41,-1.01678\H,0,1.84361,1.84898,0.616203\H,0,0.422492,-0.0655358,-1.22
 279\H,0,-1.76326,0.789347,-1.24314\H,0,-3.17511,0.421507,-0.215354\H,0

 Normal termination of Gaussian 16 at Tue Apr  8 22:21:45 2025.
