 Gaussian 16, Revision C.01,

 ----------------------------------------------------------------------
 #t hf aug-cc-pvdz symm=none int=(grid=ultrafine) guess=(read,tcheck) s
 table=(opt,rrhf)
 ----------------------------------------------------------------------
 -----
 title
 -----
 Symbolic Z-matrix:
 Charge =  0 Multiplicity = 1

 SCF Done:  E(RHF) =  -276.591231016     A.U. after   15 cycles
 Normal termination of Gaussian 16 at Tue Apr  8 21:31:30 2025.
 Gaussian 16:  ES64L-G16RevC.01  3-Jul-2019

 ----------------------------------------------------------------------
 #t hf aug-cc-pvdz iop(5/13=1,5/36=2,99/5=2) pseudo=read geom=check gue
 ss=(read,tcheck) scf=(maxcycle=1)
 ----------------------------------------------------------------------
 -----
 title
 -----
 Structure from the checkpoint file:  "ANI1ccx_370_conf61_mol1.chk"
 Charge =  0 Multiplicity = 1

                         Standard orientation:
 ---------------------------------------------------------------------
 Center     Atomic      Atomic             Coordinates (Angstroms)
 Number     Number       Type             X           Y           Z
 ---------------------------------------------------------------------
      1          6           0       -1.056029   -0.130803    0.000318
      2          1           0       -2.150119   -0.269249    0.085425
      3          7           0       -0.513613    1.035861   -0.028751
      4          7           0        0.798108    0.773003    0.031904
      5          7           0        1.094451   -0.425539   -0.012885
      6          8           0       -0.145791   -1.078650   -0.002400
 ---------------------------------------------------------------------

 SCF Done:  E(RHF) =  -277.759680599     A.U. after    2 cycles

 The electronic state is 1-A.
 Alpha  occ. eigenvalues --  -21.17593 -15.86195 -15.83245 -15.78886 -11.50462
 Alpha  occ. eigenvalues --   -1.99938  -1.56307  -1.35494  -0.93650  -0.88319
 Alpha  occ. eigenvalues --   -0.76532  -0.70881  -0.59374  -0.51458  -0.44888
 Alpha  occ. eigenvalues --   -0.44349  -0.42262  -0.41760
 Alpha virt. eigenvalues --    0.03144   0.08962   0.09246   0.09927   0.13229
 Alpha virt. eigenvalues --    0.13875   0.14340   0.14719   0.16460   0.17127
 Alpha virt. eigenvalues --    0.19009   0.19793   0.20503   0.22543   0.24494

 Mulliken charges:
               1
     1  C    1.463687
     2  H    1.620713
     3  N   -1.789179
     4  N    1.036735
     5  N    0.241920
     6  O   -2.573877
 Sum of Mulliken charges =   0.00000

 Dipole moment (field-independent basis, Debye):
    X=             -2.4119    Y=             -1.8722    Z=              0.0740  Tot=              3.0542

 Test job not archived.
 1\1\GINC-SE094\SP\RHF\Aug-CC-pVDZ\C1H1N3O1\OHZDE\08-Apr-2025\0\\#t hf
 aug-cc-pvdz iop(5/13=1,5/36=2,99/5=2) pseudo=read geom=check guess=(re
 ad,tcheck) scf=(maxcycle=1)\\title\\0,1\C,0,-1.05603,-0.130804,0.00031
 813\H,0,-2.15012,-0.269251,0.0854251\N,0,-0.513615,1.03586,-0.0287513\
 N,0,0.798107,0.773003,0.0319036\N,0,1.09445,-0.425539,-0.0128854\O,0,-
 0.145791,-1.07865,-0.00240027\\Version=ES64L-G16RevC.01\State=1-A\HF=-
 277.7596806\RMSD=1.051e-01\Dipole=-0.948915,-0.7365982,0.0291211\Quadr
 upole=1.6931514,-2.495969,0.8028176,1.0186412,-0.1813406,-0.0203589\PG

 Normal termination of Gaussian 16 at Tue Apr  8 21:31:32 2025.
