 Gaussian 16, Revision C.01,

 ----------------------------------------------------------------------
 #t hf aug-cc-pvdz symm=none int=(grid=ultrafine) guess=(read,tcheck) s
 table=(opt,rrhf)
 ----------------------------------------------------------------------
 -----
 title
 -----
 Symbolic Z-matrix:
 Charge =  0 Multiplicity = 1

 SCF Done:  E(RHF) =  -449.652116665     A.U. after   14 cycles
 Normal termination of Gaussian 16 at Tue Apr  8 21:40:00 2025.
 Gaussian 16:  ES64L-G16RevC.01  3-Jul-2019

 ----------------------------------------------------------------------
 #t hf aug-cc-pvdz iop(5/13=1,5/36=2,99/5=2) pseudo=read geom=check gue
 ss=(read,tcheck) scf=(maxcycle=1)
 ----------------------------------------------------------------------
 -----
 title
 -----
 Structure from the checkpoint file:  "ANI1ccx_428_conf1_mol1.chk"
 Charge =  0 Multiplicity = 1

                         Standard orientation:
 ---------------------------------------------------------------------
 Center     Atomic      Atomic             Coordinates (Angstroms)
 Number     Number       Type             X           Y           Z
 ---------------------------------------------------------------------
      1          6           0       -0.047122   -0.096036   -0.222778
      2          1           0        3.863559   -0.432637   -0.516197
      3          1           0        2.983099   -0.027213    0.650787
      4          1           0       -2.640791   -1.178779    0.051814
      5          1           0       -0.410437   -2.004629   -0.653143
      6          1           0       -0.090300    1.813161    0.253427
      7          1           0       -2.588421    1.131641    0.244386
      8          7           0       -0.921183   -1.138149   -0.473040
      9          7           0       -0.620041    1.009931    0.311023
     10          8           0        3.840149    0.179245    0.220567
     11          8           0       -1.853941   -1.262769    0.604805
     12          8           0        1.137259   -0.246062   -0.282430
     13          8           0       -1.879141    1.601111   -0.237978
 ---------------------------------------------------------------------

 SCF Done:  E(RHF) =  -451.538171060     A.U. after    2 cycles

 The electronic state is 1-A.
 Alpha  occ. eigenvalues --  -21.14479 -21.13700 -21.06271 -21.05926 -15.82313
 Alpha  occ. eigenvalues --  -15.81274 -11.53081  -1.84099  -1.77503  -1.74160
 Alpha  occ. eigenvalues --   -1.62155  -1.31965  -1.23754  -0.88587  -0.69979
 Alpha  occ. eigenvalues --   -0.68866  -0.66558  -0.62429  -0.60619  -0.59229
 Alpha  occ. eigenvalues --   -0.53904  -0.51199  -0.42796  -0.42587  -0.40540
 Alpha  occ. eigenvalues --   -0.36484  -0.35061  -0.32175  -0.30163
 Alpha virt. eigenvalues --    0.03187   0.04754   0.05590   0.06518   0.07103
 Alpha virt. eigenvalues --    0.08506   0.10493   0.12797   0.13461   0.13855
 Alpha virt. eigenvalues --    0.14421   0.14942   0.16265   0.17463   0.18237

 Mulliken charges:
               1
     1  C    5.943708
     2  H    0.876562
     3  H    1.109272
     4  H    0.769119
     5  H    0.602778
     6  H    0.718781
     7  H    0.828881
     8  N   -0.866314
     9  N   -1.082111
    10  O   -1.921116
    11  O   -2.052007
    12  O   -2.918840
    13  O   -2.008711
 Sum of Mulliken charges =   0.00000

 Dipole moment (field-independent basis, Debye):
    X=             -3.7857    Y=             -0.6421    Z=             -0.2981  Tot=              3.8513

 Test job not archived.
 1\1\GINC-SE460\SP\RHF\Aug-CC-pVDZ\C1H6N2O4\OHZDE\08-Apr-2025\0\\#t hf
 aug-cc-pvdz iop(5/13=1,5/36=2,99/5=2) pseudo=read geom=check guess=(re
 ad,tcheck) scf=(maxcycle=1)\\title\\0,1\C,0,-0.0471208,-0.0960362,-0.2
 22778\H,0,3.86356,-0.432637,-0.516197\H,0,2.9831,-0.0272128,0.650787\H
 ,0,-2.64079,-1.17878,0.0518144\H,0,-0.410435,-2.00463,-0.653143\H,0,-0
 .0902993,1.81316,0.253427\H,0,-2.58842,1.13164,0.244386\N,0,-0.921182,
 -1.13815,-0.47304\N,0,-0.62004,1.00993,0.311023\O,0,3.84015,0.179245,0
 .220567\O,0,-1.85394,-1.26277,0.604805\O,0,1.13726,-0.246062,-0.28243\

 Normal termination of Gaussian 16 at Tue Apr  8 21:40:04 2025.
