 Gaussian 16, Revision C.01,

 ----------------------------------------------------------------------
 #t hf aug-cc-pvdz symm=none int=(grid=ultrafine) guess=(read,tcheck) s
 table=(opt,rrhf)
 ----------------------------------------------------------------------
 -----
 title
 -----
 Symbolic Z-matrix:
 Charge =  0 Multiplicity = 1

 SCF Done:  E(RHF) =  -849.473346446     A.U. after   14 cycles
 Normal termination of Gaussian 16 at Tue Apr  8 20:37:02 2025.
 Gaussian 16:  ES64L-G16RevC.01  3-Jul-2019

 ----------------------------------------------------------------------
 #t hf aug-cc-pvdz iop(5/13=1,5/36=2,99/5=2) pseudo=read geom=check gue
 ss=(read,tcheck) scf=(maxcycle=1)
 ----------------------------------------------------------------------
 -----
 title
 -----
 Structure from the checkpoint file:  "ANI1ccx_1611_conf4_mol1.chk"
 Charge =  0 Multiplicity = 1

                         Standard orientation:
 ---------------------------------------------------------------------
 Center     Atomic      Atomic             Coordinates (Angstroms)
 Number     Number       Type             X           Y           Z
 ---------------------------------------------------------------------
      1          6           0        2.021360    0.252105   -0.675401
      2          6           0        1.214280   -0.713757    0.120829
      3          6           0        3.489550   -0.099364   -0.552500
      4          6           0        4.007641    0.413156    0.783001
      5          6           0       -1.068550    0.304709   -0.729351
      6          6           0       -1.475169    1.458001    0.141749
      7          6           0       -2.375680   -0.410234   -1.165050
      8          6           0       -3.344440   -0.883412   -0.136285
      9          1           0       -1.256439    2.180421    1.897100
     10          1           0       -3.677120   -1.724168    1.582820
     11          1           0       -2.283910   -0.844051    1.708470
     12          1           0       -2.933900    0.269952   -1.826360
     13          1           0       -2.050860   -1.229819   -1.807640
     14          1           0       -0.551804    0.711772   -1.633510
     15          1           0       -0.621740   -1.399249    0.458193
     16          1           0        5.016970    0.037136    0.907451
     17          1           0        3.375280   -0.000147    1.584560
     18          1           0        4.004031    1.563769    0.878377
     19          1           0        3.232830   -1.884651    0.065694
     20          1           0        4.126190    0.333449   -1.331840
     21          1           0        1.725820    0.203600   -1.720700
     22          1           0        1.598641    1.888120    0.663112
     23          1           0        2.377861    2.272490   -0.793522
     24          7           0        1.712941    1.664170   -0.335081
     25          7           0       -0.153046   -0.662537   -0.078171
     26          7           0       -2.865230   -1.415299    1.091200
     27          8           0        1.701350   -1.478820    0.917733
     28          8           0        3.784850   -1.485421   -0.647368
     29          8           0       -2.125179    2.408301   -0.281179
     30          8           0       -4.536390   -0.984554   -0.424717
     31          8           0       -1.044439    1.364221    1.423050
 ---------------------------------------------------------------------

 SCF Done:  E(RHF) =  -853.234593425     A.U. after    2 cycles

 The electronic state is 1-A.
 Alpha  occ. eigenvalues --  -21.15609 -21.07779 -21.05634 -21.05509 -21.04433
 Alpha  occ. eigenvalues --  -15.79032 -15.77729 -15.75807 -11.57710 -11.56164
 Alpha  occ. eigenvalues --  -11.54763 -11.51075 -11.48925 -11.44339 -11.43832
 Alpha  occ. eigenvalues --  -11.37326  -1.85275  -1.76885  -1.72371  -1.69140
 Alpha  occ. eigenvalues --   -1.67716  -1.43216  -1.36229  -1.34453  -1.19273
 Alpha  occ. eigenvalues --   -1.12630  -1.04801  -1.02414  -0.88921  -0.86305
 Alpha  occ. eigenvalues --   -0.81347  -0.79238  -0.74197  -0.72146  -0.69889
 Alpha  occ. eigenvalues --   -0.66801  -0.65644  -0.65007  -0.62851  -0.62189
 Alpha  occ. eigenvalues --   -0.60865  -0.59966  -0.58245  -0.56639  -0.55166
 Alpha  occ. eigenvalues --   -0.54000  -0.52839  -0.50575  -0.49096  -0.48853
 Alpha  occ. eigenvalues --   -0.48101  -0.47694  -0.46587  -0.43354  -0.37422
 Alpha  occ. eigenvalues --   -0.37195  -0.36112  -0.35772  -0.30935  -0.30508
 Alpha  occ. eigenvalues --   -0.30250  -0.28940
 Alpha virt. eigenvalues --    0.03022   0.03741   0.03957   0.04710   0.05144
 Alpha virt. eigenvalues --    0.05486   0.05964   0.06358   0.06768   0.07132
 Alpha virt. eigenvalues --    0.07657   0.08060   0.08366   0.08690   0.09712

 Mulliken charges:
               1
     1  C   -1.722793
     2  C    5.628419
     3  C    1.404625
     4  C   -4.186422
     5  C   -1.292995
     6  C    8.027512
     7  C   -4.162057
     8  C    4.842519
     9  H    0.973391
    10  H    0.716084
    11  H    0.716150
    12  H    1.189933
    13  H    1.488554
    14  H    1.922631
    15  H    0.516378
    16  H    1.131058
    17  H    1.268191
    18  H    1.267793
    19  H    0.793181
    20  H    1.527730
    21  H    1.934864
    22  H    0.565239
    23  H    0.699128
    24  N   -2.197858
    25  N   -2.898836
    26  N   -3.090443
    27  O   -3.499325
    28  O   -3.272240
    29  O   -3.600975
    30  O   -3.267565
    31  O   -3.421871
 Sum of Mulliken charges =   0.00000

 Dipole moment (field-independent basis, Debye):
    X=              0.3328    Y=              1.6580    Z=              1.3771  Tot=              2.1809

 Test job not archived.
 1\1\GINC-SE009\SP\RHF\Aug-CC-pVDZ\C8H15N3O5\OHZDE\08-Apr-2025\0\\#t hf
  aug-cc-pvdz iop(5/13=1,5/36=2,99/5=2) pseudo=read geom=check guess=(r
 ead,tcheck) scf=(maxcycle=1)\\title\\0,1\C,0,2.02136,0.252105,-0.67540
 1\C,0,1.21428,-0.713757,0.120829\C,0,3.48955,-0.0993627,-0.5525\C,0,4.
 00764,0.413157,0.783001\C,0,-1.06855,0.304708,-0.729351\C,0,-1.47517,1
 .458,0.141749\C,0,-2.37568,-0.410235,-1.16505\C,0,-3.34444,-0.883413,-
 0.136285\H,0,-1.25644,2.18042,1.8971\H,0,-3.67712,-1.72417,1.58282\H,0
 ,-2.28391,-0.844052,1.70847\H,0,-2.9339,0.269951,-1.82636\H,0,-2.05086

 Normal termination of Gaussian 16 at Tue Apr  8 20:37:41 2025.
