 Gaussian 16, Revision C.01,

 ----------------------------------------------------------------------
 #t hf aug-cc-pvdz symm=none int=(grid=ultrafine) guess=(read,tcheck) s
 table=(opt,rrhf)
 ----------------------------------------------------------------------
 -----
 title
 -----
 Symbolic Z-matrix:
 Charge =  0 Multiplicity = 1

 SCF Done:  E(RHF) =  -585.392500231     A.U. after   15 cycles
 Normal termination of Gaussian 16 at Tue Apr  8 22:18:12 2025.
 Gaussian 16:  ES64L-G16RevC.01  3-Jul-2019

 ----------------------------------------------------------------------
 #t hf aug-cc-pvdz iop(5/13=1,5/36=2,99/5=2) pseudo=read geom=check gue
 ss=(read,tcheck) scf=(maxcycle=1)
 ----------------------------------------------------------------------
 -----
 title
 -----
 Structure from the checkpoint file:  "ANI1ccx_978_conf9_mol1.chk"
 Charge =  0 Multiplicity = 1

                         Standard orientation:
 ---------------------------------------------------------------------
 Center     Atomic      Atomic             Coordinates (Angstroms)
 Number     Number       Type             X           Y           Z
 ---------------------------------------------------------------------
      1          6           0        0.283790   -1.336980   -0.584399
      2          6           0       -0.198196   -0.194689    0.345180
      3          6           0       -1.603700   -0.590318    0.884903
      4          6           0        0.839602    0.032268    1.441980
      5          1           0        2.407769   -0.020333    0.477288
      6          1           0        1.108610   -1.039279    1.787840
      7          1           0        0.294156    0.614337    2.200300
      8          1           0       -2.067511    0.228881    1.551280
      9          1           0       -3.209190   -0.859929    0.016862
     10          1           0        0.138823   -2.324090   -0.189267
     11          1           0       -0.232355   -1.336370   -1.560380
     12          1           0        1.915100   -0.677182   -1.517650
     13          1           0       -1.486340   -1.590080    1.478810
     14          7           0       -0.239743    1.018010   -0.479742
     15          8           0        0.572063    1.067690   -1.432200
     16          8           0        1.685210   -1.291909   -0.804389
     17          8           0       -2.342270   -0.709487   -0.313201
     18          8           0        2.002219    0.647591    1.022140
     19          8           0       -1.057201    1.838150   -0.148964
 ---------------------------------------------------------------------

 SCF Done:  E(RHF) =  -587.925885161     A.U. after    2 cycles

 The electronic state is 1-A.
 Alpha  occ. eigenvalues --  -21.11045 -21.10612 -21.08414 -21.07723 -21.07475
 Alpha  occ. eigenvalues --  -15.99237 -11.50432 -11.49950 -11.48464 -11.41876
 Alpha  occ. eigenvalues --   -1.99780  -1.76958  -1.74311  -1.71992  -1.69594
 Alpha  occ. eigenvalues --   -1.27805  -1.01463  -0.99796  -0.97572  -0.79177
 Alpha  occ. eigenvalues --   -0.74391  -0.72769  -0.68022  -0.66579  -0.63180
 Alpha  occ. eigenvalues --   -0.61750  -0.60371  -0.58612  -0.55515  -0.53348
 Alpha  occ. eigenvalues --   -0.51137  -0.47118  -0.45150  -0.41142  -0.36975
 Alpha  occ. eigenvalues --   -0.35738  -0.33124  -0.31766  -0.30796  -0.29078
 Alpha virt. eigenvalues --    0.03407   0.04503   0.04595   0.05139   0.05496
 Alpha virt. eigenvalues --    0.05970   0.06801   0.07531   0.08651   0.11053
 Alpha virt. eigenvalues --    0.12262   0.12456   0.12970   0.13753   0.14678

 Mulliken charges:
               1
     1  C   -0.081819
     2  C    0.222749
     3  C   -0.813004
     4  C    0.636674
     5  H    0.802116
     6  H    1.222419
     7  H    1.264300
     8  H    1.396662
     9  H    0.731472
    10  H    1.285648
    11  H    1.459472
    12  H    0.728953
    13  H    1.209015
    14  N    4.671976
    15  O   -3.067713
    16  O   -2.657243
    17  O   -2.638501
    18  O   -2.990519
    19  O   -3.382658
 Sum of Mulliken charges =  -0.00000

 Dipole moment (field-independent basis, Debye):
    X=             -1.3295    Y=             -1.9327    Z=              0.6263  Tot=              2.4280

 Test job not archived.
 1\1\GINC-SE110\SP\RHF\Aug-CC-pVDZ\C4H9N1O5\OHZDE\08-Apr-2025\0\\#t hf
 aug-cc-pvdz iop(5/13=1,5/36=2,99/5=2) pseudo=read geom=check guess=(re
 ad,tcheck) scf=(maxcycle=1)\\title\\0,1\C,0,0.28379,-1.33698,-0.584399
 \C,0,-0.198196,-0.194689,0.34518\C,0,-1.6037,-0.590317,0.884903\C,0,0.
 839603,0.0322677,1.44198\H,0,2.40777,-0.0203344,0.477288\H,0,1.10861,-
 1.03928,1.78784\H,0,0.294157,0.614337,2.2003\H,0,-2.06751,0.228882,1.5
 5128\H,0,-3.20919,-0.859928,0.0168617\H,0,0.138823,-2.32409,-0.189267\
 H,0,-0.232355,-1.33637,-1.56038\H,0,1.9151,-0.677183,-1.51765\H,0,-1.4

 Normal termination of Gaussian 16 at Tue Apr  8 22:18:23 2025.
