 Gaussian 16, Revision C.01,

 ----------------------------------------------------------------------
 #t hf aug-cc-pvdz symm=none int=(grid=ultrafine) guess=(read,tcheck) s
 table=(opt,rrhf)
 ----------------------------------------------------------------------
 -----
 title
 -----
 Symbolic Z-matrix:
 Charge =  0 Multiplicity = 1

 SCF Done:  E(RHF) =  -405.921606729     A.U. after   15 cycles
 Normal termination of Gaussian 16 at Tue Apr  8 21:48:17 2025.
 Gaussian 16:  ES64L-G16RevC.01  3-Jul-2019

 ----------------------------------------------------------------------
 #t hf aug-cc-pvdz iop(5/13=1,5/36=2,99/5=2) pseudo=read geom=check gue
 ss=(read,tcheck) scf=(maxcycle=1)
 ----------------------------------------------------------------------
 -----
 title
 -----
 Structure from the checkpoint file:  "ANI1ccx_557_conf1_mol1.chk"
 Charge =  0 Multiplicity = 1

                         Standard orientation:
 ---------------------------------------------------------------------
 Center     Atomic      Atomic             Coordinates (Angstroms)
 Number     Number       Type             X           Y           Z
 ---------------------------------------------------------------------
      1          6           0       -1.314882   -0.004489    0.022414
      2          6           0        0.597997    0.697933    0.021192
      3          1           0       -3.195713   -0.862708    0.093468
      4          1           0       -2.955921    0.942980    0.237102
      5          1           0        2.363530    1.230527    0.736852
      6          1           0        1.545911    2.393158   -0.098700
      7          1           0        2.365067   -1.202473   -0.706626
      8          1           0        2.097596   -1.576303    0.908674
      9          7           0       -2.663942    0.024139   -0.019189
     10          7           0       -0.556858    1.178930    0.002888
     11          7           0        1.841640    1.407967   -0.102929
     12          7           0        0.603401   -0.678982   -0.004890
     13          7           0        1.706026   -1.525933   -0.004838
     14          7           0       -0.633005   -1.132670   -0.075671
 ---------------------------------------------------------------------

 SCF Done:  E(RHF) =  -407.782066612     A.U. after    2 cycles

 The electronic state is 1-A.
 Alpha  occ. eigenvalues --  -15.78804 -15.78087 -15.78013 -15.75571 -15.72163
 Alpha  occ. eigenvalues --  -15.71761 -11.48542 -11.44417  -1.69149  -1.44098
 Alpha  occ. eigenvalues --   -1.38888  -1.30552  -1.24688  -1.05482  -0.83668
 Alpha  occ. eigenvalues --   -0.82235  -0.73211  -0.70773  -0.68003  -0.65815
 Alpha  occ. eigenvalues --   -0.62296  -0.56111  -0.55604  -0.48952  -0.47564
 Alpha  occ. eigenvalues --   -0.43722  -0.40743  -0.37175  -0.36580  -0.24850
 Alpha virt. eigenvalues --    0.03295   0.04991   0.05261   0.06399   0.06805
 Alpha virt. eigenvalues --    0.06912   0.10627   0.11816   0.12499   0.13079
 Alpha virt. eigenvalues --    0.14330   0.14780   0.15278   0.16292   0.17209

 Mulliken charges:
               1
     1  C    4.560508
     2  C    4.047673
     3  H    0.699083
     4  H    0.586311
     5  H    0.521377
     6  H    0.564698
     7  H    0.700769
     8  H    0.732474
     9  N   -2.871571
    10  N   -3.124114
    11  N   -2.746846
    12  N    0.186870
    13  N   -1.177578
    14  N   -2.679653
 Sum of Mulliken charges =  -0.00000

 Dipole moment (field-independent basis, Debye):
    X=              1.7899    Y=              0.9216    Z=              1.7155  Tot=              2.6450

 Test job not archived.
 1\1\GINC-SE250\SP\RHF\Aug-CC-pVDZ\C2H6N6\OHZDE\08-Apr-2025\0\\#t hf au
 g-cc-pvdz iop(5/13=1,5/36=2,99/5=2) pseudo=read geom=check guess=(read
 ,tcheck) scf=(maxcycle=1)\\title\\0,1\C,0,-1.31488,-0.00448967,0.02241
 43\C,0,0.597998,0.697934,0.021192\H,0,-3.19571,-0.862711,0.0934679\H,0
 ,-2.95592,0.942977,0.237102\H,0,2.36353,1.23053,0.736852\H,0,1.54591,2
 .39316,-0.0987\H,0,2.36507,-1.20247,-0.706626\H,0,2.0976,-1.5763,0.908
 674\N,0,-2.66394,0.0241364,-0.0191893\N,0,-0.556858,1.17893,0.00288814
 \N,0,1.84164,1.40797,-0.102929\N,0,0.603404,-0.678981,-0.00488985\N,0,

 Normal termination of Gaussian 16 at Tue Apr  8 21:48:22 2025.
