 Gaussian 16, Revision C.01,

 ----------------------------------------------------------------------
 #t hf aug-cc-pvdz symm=none int=(grid=ultrafine) guess=(read,tcheck) s
 table=(opt,rrhf)
 ----------------------------------------------------------------------
 -----
 title
 -----
 Symbolic Z-matrix:
 Charge =  0 Multiplicity = 1

 SCF Done:  E(RHF) =  -453.851418748     A.U. after   14 cycles
 Normal termination of Gaussian 16 at Tue Apr  8 22:19:24 2025.
 Gaussian 16:  ES64L-G16RevC.01  3-Jul-2019

 ----------------------------------------------------------------------
 #t hf aug-cc-pvdz iop(5/13=1,5/36=2,99/5=2) pseudo=read geom=check gue
 ss=(read,tcheck) scf=(maxcycle=1)
 ----------------------------------------------------------------------
 -----
 title
 -----
 Structure from the checkpoint file:  "ANI1ccx_997_conf1_mol2.chk"
 Charge =  0 Multiplicity = 1

                         Standard orientation:
 ---------------------------------------------------------------------
 Center     Atomic      Atomic             Coordinates (Angstroms)
 Number     Number       Type             X           Y           Z
 ---------------------------------------------------------------------
      1          6           0       -1.810151    0.160428    0.090418
      2          6           0       -0.881376   -0.598946    0.976884
      3          6           0        0.048692   -1.517100    0.199215
      4          6           0        0.888746   -0.762526   -0.793543
      5          6           0        1.869499    0.181348   -0.167109
      6          1           0        0.407655    1.456940   -0.129315
      7          1           0        0.220664   -0.213934   -1.454200
      8          1           0        1.425089   -1.470900   -1.432350
      9          1           0       -0.570297   -2.234079   -0.379976
     10          1           0        0.664162   -2.162450    0.854876
     11          1           0       -0.299217    0.134593    1.571720
     12          1           0       -1.390071   -1.153579    1.787820
     13          1           0       -2.856711   -1.314598   -0.428673
     14          1           0       -1.342800    2.038481    0.884116
     15          1           0       -2.208700    1.933971   -0.519323
     16          7           0       -1.441170    1.473931    0.021345
     17          7           0       -2.806451   -0.341716   -0.581809
     18          8           0        1.388700    1.415770   -0.031516
     19          8           0        2.985189   -0.130666    0.198185
 ---------------------------------------------------------------------

 SCF Done:  E(RHF) =  -455.914025493     A.U. after    2 cycles

 The electronic state is 1-A.
 Alpha  occ. eigenvalues --  -21.09999 -21.03699 -15.79809 -15.74462 -11.52467
 Alpha  occ. eigenvalues --  -11.51214 -11.46522 -11.42586 -11.39017  -1.81440
 Alpha  occ. eigenvalues --   -1.63973  -1.47598  -1.27416  -1.24276  -1.08174
 Alpha  occ. eigenvalues --   -0.93358  -0.83100  -0.79596  -0.71379  -0.70178
 Alpha  occ. eigenvalues --   -0.68076  -0.64677  -0.61812  -0.59472  -0.55318
 Alpha  occ. eigenvalues --   -0.53871  -0.52179  -0.50756  -0.48086  -0.45950
 Alpha  occ. eigenvalues --   -0.42350  -0.39540  -0.36155  -0.32323  -0.28516
 Alpha virt. eigenvalues --    0.03056   0.04177   0.04759   0.04874   0.05712
 Alpha virt. eigenvalues --    0.05771   0.06989   0.07534   0.07930   0.08720
 Alpha virt. eigenvalues --    0.10841   0.11617   0.12165   0.12405   0.12799

 Mulliken charges:
               1
     1  C    4.937324
     2  C   -2.968263
     3  C   -2.887308
     4  C   -3.832483
     5  C    6.315515
     6  H    1.675692
     7  H    1.842696
     8  H    1.093060
     9  H    1.253129
    10  H    1.320392
    11  H    1.841410
    12  H    1.171846
    13  H    0.560003
    14  H    0.517026
    15  H    0.690710
    16  N   -3.072214
    17  N   -3.440954
    18  O   -3.625727
    19  O   -3.391855
 Sum of Mulliken charges =  -0.00000

 Dipole moment (field-independent basis, Debye):
    X=             -2.4173    Y=              0.2189    Z=              1.2672  Tot=              2.7380

 Test job not archived.
 1\1\GINC-SE249\SP\RHF\Aug-CC-pVDZ\C5H10N2O2\OHZDE\08-Apr-2025\0\\#t hf
  aug-cc-pvdz iop(5/13=1,5/36=2,99/5=2) pseudo=read geom=check guess=(r
 ead,tcheck) scf=(maxcycle=1)\\title\\0,1\C,0,-1.81015,0.160427,0.09041
 75\C,0,-0.881375,-0.598947,0.976884\C,0,0.0486937,-1.5171,0.199215\C,0
 ,0.888747,-0.762526,-0.793543\C,0,1.8695,0.181348,-0.167109\H,0,0.4076
 55,1.45694,-0.129315\H,0,0.220665,-0.213934,-1.4542\H,0,1.42509,-1.470
 9,-1.43235\H,0,-0.570295,-2.23408,-0.379976\H,0,0.664164,-2.16245,0.85
 4876\H,0,-0.299216,0.134592,1.57172\H,0,-1.39007,-1.15358,1.78782\H,0,

 Normal termination of Gaussian 16 at Tue Apr  8 22:19:34 2025.
