 Gaussian 16, Revision C.01,

 ----------------------------------------------------------------------
 #t hf aug-cc-pvdz symm=none int=(grid=ultrafine) guess=(read,tcheck) s
 table=(opt,rrhf)
 ----------------------------------------------------------------------
 -----
 title
 -----
 Symbolic Z-matrix:
 Charge =  0 Multiplicity = 1

 SCF Done:  E(RHF) =  -830.270991327     A.U. after   14 cycles
 Normal termination of Gaussian 16 at Tue Apr  8 19:49:07 2025.
 Gaussian 16:  ES64L-G16RevC.01  3-Jul-2019

 ----------------------------------------------------------------------
 #t hf aug-cc-pvdz iop(5/13=1,5/36=2,99/5=2) pseudo=read geom=check gue
 ss=(read,tcheck) scf=(maxcycle=1)
 ----------------------------------------------------------------------
 -----
 title
 -----
 Structure from the checkpoint file:  "ANI1ccx_1406_conf13_mol1.chk"
 Charge =  0 Multiplicity = 1

                         Standard orientation:
 ---------------------------------------------------------------------
 Center     Atomic      Atomic             Coordinates (Angstroms)
 Number     Number       Type             X           Y           Z
 ---------------------------------------------------------------------
      1          6           0        2.420890    0.678886   -0.098748
      2          6           0        1.510001    0.072865    0.896435
      3          6           0        2.861611   -0.490238   -1.014300
      4          6           0       -1.017879   -0.527527    0.900682
      5          6           0       -1.518998   -1.694880    0.061804
      6          6           0       -1.943340    0.708641    0.906609
      7          6           0       -2.087850    1.489499   -0.435150
      8          1           0       -3.001707   -2.893002    0.223441
      9          1           0       -3.135551    2.879928   -1.244450
     10          1           0       -1.514260    1.408020    1.672290
     11          1           0       -2.936430    0.508575    1.299770
     12          1           0       -0.967298   -0.927645    1.933680
     13          1           0        0.315466   -0.159026   -0.712309
     14          1           0        3.691881   -0.140964   -1.622720
     15          1           0        3.194082   -1.415617   -0.427686
     16          1           0        1.896740    1.449922   -0.684339
     17          1           0        4.120490    0.618410    1.124840
     18          1           0        3.320409    1.986603    1.315510
     19          1           0        1.548612   -1.812758   -1.752890
     20          7           0        3.546610    1.289433    0.581929
     21          7           0        0.307006   -0.154145    0.324526
     22          8           0       -3.025921    2.473578   -0.373494
     23          8           0        1.695121   -0.152005    2.067240
     24          8           0        1.846931   -0.890348   -1.969000
     25          8           0       -1.065138   -1.938550   -1.003670
     26          8           0       -1.239840    1.376560   -1.303910
     27          8           0       -2.567948   -2.228351    0.736046
 ---------------------------------------------------------------------

 SCF Done:  E(RHF) =  -833.862229087     A.U. after    2 cycles

 The electronic state is 1-A.
 Alpha  occ. eigenvalues --  -21.15243 -21.14389 -21.08117 -21.06727 -21.06616
 Alpha  occ. eigenvalues --  -21.01266 -15.72879 -15.72324 -11.55901 -11.54965
 Alpha  occ. eigenvalues --  -11.50908 -11.49655 -11.46645 -11.43182 -11.40756
 Alpha  occ. eigenvalues --   -1.85197  -1.83050  -1.71387  -1.70210  -1.68768
 Alpha  occ. eigenvalues --   -1.67023  -1.39383  -1.32744  -1.18269  -1.06652
 Alpha  occ. eigenvalues --   -1.01546  -0.90974  -0.84317  -0.80291  -0.76821
 Alpha  occ. eigenvalues --   -0.72180  -0.68489  -0.66754  -0.64352  -0.63767
 Alpha  occ. eigenvalues --   -0.62885  -0.61868  -0.61205  -0.60182  -0.58789
 Alpha  occ. eigenvalues --   -0.55997  -0.54166  -0.51294  -0.50898  -0.50020
 Alpha  occ. eigenvalues --   -0.48370  -0.47072  -0.45863  -0.45469  -0.41079
 Alpha  occ. eigenvalues --   -0.37585  -0.36073  -0.35084  -0.33071  -0.31919
 Alpha  occ. eigenvalues --   -0.30452  -0.28611  -0.27162
 Alpha virt. eigenvalues --    0.03328   0.04048   0.05058   0.05525   0.06043
 Alpha virt. eigenvalues --    0.06268   0.06466   0.06914   0.06987   0.07579
 Alpha virt. eigenvalues --    0.09059   0.09230   0.09961   0.11046   0.11553

 Mulliken charges:
               1
     1  C   -2.241412
     2  C    7.222358
     3  C   -0.562751
     4  C   -1.952005
     5  C    6.794104
     6  C   -3.960077
     7  C    5.360096
     8  H    0.909982
     9  H    0.916660
    10  H    1.520052
    11  H    1.443787
    12  H    1.604224
    13  H    1.386474
    14  H    1.201265
    15  H    1.410647
    16  H    1.922106
    17  H    0.554497
    18  H    0.598402
    19  H    0.721650
    20  N   -2.934129
    21  N   -2.876251
    22  O   -3.104711
    23  O   -3.985851
    24  O   -2.708460
    25  O   -3.130627
    26  O   -2.861670
    27  O   -3.248359
 Sum of Mulliken charges =  -0.00000

 Dipole moment (field-independent basis, Debye):
    X=             -3.2263    Y=             -0.2890    Z=             -0.3643  Tot=              3.2596

 Test job not archived.
 1\1\GINC-SE081\SP\RHF\Aug-CC-pVDZ\C7H12N2O6\OHZDE\08-Apr-2025\0\\#t hf
  aug-cc-pvdz iop(5/13=1,5/36=2,99/5=2) pseudo=read geom=check guess=(r
 ead,tcheck) scf=(maxcycle=1)\\title\\0,1\C,0,2.42089,0.678884,-0.09874
 83\C,0,1.51,0.0728638,0.896435\C,0,2.86161,-0.490241,-1.0143\C,0,-1.01
 788,-0.527527,0.900682\C,0,-1.519,-1.69488,0.0618044\C,0,-1.94334,0.70
 8642,0.906609\C,0,-2.08785,1.4895,-0.43515\H,0,-3.00171,-2.893,0.22344
 1\H,0,-3.13555,2.87993,-1.24445\H,0,-1.51426,1.40802,1.67229\H,0,-2.93
 643,0.508576,1.29977\H,0,-0.967299,-0.927645,1.93368\H,0,0.315465,-0.1

 Normal termination of Gaussian 16 at Tue Apr  8 19:49:35 2025.
