 Gaussian 16, Revision C.01,

 ----------------------------------------------------------------------
 #t hf aug-cc-pvdz symm=none int=(grid=ultrafine) guess=(read,tcheck) s
 table=(opt,rrhf)
 ----------------------------------------------------------------------
 -----
 title
 -----
 Symbolic Z-matrix:
 Charge =  0 Multiplicity = 1

 SCF Done:  E(RHF) =  -353.824461806     A.U. after   13 cycles
 Normal termination of Gaussian 16 at Tue Apr  8 21:39:48 2025.
 Gaussian 16:  ES64L-G16RevC.01  3-Jul-2019

 ----------------------------------------------------------------------
 #t hf aug-cc-pvdz iop(5/13=1,5/36=2,99/5=2) pseudo=read geom=check gue
 ss=(read,tcheck) scf=(maxcycle=1)
 ----------------------------------------------------------------------
 -----
 title
 -----
 Structure from the checkpoint file:  "ANI1ccx_418_conf3_mol1.chk"
 Charge =  0 Multiplicity = 1

                         Standard orientation:
 ---------------------------------------------------------------------
 Center     Atomic      Atomic             Coordinates (Angstroms)
 Number     Number       Type             X           Y           Z
 ---------------------------------------------------------------------
      1          6           0        0.005731    0.473884   -0.006754
      2          1           0       -2.395029   -0.493205    0.954220
      3          1           0       -2.398099    0.030101   -0.655401
      4          1           0       -0.204155   -1.602230   -0.319913
      5          1           0        1.841660    1.231941   -0.383065
      6          1           0        2.431991   -1.023909    0.652036
      7          7           0       -2.108569   -0.737597   -0.007373
      8          7           0       -0.645170   -0.754263   -0.000136
      9          7           0        1.387021    0.489243    0.185281
     10          8           0       -0.702787    1.499830   -0.034484
     11          8           0        1.984821   -0.745790   -0.146986
 ---------------------------------------------------------------------

 SCF Done:  E(RHF) =  -355.348729586     A.U. after    2 cycles

 The electronic state is 1-A.
 Alpha  occ. eigenvalues --  -21.13170 -21.02455 -15.81554 -15.77601 -15.76583
 Alpha  occ. eigenvalues --  -11.50540  -1.82585  -1.70030  -1.44099  -1.26281
 Alpha  occ. eigenvalues --   -1.12658  -0.83574  -0.72182  -0.68386  -0.66535
 Alpha  occ. eigenvalues --   -0.63541  -0.59064  -0.50878  -0.49092  -0.40698
 Alpha  occ. eigenvalues --   -0.38318  -0.37003  -0.31534  -0.29894
 Alpha virt. eigenvalues --    0.03715   0.05267   0.05755   0.06487   0.07030
 Alpha virt. eigenvalues --    0.11528   0.12137   0.13129   0.14809   0.15472
 Alpha virt. eigenvalues --    0.17229   0.17695   0.17861   0.18414   0.19018

 Mulliken charges:
               1
     1  C    5.398500
     2  H    0.625044
     3  H    0.672081
     4  H    0.903842
     5  H    0.609088
     6  H    0.797627
     7  N   -1.726221
     8  N   -1.734973
     9  N   -0.738291
    10  O   -2.607772
    11  O   -2.198924
 Sum of Mulliken charges =  -0.00000

 Dipole moment (field-independent basis, Debye):
    X=              1.5925    Y=             -1.1827    Z=             -0.0056  Tot=              1.9837

 Test job not archived.
 1\1\GINC-SE044\SP\RHF\Aug-CC-pVDZ\C1H5N3O2\OHZDE\08-Apr-2025\0\\#t hf
 aug-cc-pvdz iop(5/13=1,5/36=2,99/5=2) pseudo=read geom=check guess=(re
 ad,tcheck) scf=(maxcycle=1)\\title\\0,1\C,0,0.00573,0.473884,-0.006754
 52\H,0,-2.39503,-0.493204,0.95422\H,0,-2.3981,0.030102,-0.655401\H,0,-
 0.204156,-1.60223,-0.319913\H,0,1.84166,1.23194,-0.383065\H,0,2.43199,
 -1.02391,0.652036\N,0,-2.10857,-0.737596,-0.00737274\N,0,-0.645171,-0.
 754263,-0.0001359\N,0,1.38702,0.489242,0.185281\O,0,-0.702787,1.49983,
 -0.034484\O,0,1.98482,-0.745791,-0.146986\\Version=ES64L-G16RevC.01\St

 Normal termination of Gaussian 16 at Tue Apr  8 21:39:51 2025.
