 Gaussian 16, Revision C.01,

 ----------------------------------------------------------------------
 #t hf aug-cc-pvdz symm=none int=(grid=ultrafine) guess=(read,tcheck) s
 table=(opt,rrhf)
 ----------------------------------------------------------------------
 -----
 title
 -----
 Symbolic Z-matrix:
 Charge =  0 Multiplicity = 1

 SCF Done:  E(RHF) =  -868.296923346     A.U. after   16 cycles
 Normal termination of Gaussian 16 at Tue Apr  8 20:50:52 2025.
 Gaussian 16:  ES64L-G16RevC.01  3-Jul-2019

 ----------------------------------------------------------------------
 #t hf aug-cc-pvdz iop(5/13=1,5/36=2,99/5=2) pseudo=read geom=check gue
 ss=(read,tcheck) scf=(maxcycle=1)
 ----------------------------------------------------------------------
 -----
 title
 -----
 Structure from the checkpoint file:  "ANI1ccx_170_conf20_mol1.chk"
 Charge =  0 Multiplicity = 1

                         Standard orientation:
 ---------------------------------------------------------------------
 Center     Atomic      Atomic             Coordinates (Angstroms)
 Number     Number       Type             X           Y           Z
 ---------------------------------------------------------------------
      1          6           0        0.684949   -0.120302    0.919425
      2          6           0       -2.319910    2.012499   -0.342374
      3          6           0       -3.902430    0.509971    0.253382
      4          6           0       -2.498580   -1.499421   -0.366434
      5          6           0       -2.603800   -0.247296    0.482221
      6          6           0       -3.723080    1.617189   -0.791846
      7          6           0        3.868360   -0.620882   -1.205360
      8          6           0        2.970410   -0.390767   -0.158140
      9          6           0        1.569460   -0.951846    0.024181
     10          6           0       -0.247869    0.875991    0.271271
     11          6           0        4.714040    0.757522    0.180512
     12          1           0       -4.229640    0.967254    1.189630
     13          1           0       -0.862387   -1.773691    0.755696
     14          1           0       -1.801720    2.540509   -1.189160
     15          1           0       -2.260780    2.804609    0.476407
     16          1           0       -4.471650    2.426769   -0.726674
     17          1           0       -3.662200    1.473369   -1.928310
     18          1           0       -4.719930   -0.190095   -0.135532
     19          1           0       -2.366130   -0.535438    1.503600
     20          1           0        3.855540   -1.266380   -2.075800
     21          1           0        5.523370    1.324450    0.621266
     22          1           0        1.216650   -1.087490   -1.014310
     23          1           0        1.688130   -1.969110    0.379736
     24          1           0        1.502660    0.500122    1.458810
     25          1           0        0.621749   -1.661560    2.219070
     26          1           0       -0.664094   -0.625279    2.402970
     27          1           0        5.813810    0.275735   -1.494560
     28          7           0       -0.025396   -1.031840    1.755220
     29          7           0        3.589990    0.433934    0.788220
     30          7           0        4.949150    0.218720   -0.987689
     31          7           0       -1.591980    0.773788    0.103924
     32          8           0       -3.144900   -1.908431   -1.265190
     33          8           0        0.274683    1.934910    0.102701
     34          8           0       -1.467910   -2.229221   -0.045205
 ---------------------------------------------------------------------

 SCF Done:  E(RHF) =  -872.268841035     A.U. after    2 cycles

 The electronic state is 1-A.
 Alpha  occ. eigenvalues --  -21.03860 -21.01451 -21.01378 -15.80977 -15.78420
 Alpha  occ. eigenvalues --  -15.75080 -15.72183 -11.55597 -11.52397 -11.50203
 Alpha  occ. eigenvalues --  -11.47780 -11.46422 -11.45353 -11.44372 -11.43029
 Alpha  occ. eigenvalues --  -11.41992 -11.38664 -11.37974  -1.80625  -1.73177
 Alpha  occ. eigenvalues --   -1.60676  -1.57623  -1.46331  -1.41948  -1.28710
 Alpha  occ. eigenvalues --   -1.18926  -1.15835  -1.11252  -1.05832  -0.97634
 Alpha  occ. eigenvalues --   -0.91959  -0.86614  -0.85500  -0.80002  -0.79116
 Alpha  occ. eigenvalues --   -0.78005  -0.75855  -0.71895  -0.70839  -0.66564
 Alpha  occ. eigenvalues --   -0.65947  -0.63100  -0.62224  -0.60604  -0.59123
 Alpha  occ. eigenvalues --   -0.57777  -0.56158  -0.55620  -0.54539  -0.53249
 Alpha  occ. eigenvalues --   -0.52500  -0.51112  -0.50740  -0.48395  -0.47246
 Alpha  occ. eigenvalues --   -0.45154  -0.44238  -0.43972  -0.42249  -0.39385
 Alpha  occ. eigenvalues --   -0.36959  -0.34200  -0.30263  -0.29891  -0.29298
 Alpha  occ. eigenvalues --   -0.27346  -0.25768
 Alpha virt. eigenvalues --    0.02904   0.03661   0.04235   0.04672   0.04863
 Alpha virt. eigenvalues --    0.05422   0.05955   0.06336   0.06577   0.07218
 Alpha virt. eigenvalues --    0.07458   0.07667   0.08252   0.09016   0.09199

 Mulliken charges:
               1
     1  C   -1.561868
     2  C   -3.134014
     3  C   -2.489635
     4  C    7.255939
     5  C   -3.617635
     6  C   -3.217505
     7  C   -3.012461
     8  C    5.237765
     9  C   -3.058618
    10  C    7.446800
    11  C    1.215570
    12  H    1.163106
    13  H    2.177103
    14  H    1.639916
    15  H    1.505724
    16  H    1.299831
    17  H    1.175476
    18  H    1.312203
    19  H    2.104446
    20  H    1.183426
    21  H    1.721013
    22  H    1.491227
    23  H    1.609747
    24  H    1.600015
    25  H    0.606576
    26  H    0.767678
    27  H    0.906945
    28  N   -3.432689
    29  N   -3.691821
    30  N   -3.151166
    31  N   -1.630372
    32  O   -3.594735
    33  O   -3.956504
    34  O   -3.871483
 Sum of Mulliken charges =   0.00000

 Dipole moment (field-independent basis, Debye):
    X=              3.9681    Y=              0.7261    Z=              1.1254  Tot=              4.1880

 Test job not archived.
 1\1\GINC-SE187\SP\RHF\Aug-CC-pVDZ\C11H16N4O3\OHZDE\08-Apr-2025\0\\#t h
 f aug-cc-pvdz iop(5/13=1,5/36=2,99/5=2) pseudo=read geom=check guess=(
 read,tcheck) scf=(maxcycle=1)\\title\\0,1\C,0,0.684949,-0.120302,0.919
 425\C,0,-2.31991,2.0125,-0.342374\C,0,-3.90243,0.509972,0.253382\C,0,-
 2.49858,-1.49942,-0.366434\C,0,-2.6038,-0.247295,0.482221\C,0,-3.72308
 ,1.61719,-0.791846\C,0,3.86836,-0.620882,-1.20536\C,0,2.97041,-0.39076
 7,-0.15814\C,0,1.56946,-0.951846,0.0241818\C,0,-0.247869,0.875991,0.27
 1271\C,0,4.71404,0.757522,0.180512\H,0,-4.22964,0.967255,1.18963\H,0,-

 Normal termination of Gaussian 16 at Tue Apr  8 20:51:47 2025.
