 Gaussian 16, Revision C.01,

 ----------------------------------------------------------------------
 #t hf aug-cc-pvdz symm=none int=(grid=ultrafine) guess=(read,tcheck) s
 table=(opt,rrhf)
 ----------------------------------------------------------------------
 -----
 title
 -----
 Symbolic Z-matrix:
 Charge =  0 Multiplicity = 1

 SCF Done:  E(RHF) =  -794.387760072     A.U. after   14 cycles
 Normal termination of Gaussian 16 at Tue Apr  8 20:24:57 2025.
 Gaussian 16:  ES64L-G16RevC.01  3-Jul-2019

 ----------------------------------------------------------------------
 #t hf aug-cc-pvdz iop(5/13=1,5/36=2,99/5=2) pseudo=read geom=check gue
 ss=(read,tcheck) scf=(maxcycle=1)
 ----------------------------------------------------------------------
 -----
 title
 -----
 Structure from the checkpoint file:  "ANI1ccx_1592_conf24_mol1.chk"
 Charge =  0 Multiplicity = 1

                         Standard orientation:
 ---------------------------------------------------------------------
 Center     Atomic      Atomic             Coordinates (Angstroms)
 Number     Number       Type             X           Y           Z
 ---------------------------------------------------------------------
      1          6           0       -0.792020    0.589301    0.342646
      2          6           0        0.364843    1.462919   -0.028157
      3          6           0       -2.144598    1.248590    0.151330
      4          6           0       -3.411639    0.341511    0.455015
      5          6           0       -3.343579   -0.746422   -0.493232
      6          6           0        2.174681   -0.362908    0.591471
      7          6           0        3.488751   -0.625254   -0.284434
      8          6           0        1.351481   -1.564301    0.516499
      9          1           0        2.691361    0.736514   -1.290970
     10          1           0        0.313263   -1.287351    0.912870
     11          1           0        1.302250   -2.112431   -0.399659
     12          1           0        1.871500   -2.196591    1.261610
     13          1           0        2.561461   -0.258172    1.587370
     14          1           0        2.251502    1.805828    0.349414
     15          1           0       -3.008230   -2.532400   -0.778788
     16          1           0       -4.424989    0.823202    0.352650
     17          1           0       -3.353009   -0.104157    1.425620
     18          1           0       -2.053248    2.087180    0.849386
     19          1           0       -2.269718    1.593270   -0.824121
     20          1           0       -0.772033   -0.277872   -0.347712
     21          1           0       -1.390089   -0.216891    2.253920
     22          1           0       -0.072406    0.684145    2.319050
     23          7           0       -0.648956    0.126167    1.722890
     24          7           0        1.668221    0.958312    0.113963
     25          8           0        0.377208    2.614709   -0.405827
     26          8           0       -3.268899   -0.532198   -1.707540
     27          8           0       -3.355330   -1.969130   -0.034605
     28          8           0        4.420201   -1.291132    0.028883
     29          8           0        3.463071    0.128219   -1.385340
 ---------------------------------------------------------------------

 SCF Done:  E(RHF) =  -797.920839911     A.U. after    2 cycles

 The electronic state is 1-A.
 Alpha  occ. eigenvalues --  -21.14962 -21.10019 -21.06339 -21.05174 -21.04843
 Alpha  occ. eigenvalues --  -15.77613 -15.76972 -11.57404 -11.54495 -11.53121
 Alpha  occ. eigenvalues --  -11.50198 -11.48584 -11.45919 -11.42055 -11.39911
 Alpha  occ. eigenvalues --   -1.86540  -1.82324  -1.75199  -1.65652  -1.65632
 Alpha  occ. eigenvalues --   -1.43424  -1.37870  -1.21526  -1.17518  -1.09367
 Alpha  occ. eigenvalues --   -0.98240  -0.93022  -0.82306  -0.79646  -0.78337
 Alpha  occ. eigenvalues --   -0.73125  -0.73051  -0.71387  -0.70471  -0.66404
 Alpha  occ. eigenvalues --   -0.65044  -0.63921  -0.62844  -0.60149  -0.57244
 Alpha  occ. eigenvalues --   -0.56423  -0.54672  -0.53728  -0.52743  -0.51454
 Alpha  occ. eigenvalues --   -0.50806  -0.50185  -0.48851  -0.46534  -0.45421
 Alpha  occ. eigenvalues --   -0.43734  -0.37085  -0.34983  -0.34746  -0.33022
 Alpha  occ. eigenvalues --   -0.32346  -0.31015  -0.27631
 Alpha virt. eigenvalues --    0.03009   0.03287   0.04112   0.04577   0.04963
 Alpha virt. eigenvalues --    0.05580   0.05989   0.06364   0.06997   0.07486
 Alpha virt. eigenvalues --    0.07736   0.08448   0.09078   0.09428   0.09965

 Mulliken charges:
               1
     1  C   -2.086349
     2  C    7.067336
     3  C   -3.325140
     4  C   -4.460472
     5  C    7.107386
     6  C   -2.299688
     7  C    6.682550
     8  C   -3.747908
     9  H    1.370690
    10  H    1.916367
    11  H    1.252974
    12  H    0.971200
    13  H    1.567349
    14  H    0.552245
    15  H    0.704735
    16  H    1.240266
    17  H    1.573447
    18  H    1.270369
    19  H    1.305838
    20  H    2.470336
    21  H    0.816124
    22  H    0.679892
    23  N   -2.819684
    24  N   -2.534412
    25  O   -3.782932
    26  O   -3.201072
    27  O   -3.355655
    28  O   -3.430790
    29  O   -3.505001
 Sum of Mulliken charges =   0.00000

 Dipole moment (field-independent basis, Debye):
    X=             -3.2839    Y=              0.2209    Z=              3.0073  Tot=              4.4583

 Test job not archived.
 1\1\GINC-SE187\SP\RHF\Aug-CC-pVDZ\C8H14N2O5\OHZDE\08-Apr-2025\0\\#t hf
  aug-cc-pvdz iop(5/13=1,5/36=2,99/5=2) pseudo=read geom=check guess=(r
 ead,tcheck) scf=(maxcycle=1)\\title\\0,1\C,0,-0.792021,0.589302,0.3426
 46\C,0,0.364841,1.46292,-0.0281564\C,0,-2.1446,1.24859,0.15133\C,0,-3.
 41164,0.341511,0.455015\C,0,-3.34358,-0.746422,-0.493232\C,0,2.17468,-
 0.362906,0.591471\C,0,3.48875,-0.625252,-0.284434\C,0,1.35148,-1.5643,
 0.516499\H,0,2.69136,0.736516,-1.29097\H,0,0.313262,-1.28735,0.91287\H
 ,0,1.30225,-2.11243,-0.399659\H,0,1.8715,-2.19659,1.26161\H,0,2.56146,

 Normal termination of Gaussian 16 at Tue Apr  8 20:25:30 2025.
