 Gaussian 16, Revision C.01,

 ----------------------------------------------------------------------
 #t hf aug-cc-pvdz symm=none int=(grid=ultrafine) guess=(read,tcheck) s
 table=(opt,rrhf)
 ----------------------------------------------------------------------
 -----
 title
 -----
 Symbolic Z-matrix:
 Charge =  0 Multiplicity = 1

 SCF Done:  E(RHF) =  -656.446675987     A.U. after   17 cycles
 Normal termination of Gaussian 16 at Tue Apr  8 20:05:54 2025.
 Gaussian 16:  ES64L-G16RevC.01  3-Jul-2019

 ----------------------------------------------------------------------
 #t hf aug-cc-pvdz iop(5/13=1,5/36=2,99/5=2) pseudo=read geom=check gue
 ss=(read,tcheck) scf=(maxcycle=1)
 ----------------------------------------------------------------------
 -----
 title
 -----
 Structure from the checkpoint file:  "ANI1ccx_1562_conf1_mol2.chk"
 Charge =  0 Multiplicity = 1

                         Standard orientation:
 ---------------------------------------------------------------------
 Center     Atomic      Atomic             Coordinates (Angstroms)
 Number     Number       Type             X           Y           Z
 ---------------------------------------------------------------------
      1          6           0        4.211280   -1.002880    0.213398
      2          6           0        1.943510   -0.083761    0.080199
      3          6           0        1.635730    2.128011   -0.221919
      4          6           0       -0.271478    0.880682   -0.087501
      5          6           0       -2.526380    0.061601    0.729896
      6          6           0       -3.632270   -0.431681   -0.155496
      7          6           0       -4.918690   -0.188307    0.071900
      8          6           0        0.525899   -0.295898   -0.016060
      9          1           0       -5.693780   -0.555319   -0.596846
     10          1           0       -5.238120    0.385254    0.943145
     11          1           0       -3.306450   -1.007099   -1.016610
     12          1           0       -1.966600   -0.776284    1.133310
     13          1           0       -2.939130    0.635439    1.576400
     14          1           0        2.085660    3.110951   -0.370583
     15          1           0        2.344530   -2.040199    0.193173
     16          1           0        4.636640   -1.984030    0.418105
     17          1           0        4.586250   -0.635875   -0.751061
     18          1           0        4.545830   -0.294653    0.973104
     19          1           0       -1.942330    1.890611   -0.141224
     20          7           0        0.169260   -1.618569   -0.227884
     21          7           0        2.770880   -1.128069    0.229113
     22          7           0        2.499090    1.136341   -0.002239
     23          7           0        0.315457    2.092541   -0.269305
     24          7           0       -1.610560    0.939845   -0.001258
     25          8           0       -0.990872   -1.886249   -0.518300
 ---------------------------------------------------------------------

 SCF Done:  E(RHF) =  -659.457287346     A.U. after    2 cycles

 The electronic state is 1-A.
 Alpha  occ. eigenvalues --  -21.08207 -15.85128 -15.77417 -15.77073 -15.72685
 Alpha  occ. eigenvalues --  -15.72355 -11.55133 -11.52824 -11.46380 -11.46136
 Alpha  occ. eigenvalues --  -11.40905 -11.40828 -11.40485 -11.37375  -1.83166
 Alpha  occ. eigenvalues --   -1.55760  -1.46235  -1.39023  -1.27721  -1.22786
 Alpha  occ. eigenvalues --   -1.16695  -1.03996  -1.02440  -0.96995  -0.88743
 Alpha  occ. eigenvalues --   -0.83738  -0.80088  -0.76688  -0.70225  -0.68280
 Alpha  occ. eigenvalues --   -0.64915  -0.64454  -0.62814  -0.61374  -0.59808
 Alpha  occ. eigenvalues --   -0.58521  -0.58120  -0.56271  -0.54989  -0.52978
 Alpha  occ. eigenvalues --   -0.51579  -0.50865  -0.49399  -0.46832  -0.43136
 Alpha  occ. eigenvalues --   -0.41335  -0.35929  -0.35158  -0.31039  -0.29627
 Alpha  occ. eigenvalues --   -0.26275
 Alpha virt. eigenvalues --    0.03453   0.04742   0.04972   0.05563   0.05896
 Alpha virt. eigenvalues --    0.06402   0.06561   0.07055   0.07133   0.07537
 Alpha virt. eigenvalues --    0.08057   0.08472   0.09352   0.10765   0.11171

 Mulliken charges:
               1
     1  C   -3.875661
     2  C    5.936517
     3  C    0.633652
     4  C    5.259739
     5  C   -4.325505
     6  C    0.029269
     7  C   -3.685935
     8  C    1.324785
     9  H    1.351846
    10  H    1.457597
    11  H    1.609071
    12  H    2.165655
    13  H    1.234697
    14  H    1.875367
    15  H    0.712343
    16  H    1.480285
    17  H    1.360820
    18  H    1.432663
    19  H    0.825273
    20  N    0.462938
    21  N   -3.972906
    22  N   -3.847008
    23  N   -3.936804
    24  N   -2.889425
    25  O   -2.619273
 Sum of Mulliken charges =   0.00000

 Dipole moment (field-independent basis, Debye):
    X=             -0.3652    Y=             -0.6197    Z=              0.6971  Tot=              1.0017

 Test job not archived.
 1\1\GINC-SE461\SP\RHF\Aug-CC-pVDZ\C8H11N5O1\OHZDE\08-Apr-2025\0\\#t hf
  aug-cc-pvdz iop(5/13=1,5/36=2,99/5=2) pseudo=read geom=check guess=(r
 ead,tcheck) scf=(maxcycle=1)\\title\\0,1\C,0,4.21128,-1.00288,0.213398
 \C,0,1.94351,-0.0837617,0.0801996\C,0,1.63573,2.12801,-0.221919\C,0,-0
 .271478,0.880681,-0.0875007\C,0,-2.52638,0.0615999,0.729896\C,0,-3.632
 27,-0.431682,-0.155496\C,0,-4.91869,-0.188308,0.0719006\C,0,0.525899,-
 0.295899,-0.0160599\H,0,-5.69378,-0.55532,-0.596846\H,0,-5.23812,0.385
 253,0.943145\H,0,-3.30645,-1.0071,-1.01661\H,0,-1.9666,-0.776285,1.133

 Normal termination of Gaussian 16 at Tue Apr  8 20:06:16 2025.
