 Gaussian 16, Revision C.01,

 ----------------------------------------------------------------------
 #t hf aug-cc-pvdz symm=none int=(grid=ultrafine) guess=(read,tcheck) s
 table=(opt,rrhf)
 ----------------------------------------------------------------------
 -----
 title
 -----
 Symbolic Z-matrix:
 Charge =  0 Multiplicity = 1

 SCF Done:  E(RHF) =  -348.527947029     A.U. after   16 cycles
 Normal termination of Gaussian 16 at Tue Apr  8 21:42:47 2025.
 Gaussian 16:  ES64L-G16RevC.01  3-Jul-2019

 ----------------------------------------------------------------------
 #t hf aug-cc-pvdz iop(5/13=1,5/36=2,99/5=2) pseudo=read geom=check gue
 ss=(read,tcheck) scf=(maxcycle=1)
 ----------------------------------------------------------------------
 -----
 title
 -----
 Structure from the checkpoint file:  "ANI1ccx_476_conf2_mol2.chk"
 Charge =  0 Multiplicity = 1

                         Standard orientation:
 ---------------------------------------------------------------------
 Center     Atomic      Atomic             Coordinates (Angstroms)
 Number     Number       Type             X           Y           Z
 ---------------------------------------------------------------------
      1          6           0        1.720031    0.023347   -0.038486
      2          6           0        0.294802    0.034842   -0.059429
      3          1           0       -2.444448   -1.149921    0.126492
      4          7           0        2.860541   -0.033910    0.057692
      5          7           0       -0.493850    1.138199   -0.007956
      6          7           0       -1.707939    0.714209    0.025647
      7          7           0       -1.618669   -0.601299    0.010998
      8          7           0       -0.417877   -1.102801   -0.020522
 ---------------------------------------------------------------------

 SCF Done:  E(RHF) =  -350.046378423     A.U. after    2 cycles

 The electronic state is 1-A.
 Alpha  occ. eigenvalues --  -15.90534 -15.85865 -15.84413 -15.81781 -15.79309
 Alpha  occ. eigenvalues --  -11.52116 -11.45868  -1.81985  -1.44608  -1.37018
 Alpha  occ. eigenvalues --   -1.30032  -0.99463  -0.95742  -0.82619  -0.73659
 Alpha  occ. eigenvalues --   -0.70528  -0.59048  -0.54557  -0.52254  -0.49005
 Alpha  occ. eigenvalues --   -0.48252  -0.45770  -0.44321  -0.39304
 Alpha virt. eigenvalues --    0.02856   0.07491   0.09910   0.10374   0.10772
 Alpha virt. eigenvalues --    0.11607   0.11817   0.12878   0.13297   0.13659
 Alpha virt. eigenvalues --    0.14106   0.14696   0.16185   0.17437   0.18389

 Mulliken charges:
               1
     1  C    1.899278
     2  C    4.299197
     3  H    1.025317
     4  N   -2.567770
     5  N   -2.002657
     6  N   -0.261898
     7  N    0.173377
     8  N   -2.564844
 Sum of Mulliken charges =  -0.00000

 Dipole moment (field-independent basis, Debye):
    X=             -4.1945    Y=             -2.0053    Z=              0.0657  Tot=              4.6497

 Test job not archived.
 1\1\GINC-SE455\SP\RHF\Aug-CC-pVDZ\C2H1N5\OHZDE\08-Apr-2025\0\\#t hf au
 g-cc-pvdz iop(5/13=1,5/36=2,99/5=2) pseudo=read geom=check guess=(read
 ,tcheck) scf=(maxcycle=1)\\title\\0,1\C,0,1.72003,0.0233471,-0.0384863
 \C,0,0.294801,0.034843,-0.0594293\H,0,-2.44445,-1.14992,0.126492\N,0,2
 .86054,-0.0339096,0.0576916\N,0,-0.493851,1.1382,-0.00795643\N,0,-1.70
 794,0.71421,0.025647\N,0,-1.61867,-0.601298,0.0109976\N,0,-0.417879,-1
 .1028,-0.0205223\\Version=ES64L-G16RevC.01\State=1-A\HF=-350.0463784\R
 MSD=4.714e-01\Dipole=-1.6502493,-0.7889637,0.0258572\Quadrupole=-0.733

 Normal termination of Gaussian 16 at Tue Apr  8 21:42:49 2025.
