 Gaussian 16, Revision C.01,

 ----------------------------------------------------------------------
 #t hf aug-cc-pvdz symm=none int=(grid=ultrafine) guess=(read,tcheck) s
 table=(opt,rrhf)
 ----------------------------------------------------------------------
 -----
 title
 -----
 Symbolic Z-matrix:
 Charge =  0 Multiplicity = 1

 SCF Done:  E(RHF) =  -697.983717347     A.U. after   17 cycles
 Normal termination of Gaussian 16 at Tue Apr  8 20:04:26 2025.
 Gaussian 16:  ES64L-G16RevC.01  3-Jul-2019

 ----------------------------------------------------------------------
 #t hf aug-cc-pvdz iop(5/13=1,5/36=2,99/5=2) pseudo=read geom=check gue
 ss=(read,tcheck) scf=(maxcycle=1)
 ----------------------------------------------------------------------
 -----
 title
 -----
 Structure from the checkpoint file:  "ANI1ccx_1468_conf4_mol2.chk"
 Charge =  0 Multiplicity = 1

                         Standard orientation:
 ---------------------------------------------------------------------
 Center     Atomic      Atomic             Coordinates (Angstroms)
 Number     Number       Type             X           Y           Z
 ---------------------------------------------------------------------
      1          6           0        2.878162   -1.946577   -0.024580
      2          6           0        1.364372   -1.670848    0.238988
      3          6           0        1.175671   -0.629786    1.359470
      4          6           0       -0.264089   -0.205530    1.408950
      5          6           0       -2.208430    0.947945    0.310479
      6          6           0       -3.248109   -0.118035    0.375695
      7          6           0       -3.337119   -0.978752   -0.872321
      8          1           0        1.178829    2.678742    0.347771
      9          1           0       -1.374269   -1.469580   -0.986055
     10          1           0       -2.306448   -2.571541   -0.220880
     11          1           0       -3.346309   -0.307417   -1.733630
     12          1           0       -4.279958   -1.530042   -0.904073
     13          1           0       -4.212910    0.384968    0.460904
     14          1           0       -3.127269   -0.693656    1.293420
     15          1           0       -2.318581    1.530649    1.220990
     16          1           0       -2.375981    1.639239   -0.515591
     17          1           0       -0.948089   -1.070980    1.569590
     18          1           0       -0.459975    0.470995    2.229430
     19          1           0        1.865880    0.212848    1.282030
     20          1           0        1.455131   -1.104868    2.298180
     21          1           0        0.946526   -1.322928   -0.730669
     22          1           0        0.800870   -2.576258    0.508069
     23          1           0        3.415332   -2.369696    0.826097
     24          1           0        2.911972   -2.708787   -0.796365
     25          1           0        3.794551   -0.176093    0.272552
     26          1           0        3.083871   -0.307056   -1.190420
     27          7           0        3.619251   -0.813827   -0.485846
     28          7           0       -0.829395    0.444171    0.213162
     29          7           0       -2.257888   -1.942371   -1.010770
     30          7           0       -0.012835    1.477831   -0.211985
     31          7           0        0.933863    1.214432   -1.141450
     32          8           0        0.313281    2.442511    0.723072
     33          8           0        1.807109    2.087402   -1.167220
 ---------------------------------------------------------------------

 SCF Done:  E(RHF) =  -701.275655283     A.U. after    2 cycles

 The electronic state is 1-A.
 Alpha  occ. eigenvalues --  -21.12489 -21.10626 -15.90941 -15.84471 -15.76811
 Alpha  occ. eigenvalues --  -15.71936 -15.71913 -11.47840 -11.46461 -11.42895
 Alpha  occ. eigenvalues --  -11.42699 -11.40970 -11.37119 -11.36776  -1.94097
 Alpha  occ. eigenvalues --   -1.79820  -1.52657  -1.35264  -1.34889  -1.28185
 Alpha  occ. eigenvalues --   -1.20447  -1.13603  -1.03774  -0.96599  -0.93371
 Alpha  occ. eigenvalues --   -0.86422  -0.85326  -0.80762  -0.76327  -0.72123
 Alpha  occ. eigenvalues --   -0.70276  -0.68147  -0.67069  -0.63670  -0.62928
 Alpha  occ. eigenvalues --   -0.62258  -0.60876  -0.58704  -0.56775  -0.55132
 Alpha  occ. eigenvalues --   -0.54359  -0.52931  -0.51211  -0.51037  -0.49077
 Alpha  occ. eigenvalues --   -0.48410  -0.47542  -0.47062  -0.46432  -0.44493
 Alpha  occ. eigenvalues --   -0.43434  -0.37658  -0.33194  -0.32581  -0.31590
 Alpha  occ. eigenvalues --   -0.29093
 Alpha virt. eigenvalues --    0.03981   0.04374   0.04785   0.04884   0.05057
 Alpha virt. eigenvalues --    0.05472   0.05658   0.06110   0.06538   0.06821
 Alpha virt. eigenvalues --    0.07216   0.07428   0.07715   0.08289   0.09316

 Mulliken charges:
               1
     1  C   -2.762748
     2  C   -2.832565
     3  C   -2.887159
     4  C   -3.593602
     5  C   -2.458307
     6  C   -2.946729
     7  C   -1.964653
     8  H    1.027522
     9  H    0.999006
    10  H    0.512606
    11  H    1.436285
    12  H    1.400577
    13  H    1.191154
    14  H    1.343529
    15  H    1.629122
    16  H    1.561803
    17  H    1.861747
    18  H    1.413987
    19  H    1.785373
    20  H    1.238611
    21  H    2.248337
    22  H    1.380229
    23  H    1.553112
    24  H    1.100750
    25  H    0.616803
    26  H    0.661374
    27  N   -2.360518
    28  N    1.734522
    29  N   -2.620940
    30  N    2.357101
    31  N    0.937105
    32  O   -3.160010
    33  O   -2.403421
 Sum of Mulliken charges =   0.00000

 Dipole moment (field-independent basis, Debye):
    X=             -1.9142    Y=              0.8290    Z=              3.3702  Tot=              3.9635

 Test job not archived.
 1\1\GINC-SE099\SP\RHF\Aug-CC-pVDZ\C7H19N5O2\OHZDE\08-Apr-2025\0\\#t hf
  aug-cc-pvdz iop(5/13=1,5/36=2,99/5=2) pseudo=read geom=check guess=(r
 ead,tcheck) scf=(maxcycle=1)\\title\\0,1\C,0,2.87816,-1.94658,-0.02458
 02\C,0,1.36437,-1.67085,0.238988\C,0,1.17567,-0.629788,1.35947\C,0,-0.
 26409,-0.205531,1.40895\C,0,-2.20843,0.947945,0.310479\C,0,-3.24811,-0
 .118034,0.375695\C,0,-3.33712,-0.978751,-0.872321\H,0,1.17883,2.67874,
 0.347771\H,0,-1.37427,-1.46958,-0.986055\H,0,-2.30645,-2.57154,-0.2208
 8\H,0,-3.34631,-0.307416,-1.73363\H,0,-4.27996,-1.53004,-0.904073\H,0,

 Normal termination of Gaussian 16 at Tue Apr  8 20:05:07 2025.
