 Gaussian 16, Revision C.01,

 ----------------------------------------------------------------------
 #t hf aug-cc-pvdz symm=none int=(grid=ultrafine) guess=(read,tcheck) s
 table=(opt,rrhf)
 ----------------------------------------------------------------------
 -----
 title
 -----
 Symbolic Z-matrix:
 Charge =  0 Multiplicity = 1

 SCF Done:  E(RHF) =  -336.775799351     A.U. after   13 cycles
 Normal termination of Gaussian 16 at Tue Apr  8 21:45:51 2025.
 Gaussian 16:  ES64L-G16RevC.01  3-Jul-2019

 ----------------------------------------------------------------------
 #t hf aug-cc-pvdz iop(5/13=1,5/36=2,99/5=2) pseudo=read geom=check gue
 ss=(read,tcheck) scf=(maxcycle=1)
 ----------------------------------------------------------------------
 -----
 title
 -----
 Structure from the checkpoint file:  "ANI1ccx_515_conf4_mol1.chk"
 Charge =  0 Multiplicity = 1

                         Standard orientation:
 ---------------------------------------------------------------------
 Center     Atomic      Atomic             Coordinates (Angstroms)
 Number     Number       Type             X           Y           Z
 ---------------------------------------------------------------------
      1          6           0       -0.754545    0.251016    0.019238
      2          6           0        0.706502   -0.217636   -0.003889
      3          1           0       -2.575171   -0.739210   -0.001183
      4          1           0       -1.056683   -1.723306    0.022168
      5          1           0        2.589292    0.633965    0.082355
      6          1           0        1.244594    1.768479    0.147873
      7          7           0       -1.555131   -0.835731   -0.045918
      8          7           0        1.587652    0.800259   -0.078454
      9          8           0       -1.038746    1.432773    0.026682
     10          8           0        1.021068   -1.419261    0.039230
 ---------------------------------------------------------------------

 SCF Done:  E(RHF) =  -338.216745360     A.U. after    2 cycles

 The electronic state is 1-A.
 Alpha  occ. eigenvalues --  -21.05525 -21.04999 -15.79272 -15.79213 -11.53795
 Alpha  occ. eigenvalues --  -11.49287  -1.74629  -1.69911  -1.36269  -1.35302
 Alpha  occ. eigenvalues --   -0.97124  -0.79088  -0.75412  -0.69756  -0.61219
 Alpha  occ. eigenvalues --   -0.59600  -0.56234  -0.50509  -0.48736  -0.37523
 Alpha  occ. eigenvalues --   -0.35411  -0.33177  -0.27570
 Alpha virt. eigenvalues --    0.03363   0.05123   0.06583   0.07065   0.10253
 Alpha virt. eigenvalues --    0.11903   0.12013   0.12373   0.12500   0.12624
 Alpha virt. eigenvalues --    0.14915   0.16073   0.16929   0.17308   0.18834

 Mulliken charges:
               1
     1  C    4.365349
     2  C    4.324205
     3  H    0.744860
     4  H    0.778838
     5  H    0.706006
     6  H    0.718157
     7  N   -2.742454
     8  N   -2.785978
     9  O   -3.044355
    10  O   -3.064629
 Sum of Mulliken charges =  -0.00000

 Dipole moment (field-independent basis, Debye):
    X=              0.0689    Y=             -0.0363    Z=              0.5088  Tot=              0.5147

 Test job not archived.
 1\1\GINC-SE088\SP\RHF\Aug-CC-pVDZ\C2H4N2O2\OHZDE\08-Apr-2025\0\\#t hf
 aug-cc-pvdz iop(5/13=1,5/36=2,99/5=2) pseudo=read geom=check guess=(re
 ad,tcheck) scf=(maxcycle=1)\\title\\0,1\C,0,-0.754546,0.251013,0.01923
 79\C,0,0.706502,-0.217636,-0.00388939\H,0,-2.57517,-0.739217,-0.001183
 19\H,0,-1.05668,-1.72331,0.0221682\H,0,2.58929,0.633969,0.0823553\H,0,
 1.24459,1.76848,0.147873\N,0,-1.55513,-0.835736,-0.0459182\N,0,1.58765
 ,0.800261,-0.0784544\O,0,-1.03875,1.43277,0.0266825\O,0,1.02107,-1.419
 26,0.0392305\\Version=ES64L-G16RevC.01\State=1-A\HF=-338.2167454\RMSD=

 Normal termination of Gaussian 16 at Tue Apr  8 21:45:54 2025.
