 Gaussian 16, Revision C.01,

 ----------------------------------------------------------------------
 #t hf aug-cc-pvdz symm=none int=(grid=ultrafine) guess=(read,tcheck) s
 table=(opt,rrhf)
 ----------------------------------------------------------------------
 -----
 title
 -----
 Symbolic Z-matrix:
 Charge =  0 Multiplicity = 1

 SCF Done:  E(RHF) =  -431.110113850     A.U. after   16 cycles
 Normal termination of Gaussian 16 at Tue Apr  8 22:00:41 2025.
 Gaussian 16:  ES64L-G16RevC.01  3-Jul-2019

 ----------------------------------------------------------------------
 #t hf aug-cc-pvdz iop(5/13=1,5/36=2,99/5=2) pseudo=read geom=check gue
 ss=(read,tcheck) scf=(maxcycle=1)
 ----------------------------------------------------------------------
 -----
 title
 -----
 Structure from the checkpoint file:  "ANI1ccx_844_conf1_mol1.chk"
 Charge =  0 Multiplicity = 1

                         Standard orientation:
 ---------------------------------------------------------------------
 Center     Atomic      Atomic             Coordinates (Angstroms)
 Number     Number       Type             X           Y           Z
 ---------------------------------------------------------------------
      1          6           0       -1.430391   -0.286124   -0.013844
      2          6           0        0.090380    1.288180    0.009319
      3          6           0        0.722175    0.092797   -0.122154
      4          6           0        2.103049   -0.208039   -0.045602
      5          1           0        0.393291    2.280970    0.178344
      6          7           0        3.217499   -0.390076    0.105328
      7          8           0       -2.506401   -0.802615    0.082967
      8          8           0       -1.247171    1.074450   -0.009705
      9          8           0       -0.224810   -0.880749   -0.058508
 ---------------------------------------------------------------------

 SCF Done:  E(RHF) =  -432.889729854     A.U. after    2 cycles

 The electronic state is 1-A.
 Alpha  occ. eigenvalues --  -21.18484 -21.18109 -21.09263 -15.80482 -11.59503
 Alpha  occ. eigenvalues --  -11.56833 -11.51496 -11.47810  -2.03256  -1.80430
 Alpha  occ. eigenvalues --   -1.72806  -1.35644  -1.18145  -0.96896  -0.89148
 Alpha  occ. eigenvalues --   -0.82618  -0.71678  -0.69957  -0.58880  -0.56664
 Alpha  occ. eigenvalues --   -0.55565  -0.55060  -0.49197  -0.49171  -0.47767
 Alpha  occ. eigenvalues --   -0.45909  -0.35326  -0.29494
 Alpha virt. eigenvalues --    0.02264   0.06166   0.07295   0.08129   0.09396
 Alpha virt. eigenvalues --    0.09792   0.10500   0.10664   0.11360   0.12207
 Alpha virt. eigenvalues --    0.12341   0.13317   0.13728   0.14988   0.15571

 Mulliken charges:
               1
     1  C    6.905331
     2  C   -0.271591
     3  C    3.100442
     4  C    1.964414
     5  H    1.259002
     6  N   -2.700060
     7  O   -3.343256
     8  O   -3.175633
     9  O   -3.738649
 Sum of Mulliken charges =  -0.00000

 Dipole moment (field-independent basis, Debye):
    X=             -0.6920    Y=              2.4713    Z=             -0.0019  Tot=              2.5664

 Test job not archived.
 1\1\GINC-SE331\SP\RHF\Aug-CC-pVDZ\C4H1N1O3\OHZDE\08-Apr-2025\0\\#t hf
 aug-cc-pvdz iop(5/13=1,5/36=2,99/5=2) pseudo=read geom=check guess=(re
 ad,tcheck) scf=(maxcycle=1)\\title\\0,1\C,0,-1.43039,-0.286124,-0.0138
 435\C,0,0.0903815,1.28818,0.00931945\C,0,0.722176,0.0927975,-0.122154\
 C,0,2.10305,-0.208039,-0.0456016\H,0,0.393292,2.28097,0.178344\N,0,3.2
 175,-0.390076,0.105328\O,0,-2.5064,-0.802615,0.0829674\O,0,-1.24717,1.
 07445,-0.0097048\O,0,-0.224809,-0.880749,-0.0585078\\Version=ES64L-G16
 RevC.01\State=1-A\HF=-432.8897299\RMSD=7.052e-01\Dipole=-0.2722689,0.9

 Normal termination of Gaussian 16 at Tue Apr  8 22:00:44 2025.
