 Gaussian 16, Revision C.01,

 ----------------------------------------------------------------------
 #t hf aug-cc-pvdz symm=none int=(grid=ultrafine) guess=(read,tcheck) s
 table=(opt,rrhf)
 ----------------------------------------------------------------------
 -----
 title
 -----
 Symbolic Z-matrix:
 Charge =  0 Multiplicity = 1

 SCF Done:  E(RHF) =  -869.338363528     A.U. after   14 cycles
 Normal termination of Gaussian 16 at Tue Apr  8 20:27:44 2025.
 Gaussian 16:  ES64L-G16RevC.01  3-Jul-2019

 ----------------------------------------------------------------------
 #t hf aug-cc-pvdz iop(5/13=1,5/36=2,99/5=2) pseudo=read geom=check gue
 ss=(read,tcheck) scf=(maxcycle=1)
 ----------------------------------------------------------------------
 -----
 title
 -----
 Structure from the checkpoint file:  "ANI1ccx_1593_conf1_mol1.chk"
 Charge =  0 Multiplicity = 1

                         Standard orientation:
 ---------------------------------------------------------------------
 Center     Atomic      Atomic             Coordinates (Angstroms)
 Number     Number       Type             X           Y           Z
 ---------------------------------------------------------------------
      1          6           0       -1.613539   -0.495843   -0.122220
      2          6           0       -0.338230    0.245702   -0.521987
      3          6           0       -2.742219    0.547939   -0.130237
      4          6           0       -4.118269   -0.014418   -0.003222
      5          6           0        2.044911    0.137563   -0.490950
      6          6           0        2.896200   -1.085561   -0.666538
      7          6           0        2.889171    1.070499    0.443335
      8          6           0        2.378321    2.476010    0.322474
      9          1           0        2.993730   -2.850591   -0.182089
     10          1           0        2.863201    3.165309    1.008610
     11          1           0        1.305131    2.467440    0.465690
     12          1           0        2.575071    2.825710   -0.700938
     13          1           0        1.849671    0.501970    2.041040
     14          1           0        3.924321    1.033229    0.146942
     15          1           0        1.899921    0.681165   -1.401980
     16          1           0        0.717352   -1.033980    0.619927
     17          1           0       -5.884109    0.353866   -0.323928
     18          1           0       -2.490959    1.210320    0.735341
     19          1           0       -2.554159    1.123440   -1.045910
     20          1           0       -1.772160   -1.298270   -0.800800
     21          1           0       -1.500019   -0.317840    1.951900
     22          1           0       -2.228230   -1.761770    1.350230
     23          7           0       -1.510240   -1.086950    1.247340
     24          7           0        0.761667   -0.198392    0.091663
     25          8           0       -0.334494    1.230670   -1.228260
     26          8           0       -4.392490   -0.995788    0.613149
     27          8           0       -5.038299    0.667032   -0.699743
     28          8           0        3.990970   -1.087801   -1.112900
     29          8           0        2.820871    0.568544    1.754520
     30          8           0        2.348840   -2.181900   -0.104392
 ---------------------------------------------------------------------

 SCF Done:  E(RHF) =  -873.138283516     A.U. after    2 cycles

 The electronic state is 1-A.
 Alpha  occ. eigenvalues --  -21.13811 -21.13475 -21.06706 -21.06680 -21.06310
 Alpha  occ. eigenvalues --  -21.03990 -15.77324 -15.74734 -11.55183 -11.54782
 Alpha  occ. eigenvalues --  -11.54191 -11.49640 -11.48074 -11.43845 -11.41389
 Alpha  occ. eigenvalues --  -11.37450  -1.86167  -1.85376  -1.73943  -1.71667
 Alpha  occ. eigenvalues --   -1.67711  -1.67221  -1.43697  -1.35597  -1.17359
 Alpha  occ. eigenvalues --   -1.14648  -1.06895  -0.98414  -0.87890  -0.83729
 Alpha  occ. eigenvalues --   -0.82680  -0.80321  -0.73271  -0.70157  -0.68407
 Alpha  occ. eigenvalues --   -0.66101  -0.64085  -0.63057  -0.62375  -0.61427
 Alpha  occ. eigenvalues --   -0.60657  -0.59765  -0.58798  -0.55666  -0.54519
 Alpha  occ. eigenvalues --   -0.54182  -0.52501  -0.50599  -0.49670  -0.49376
 Alpha  occ. eigenvalues --   -0.48715  -0.46804  -0.45629  -0.39554  -0.37554
 Alpha  occ. eigenvalues --   -0.35939  -0.35589  -0.35064  -0.31638  -0.30796
 Alpha  occ. eigenvalues --   -0.30009  -0.29163
 Alpha virt. eigenvalues --    0.03527   0.04261   0.04526   0.04838   0.05674
 Alpha virt. eigenvalues --    0.05814   0.06122   0.06857   0.06971   0.07379
 Alpha virt. eigenvalues --    0.07839   0.08413   0.08999   0.09988   0.10716

 Mulliken charges:
               1
     1  C   -2.508482
     2  C    7.458827
     3  C   -3.929234
     4  C    6.617223
     5  C   -5.103526
     6  C    8.541234
     7  C    1.531821
     8  C   -4.299081
     9  H    1.019497
    10  H    1.112048
    11  H    1.384866
    12  H    1.127462
    13  H    0.726943
    14  H    1.901724
    15  H    2.087094
    16  H    0.909772
    17  H    0.877515
    18  H    1.438472
    19  H    1.465266
    20  H    2.026325
    21  H    0.514413
    22  H    0.836326
    23  N   -2.528116
    24  N   -2.332669
    25  O   -3.718955
    26  O   -3.302130
    27  O   -3.182510
    28  O   -3.671624
    29  O   -3.538538
    30  O   -3.461962
 Sum of Mulliken charges =  -0.00000

 Dipole moment (field-independent basis, Debye):
    X=             -1.7292    Y=             -0.6563    Z=              0.8227  Tot=              2.0243

 Test job not archived.
 1\1\GINC-SE116\SP\RHF\Aug-CC-pVDZ\C8H14N2O6\OHZDE\08-Apr-2025\0\\#t hf
  aug-cc-pvdz iop(5/13=1,5/36=2,99/5=2) pseudo=read geom=check guess=(r
 ead,tcheck) scf=(maxcycle=1)\\title\\0,1\C,0,-1.61354,-0.495843,-0.122
 22\C,0,-0.338231,0.245702,-0.521987\C,0,-2.74222,0.547939,-0.130237\C,
 0,-4.11827,-0.014418,-0.00322198\C,0,2.04491,0.137563,-0.49095\C,0,2.8
 962,-1.08556,-0.666538\C,0,2.88917,1.0705,0.443335\C,0,2.37832,2.47601
 ,0.322474\H,0,2.99373,-2.85059,-0.182089\H,0,2.8632,3.16531,1.00861\H,
 0,1.30513,2.46744,0.46569\H,0,2.57507,2.82571,-0.700938\H,0,1.84967,0.

 Normal termination of Gaussian 16 at Tue Apr  8 20:28:21 2025.
