 Gaussian 16, Revision C.01,

 ----------------------------------------------------------------------
 #t hf aug-cc-pvdz symm=none int=(grid=ultrafine) guess=(read,tcheck) s
 table=(opt,rrhf)
 ----------------------------------------------------------------------
 -----
 title
 -----
 Symbolic Z-matrix:
 Charge =  0 Multiplicity = 1

 SCF Done:  E(RHF) =  -455.623442185     A.U. after   15 cycles
 Normal termination of Gaussian 16 at Tue Apr  8 22:16:52 2025.
 Gaussian 16:  ES64L-G16RevC.01  3-Jul-2019

 ----------------------------------------------------------------------
 #t hf aug-cc-pvdz iop(5/13=1,5/36=2,99/5=2) pseudo=read geom=check gue
 ss=(read,tcheck) scf=(maxcycle=1)
 ----------------------------------------------------------------------
 -----
 title
 -----
 Structure from the checkpoint file:  "ANI1ccx_972_conf3_mol1.chk"
 Charge =  0 Multiplicity = 1

                         Standard orientation:
 ---------------------------------------------------------------------
 Center     Atomic      Atomic             Coordinates (Angstroms)
 Number     Number       Type             X           Y           Z
 ---------------------------------------------------------------------
      1          6           0        1.666081   -0.579553    1.248311
      2          6           0        1.421661   -0.259659   -0.286717
      3          6           0       -0.091500   -0.380338   -0.672505
      4          6           0       -1.121870    0.586017    0.024107
      5          1           0        0.785101   -0.210797    1.897571
      6          1           0        2.649441   -0.215044    1.601891
      7          1           0        1.652842   -1.689649    1.489781
      8          1           0        2.095841   -0.945906   -0.929334
      9          1           0        1.060599    1.596480   -0.161596
     10          1           0       -0.053668   -0.215454   -1.764909
     11          1           0       -1.039038   -2.103022   -1.254459
     12          1           0       -1.974359   -0.961073    0.290998
     13          8           0        1.753199    1.061811   -0.601570
     14          8           0       -0.630059   -1.688902   -0.457859
     15          8           0       -2.228679   -0.088768    0.572703
     16          8           0       -0.947334    1.784068    0.105589
 ---------------------------------------------------------------------

 SCF Done:  E(RHF) =  -457.601852901     A.U. after    2 cycles

 The electronic state is 1-A.
 Alpha  occ. eigenvalues --  -21.12557 -21.11712 -21.07737 -21.07092 -11.55737
 Alpha  occ. eigenvalues --  -11.50740 -11.45668 -11.39159  -1.83813  -1.74847
 Alpha  occ. eigenvalues --   -1.72665  -1.67094  -1.14073  -1.03564  -0.88913
 Alpha  occ. eigenvalues --   -0.77692  -0.73467  -0.69536  -0.67151  -0.59017
 Alpha  occ. eigenvalues --   -0.57118  -0.55374  -0.53921  -0.51504  -0.49668
 Alpha  occ. eigenvalues --   -0.48420  -0.44181  -0.42330  -0.39025  -0.34873
 Alpha  occ. eigenvalues --   -0.32714  -0.28535
 Alpha virt. eigenvalues --    0.02779   0.04439   0.04879   0.05212   0.06127
 Alpha virt. eigenvalues --    0.06458   0.07581   0.08276   0.09998   0.11608
 Alpha virt. eigenvalues --    0.12447   0.12644   0.13665   0.14130   0.14601

 Mulliken charges:
               1
     1  C   -3.887037
     2  C    1.115677
     3  C   -0.044858
     4  C    5.212701
     5  H    1.255000
     6  H    1.202473
     7  H    1.288657
     8  H    1.549716
     9  H    0.980107
    10  H    1.589768
    11  H    0.615362
    12  H    1.212979
    13  O   -3.246520
    14  O   -2.879296
    15  O   -2.930737
    16  O   -3.033992
 Sum of Mulliken charges =  -0.00000

 Dipole moment (field-independent basis, Debye):
    X=             -0.0121    Y=             -2.4976    Z=             -0.9400  Tot=              2.6686

 Test job not archived.
 1\1\GINC-SE252\SP\RHF\Aug-CC-pVDZ\C4H8O4\OHZDE\08-Apr-2025\0\\#t hf au
 g-cc-pvdz iop(5/13=1,5/36=2,99/5=2) pseudo=read geom=check guess=(read
 ,tcheck) scf=(maxcycle=1)\\title\\0,1\C,0,1.66608,-0.579554,1.24831\C,
 0,1.42166,-0.259659,-0.286718\C,0,-0.0915011,-0.380337,-0.672506\C,0,-
 1.12187,0.586019,0.0241062\H,0,0.7851,-0.210797,1.89757\H,0,2.64944,-0
 .215046,1.60189\H,0,1.65284,-1.68965,1.48978\H,0,2.09584,-0.945907,-0.
 929335\H,0,1.0606,1.59648,-0.161597\H,0,-0.0536684,-0.215453,-1.76491\
 H,0,-1.03904,-2.10302,-1.25446\H,0,-1.97436,-0.96107,0.290997\O,0,1.75

 Normal termination of Gaussian 16 at Tue Apr  8 22:16:58 2025.
