 Gaussian 16, Revision C.01,

 ----------------------------------------------------------------------
 #t hf aug-cc-pvdz symm=none int=(grid=ultrafine) guess=(read,tcheck) s
 table=(opt,rrhf)
 ----------------------------------------------------------------------
 -----
 title
 -----
 Symbolic Z-matrix:
 Charge =  0 Multiplicity = 1

 SCF Done:  E(RHF) =  -872.200442862     A.U. after   16 cycles
 Normal termination of Gaussian 16 at Tue Apr  8 21:37:06 2025.
 Gaussian 16:  ES64L-G16RevC.01  3-Jul-2019

 ----------------------------------------------------------------------
 #t hf aug-cc-pvdz iop(5/13=1,5/36=2,99/5=2) pseudo=read geom=check gue
 ss=(read,tcheck) scf=(maxcycle=1)
 ----------------------------------------------------------------------
 -----
 title
 -----
 Structure from the checkpoint file:  "ANI1ccx_252_conf6_mol2.chk"
 Charge =  0 Multiplicity = 1

                         Standard orientation:
 ---------------------------------------------------------------------
 Center     Atomic      Atomic             Coordinates (Angstroms)
 Number     Number       Type             X           Y           Z
 ---------------------------------------------------------------------
      1          6           0        2.682679   -1.454690   -0.174324
      2          6           0       -3.911011   -1.206490    0.577724
      3          6           0       -2.982361   -0.553837    1.447300
      4          6           0       -2.047621    0.323354    0.960817
      5          6           0       -2.819501   -0.158821   -1.299160
      6          6           0       -1.942201    0.526919   -0.411198
      7          6           0       -3.827801   -1.005070   -0.808775
      8          6           0        0.742902    1.993540    0.555312
      9          6           0        0.380068    1.382440   -0.800240
     10          6           0        1.766300   -2.637970   -0.307736
     11          6           0        2.138669   -0.223456   -0.897104
     12          6           0       -1.130551    1.596660   -0.997036
     13          1           0       -1.230021    1.576400   -2.066430
     14          1           0        0.914166    3.514250    1.488830
     15          1           0       -4.600631   -1.839300    1.057190
     16          1           0       -3.068841   -0.714780    2.522060
     17          1           0       -4.550961   -1.538860   -1.466280
     18          1           0       -1.347091    0.824928    1.622670
     19          1           0       -2.734761   -0.100453   -2.360220
     20          1           0       -1.432661    2.592730   -0.629527
     21          1           0        1.525480   -2.734530   -1.374120
     22          1           0        0.378935   -0.577720   -0.063730
     23          1           0        0.996329   -2.031900    1.246340
     24          1           0        2.368070   -3.545670    0.028641
     25          1           0        3.677249   -1.636940   -0.643335
     26          1           0        3.658929   -1.417520    1.660560
     27          1           0        2.651879   -0.131985    1.536450
     28          1           0        0.967927    1.922420   -1.521940
     29          7           0        2.763489   -1.133890    1.307490
     30          7           0        0.771039   -0.036749   -0.829190
     31          8           0        1.312379    1.453900    1.482130
     32          8           0        2.864309    0.555217   -1.480730
     33          8           0        0.593705   -2.491940    0.464894
     34          8           0        0.577963    3.300060    0.601365
 ---------------------------------------------------------------------

 SCF Done:  E(RHF) =  -876.150848408     A.U. after    2 cycles

 The electronic state is 1-A.
 Alpha  occ. eigenvalues --  -21.14035 -21.06351 -21.05871 -21.03448 -15.75213
 Alpha  occ. eigenvalues --  -15.74333 -11.56867 -11.53431 -11.52457 -11.50338
 Alpha  occ. eigenvalues --  -11.47233 -11.45217 -11.43959 -11.42969 -11.41177
 Alpha  occ. eigenvalues --  -11.41016 -11.40973 -11.36819  -1.86967  -1.73095
 Alpha  occ. eigenvalues --   -1.70357  -1.66660  -1.42269  -1.34839  -1.32622
 Alpha  occ. eigenvalues --   -1.18963  -1.09886  -1.09459  -1.06420  -0.96932
 Alpha  occ. eigenvalues --   -0.90477  -0.86614  -0.83987  -0.81133  -0.78899
 Alpha  occ. eigenvalues --   -0.71819  -0.71224  -0.69499  -0.67249  -0.65893
 Alpha  occ. eigenvalues --   -0.64416  -0.62954  -0.62413  -0.59831  -0.58754
 Alpha  occ. eigenvalues --   -0.58364  -0.58058  -0.56271  -0.53322  -0.52789
 Alpha  occ. eigenvalues --   -0.51833  -0.51057  -0.48976  -0.48861  -0.47487
 Alpha  occ. eigenvalues --   -0.45021  -0.44134  -0.42289  -0.41473  -0.37808
 Alpha  occ. eigenvalues --   -0.35759  -0.33738  -0.33305  -0.32317  -0.31411
 Alpha  occ. eigenvalues --   -0.30864  -0.27581
 Alpha virt. eigenvalues --    0.03758   0.04313   0.04435   0.04884   0.05188
 Alpha virt. eigenvalues --    0.05500   0.06181   0.06325   0.06536   0.06719
 Alpha virt. eigenvalues --    0.07068   0.07761   0.08339   0.08883   0.09195

 Mulliken charges:
               1
     1  C   -3.254691
     2  C   -3.748104
     3  C   -2.954247
     4  C   -1.242835
     5  C   -2.918167
     6  C    6.640283
     7  C   -1.729957
     8  C    7.615713
     9  C   -1.351116
    10  C   -0.723369
    11  C    7.195829
    12  C   -6.221358
    13  H    1.319748
    14  H    0.713273
    15  H    1.585154
    16  H    1.512732
    17  H    1.522837
    18  H    2.232946
    19  H    1.782898
    20  H    1.246700
    21  H    1.697826
    22  H    1.670132
    23  H    0.986515
    24  H    1.250211
    25  H    1.560912
    26  H    0.580447
    27  H    0.833823
    28  H    1.854834
    29  N   -2.348132
    30  N   -3.203811
    31  O   -3.693844
    32  O   -4.019492
    33  O   -2.810517
    34  O   -3.583172
 Sum of Mulliken charges =   0.00000

 Dipole moment (field-independent basis, Debye):
    X=             -0.7909    Y=              0.8300    Z=              0.8453  Tot=              1.4244

 Test job not archived.
 1\1\GINC-SE179\SP\RHF\Aug-CC-pVDZ\C12H16N2O4\OHZDE\08-Apr-2025\0\\#t h
 f aug-cc-pvdz iop(5/13=1,5/36=2,99/5=2) pseudo=read geom=check guess=(
 read,tcheck) scf=(maxcycle=1)\\title\\0,1\C,0,2.68268,-1.45469,-0.1743
 24\C,0,-3.91101,-1.20649,0.577724\C,0,-2.98236,-0.553837,1.4473\C,0,-2
 .04762,0.323354,0.960817\C,0,-2.8195,-0.158821,-1.29916\C,0,-1.9422,0.
 526919,-0.411198\C,0,-3.8278,-1.00507,-0.808775\C,0,0.742903,1.99354,0
 .555312\C,0,0.380069,1.38244,-0.80024\C,0,1.7663,-2.63797,-0.307736\C,
 0,2.13867,-0.223456,-0.897104\C,0,-1.13055,1.59666,-0.997036\H,0,-1.23

 Normal termination of Gaussian 16 at Tue Apr  8 21:38:05 2025.
