 Gaussian 16, Revision C.01,

 ----------------------------------------------------------------------
 #t hf aug-cc-pvdz symm=none int=(grid=ultrafine) guess=(read,tcheck) s
 table=(opt,rrhf)
 ----------------------------------------------------------------------
 -----
 title
 -----
 Symbolic Z-matrix:
 Charge =  0 Multiplicity = 1

 SCF Done:  E(RHF) =  -717.495395803     A.U. after   15 cycles
 Normal termination of Gaussian 16 at Tue Apr  8 19:32:22 2025.
 Gaussian 16:  ES64L-G16RevC.01  3-Jul-2019

 ----------------------------------------------------------------------
 #t hf aug-cc-pvdz iop(5/13=1,5/36=2,99/5=2) pseudo=read geom=check gue
 ss=(read,tcheck) scf=(maxcycle=1)
 ----------------------------------------------------------------------
 -----
 title
 -----
 Structure from the checkpoint file:  "ANI1ccx_1215_conf5_mol1.chk"
 Charge =  0 Multiplicity = 1

                         Standard orientation:
 ---------------------------------------------------------------------
 Center     Atomic      Atomic             Coordinates (Angstroms)
 Number     Number       Type             X           Y           Z
 ---------------------------------------------------------------------
      1          6           0        1.379659    0.207221   -0.111647
      2          6           0        0.720398   -0.146272    1.181770
      3          6           0        2.477928   -0.829942   -0.372744
      4          6           0       -1.776610    0.329182    0.463661
      5          6           0       -2.101772   -0.963094   -0.274018
      6          6           0       -1.640799    1.379452   -0.706313
      7          1           0       -1.908444   -2.723278   -0.432072
      8          1           0       -0.065160    2.303980   -0.205054
      9          1           0       -0.946270    0.935741   -1.456420
     10          1           0       -2.631089    1.551553   -1.102320
     11          1           0       -2.670350    0.648726    1.012570
     12          1           0       -0.742975    0.395464    2.285230
     13          1           0        2.044917   -1.855532   -0.253120
     14          1           0        3.229468   -0.674063    0.434377
     15          1           0        0.666531    0.004114   -0.956801
     16          1           0        2.410681    1.627418   -0.977483
     17          1           0        2.415741    1.799678    0.620019
     18          1           0        2.562778   -0.924791   -2.276880
     19          7           0        1.812321    1.577568   -0.162716
     20          7           0       -0.595151    0.216344    1.313910
     21          8           0       -1.046118    2.533182   -0.229762
     22          8           0        1.333389   -0.628158    2.093440
     23          8           0        3.196528   -0.802020   -1.577800
     24          8           0       -2.879182   -0.984504   -1.185960
     25          8           0       -1.509473   -2.056708    0.170748
 ---------------------------------------------------------------------

 SCF Done:  E(RHF) =  -720.636553786     A.U. after    2 cycles

 The electronic state is 1-A.
 Alpha  occ. eigenvalues --  -21.14711 -21.09369 -21.06692 -21.05427 -21.05073
 Alpha  occ. eigenvalues --  -15.77336 -15.76788 -11.55470 -11.54557 -11.48931
 Alpha  occ. eigenvalues --  -11.48362 -11.42755 -11.42523  -1.86959  -1.75639
 Alpha  occ. eigenvalues --   -1.72563  -1.71461  -1.67498  -1.41933  -1.37706
 Alpha  occ. eigenvalues --   -1.13934  -1.09857  -0.94996  -0.91935  -0.83418
 Alpha  occ. eigenvalues --   -0.78602  -0.73922  -0.71298  -0.68429  -0.66900
 Alpha  occ. eigenvalues --   -0.66107  -0.63540  -0.61423  -0.59796  -0.58878
 Alpha  occ. eigenvalues --   -0.57408  -0.55082  -0.54675  -0.53279  -0.50777
 Alpha  occ. eigenvalues --   -0.48780  -0.46950  -0.44188  -0.41498  -0.38090
 Alpha  occ. eigenvalues --   -0.35945  -0.35219  -0.33262  -0.32088  -0.30408
 Alpha  occ. eigenvalues --   -0.28836
 Alpha virt. eigenvalues --    0.03365   0.04068   0.05094   0.05431   0.05878
 Alpha virt. eigenvalues --    0.05951   0.06078   0.06480   0.07110   0.08156
 Alpha virt. eigenvalues --    0.09016   0.09868   0.10496   0.10883   0.11560

 Mulliken charges:
               1
     1  C   -0.771028
     2  C    6.304088
     3  C   -0.862250
     4  C   -3.540921
     5  C    7.499861
     6  C   -0.068477
     7  H    0.739680
     8  H    1.091612
     9  H    1.486956
    10  H    1.334734
    11  H    1.796335
    12  H    0.463762
    13  H    1.093292
    14  H    1.242860
    15  H    2.270040
    16  H    0.559000
    17  H    0.553635
    18  H    0.671886
    19  N   -3.044343
    20  N   -2.135964
    21  O   -3.262814
    22  O   -3.937027
    23  O   -2.852963
    24  O   -3.387112
    25  O   -3.244842
 Sum of Mulliken charges =  -0.00000

 Dipole moment (field-independent basis, Debye):
    X=              0.4314    Y=             -0.3602    Z=              0.0611  Tot=              0.5653

 Test job not archived.
 1\1\GINC-SE016\SP\RHF\Aug-CC-pVDZ\C6H12N2O5\OHZDE\08-Apr-2025\0\\#t hf
  aug-cc-pvdz iop(5/13=1,5/36=2,99/5=2) pseudo=read geom=check guess=(r
 ead,tcheck) scf=(maxcycle=1)\\title\\0,1\C,0,1.37966,0.207222,-0.11164
 7\C,0,0.720399,-0.146272,1.18177\C,0,2.47793,-0.82994,-0.372744\C,0,-1
 .77661,0.32918,0.463661\C,0,-2.10177,-0.963097,-0.274018\C,0,-1.6408,1
 .37945,-0.706313\H,0,-1.90844,-2.72328,-0.432072\H,0,-0.0651614,2.3039
 8,-0.205054\H,0,-0.94627,0.93574,-1.45642\H,0,-2.63109,1.55155,-1.1023
 2\H,0,-2.67035,0.648723,1.01257\H,0,-0.742975,0.395463,2.28523\H,0,2.0

 Normal termination of Gaussian 16 at Tue Apr  8 19:32:51 2025.
