 Gaussian 16, Revision C.01,

 ----------------------------------------------------------------------
 #t hf aug-cc-pvdz symm=none int=(grid=ultrafine) guess=(read,tcheck) s
 table=(opt,rrhf)
 ----------------------------------------------------------------------
 -----
 title
 -----
 Symbolic Z-matrix:
 Charge =  0 Multiplicity = 1

 SCF Done:  E(RHF) =  -736.679541332     A.U. after   14 cycles
 Normal termination of Gaussian 16 at Tue Apr  8 19:59:18 2025.
 Gaussian 16:  ES64L-G16RevC.01  3-Jul-2019

 ----------------------------------------------------------------------
 #t hf aug-cc-pvdz iop(5/13=1,5/36=2,99/5=2) pseudo=read geom=check gue
 ss=(read,tcheck) scf=(maxcycle=1)
 ----------------------------------------------------------------------
 -----
 title
 -----
 Structure from the checkpoint file:  "ANI1ccx_1451_conf3_mol2.chk"
 Charge =  0 Multiplicity = 1

                         Standard orientation:
 ---------------------------------------------------------------------
 Center     Atomic      Atomic             Coordinates (Angstroms)
 Number     Number       Type             X           Y           Z
 ---------------------------------------------------------------------
      1          6           0       -1.365470    2.455459   -0.432916
      2          6           0       -0.316645    2.240209    0.629709
      3          6           0        0.617872    0.124858   -0.141491
      4          6           0        2.925960    0.894574   -0.034531
      5          6           0        3.790410   -0.415995   -0.062059
      6          6           0       -0.657180   -1.947301    0.200923
      7          6           0       -2.086359   -1.593451   -0.028853
      8          1           0       -3.779319   -2.304021   -0.144567
      9          1           0       -0.574271   -2.964841   -0.064981
     10          1           0       -0.645657   -1.887561    1.296550
     11          1           0        2.348791   -1.732650    0.008954
     12          1           0        4.628500   -0.119901    0.554818
     13          1           0        4.220540   -0.542940   -1.080760
     14          1           0        3.598740    1.639490   -0.436782
     15          1           0        2.714530    1.090600    1.010090
     16          1           0        1.873990    0.129922   -1.659690
     17          1           0       -0.845259    0.358684    1.280900
     18          1           0       -0.702513    2.693079    1.584010
     19          1           0        0.650701    2.698979    0.297106
     20          1           0       -1.249000    3.490549   -0.786997
     21          1           0       -1.092960    1.850699   -1.293460
     22          1           0       -3.010390    1.357749    0.204861
     23          7           0       -0.068320    0.807232    0.793489
     24          7           0        1.672200    0.721726   -0.849334
     25          7           0        0.354365   -1.130521   -0.478665
     26          8           0       -2.687570    2.282989    0.033203
     27          8           0        3.160671   -1.546920    0.481580
     28          8           0       -2.856239   -2.630711   -0.065818
     29          8           0       -2.528820   -0.492485   -0.175610
 ---------------------------------------------------------------------

 SCF Done:  E(RHF) =  -739.981020592     A.U. after    2 cycles

 The electronic state is 1-A.
 Alpha  occ. eigenvalues --  -21.14200 -21.05600 -21.05586 -21.04089 -15.75963
 Alpha  occ. eigenvalues --  -15.74926 -15.69828 -11.55336 -11.50948 -11.46179
 Alpha  occ. eigenvalues --  -11.45564 -11.42921 -11.39570 -11.38626  -1.87860
 Alpha  occ. eigenvalues --   -1.70449  -1.68911  -1.67038  -1.51454  -1.35184
 Alpha  occ. eigenvalues --   -1.30722  -1.12386  -1.07101  -1.03670  -0.89518
 Alpha  occ. eigenvalues --   -0.87776  -0.83117  -0.79832  -0.70563  -0.68240
 Alpha  occ. eigenvalues --   -0.67603  -0.66872  -0.64915  -0.63503  -0.62786
 Alpha  occ. eigenvalues --   -0.60947  -0.59973  -0.57271  -0.55306  -0.55106
 Alpha  occ. eigenvalues --   -0.52889  -0.52395  -0.51289  -0.49461  -0.48359
 Alpha  occ. eigenvalues --   -0.46983  -0.41328  -0.37647  -0.36748  -0.36181
 Alpha  occ. eigenvalues --   -0.35551  -0.33968  -0.31166  -0.29326  -0.27121
 Alpha virt. eigenvalues --    0.03708   0.04732   0.04872   0.05348   0.05397
 Alpha virt. eigenvalues --    0.05883   0.05986   0.06304   0.06743   0.07153
 Alpha virt. eigenvalues --    0.07641   0.08361   0.08693   0.09079   0.09881

 Mulliken charges:
               1
     1  C   -0.936428
     2  C   -3.170561
     3  C    8.230935
     4  C   -3.720107
     5  C   -0.573168
     6  C   -3.195878
     7  C    6.799885
     8  H    0.904086
     9  H    1.387772
    10  H    1.418775
    11  H    1.168240
    12  H    1.179641
    13  H    1.431175
    14  H    1.323983
    15  H    1.756299
    16  H    0.758776
    17  H    0.799991
    18  H    1.379018
    19  H    1.655710
    20  H    1.268006
    21  H    1.636266
    22  H    1.198594
    23  N   -3.063361
    24  N   -3.361042
    25  N   -3.201633
    26  O   -3.031607
    27  O   -3.210640
    28  O   -3.593612
    29  O   -3.239114
 Sum of Mulliken charges =  -0.00000

 Dipole moment (field-independent basis, Debye):
    X=             -0.2663    Y=              0.1036    Z=              0.6679  Tot=              0.7265

 Test job not archived.
 1\1\GINC-SE461\SP\RHF\Aug-CC-pVDZ\C7H15N3O4\OHZDE\08-Apr-2025\0\\#t hf
  aug-cc-pvdz iop(5/13=1,5/36=2,99/5=2) pseudo=read geom=check guess=(r
 ead,tcheck) scf=(maxcycle=1)\\title\\0,1\C,0,-1.36547,2.45546,-0.43291
 6\C,0,-0.316645,2.24021,0.629709\C,0,0.617872,0.124859,-0.141491\C,0,2
 .92596,0.894574,-0.0345309\C,0,3.79041,-0.415995,-0.0620592\C,0,-0.657
 181,-1.9473,0.200923\C,0,-2.08636,-1.59345,-0.028853\H,0,-3.77932,-2.3
 0402,-0.144567\H,0,-0.574272,-2.96484,-0.0649808\H,0,-0.645658,-1.8875
 6,1.29655\H,0,2.34879,-1.73265,0.0089546\H,0,4.6285,-0.119901,0.554818

 Normal termination of Gaussian 16 at Tue Apr  8 19:59:47 2025.
