 Gaussian 16, Revision C.01,

 ----------------------------------------------------------------------
 #t hf aug-cc-pvdz symm=none int=(grid=ultrafine) guess=(read,tcheck) s
 table=(opt,rrhf)
 ----------------------------------------------------------------------
 -----
 title
 -----
 Symbolic Z-matrix:
 Charge =  0 Multiplicity = 1

 SCF Done:  E(RHF) =  -256.786631370     A.U. after   15 cycles
 Normal termination of Gaussian 16 at Tue Apr  8 21:35:39 2025.
 Gaussian 16:  ES64L-G16RevC.01  3-Jul-2019

 ----------------------------------------------------------------------
 #t hf aug-cc-pvdz iop(5/13=1,5/36=2,99/5=2) pseudo=read geom=check gue
 ss=(read,tcheck) scf=(maxcycle=1)
 ----------------------------------------------------------------------
 -----
 title
 -----
 Structure from the checkpoint file:  "ANI1ccx_377_conf49_mol1.chk"
 Charge =  0 Multiplicity = 1

                         Standard orientation:
 ---------------------------------------------------------------------
 Center     Atomic      Atomic             Coordinates (Angstroms)
 Number     Number       Type             X           Y           Z
 ---------------------------------------------------------------------
      1          6           0        0.981209   -0.448094   -0.005979
      2          1           0        1.994548   -0.908124    0.058143
      3          1           0       -2.050261   -0.360383    0.194250
      4          7           0        0.812463    0.892500    0.005987
      5          7           0       -0.510977    1.032112    0.002675
      6          7           0       -1.031301   -0.206847   -0.040700
      7          7           0       -0.103263   -1.152469    0.001107
 ---------------------------------------------------------------------

 SCF Done:  E(RHF) =  -257.916616618     A.U. after    2 cycles

 The electronic state is 1-A.
 Alpha  occ. eigenvalues --  -15.86399 -15.82956 -15.79566 -15.78381 -11.43110
 Alpha  occ. eigenvalues --   -1.75760  -1.39112  -1.28561  -0.92970  -0.87039
 Alpha  occ. eigenvalues --   -0.76330  -0.68747  -0.61393  -0.52093  -0.44363
 Alpha  occ. eigenvalues --   -0.43049  -0.41753  -0.39107
 Alpha virt. eigenvalues --    0.03616   0.04993   0.10260   0.10941   0.11240
 Alpha virt. eigenvalues --    0.12626   0.13526   0.14773   0.16426   0.17339
 Alpha virt. eigenvalues --    0.17686   0.19398   0.19484   0.20241   0.20828

 Mulliken charges:
               1
     1  C    1.330567
     2  H    1.536795
     3  H    0.933331
     4  N   -1.650374
     5  N   -0.113924
     6  N   -0.440410
     7  N   -1.595986
 Sum of Mulliken charges =   0.00000

 Dipole moment (field-independent basis, Debye):
    X=             -1.5420    Y=             -1.5080    Z=              0.3010  Tot=              2.1777

 Test job not archived.
 1\1\GINC-SE126\SP\RHF\Aug-CC-pVDZ\C1H2N4\OHZDE\08-Apr-2025\0\\#t hf au
 g-cc-pvdz iop(5/13=1,5/36=2,99/5=2) pseudo=read geom=check guess=(read
 ,tcheck) scf=(maxcycle=1)\\title\\0,1\C,0,0.98121,-0.448094,-0.0059787
 7\H,0,1.99455,-0.908122,0.0581426\H,0,-2.05026,-0.360387,0.19425\N,0,0
 .812462,0.8925,0.00598662\N,0,-0.510978,1.03211,0.00267495\N,0,-1.0313
 ,-0.206849,-0.0406996\N,0,-0.103261,-1.15247,0.00110651\\Version=ES64L
 -G16RevC.01\State=1-A\HF=-257.9166166\RMSD=8.699e-02\Dipole=-0.6066841
 ,-0.5932973,0.1184227\Quadrupole=4.9217673,-4.4869674,-0.4347999,-0.63

 Normal termination of Gaussian 16 at Tue Apr  8 21:35:41 2025.
