 Gaussian 16, Revision C.01,

 ----------------------------------------------------------------------
 #t hf aug-cc-pvdz symm=none int=(grid=ultrafine) guess=(read,tcheck) s
 table=(opt,rrhf)
 ----------------------------------------------------------------------
 -----
 title
 -----
 Symbolic Z-matrix:
 Charge =  0 Multiplicity = 1

 SCF Done:  E(RHF) =  -541.260143978     A.U. after   15 cycles
 Normal termination of Gaussian 16 at Tue Apr  8 22:04:42 2025.
 Gaussian 16:  ES64L-G16RevC.01  3-Jul-2019

 ----------------------------------------------------------------------
 #t hf aug-cc-pvdz iop(5/13=1,5/36=2,99/5=2) pseudo=read geom=check gue
 ss=(read,tcheck) scf=(maxcycle=1)
 ----------------------------------------------------------------------
 -----
 title
 -----
 Structure from the checkpoint file:  "ANI1ccx_869_conf2_mol1.chk"
 Charge =  0 Multiplicity = 1

                         Standard orientation:
 ---------------------------------------------------------------------
 Center     Atomic      Atomic             Coordinates (Angstroms)
 Number     Number       Type             X           Y           Z
 ---------------------------------------------------------------------
      1          6           0        1.261829    0.152305   -0.041319
      2          6           0        0.317341    1.305480   -0.026403
      3          6           0       -1.710191   -0.146922   -0.009854
      4          6           0        0.589850   -1.155221   -0.041784
      5          1           0        2.766308   -0.772795    0.114699
      6          1           0       -1.646019    1.910362   -0.053664
      7          1           0       -1.213934   -2.093409    0.153346
      8          7           0        2.506819    0.185507   -0.005496
      9          7           0       -1.047390    1.054971   -0.072993
     10          7           0       -0.789778   -1.196239    0.039638
     11          8           0        0.751094    2.434049    0.073242
     12          8           0       -2.916942   -0.287378    0.021118
     13          8           0        1.247486   -2.182632    0.002355
 ---------------------------------------------------------------------

 SCF Done:  E(RHF) =  -543.539673454     A.U. after    2 cycles

 The electronic state is 1-A.
 Alpha  occ. eigenvalues --  -21.08994 -21.08855 -21.08686 -15.83689 -15.83454
 Alpha  occ. eigenvalues --  -15.81877 -11.58086 -11.57613 -11.56738 -11.48327
 Alpha  occ. eigenvalues --   -1.79556  -1.76684  -1.75268  -1.50358  -1.41422
 Alpha  occ. eigenvalues --   -1.38723  -1.09500  -0.95017  -0.93796  -0.81293
 Alpha  occ. eigenvalues --   -0.77920  -0.69849  -0.67591  -0.64109  -0.60748
 Alpha  occ. eigenvalues --   -0.58234  -0.56946  -0.55167  -0.54639  -0.45811
 Alpha  occ. eigenvalues --   -0.43170  -0.38024  -0.37900  -0.37122  -0.35277
 Alpha  occ. eigenvalues --   -0.31148
 Alpha virt. eigenvalues --    0.03150   0.03646   0.05848   0.06259   0.07547
 Alpha virt. eigenvalues --    0.08829   0.09196   0.10002   0.11208   0.11920
 Alpha virt. eigenvalues --    0.12554   0.12893   0.13508   0.13727   0.14475

 Mulliken charges:
               1
     1  C    1.914897
     2  C    6.270548
     3  C    4.524273
     4  C    4.380983
     5  H    0.822894
     6  H    0.621684
     7  H    0.628156
     8  N   -3.343933
     9  N   -2.826498
    10  N   -2.588332
    11  O   -3.679601
    12  O   -3.160752
    13  O   -3.564318
 Sum of Mulliken charges =  -0.00000

 Dipole moment (field-independent basis, Debye):
    X=             -0.9655    Y=             -0.9453    Z=              0.1247  Tot=              1.3569

 Test job not archived.
 1\1\GINC-SE457\SP\RHF\Aug-CC-pVDZ\C4H3N3O3\OHZDE\08-Apr-2025\0\\#t hf
 aug-cc-pvdz iop(5/13=1,5/36=2,99/5=2) pseudo=read geom=check guess=(re
 ad,tcheck) scf=(maxcycle=1)\\title\\0,1\C,0,1.26183,0.152307,-0.041318
 8\C,0,0.317341,1.30548,-0.0264027\C,0,-1.71019,-0.146924,-0.00985351\C
 ,0,0.589853,-1.15522,-0.0417837\H,0,2.76631,-0.772792,0.114699\H,0,-1.
 64602,1.91036,-0.0536636\H,0,-1.21393,-2.09341,0.153346\N,0,2.50682,0.
 18551,-0.00549565\N,0,-1.04739,1.05497,-0.0729929\N,0,-0.789775,-1.196
 24,0.0396375\O,0,0.751092,2.43405,0.0732423\O,0,-2.91694,-0.287381,0.0

 Normal termination of Gaussian 16 at Tue Apr  8 22:04:48 2025.
