 Gaussian 16, Revision C.01,

 ----------------------------------------------------------------------
 #t hf aug-cc-pvdz symm=none int=(grid=ultrafine) guess=(read,tcheck) s
 table=(opt,rrhf)
 ----------------------------------------------------------------------
 -----
 title
 -----
 Symbolic Z-matrix:
 Charge =  0 Multiplicity = 1

 SCF Done:  E(RHF) =  -380.228831276     A.U. after   11 cycles
 Normal termination of Gaussian 16 at Tue Apr  8 21:04:27 2025.
 Gaussian 16:  ES64L-G16RevC.01  3-Jul-2019

 ----------------------------------------------------------------------
 #t hf aug-cc-pvdz iop(5/13=1,5/36=2,99/5=2) pseudo=read geom=check gue
 ss=(read,tcheck) scf=(maxcycle=1)
 ----------------------------------------------------------------------
 -----
 title
 -----
 Structure from the checkpoint file:  "ANI1ccx_1843_conf12_mol1.chk"
 Charge =  0 Multiplicity = 1

                         Standard orientation:
 ---------------------------------------------------------------------
 Center     Atomic      Atomic             Coordinates (Angstroms)
 Number     Number       Type             X           Y           Z
 ---------------------------------------------------------------------
      1          1           0       -0.771855    0.648659    1.364931
      2          1           0       -1.923150   -0.134997    0.778403
      3          1           0        1.114260    1.129851    0.059047
      4          1           0        0.506781    2.567031    0.018132
      5          1           0       -0.238319   -1.369959    0.656917
      6          1           0       -0.269877   -1.411179   -0.849137
      7          1           0       -1.858780    0.365134   -2.134519
      8          1           0       -0.873605    0.768347   -0.968588
      9          1           0        1.627121   -0.783933   -0.161713
     10          1           0        2.879821   -0.181180    0.567608
     11          8           0       -1.308799   -0.151313    1.527461
     12          8           0        0.251699    1.637561    0.108294
     13          8           0        0.268950   -1.748259   -0.103462
     14          8           0       -1.503490    0.070570   -1.276009
     15          8           0        2.267590   -0.008281   -0.172669
 ---------------------------------------------------------------------

 SCF Done:  E(RHF) =  -381.875267035     A.U. after    2 cycles

 The electronic state is 1-A.
 Alpha  occ. eigenvalues --  -21.09847 -21.09542 -21.08335 -21.07468 -21.06740
 Alpha  occ. eigenvalues --   -1.70180  -1.67104  -1.66839  -1.65285  -1.62949
 Alpha  occ. eigenvalues --   -0.67465  -0.66465  -0.63719  -0.62757  -0.61334
 Alpha  occ. eigenvalues --   -0.53075  -0.50644  -0.47750  -0.47158  -0.41592
 Alpha  occ. eigenvalues --   -0.37035  -0.36148  -0.35008  -0.33580  -0.32049
 Alpha virt. eigenvalues --    0.03357   0.04440   0.05035   0.07195   0.07568
 Alpha virt. eigenvalues --    0.07791   0.08392   0.09008   0.09714   0.11076
 Alpha virt. eigenvalues --    0.17330   0.19586   0.20760   0.21457   0.21612

 Mulliken charges:
               1
     1  H    1.322501
     2  H    1.069882
     3  H    1.659234
     4  H    0.980586
     5  H    1.330843
     6  H    1.211456
     7  H    0.925821
     8  H    1.568677
     9  H    1.408253
    10  H    0.806621
    11  O   -2.257980
    12  O   -2.849708
    13  O   -2.768866
    14  O   -2.194721
    15  O   -2.212600
 Sum of Mulliken charges =  -0.00000

 Dipole moment (field-independent basis, Debye):
    X=              0.3535    Y=              1.7451    Z=             -0.8322  Tot=              1.9655

 Test job not archived.
 1\1\GINC-SE030\SP\RHF\Aug-CC-pVDZ\H10O5\OHZDE\08-Apr-2025\0\\#t hf aug
 -cc-pvdz iop(5/13=1,5/36=2,99/5=2) pseudo=read geom=check guess=(read,
 tcheck) scf=(maxcycle=1)\\title\\0,1\H,0,-0.771855,0.648658,1.36493\H,
 0,-1.92315,-0.134997,0.778402\H,0,1.11426,1.12985,0.0590462\H,0,0.5067
 81,2.56703,0.0181314\H,0,-0.23832,-1.36996,0.656916\H,0,-0.269878,-1.4
 1118,-0.849138\H,0,-1.85878,0.365134,-2.13452\H,0,-0.873605,0.768346,-
 0.968589\H,0,1.62712,-0.783934,-0.161714\H,0,2.87982,-0.181182,0.56760
 7\O,0,-1.3088,-0.151314,1.52746\O,0,0.251699,1.63756,0.108293\O,0,0.26

 Normal termination of Gaussian 16 at Tue Apr  8 21:04:30 2025.
