 Gaussian 16, Revision C.01,

 ----------------------------------------------------------------------
 #t hf aug-cc-pvdz symm=none int=(grid=ultrafine) guess=(read,tcheck) s
 table=(opt,rrhf)
 ----------------------------------------------------------------------
 -----
 title
 -----
 Symbolic Z-matrix:
 Charge =  0 Multiplicity = 1

 SCF Done:  E(RHF) =  -456.276401382     A.U. after   11 cycles
 Normal termination of Gaussian 16 at Tue Apr  8 21:09:44 2025.
 Gaussian 16:  ES64L-G16RevC.01  3-Jul-2019

 ----------------------------------------------------------------------
 #t hf aug-cc-pvdz iop(5/13=1,5/36=2,99/5=2) pseudo=read geom=check gue
 ss=(read,tcheck) scf=(maxcycle=1)
 ----------------------------------------------------------------------
 -----
 title
 -----
 Structure from the checkpoint file:  "ANI1ccx_1844_conf69_mol1.chk"
 Charge =  0 Multiplicity = 1

                         Standard orientation:
 ---------------------------------------------------------------------
 Center     Atomic      Atomic             Coordinates (Angstroms)
 Number     Number       Type             X           Y           Z
 ---------------------------------------------------------------------
      1          1           0        2.608019    0.353301   -0.597070
      2          1           0       -2.552029   -1.406101   -1.434230
      3          1           0       -2.571840   -0.176793   -0.432726
      4          1           0        2.249591   -2.158697   -1.055520
      5          1           0        1.411151   -1.604758    0.137604
      6          1           0       -0.401962   -1.858539    1.627890
      7          1           0        3.162458    1.784624   -0.007857
      8          1           0       -0.987719   -1.414510    0.245787
      9          1           0        0.117250    0.342178    1.066770
     10          1           0        0.897955    1.474622    0.433861
     11          1           0       -1.270152    1.488830    0.009885
     12          1           0       -2.694722    2.100099    0.094228
     13          8           0        2.282261   -1.505237   -0.285472
     14          8           0        0.101870    1.335221    0.972403
     15          8           0       -2.521330   -1.179521   -0.491001
     16          8           0       -0.189557   -1.361289    0.807036
     17          8           0        2.483448    1.350613   -0.595472
     18          8           0       -2.152692    1.494679   -0.418572
 ---------------------------------------------------------------------

 SCF Done:  E(RHF) =  -458.255796409     A.U. after    2 cycles

 The electronic state is 1-A.
 Alpha  occ. eigenvalues --  -21.10627 -21.08604 -21.08493 -21.07480 -21.07447
 Alpha  occ. eigenvalues --  -21.05648  -1.70824  -1.67314  -1.65752  -1.65055
 Alpha  occ. eigenvalues --   -1.63533  -1.61927  -0.67041  -0.64757  -0.64560
 Alpha  occ. eigenvalues --   -0.63606  -0.62993  -0.61721  -0.53568  -0.49853
 Alpha  occ. eigenvalues --   -0.47966  -0.46261  -0.43815  -0.40448  -0.36434
 Alpha  occ. eigenvalues --   -0.35494  -0.35247  -0.33984  -0.33684  -0.32056
 Alpha virt. eigenvalues --    0.03663   0.04845   0.05138   0.05505   0.05833
 Alpha virt. eigenvalues --    0.07747   0.08332   0.08801   0.09395   0.10155
 Alpha virt. eigenvalues --    0.11455   0.12311   0.17347   0.18981   0.20422

 Mulliken charges:
               1
     1  H    1.274484
     2  H    0.794099
     3  H    1.450948
     4  H    0.794255
     5  H    1.688175
     6  H    0.894853
     7  H    0.832765
     8  H    1.738729
     9  H    1.513824
    10  H    1.288695
    11  H    1.643558
    12  H    0.763086
    13  O   -2.235154
    14  O   -2.696007
    15  O   -2.284123
    16  O   -3.105393
    17  O   -2.050032
    18  O   -2.306760
 Sum of Mulliken charges =  -0.00000

 Dipole moment (field-independent basis, Debye):
    X=             -0.2909    Y=             -1.3057    Z=              0.1917  Tot=              1.3514

 Test job not archived.
 1\1\GINC-SE458\SP\RHF\Aug-CC-pVDZ\H12O6\OHZDE\08-Apr-2025\0\\#t hf aug
 -cc-pvdz iop(5/13=1,5/36=2,99/5=2) pseudo=read geom=check guess=(read,
 tcheck) scf=(maxcycle=1)\\title\\0,1\H,0,2.60802,0.353297,-0.59707\H,0
 ,-2.55203,-1.4061,-1.43423\H,0,-2.57184,-0.176792,-0.432726\H,0,2.2495
 9,-2.1587,-1.05552\H,0,1.41115,-1.60476,0.137604\H,0,-0.401963,-1.8585
 4,1.62789\H,0,3.16246,1.78462,-0.00785659\H,0,-0.98772,-1.41451,0.2457
 87\H,0,0.117251,0.342177,1.06677\H,0,0.897957,1.47462,0.433861\H,0,-1.
 27015,1.48883,0.00988448\H,0,-2.69472,2.1001,0.0942276\O,0,2.28226,-1.

 Normal termination of Gaussian 16 at Tue Apr  8 21:09:49 2025.
