 Gaussian 16, Revision C.01,

 ----------------------------------------------------------------------
 #t hf aug-cc-pvdz symm=none int=(grid=ultrafine) guess=(read,tcheck) s
 table=(opt,rrhf)
 ----------------------------------------------------------------------
 -----
 title
 -----
 Symbolic Z-matrix:
 Charge =  0 Multiplicity = 1

 SCF Done:  E(RHF) =  -464.348432920     A.U. after   15 cycles
 Normal termination of Gaussian 16 at Tue Apr  8 21:42:54 2025.
 Gaussian 16:  ES64L-G16RevC.01  3-Jul-2019

 ----------------------------------------------------------------------
 #t hf aug-cc-pvdz iop(5/13=1,5/36=2,99/5=2) pseudo=read geom=check gue
 ss=(read,tcheck) scf=(maxcycle=1)
 ----------------------------------------------------------------------
 -----
 title
 -----
 Structure from the checkpoint file:  "ANI1ccx_474_conf32_mol1.chk"
 Charge =  0 Multiplicity = 1

                         Standard orientation:
 ---------------------------------------------------------------------
 Center     Atomic      Atomic             Coordinates (Angstroms)
 Number     Number       Type             X           Y           Z
 ---------------------------------------------------------------------
      1          6           0        1.223931   -0.453673    0.178207
      2          6           0        0.127734    1.424480   -0.132403
      3          1           0        2.792081   -0.875020   -0.974066
      4          7           0        1.124091    0.745910   -0.437754
      5          7           0       -2.207629   -0.493952   -0.338775
      6          7           0       -2.867018   -1.402172   -0.113932
      7          8           0        2.142042   -1.283480   -0.461864
      8          8           0       -0.655602    2.284809    0.109511
      9          8           0        0.607538   -0.613620    1.218910
 ---------------------------------------------------------------------

 SCF Done:  E(RHF) =  -466.238111309     A.U. after    2 cycles

 The electronic state is 1-A.
 Alpha  occ. eigenvalues --  -21.18051 -21.15313 -21.07639 -15.88720 -15.88321
 Alpha  occ. eigenvalues --  -15.80460 -11.62395 -11.57021  -1.84319  -1.80297
 Alpha  occ. eigenvalues --   -1.70325  -1.54628  -1.43405  -0.94946  -0.81088
 Alpha  occ. eigenvalues --   -0.76802  -0.68849  -0.66801  -0.64126  -0.58059
 Alpha  occ. eigenvalues --   -0.56983  -0.56576  -0.56020  -0.53575  -0.48127
 Alpha  occ. eigenvalues --   -0.44433  -0.38949  -0.35154  -0.33273
 Alpha virt. eigenvalues --    0.03692   0.07593   0.09694   0.10130   0.10703
 Alpha virt. eigenvalues --    0.10981   0.11459   0.11945   0.12677   0.13326
 Alpha virt. eigenvalues --    0.13541   0.14179   0.14436   0.16612   0.17465

 Mulliken charges:
               1
     1  C    5.591634
     2  C    3.621005
     3  H    0.911457
     4  N   -2.592133
     5  N   -0.267727
     6  N    0.320020
     7  O   -2.698358
     8  O   -2.431002
     9  O   -2.454895
 Sum of Mulliken charges =   0.00000

 Dipole moment (field-independent basis, Debye):
    X=             -0.1616    Y=              1.3093    Z=             -0.8395  Tot=              1.5637

 Test job not archived.
 1\1\GINC-SE273\SP\RHF\Aug-CC-pVDZ\C2H1N3O3\OHZDE\08-Apr-2025\0\\#t hf
 aug-cc-pvdz iop(5/13=1,5/36=2,99/5=2) pseudo=read geom=check guess=(re
 ad,tcheck) scf=(maxcycle=1)\\title\\0,1\C,0,1.22393,-0.453673,0.178207
 \C,0,0.127734,1.42448,-0.132403\H,0,2.79208,-0.875021,-0.974066\N,0,1.
 12409,0.74591,-0.437754\N,0,-2.20763,-0.493951,-0.338775\N,0,-2.86702,
 -1.40217,-0.113932\O,0,2.14204,-1.28348,-0.461864\O,0,-0.655602,2.2848
 1,0.109511\O,0,0.607537,-0.61362,1.21891\\Version=ES64L-G16RevC.01\Sta
 te=1-A\HF=-466.2381113\RMSD=6.953e-02\Dipole=-0.0635952,0.5151337,-0.3

 Normal termination of Gaussian 16 at Tue Apr  8 21:42:58 2025.
