 Gaussian 16, Revision C.01,

 ----------------------------------------------------------------------
 #t hf aug-cc-pvdz symm=none int=(grid=ultrafine) guess=(read,tcheck) s
 table=(opt,rrhf)
 ----------------------------------------------------------------------
 -----
 title
 -----
 Symbolic Z-matrix:
 Charge =  0 Multiplicity = 1

 SCF Done:  E(RHF) =  -376.431496459     A.U. after   14 cycles
 Normal termination of Gaussian 16 at Tue Apr  8 21:44:35 2025.
 Gaussian 16:  ES64L-G16RevC.01  3-Jul-2019

 ----------------------------------------------------------------------
 #t hf aug-cc-pvdz iop(5/13=1,5/36=2,99/5=2) pseudo=read geom=check gue
 ss=(read,tcheck) scf=(maxcycle=1)
 ----------------------------------------------------------------------
 -----
 title
 -----
 Structure from the checkpoint file:  "ANI1ccx_494_conf2_mol2.chk"
 Charge =  0 Multiplicity = 1

                         Standard orientation:
 ---------------------------------------------------------------------
 Center     Atomic      Atomic             Coordinates (Angstroms)
 Number     Number       Type             X           Y           Z
 ---------------------------------------------------------------------
      1          6           0        0.737841    0.126877   -0.021553
      2          6           0       -0.769951   -0.199930   -0.005069
      3          1           0        2.400412   -0.757518    0.035337
      4          1           0       -0.850152    1.683178   -0.065980
      5          8           0        1.441802   -0.977874   -0.048048
      6          8           0        1.131317    1.264643    0.059115
      7          8           0       -1.495582    0.942057   -0.038896
      8          8           0       -1.247237   -1.289743    0.051625
 ---------------------------------------------------------------------

 SCF Done:  E(RHF) =  -377.952601861     A.U. after    2 cycles

 The electronic state is 1-A.
 Alpha  occ. eigenvalues --  -21.17316 -21.13682 -21.11112 -21.08975 -11.58078
 Alpha  occ. eigenvalues --  -11.53706  -1.89771  -1.82059  -1.72258  -1.67626
 Alpha  occ. eigenvalues --   -1.01245  -0.78978  -0.73895  -0.65749  -0.63851
 Alpha  occ. eigenvalues --   -0.57032  -0.53810  -0.51892  -0.47798  -0.40105
 Alpha  occ. eigenvalues --   -0.38825  -0.35382  -0.30121
 Alpha virt. eigenvalues --    0.03207   0.05772   0.09485   0.09617   0.10056
 Alpha virt. eigenvalues --    0.10676   0.11776   0.11814   0.12575   0.14679
 Alpha virt. eigenvalues --    0.17512   0.19211   0.20108   0.21209   0.22568

 Mulliken charges:
               1
     1  C    4.717235
     2  C    4.618608
     3  H    0.825278
     4  H    1.140888
     5  O   -2.829569
     6  O   -2.745031
     7  O   -2.884996
     8  O   -2.842413
 Sum of Mulliken charges =  -0.00000

 Dipole moment (field-independent basis, Debye):
    X=              1.8077    Y=              0.3458    Z=             -0.0435  Tot=              1.8410

 Test job not archived.
 1\1\GINC-SE099\SP\RHF\Aug-CC-pVDZ\C2H2O4\OHZDE\08-Apr-2025\0\\#t hf au
 g-cc-pvdz iop(5/13=1,5/36=2,99/5=2) pseudo=read geom=check guess=(read
 ,tcheck) scf=(maxcycle=1)\\title\\0,1\C,0,0.737841,0.126875,-0.0215526
 \C,0,-0.769951,-0.199928,-0.00506873\H,0,2.40041,-0.757524,0.0353369\H
 ,0,-0.850148,1.68318,-0.0659798\O,0,1.4418,-0.977878,-0.0480482\O,0,1.
 13132,1.26464,0.0591154\O,0,-1.49558,0.942061,-0.0388963\O,0,-1.24724,
 -1.28974,0.0516255\\Version=ES64L-G16RevC.01\State=1-A\HF=-377.9526019
 \RMSD=1.506e-01\Dipole=0.7112039,0.1360354,-0.0171209\Quadrupole=1.073

 Normal termination of Gaussian 16 at Tue Apr  8 21:44:38 2025.
