 Gaussian 16, Revision C.01,

 ----------------------------------------------------------------------
 #t hf aug-cc-pvdz symm=none int=(grid=ultrafine) guess=(read,tcheck) s
 table=(opt,rrhf)
 ----------------------------------------------------------------------
 -----
 title
 -----
 Symbolic Z-matrix:
 Charge =  0 Multiplicity = 1

 SCF Done:  E(RHF) =  -911.508218876     A.U. after   15 cycles
 Normal termination of Gaussian 16 at Tue Apr  8 21:45:45 2025.
 Gaussian 16:  ES64L-G16RevC.01  3-Jul-2019

 ----------------------------------------------------------------------
 #t hf aug-cc-pvdz iop(5/13=1,5/36=2,99/5=2) pseudo=read geom=check gue
 ss=(read,tcheck) scf=(maxcycle=1)
 ----------------------------------------------------------------------
 -----
 title
 -----
 Structure from the checkpoint file:  "ANI1ccx_191_conf23_mol1.chk"
 Charge =  0 Multiplicity = 1

                         Standard orientation:
 ---------------------------------------------------------------------
 Center     Atomic      Atomic             Coordinates (Angstroms)
 Number     Number       Type             X           Y           Z
 ---------------------------------------------------------------------
      1          6           0       -1.553184    2.097766    0.269548
      2          6           0        1.716135   -2.240757    0.610466
      3          6           0        1.033161   -0.532605    2.414530
      4          6           0        1.906132   -0.822841    1.187010
      5          6           0        2.581440    0.168055   -0.961741
      6          6           0        0.341503   -2.689340    0.055229
      7          6           0       -2.539297   -1.557786   -0.543606
      8          6           0       -2.366039   -0.217755    0.218044
      9          6           0       -2.185202    1.042235   -0.634497
     10          6           0       -0.076965    2.001659    0.435477
     11          6           0        1.767240    0.355054    0.280982
     12          1           0        1.208613   -1.188168    3.204010
     13          1           0        2.843549    0.775851   -2.804730
     14          1           0       -0.518750   -2.316472    0.585165
     15          1           0        0.287249   -2.452650   -1.021880
     16          1           0        0.348155   -3.728400    0.205697
     17          1           0        2.534605   -2.535276   -0.007501
     18          1           0        1.904306   -2.903017    1.520010
     19          1           0        1.282249    0.391059    2.922390
     20          1           0       -0.047105   -0.469143    2.252560
     21          1           0        2.858162   -0.824002    1.691080
     22          1           0       -2.913433   -3.364107    0.048381
     23          1           0       -0.283733    0.120915   -0.314607
     24          1           0       -3.337319   -0.238367    0.813805
     25          1           0       -1.564329   -0.425329    0.963388
     26          1           0       -3.231582    1.352053   -0.911346
     27          1           0       -1.584601    0.791981   -1.441430
     28          1           0       -1.927913    1.906395    1.224130
     29          1           0       -1.757497    3.539396   -1.104760
     30          1           0       -1.353288    4.107687    0.425254
     31          1           0        2.282928    1.285414    0.839533
     32          7           0       -1.908086    3.412405   -0.089804
     33          7           0        0.426854    0.773306   -0.077751
     34          8           0        3.560331   -0.551690   -1.118390
     35          8           0        0.598575    2.841310    0.973372
     36          8           0       -2.125056   -1.824675   -1.653340
     37          8           0       -3.056085   -2.487657    0.338194
     38          8           0        2.220838    0.929224   -2.027950
 ---------------------------------------------------------------------

 SCF Done:  E(RHF) =  -915.659289305     A.U. after    2 cycles

 The electronic state is 1-A.
 Alpha  occ. eigenvalues --  -21.13943 -21.10634 -21.07607 -21.04617 -21.04410
 Alpha  occ. eigenvalues --  -15.76348 -15.73500 -11.57307 -11.56488 -11.55143
 Alpha  occ. eigenvalues --  -11.50628 -11.49219 -11.45514 -11.45259 -11.42326
 Alpha  occ. eigenvalues --  -11.41620 -11.39123 -11.36809  -1.83159  -1.81820
 Alpha  occ. eigenvalues --   -1.73122  -1.67513  -1.63023  -1.43978  -1.37556
 Alpha  occ. eigenvalues --   -1.25878  -1.20971  -1.11744  -1.07276  -1.03126
 Alpha  occ. eigenvalues --   -0.95141  -0.93692  -0.85073  -0.81272  -0.80058
 Alpha  occ. eigenvalues --   -0.79146  -0.72350  -0.69119  -0.67862  -0.66556
 Alpha  occ. eigenvalues --   -0.66196  -0.63750  -0.63228  -0.61549  -0.61277
 Alpha  occ. eigenvalues --   -0.59066  -0.58531  -0.57760  -0.57597  -0.54588
 Alpha  occ. eigenvalues --   -0.53477  -0.52970  -0.51635  -0.50797  -0.49741
 Alpha  occ. eigenvalues --   -0.49610  -0.48671  -0.47343  -0.45996  -0.44756
 Alpha  occ. eigenvalues --   -0.44177  -0.43282  -0.42019  -0.37020  -0.35956
 Alpha  occ. eigenvalues --   -0.33602  -0.32441  -0.31246  -0.29830  -0.27784
 Alpha virt. eigenvalues --    0.03764   0.04038   0.04333   0.04863   0.05205
 Alpha virt. eigenvalues --    0.05462   0.05648   0.05821   0.06289   0.06818
 Alpha virt. eigenvalues --    0.07133   0.07362   0.07865   0.07878   0.08322

 Mulliken charges:
               1
     1  C   -0.191974
     2  C   -3.418259
     3  C   -5.711706
     4  C    0.772047
     5  C    8.043100
     6  C   -5.351572
     7  C    7.545815
     8  C   -5.014862
     9  C   -3.582898
    10  C    6.557759
    11  C   -4.576187
    12  H    1.004075
    13  H    0.992053
    14  H    2.440917
    15  H    1.678246
    16  H    0.783125
    17  H    1.483817
    18  H    1.255392
    19  H    1.237430
    20  H    2.562297
    21  H    1.471168
    22  H    1.072687
    23  H    1.612641
    24  H    1.178951
    25  H    2.488304
    26  H    1.357832
    27  H    1.582572
    28  H    1.818253
    29  H    0.532784
    30  H    0.573431
    31  H    1.666482
    32  N   -3.359554
    33  N   -2.220179
    34  O   -3.502028
    35  O   -4.249262
    36  O   -3.431147
    37  O   -3.641001
    38  O   -3.460550
 Sum of Mulliken charges =   0.00000

 Dipole moment (field-independent basis, Debye):
    X=             -1.0153    Y=             -1.3726    Z=              0.2959  Tot=              1.7327

 Test job not archived.
 1\1\GINC-SE195\SP\RHF\Aug-CC-pVDZ\C11H20N2O5\OHZDE\08-Apr-2025\0\\#t h
 f aug-cc-pvdz iop(5/13=1,5/36=2,99/5=2) pseudo=read geom=check guess=(
 read,tcheck) scf=(maxcycle=1)\\title\\0,1\C,0,-1.55318,2.09777,0.26954
 8\C,0,1.71613,-2.24076,0.610466\C,0,1.03316,-0.532606,2.41453\C,0,1.90
 613,-0.822844,1.18701\C,0,2.58144,0.168051,-0.961741\C,0,0.341497,-2.6
 8934,0.0552288\C,0,-2.5393,-1.55778,-0.543606\C,0,-2.36604,-0.21775,0.
 218044\C,0,-2.1852,1.04224,-0.634497\C,0,-0.0769615,2.00166,0.435477\C
 ,0,1.76724,0.355051,0.280982\H,0,1.20861,-1.18817,3.20401\H,0,2.84355,

 Normal termination of Gaussian 16 at Tue Apr  8 21:46:59 2025.
