 Gaussian 16, Revision C.01,

 ----------------------------------------------------------------------
 #t hf aug-cc-pvdz symm=none int=(grid=ultrafine) guess=(read,tcheck) s
 table=(opt,rrhf)
 ----------------------------------------------------------------------
 -----
 title
 -----
 Symbolic Z-matrix:
 Charge =  0 Multiplicity = 1

 SCF Done:  E(RHF) =  -724.112376755     A.U. after   15 cycles
 Normal termination of Gaussian 16 at Tue Apr  8 20:33:14 2025.
 Gaussian 16:  ES64L-G16RevC.01  3-Jul-2019

 ----------------------------------------------------------------------
 #t hf aug-cc-pvdz iop(5/13=1,5/36=2,99/5=2) pseudo=read geom=check gue
 ss=(read,tcheck) scf=(maxcycle=1)
 ----------------------------------------------------------------------
 -----
 title
 -----
 Structure from the checkpoint file:  "ANI1ccx_161_conf1_mol1.chk"
 Charge =  0 Multiplicity = 1

                         Standard orientation:
 ---------------------------------------------------------------------
 Center     Atomic      Atomic             Coordinates (Angstroms)
 Number     Number       Type             X           Y           Z
 ---------------------------------------------------------------------
      1          6           0        5.493610    0.192520    0.399901
      2          6           0       -0.516024    1.368000   -0.157649
      3          6           0       -1.873700    1.643830    0.017765
      4          6           0       -4.135960    0.438224    0.511913
      5          6           0       -4.510860   -0.916891   -0.041986
      6          6           0       -2.711850    0.576369    0.091673
      7          6           0       -0.889099   -1.097130   -0.121557
      8          6           0       -0.053246   -0.040704   -0.131588
      9          6           0        2.494940   -0.164160    0.432917
     10          6           0        3.434280   -0.883400   -0.383828
     11          6           0       -2.252870   -0.794494   -0.106434
     12          1           0       -5.369470   -1.511220    0.380084
     13          1           0        0.294686    3.235290   -0.305209
     14          1           0       -2.203050    2.679610   -0.206893
     15          1           0       -4.116810    0.356379    1.564410
     16          1           0       -4.754150    1.236670    0.206813
     17          1           0       -4.796560   -0.757659   -1.113460
     18          1           0       -0.646066   -2.079980   -0.174977
     19          1           0        3.360590   -0.444405   -1.428510
     20          1           0        2.282370   -0.689429    1.385510
     21          1           0        2.972220   -1.864171   -0.564265
     22          1           0        5.212420    0.881930   -0.422843
     23          1           0        5.210740    0.774905    1.292980
     24          1           0        6.495660   -0.113019    0.253765
     25          1           0        2.738880    0.905821    0.604672
     26          8           0       -3.314700   -1.662020    0.010425
     27          8           0        4.785500   -0.996629    0.085636
     28          8           0        1.308390   -0.227953   -0.351352
     29          8           0        0.526212    2.318640   -0.312062
 ---------------------------------------------------------------------

 SCF Done:  E(RHF) =  -727.400616796     A.U. after    2 cycles

 The electronic state is 1-A.
 Alpha  occ. eigenvalues --  -21.09823 -21.07135 -21.03826 -21.03756 -11.54056
 Alpha  occ. eigenvalues --  -11.48486 -11.47235 -11.47076 -11.46195 -11.44609
 Alpha  occ. eigenvalues --  -11.42585 -11.40705 -11.40030 -11.38936 -11.37848
 Alpha  occ. eigenvalues --   -1.80969  -1.77822  -1.72792  -1.71004  -1.30306
 Alpha  occ. eigenvalues --   -1.19133  -1.11638  -1.08241  -1.02467  -0.97198
 Alpha  occ. eigenvalues --   -0.89561  -0.85447  -0.84945  -0.80407  -0.69483
 Alpha  occ. eigenvalues --   -0.69204  -0.68039  -0.67356  -0.65078  -0.62589
 Alpha  occ. eigenvalues --   -0.60225  -0.58678  -0.57320  -0.55689  -0.55596
 Alpha  occ. eigenvalues --   -0.53837  -0.52338  -0.51586  -0.50217  -0.48273
 Alpha  occ. eigenvalues --   -0.47031  -0.45176  -0.42215  -0.40721  -0.39140
 Alpha  occ. eigenvalues --   -0.36170  -0.33865  -0.31836  -0.30524  -0.28608
 Alpha  occ. eigenvalues --   -0.21776
 Alpha virt. eigenvalues --    0.03526   0.04319   0.04852   0.04992   0.05094
 Alpha virt. eigenvalues --    0.05591   0.05884   0.06453   0.06756   0.07074
 Alpha virt. eigenvalues --    0.07513   0.07982   0.08560   0.09151   0.09887

 Mulliken charges:
               1
     1  C   -3.069675
     2  C    1.906067
     3  C   -1.236405
     4  C   -5.266276
     5  C   -2.390598
     6  C    1.833261
     7  C   -4.306468
     8  C    7.353303
     9  C   -2.815655
    10  C   -0.844127
    11  C    5.854339
    12  H    1.526767
    13  H    1.181482
    14  H    1.555067
    15  H    1.081276
    16  H    0.919700
    17  H    1.420697
    18  H    1.957627
    19  H    1.597180
    20  H    1.722583
    21  H    1.380486
    22  H    1.276910
    23  H    1.446155
    24  H    1.279644
    25  H    1.922626
    26  O   -4.238914
    27  O   -3.172652
    28  O   -5.423587
    29  O   -4.450813
 Sum of Mulliken charges =   0.00000

 Dipole moment (field-independent basis, Debye):
    X=             -0.9463    Y=              1.5123    Z=              0.5859  Tot=              1.8777

 Test job not archived.
 1\1\GINC-SE187\SP\RHF\Aug-CC-pVDZ\C11H14O4\OHZDE\08-Apr-2025\0\\#t hf
 aug-cc-pvdz iop(5/13=1,5/36=2,99/5=2) pseudo=read geom=check guess=(re
 ad,tcheck) scf=(maxcycle=1)\\title\\0,1\C,0,5.49361,0.192521,0.399901\
 C,0,-0.516024,1.368,-0.157649\C,0,-1.8737,1.64383,0.0177648\C,0,-4.135
 96,0.438224,0.511913\C,0,-4.51086,-0.916891,-0.0419858\C,0,-2.71185,0.
 576369,0.0916729\C,0,-0.889099,-1.09713,-0.121557\C,0,-0.0532457,-0.04
 07037,-0.131588\C,0,2.49494,-0.164159,0.432917\C,0,3.43428,-0.883399,-
 0.383828\C,0,-2.25287,-0.794494,-0.106434\H,0,-5.36947,-1.51122,0.3800

 Normal termination of Gaussian 16 at Tue Apr  8 20:33:44 2025.
