 Gaussian 16, Revision C.01,

 ----------------------------------------------------------------------
 #t hf aug-cc-pvdz symm=none int=(grid=ultrafine) guess=(read,tcheck) s
 table=(opt,rrhf)
 ----------------------------------------------------------------------
 -----
 title
 -----
 Symbolic Z-matrix:
 Charge =  0 Multiplicity = 1

 SCF Done:  E(RHF) =  -810.470640798     A.U. after   14 cycles
 Normal termination of Gaussian 16 at Tue Apr  8 19:56:17 2025.
 Gaussian 16:  ES64L-G16RevC.01  3-Jul-2019

 ----------------------------------------------------------------------
 #t hf aug-cc-pvdz iop(5/13=1,5/36=2,99/5=2) pseudo=read geom=check gue
 ss=(read,tcheck) scf=(maxcycle=1)
 ----------------------------------------------------------------------
 -----
 title
 -----
 Structure from the checkpoint file:  "ANI1ccx_1427_conf14_mol2.chk"
 Charge =  0 Multiplicity = 1

                         Standard orientation:
 ---------------------------------------------------------------------
 Center     Atomic      Atomic             Coordinates (Angstroms)
 Number     Number       Type             X           Y           Z
 ---------------------------------------------------------------------
      1          6           0       -2.179810   -1.087541   -0.341920
      2          6           0       -1.295890    0.109729    0.002352
      3          6           0       -3.591110   -0.802808    0.140425
      4          6           0        1.107329    0.701008    0.172011
      5          6           0        1.152768    2.260231    0.014769
      6          6           0        2.439170    0.063463   -0.280519
      7          6           0        2.570760   -1.451769    0.036050
      8          1           0       -0.691636    2.420430    0.378057
      9          1           0        4.633040   -1.374538   -0.393863
     10          1           0        3.939721   -2.933788    0.000826
     11          1           0        2.532349    0.158373   -1.401530
     12          1           0        3.211619    0.697364    0.169182
     13          1           0        1.067969    0.647658    1.299880
     14          1           0        0.263424   -0.887648   -0.869428
     15          1           0       -3.782021    1.072018   -0.185929
     16          1           0       -3.559150   -0.610146    1.220120
     17          1           0       -4.205210   -1.667842   -0.032949
     18          1           0       -2.249060   -1.204621   -1.424160
     19          1           0       -1.609049   -2.125181    1.292990
     20          1           0       -0.780710   -2.584671   -0.138089
     21          7           0       -1.636829   -2.276491    0.280863
     22          7           0       -0.006093    0.019747   -0.458202
     23          7           0        3.865831   -1.919298    0.030348
     24          8           0       -1.657991    1.004049    0.750255
     25          8           0       -4.165761    0.280086   -0.540754
     26          8           0        2.239168    2.788311   -0.032929
     27          8           0        1.618301   -2.181589    0.152417
     28          8           0        0.022414    2.968020    0.002863
 ---------------------------------------------------------------------

 SCF Done:  E(RHF) =  -814.021751380     A.U. after    2 cycles

 The electronic state is 1-A.
 Alpha  occ. eigenvalues --  -21.10914 -21.06789 -21.06618 -21.06368 -21.04691
 Alpha  occ. eigenvalues --  -15.80366 -15.78218 -15.74882 -11.55409 -11.54706
 Alpha  occ. eigenvalues --  -11.54401 -11.50056 -11.47201 -11.43276 -11.41109
 Alpha  occ. eigenvalues --   -1.82480  -1.76176  -1.75479  -1.71397  -1.65419
 Alpha  occ. eigenvalues --   -1.43965  -1.37120  -1.35277  -1.17617  -1.07536
 Alpha  occ. eigenvalues --   -1.01466  -0.92452  -0.84345  -0.81351  -0.78001
 Alpha  occ. eigenvalues --   -0.75141  -0.73629  -0.70673  -0.70433  -0.66675
 Alpha  occ. eigenvalues --   -0.64486  -0.63655  -0.61960  -0.60266  -0.57293
 Alpha  occ. eigenvalues --   -0.55302  -0.53936  -0.53813  -0.52683  -0.51288
 Alpha  occ. eigenvalues --   -0.50308  -0.49940  -0.47793  -0.45576  -0.41834
 Alpha  occ. eigenvalues --   -0.39108  -0.37162  -0.36569  -0.33607  -0.32701
 Alpha  occ. eigenvalues --   -0.31135  -0.29631  -0.28874
 Alpha virt. eigenvalues --    0.02660   0.04135   0.04624   0.05142   0.05465
 Alpha virt. eigenvalues --    0.05938   0.06111   0.06745   0.07033   0.07560
 Alpha virt. eigenvalues --    0.07724   0.08427   0.09150   0.10550   0.11398

 Mulliken charges:
               1
     1  C   -2.851856
     2  C    7.247399
     3  C   -0.418453
     4  C   -1.670069
     5  C    6.194205
     6  C   -3.328718
     7  C    5.415780
     8  H    1.387227
     9  H    0.764747
    10  H    0.718135
    11  H    1.430913
    12  H    1.534299
    13  H    1.828960
    14  H    0.934363
    15  H    0.764761
    16  H    1.459216
    17  H    1.124713
    18  H    2.001585
    19  H    0.613824
    20  H    0.679741
    21  N   -2.686425
    22  N   -3.520268
    23  N   -3.323336
    24  O   -3.601429
    25  O   -2.796709
    26  O   -3.213733
    27  O   -3.291524
    28  O   -3.397345
 Sum of Mulliken charges =  -0.00000

 Dipole moment (field-independent basis, Debye):
    X=              2.9072    Y=             -3.2369    Z=             -0.3553  Tot=              4.3653

 Test job not archived.
 1\1\GINC-SE143\SP\RHF\Aug-CC-pVDZ\C7H13N3O5\OHZDE\08-Apr-2025\0\\#t hf
  aug-cc-pvdz iop(5/13=1,5/36=2,99/5=2) pseudo=read geom=check guess=(r
 ead,tcheck) scf=(maxcycle=1)\\title\\0,1\C,0,-2.17981,-1.08754,-0.3419
 2\C,0,-1.29589,0.10973,0.0023521\C,0,-3.59111,-0.802806,0.140425\C,0,1
 .10733,0.701007,0.172011\C,0,1.15277,2.26023,0.0147692\C,0,2.43917,0.0
 634621,-0.280519\C,0,2.57076,-1.45177,0.0360495\H,0,-0.691634,2.42043,
 0.378057\H,0,4.63304,-1.37454,-0.393863\H,0,3.93972,-2.93379,0.0008257
 7\H,0,2.53235,0.158372,-1.40153\H,0,3.21162,0.697362,0.169182\H,0,1.06

 Normal termination of Gaussian 16 at Tue Apr  8 19:56:48 2025.
