 Gaussian 16, Revision C.01,

 ----------------------------------------------------------------------
 #t hf aug-cc-pvdz symm=none int=(grid=ultrafine) guess=(read,tcheck) s
 table=(opt,rrhf)
 ----------------------------------------------------------------------
 -----
 title
 -----
 Symbolic Z-matrix:
 Charge =  0 Multiplicity = 1

 SCF Done:  E(RHF) =  -798.773972985     A.U. after   15 cycles
 Normal termination of Gaussian 16 at Tue Apr  8 22:23:18 2025.
 Gaussian 16:  ES64L-G16RevC.01  3-Jul-2019

 ----------------------------------------------------------------------
 #t hf aug-cc-pvdz iop(5/13=1,5/36=2,99/5=2) pseudo=read geom=check gue
 ss=(read,tcheck) scf=(maxcycle=1)
 ----------------------------------------------------------------------
 -----
 title
 -----
 Structure from the checkpoint file:  "ANI1ccx_86_conf2_mol2.chk"
 Charge =  0 Multiplicity = 1

                         Standard orientation:
 ---------------------------------------------------------------------
 Center     Atomic      Atomic             Coordinates (Angstroms)
 Number     Number       Type             X           Y           Z
 ---------------------------------------------------------------------
      1          6           0       -1.588370   -1.259019    0.435210
      2          6           0        2.994110   -0.330838   -0.316384
      3          6           0        1.510141    1.677350    0.524460
      4          6           0        1.950390    0.146875    0.785262
      5          6           0       -4.310170    0.235524   -1.533010
      6          6           0        3.320970   -1.808361   -0.279988
      7          6           0       -2.130959    1.206891    1.077890
      8          6           0       -2.568080   -0.079340    0.304900
      9          6           0       -0.170173   -0.874246   -0.069862
     10          6           0       -2.803720    0.202565   -1.193350
     11          1           0       -4.803939    0.982786   -0.910386
     12          1           0        1.981271    1.331460   -1.284930
     13          1           0        3.429190   -2.177421    0.722844
     14          1           0        4.110480   -2.126531   -0.975022
     15          1           0        2.506960   -2.470261   -0.680580
     16          1           0        1.773780   -0.484295   -1.826250
     17          1           0        3.933970    0.262003   -0.079257
     18          1           0        2.350500    0.160563    1.760940
     19          1           0        0.324505   -0.780236    1.859260
     20          1           0       -4.796540   -0.745247   -1.328100
     21          1           0       -2.286390   -0.530530   -1.787340
     22          1           0       -2.359599    1.156281   -1.498550
     23          1           0       -1.408569    1.869161    0.470894
     24          1           0       -1.606709    0.896961    1.954660
     25          1           0       -3.082459    1.758521    1.237730
     26          1           0       -3.453350   -0.469622    0.762985
     27          1           0       -1.915240   -2.102079   -0.173947
     28          1           0       -1.193211   -2.704349    1.862580
     29          1           0       -2.346680   -1.650709    2.368290
     30          1           0       -4.489719    0.435674   -2.544250
     31          7           0       -1.466060   -1.699799    1.838770
     32          7           0        0.737215   -0.640843    0.942646
     33          8           0        2.612430    0.020463   -1.655930
     34          8           0        0.071180   -0.742358   -1.271250
     35          8           0        0.946201    2.269690    1.426170
     36          8           0        1.521291    2.085700   -0.723023
 ---------------------------------------------------------------------

 SCF Done:  E(RHF) =  -802.472808459     A.U. after    2 cycles

 The electronic state is 1-A.
 Alpha  occ. eigenvalues --  -21.08406 -21.07916 -21.04597 -21.02686 -15.77180
 Alpha  occ. eigenvalues --  -15.75489 -11.55292 -11.52540 -11.49545 -11.49260
 Alpha  occ. eigenvalues --  -11.45889 -11.43682 -11.39611 -11.39382 -11.37611
 Alpha  occ. eigenvalues --  -11.35131  -1.80770  -1.74501  -1.72334  -1.62942
 Alpha  occ. eigenvalues --   -1.43457  -1.36071  -1.22621  -1.16114  -1.07997
 Alpha  occ. eigenvalues --   -1.05785  -1.00068  -0.91657  -0.88204  -0.83772
 Alpha  occ. eigenvalues --   -0.80558  -0.76327  -0.73489  -0.69025  -0.68495
 Alpha  occ. eigenvalues --   -0.67143  -0.64071  -0.62518  -0.60962  -0.60623
 Alpha  occ. eigenvalues --   -0.58949  -0.57804  -0.57065  -0.55522  -0.54434
 Alpha  occ. eigenvalues --   -0.52780  -0.51673  -0.50485  -0.48762  -0.48533
 Alpha  occ. eigenvalues --   -0.48271  -0.47639  -0.46807  -0.46183  -0.42435
 Alpha  occ. eigenvalues --   -0.42271  -0.41048  -0.38382  -0.35460  -0.31291
 Alpha  occ. eigenvalues --   -0.30160  -0.28697  -0.26194
 Alpha virt. eigenvalues --    0.03298   0.03754   0.03893   0.04233   0.04528
 Alpha virt. eigenvalues --    0.05364   0.05537   0.05960   0.06298   0.06955
 Alpha virt. eigenvalues --    0.07187   0.07504   0.07994   0.08131   0.08885

 Mulliken charges:
               1
     1  C   -1.933446
     2  C    1.073749
     3  C    6.862250
     4  C   -2.655182
     5  C   -4.323063
     6  C   -4.294554
     7  C   -5.103495
     8  C    0.691408
     9  C    5.914009
    10  C   -3.755833
    11  H    1.368310
    12  H    1.626929
    13  H    1.403098
    14  H    1.123700
    15  H    1.346158
    16  H    1.172852
    17  H    1.719897
    18  H    2.483689
    19  H    0.759746
    20  H    1.246080
    21  H    1.975089
    22  H    1.460951
    23  H    1.472285
    24  H    1.520389
    25  H    1.041381
    26  H    1.884276
    27  H    1.697364
    28  H    0.453391
    29  H    0.667475
    30  H    1.098064
    31  N   -3.019794
    32  N   -2.678385
    33  O   -3.442175
    34  O   -3.979236
    35  O   -3.553672
    36  O   -3.323705
 Sum of Mulliken charges =   0.00000

 Dipole moment (field-independent basis, Debye):
    X=             -0.8621    Y=             -3.4833    Z=              0.5265  Tot=              3.6268

 Test job not archived.
 1\1\GINC-SE454\SP\RHF\Aug-CC-pVDZ\C10H20N2O4\OHZDE\08-Apr-2025\0\\#t h
 f aug-cc-pvdz iop(5/13=1,5/36=2,99/5=2) pseudo=read geom=check guess=(
 read,tcheck) scf=(maxcycle=1)\\title\\0,1\C,0,-1.58837,-1.25902,0.4352
 1\C,0,2.99411,-0.330837,-0.316384\C,0,1.51014,1.67735,0.52446\C,0,1.95
 039,0.146875,0.785262\C,0,-4.31017,0.235522,-1.53301\C,0,3.32097,-1.80
 836,-0.279988\C,0,-2.13096,1.20689,1.07789\C,0,-2.56808,-0.0793412,0.3
 049\C,0,-0.170173,-0.874246,-0.0698619\C,0,-2.80372,0.202564,-1.19335\
 H,0,-4.80394,0.982784,-0.910386\H,0,1.98127,1.33146,-1.28493\H,0,3.429

 Normal termination of Gaussian 16 at Tue Apr  8 22:24:14 2025.
