 Gaussian 16, Revision C.01,

 ----------------------------------------------------------------------
 #t hf aug-cc-pvdz symm=none int=(grid=ultrafine) guess=(read,tcheck) s
 table=(opt,rrhf)
 ----------------------------------------------------------------------
 -----
 title
 -----
 Symbolic Z-matrix:
 Charge =  0 Multiplicity = 1

 SCF Done:  E(RHF) =  -465.394330020     A.U. after   15 cycles
 Normal termination of Gaussian 16 at Tue Apr  8 21:44:56 2025.
 Gaussian 16:  ES64L-G16RevC.01  3-Jul-2019

 ----------------------------------------------------------------------
 #t hf aug-cc-pvdz iop(5/13=1,5/36=2,99/5=2) pseudo=read geom=check gue
 ss=(read,tcheck) scf=(maxcycle=1)
 ----------------------------------------------------------------------
 -----
 title
 -----
 Structure from the checkpoint file:  "ANI1ccx_503_conf8_mol1.chk"
 Charge =  0 Multiplicity = 1

                         Standard orientation:
 ---------------------------------------------------------------------
 Center     Atomic      Atomic             Coordinates (Angstroms)
 Number     Number       Type             X           Y           Z
 ---------------------------------------------------------------------
      1          6           0       -1.473950    0.060109    0.102276
      2          6           0        0.826809    0.730417   -0.091835
      3          1           0        1.666663   -0.886585    1.069110
      4          1           0       -1.116855   -1.774043   -0.529835
      5          1           0       -0.794924    2.179028   -0.251976
      6          7           0        0.792500   -0.625953   -0.487756
      7          7           0       -0.615694   -1.034181   -0.065844
      8          7           0       -0.564127    1.117169   -0.150620
      9          8           0        1.688994   -1.375295    0.200877
     10          8           0       -2.663200   -0.024061    0.209746
     11          8           0        1.829106    1.341756    0.161826
 ---------------------------------------------------------------------

 SCF Done:  E(RHF) =  -467.345016439     A.U. after    2 cycles

 The electronic state is 1-A.
 Alpha  occ. eigenvalues --  -21.14029 -21.10253 -21.07953 -15.85357 -15.82083
 Alpha  occ. eigenvalues --  -15.80374 -11.56967 -11.55622  -1.89135  -1.76443
 Alpha  occ. eigenvalues --   -1.75512  -1.53146  -1.32649  -1.18906  -0.89818
 Alpha  occ. eigenvalues --   -0.86702  -0.75275  -0.71768  -0.68352  -0.64121
 Alpha  occ. eigenvalues --   -0.57742  -0.56027  -0.55435  -0.51134  -0.47232
 Alpha  occ. eigenvalues --   -0.39268  -0.38041  -0.35788  -0.34336  -0.31668
 Alpha virt. eigenvalues --    0.03443   0.05526   0.06058   0.09184   0.09621
 Alpha virt. eigenvalues --    0.10078   0.11360   0.11861   0.11993   0.13021
 Alpha virt. eigenvalues --    0.14219   0.14950   0.15718   0.16980   0.17396

 Mulliken charges:
               1
     1  C    4.627581
     2  C    5.027541
     3  H    0.623401
     4  H    0.729754
     5  H    0.663614
     6  N    0.869161
     7  N   -1.935340
     8  N   -2.234435
     9  O   -2.523642
    10  O   -2.854729
    11  O   -2.992905
 Sum of Mulliken charges =   0.00000

 Dipole moment (field-independent basis, Debye):
    X=              0.1275    Y=              0.1253    Z=             -0.3046  Tot=              0.3532

 Test job not archived.
 1\1\GINC-SE365\SP\RHF\Aug-CC-pVDZ\C2H3N3O3\OHZDE\08-Apr-2025\0\\#t hf
 aug-cc-pvdz iop(5/13=1,5/36=2,99/5=2) pseudo=read geom=check guess=(re
 ad,tcheck) scf=(maxcycle=1)\\title\\0,1\C,0,-1.47395,0.0601122,0.10227
 6\C,0,0.826811,0.730414,-0.0918346\H,0,1.66666,-0.88659,1.06911\H,0,-1
 .11686,-1.77404,-0.529835\H,0,-0.794918,2.17903,-0.251976\N,0,0.792498
 ,-0.625956,-0.487756\N,0,-0.615697,-1.03418,-0.065844\N,0,-0.564124,1.
 11717,-0.15062\O,0,1.68899,-1.3753,0.200877\O,0,-2.6632,-0.0240535,0.2
 09746\O,0,1.82911,1.34175,0.161826\\Version=ES64L-G16RevC.01\State=1-A

 Normal termination of Gaussian 16 at Tue Apr  8 21:45:00 2025.
