 Gaussian 16, Revision C.01,

 ----------------------------------------------------------------------
 #t hf aug-cc-pvdz symm=none int=(grid=ultrafine) guess=(read,tcheck) s
 table=(opt,rrhf)
 ----------------------------------------------------------------------
 -----
 title
 -----
 Symbolic Z-matrix:
 Charge =  0 Multiplicity = 1

 SCF Done:  E(RHF) =  -381.957204494     A.U. after   13 cycles

 1\1\GINC-SE331\Stability\RHF\Aug-CC-pVDZ\C4H10O3\OHZDE\08-Apr-2025\0\\
 #t hf aug-cc-pvdz symm=none int=(grid=ultrafine) guess=(read,tcheck) s
 table=(opt,rrhf)\\title\\0,1\C,0,-2.12706,1.32137,-0.584857\C,0,-2.425
 9,-0.0433755,0.234272\C,0,-1.27418,-1.05514,0.0281584\C,0,0.0979934,-0
 .42118,0.191272\H,0,1.85713,-0.586589,-0.392304\H,0,-1.38979,-1.51741,
 -0.923432\H,0,-1.34285,-1.88814,0.741933\H,0,-3.33939,-0.47892,-0.1833
 15\H,0,-2.66978,0.119825,1.28765\H,0,-1.97369,1.01906,-1.62738\H,0,-1.
 22298,1.74378,-0.147704\H,0,-2.98366,2.04922,-0.522398\H,0,3.79939,1.3

 Normal termination of Gaussian 16 at Tue Apr  8 22:00:26 2025.
 Gaussian 16:  ES64L-G16RevC.01  3-Jul-2019

 ----------------------------------------------------------------------
 #t hf aug-cc-pvdz iop(5/13=1,5/36=2,99/5=2) pseudo=read geom=check gue
 ss=(read,tcheck) scf=(maxcycle=1)
 ----------------------------------------------------------------------
 -----
 title
 -----
 Structure from the checkpoint file:  "ANI1ccx_813_conf2_mol2.chk"
 Charge =  0 Multiplicity = 1

                         Standard orientation:
 ---------------------------------------------------------------------
 Center     Atomic      Atomic             Coordinates (Angstroms)
 Number     Number       Type             X           Y           Z
 ---------------------------------------------------------------------
      1          6           0       -2.127059    1.321372   -0.584857
      2          6           0       -2.425900   -0.043374    0.234272
      3          6           0       -1.274181   -1.055139    0.028158
      4          6           0        0.097993   -0.421179    0.191272
      5          1           0        1.857130   -0.586589   -0.392304
      6          1           0       -1.389791   -1.517409   -0.923432
      7          1           0       -1.342851   -1.888139    0.741933
      8          1           0       -3.339390   -0.478918   -0.183315
      9          1           0       -2.669780    0.119827    1.287650
     10          1           0       -1.973690    1.019062   -1.627380
     11          1           0       -1.222979    1.743781   -0.147704
     12          1           0       -2.983659    2.049222   -0.522398
     13          1           0        3.799391    1.301789    0.395792
     14          1           0        4.223680    0.161103   -0.608192
     15          8           0        3.498160    0.564618   -0.129712
     16          8           0        1.021839   -1.108730   -0.506142
     17          8           0        0.407103    0.452386    0.981639
 ---------------------------------------------------------------------

 SCF Done:  E(RHF) =  -383.669553155     A.U. after    2 cycles

 The electronic state is 1-A.
 Alpha  occ. eigenvalues --  -21.11732 -21.09573 -21.03280 -11.51076 -11.42022
 Alpha  occ. eigenvalues --  -11.37993 -11.35364  -1.80689  -1.68419  -1.62858
 Alpha  occ. eigenvalues --   -1.20286  -1.02196  -0.87663  -0.75691  -0.66913
 Alpha  occ. eigenvalues --   -0.64760  -0.63071  -0.59743  -0.56495  -0.53862
 Alpha  occ. eigenvalues --   -0.49505  -0.48981  -0.47596  -0.45827  -0.43441
 Alpha  occ. eigenvalues --   -0.41642  -0.37310  -0.31627  -0.27943
 Alpha virt. eigenvalues --    0.03401   0.04806   0.05376   0.06042   0.06089
 Alpha virt. eigenvalues --    0.06419   0.07071   0.07113   0.09006   0.09032
 Alpha virt. eigenvalues --    0.12268   0.13662   0.13987   0.15314   0.15695

 Mulliken charges:
               1
     1  C   -3.848812
     2  C   -2.706084
     3  C   -3.682249
     4  C    6.280294
     5  H    1.365049
     6  H    1.462138
     7  H    1.405270
     8  H    1.302760
     9  H    1.339711
    10  H    1.313010
    11  H    1.387010
    12  H    1.132321
    13  H    1.004287
    14  H    0.955395
    15  O   -2.084042
    16  O   -3.470298
    17  O   -3.155762
 Sum of Mulliken charges =  -0.00000

 Dipole moment (field-independent basis, Debye):
    X=              1.5672    Y=             -0.1587    Z=             -0.5481  Tot=              1.6679

 Test job not archived.
 1\1\GINC-SE331\SP\RHF\Aug-CC-pVDZ\C4H10O3\OHZDE\08-Apr-2025\0\\#t hf a
 ug-cc-pvdz iop(5/13=1,5/36=2,99/5=2) pseudo=read geom=check guess=(rea
 d,tcheck) scf=(maxcycle=1)\\title\\0,1\C,0,-2.12706,1.32137,-0.584857\
 C,0,-2.4259,-0.0433755,0.234272\C,0,-1.27418,-1.05514,0.0281584\C,0,0.
 0979934,-0.42118,0.191272\H,0,1.85713,-0.586589,-0.392304\H,0,-1.38979
 ,-1.51741,-0.923432\H,0,-1.34285,-1.88814,0.741933\H,0,-3.33939,-0.478
 92,-0.183315\H,0,-2.66978,0.119825,1.28765\H,0,-1.97369,1.01906,-1.627
 38\H,0,-1.22298,1.74378,-0.147704\H,0,-2.98366,2.04922,-0.522398\H,0,3

 Normal termination of Gaussian 16 at Tue Apr  8 22:00:32 2025.
