 Gaussian 16, Revision C.01,

 ----------------------------------------------------------------------
 #t hf aug-cc-pvdz symm=none int=(grid=ultrafine) guess=(read,tcheck) s
 table=(opt,rrhf)
 ----------------------------------------------------------------------
 -----
 title
 -----
 Symbolic Z-matrix:
 Charge =  0 Multiplicity = 1

 SCF Done:  E(RHF) =  -532.293312536     A.U. after   11 cycles
 Normal termination of Gaussian 16 at Tue Apr  8 21:11:11 2025.
 Gaussian 16:  ES64L-G16RevC.01  3-Jul-2019

 ----------------------------------------------------------------------
 #t hf aug-cc-pvdz iop(5/13=1,5/36=2,99/5=2) pseudo=read geom=check gue
 ss=(read,tcheck) scf=(maxcycle=1)
 ----------------------------------------------------------------------
 -----
 title
 -----
 Structure from the checkpoint file:  "ANI1ccx_1845_conf212_mol1.chk"
 Charge =  0 Multiplicity = 1

                         Standard orientation:
 ---------------------------------------------------------------------
 Center     Atomic      Atomic             Coordinates (Angstroms)
 Number     Number       Type             X           Y           Z
 ---------------------------------------------------------------------
      1          1           0       -1.886137   -2.962425    0.662013
      2          1           0        1.153255   -2.271283   -1.484360
      3          1           0       -0.014021   -2.073750   -0.512632
      4          1           0       -2.617048    0.425158    0.122369
      5          1           0       -3.881170   -0.349393   -0.299698
      6          1           0       -2.130804   -1.552125   -0.046076
      7          1           0       -0.989230    2.545372    0.041319
      8          1           0        2.525262    0.447603   -0.174249
      9          1           0       -2.207944    2.272766    0.980438
     10          1           0        2.204027   -1.412926    0.679640
     11          1           0        2.972818   -1.057868    2.131530
     12          1           0        1.143210    3.417097   -0.452732
     13          1           0        1.171816    1.908347   -0.009637
     14          1           0        1.401411    0.041112   -1.127670
     15          8           0       -1.592516   -2.394956   -0.045209
     16          8           0        2.072003    0.774561   -1.019040
     17          8           0       -3.145831   -0.419318    0.330911
     18          8           0        3.083578   -1.040388    1.108520
     19          8           0        0.891419   -1.792963   -0.695191
     20          8           0       -1.938184    2.128755    0.018356
     21          8           0        0.773851    2.822098    0.237874
 ---------------------------------------------------------------------

 SCF Done:  E(RHF) =  -534.617843674     A.U. after    2 cycles

 The electronic state is 1-A.
 Alpha  occ. eigenvalues --  -21.10350 -21.09655 -21.08034 -21.07581 -21.07475
 Alpha  occ. eigenvalues --  -21.07465 -21.07123  -1.70475  -1.68357  -1.66227
 Alpha  occ. eigenvalues --   -1.64094  -1.63718  -1.62233  -1.61757  -0.66608
 Alpha  occ. eigenvalues --   -0.66309  -0.64828  -0.62545  -0.62151  -0.60673
 Alpha  occ. eigenvalues --   -0.59868  -0.53351  -0.50976  -0.50531  -0.47050
 Alpha  occ. eigenvalues --   -0.45015  -0.44008  -0.41202  -0.36354  -0.35857
 Alpha  occ. eigenvalues --   -0.35357  -0.34379  -0.34253  -0.33841  -0.32675
 Alpha virt. eigenvalues --    0.03708   0.04606   0.05146   0.05448   0.05713
 Alpha virt. eigenvalues --    0.06316   0.08486   0.08777   0.09422   0.09620
 Alpha virt. eigenvalues --    0.10036   0.10597   0.11033   0.11531   0.18282

 Mulliken charges:
               1
     1  H    0.836185
     2  H    0.940214
     3  H    1.843630
     4  H    1.417359
     5  H    0.735748
     6  H    1.710918
     7  H    1.423338
     8  H    1.156446
     9  H    0.754425
    10  H    1.445978
    11  H    0.827137
    12  H    0.803872
    13  H    1.521018
    14  H    1.286676
    15  O   -2.531142
    16  O   -2.441300
    17  O   -2.314783
    18  O   -2.022984
    19  O   -2.851017
    20  O   -2.258757
    21  O   -2.282960
 Sum of Mulliken charges =  -0.00000

 Dipole moment (field-independent basis, Debye):
    X=             -1.6646    Y=             -0.8928    Z=              0.1744  Tot=              1.8969

 Test job not archived.
 1\1\GINC-SE220\SP\RHF\Aug-CC-pVDZ\H14O7\OHZDE\08-Apr-2025\0\\#t hf aug
 -cc-pvdz iop(5/13=1,5/36=2,99/5=2) pseudo=read geom=check guess=(read,
 tcheck) scf=(maxcycle=1)\\title\\0,1\H,0,-1.88613,-2.96243,0.662013\H,
 0,1.15326,-2.27128,-1.48436\H,0,-0.0140157,-2.07375,-0.512632\H,0,-2.6
 1705,0.425151,0.122369\H,0,-3.88117,-0.349403,-0.299698\H,0,-2.1308,-1
 .55213,-0.0460753\H,0,-0.989237,2.54537,0.0413189\H,0,2.52526,0.44761,
 -0.174249\H,0,-2.20795,2.27276,0.980438\H,0,2.20403,-1.41292,0.67964\H
 ,0,2.97282,-1.05786,2.13153\H,0,1.1432,3.4171,-0.452732\H,0,1.17181,1.

 Normal termination of Gaussian 16 at Tue Apr  8 21:11:18 2025.
