 Gaussian 16, Revision C.01,

 ----------------------------------------------------------------------
 #t hf aug-cc-pvdz symm=none int=(grid=ultrafine) guess=(read,tcheck) s
 table=(opt,rrhf)
 ----------------------------------------------------------------------
 -----
 title
 -----
 Symbolic Z-matrix:
 Charge =  0 Multiplicity = 1

 SCF Done:  E(RHF) =  -410.050349796     A.U. after   13 cycles
 Normal termination of Gaussian 16 at Tue Apr  8 21:41:09 2025.
 Gaussian 16:  ES64L-G16RevC.01  3-Jul-2019

 ----------------------------------------------------------------------
 #t hf aug-cc-pvdz iop(5/13=1,5/36=2,99/5=2) pseudo=read geom=check gue
 ss=(read,tcheck) scf=(maxcycle=1)
 ----------------------------------------------------------------------
 -----
 title
 -----
 Structure from the checkpoint file:  "ANI1ccx_451_conf2_mol2.chk"
 Charge =  0 Multiplicity = 1

                         Standard orientation:
 ---------------------------------------------------------------------
 Center     Atomic      Atomic             Coordinates (Angstroms)
 Number     Number       Type             X           Y           Z
 ---------------------------------------------------------------------
      1          6           0       -0.274060   -0.012506   -0.275037
      2          1           0        3.585010   -1.103737    0.910495
      3          1           0        2.785450   -0.780538   -0.379311
      4          1           0       -2.428239   -1.895673   -0.665857
      5          1           0       -1.238619   -2.380702    0.366962
      6          1           0       -1.710721    0.080706    1.260470
      7          1           0        0.930939    1.425690   -0.888410
      8          1           0       -1.642673    2.087508   -0.169940
      9          1           0       -0.597367    2.400339    1.081850
     10          7           0       -1.951299   -1.661983    0.234740
     11          7           0       -1.472271   -0.321929    0.358512
     12          7           0        0.112372    1.211229   -0.316935
     13          7           0       -0.663923    2.340409    0.092416
     14          8           0        3.256349   -0.396623    0.369747
     15          8           0        0.466954   -0.944956   -0.675643
 ---------------------------------------------------------------------

 SCF Done:  E(RHF) =  -411.867147620     A.U. after    2 cycles

 The electronic state is 1-A.
 Alpha  occ. eigenvalues --  -21.07259 -21.00278 -15.79601 -15.78953 -15.77893
 Alpha  occ. eigenvalues --  -15.75929 -11.50024  -1.71237  -1.63746  -1.50725
 Alpha  occ. eigenvalues --   -1.44676  -1.19224  -1.12065  -0.85190  -0.73235
 Alpha  occ. eigenvalues --   -0.71505  -0.67440  -0.65373  -0.61849  -0.60724
 Alpha  occ. eigenvalues --   -0.54872  -0.50622  -0.43918  -0.42716  -0.38203
 Alpha  occ. eigenvalues --   -0.37571  -0.33292  -0.29706  -0.29055
 Alpha virt. eigenvalues --    0.03625   0.04722   0.05569   0.05837   0.06430
 Alpha virt. eigenvalues --    0.06727   0.07423   0.08893   0.11736   0.12984
 Alpha virt. eigenvalues --    0.15043   0.15437   0.16252   0.16764   0.16950

 Mulliken charges:
               1
     1  C    5.665648
     2  H    0.869742
     3  H    1.047642
     4  H    0.681383
     5  H    0.667979
     6  H    0.788141
     7  H    0.718792
     8  H    0.676440
     9  H    0.727815
    10  N   -1.853260
    11  N   -1.609401
    12  N   -1.818124
    13  N   -1.848790
    14  O   -1.889504
    15  O   -2.824502
 Sum of Mulliken charges =  -0.00000

 Dipole moment (field-independent basis, Debye):
    X=             -1.5733    Y=              0.6549    Z=              0.9587  Tot=              1.9553

 Test job not archived.
 1\1\GINC-SE453\SP\RHF\Aug-CC-pVDZ\C1H8N4O2\OHZDE\08-Apr-2025\0\\#t hf
 aug-cc-pvdz iop(5/13=1,5/36=2,99/5=2) pseudo=read geom=check guess=(re
 ad,tcheck) scf=(maxcycle=1)\\title\\0,1\C,0,-0.274059,-0.0125048,-0.27
 5037\H,0,3.58501,-1.10374,0.910495\H,0,2.78545,-0.78054,-0.379311\H,0,
 -2.42824,-1.89567,-0.665857\H,0,-1.23862,-2.3807,0.366962\H,0,-1.71072
 ,0.0807083,1.26047\H,0,0.930941,1.42569,-0.88841\H,0,-1.64267,2.08751,
 -0.16994\H,0,-0.597364,2.40034,1.08185\N,0,-1.9513,-1.66198,0.23474\N,
 0,-1.47227,-0.321927,0.358512\N,0,0.112374,1.21123,-0.316935\N,0,-0.66

 Normal termination of Gaussian 16 at Tue Apr  8 21:41:13 2025.
