 Gaussian 16, Revision C.01,

 ----------------------------------------------------------------------
 #t hf aug-cc-pvdz symm=none int=(grid=ultrafine) guess=(read,tcheck) s
 table=(opt,rrhf)
 ----------------------------------------------------------------------
 -----
 title
 -----
 Symbolic Z-matrix:
 Charge =  0 Multiplicity = 1

 SCF Done:  E(RHF) =  -616.073596932     A.U. after   13 cycles

 1\1\GINC-SE108\Stability\RHF\Aug-CC-pVDZ\C6H13N7\OHZDE\08-Apr-2025\0\\
 #t hf aug-cc-pvdz symm=none int=(grid=ultrafine) guess=(read,tcheck) s
 table=(opt,rrhf)\\title\\0,1\C,0,2.75603,0.254769,1.13239\C,0,3.21054,
 -0.813189,0.125924\C,0,2.16882,-1.02402,-0.998393\C,0,-0.239558,-0.756
 842,-0.282795\C,0,-2.41224,-0.606653,0.257901\C,0,-1.29778,1.23764,-0.
 286271\H,0,-0.482356,3.004,-0.903648\H,0,-2.14284,3.05998,-0.524771\H,
 0,-4.29453,-0.641002,0.88423\H,0,-3.47982,-2.14015,1.03687\H,0,0.76055
 1,-2.45237,-0.35687\H,0,2.02864,-0.0609359,-1.52842\H,0,2.5815,-1.7060

 Normal termination of Gaussian 16 at Tue Apr  8 19:33:24 2025.
 Gaussian 16:  ES64L-G16RevC.01  3-Jul-2019

 ----------------------------------------------------------------------
 #t hf aug-cc-pvdz iop(5/13=1,5/36=2,99/5=2) pseudo=read geom=check gue
 ss=(read,tcheck) scf=(maxcycle=1)
 ----------------------------------------------------------------------
 -----
 title
 -----
 Structure from the checkpoint file:  "ANI1ccx_1241_conf2_mol2.chk"
 Charge =  0 Multiplicity = 1

                         Standard orientation:
 ---------------------------------------------------------------------
 Center     Atomic      Atomic             Coordinates (Angstroms)
 Number     Number       Type             X           Y           Z
 ---------------------------------------------------------------------
      1          6           0        2.756030    0.254769    1.132390
      2          6           0        3.210540   -0.813189    0.125924
      3          6           0        2.168820   -1.024020   -0.998393
      4          6           0       -0.239558   -0.756842   -0.282795
      5          6           0       -2.412240   -0.606653    0.257901
      6          6           0       -1.297780    1.237640   -0.286271
      7          1           0       -0.482356    3.004000   -0.903648
      8          1           0       -2.142839    3.059980   -0.524771
      9          1           0       -4.294530   -0.641001    0.884230
     10          1           0       -3.479820   -2.140150    1.036870
     11          1           0        0.760551   -2.452370   -0.356870
     12          1           0        2.028640   -0.060936   -1.528420
     13          1           0        2.581500   -1.706020   -1.729160
     14          1           0        4.158270   -0.486412   -0.319159
     15          1           0        3.376350   -1.765590    0.621857
     16          1           0        3.540360    0.362780    1.878550
     17          1           0        1.898460   -0.121797    1.681690
     18          1           0        2.706460    2.315030    1.139080
     19          1           0        1.616490    1.568230    0.084054
     20          7           0        2.585970    1.554920    0.464435
     21          7           0        0.857591   -1.486910   -0.596019
     22          7           0       -1.328350   -1.386930    0.146427
     23          7           0       -3.561100   -1.238080    0.569315
     24          7           0       -2.475550    0.720956    0.049987
     25          7           0       -1.271800    2.584860   -0.441772
     26          7           0       -0.147106    0.581759   -0.429065
 ---------------------------------------------------------------------

 SCF Done:  E(RHF) =  -618.969606877     A.U. after    2 cycles

 The electronic state is 1-A.
 Alpha  occ. eigenvalues --  -15.77089 -15.77020 -15.75440 -15.70573 -15.70473
 Alpha  occ. eigenvalues --  -15.70090 -15.70020 -11.50841 -11.50706 -11.46722
 Alpha  occ. eigenvalues --  -11.43326 -11.40801 -11.35417  -1.59216  -1.45083
 Alpha  occ. eigenvalues --   -1.42949  -1.32688  -1.29089  -1.25335  -1.24061
 Alpha  occ. eigenvalues --   -1.11149  -0.97597  -0.91172  -0.88576  -0.82202
 Alpha  occ. eigenvalues --   -0.75410  -0.72665  -0.67953  -0.67285  -0.64701
 Alpha  occ. eigenvalues --   -0.63752  -0.63091  -0.59161  -0.58303  -0.56778
 Alpha  occ. eigenvalues --   -0.55792  -0.54515  -0.52145  -0.50979  -0.49909
 Alpha  occ. eigenvalues --   -0.48224  -0.44837  -0.44213  -0.36264  -0.35958
 Alpha  occ. eigenvalues --   -0.35157  -0.33519  -0.32319  -0.30216
 Alpha virt. eigenvalues --    0.03952   0.04845   0.05002   0.05546   0.05835
 Alpha virt. eigenvalues --    0.06022   0.06425   0.06615   0.06874   0.07729
 Alpha virt. eigenvalues --    0.07943   0.09062   0.10484   0.11600   0.12090

 Mulliken charges:
               1
     1  C   -2.761123
     2  C   -2.646284
     3  C   -2.536914
     4  C    4.798035
     5  C    5.146605
     6  C    4.386552
     7  H    0.658800
     8  H    0.699767
     9  H    0.656619
    10  H    0.665080
    11  H    0.663214
    12  H    1.902221
    13  H    1.387629
    14  H    1.352963
    15  H    1.458842
    16  H    1.203863
    17  H    1.936440
    18  H    0.531169
    19  H    1.023616
    20  N   -2.312526
    21  N   -2.608138
    22  N   -3.654898
    23  N   -3.321444
    24  N   -3.310681
    25  N   -3.188627
    26  N   -2.130779
 Sum of Mulliken charges =  -0.00000

 Dipole moment (field-independent basis, Debye):
    X=             -0.7686    Y=             -0.1188    Z=              0.5835  Tot=              0.9723

 Test job not archived.
 1\1\GINC-SE108\SP\RHF\Aug-CC-pVDZ\C6H13N7\OHZDE\08-Apr-2025\0\\#t hf a
 ug-cc-pvdz iop(5/13=1,5/36=2,99/5=2) pseudo=read geom=check guess=(rea
 d,tcheck) scf=(maxcycle=1)\\title\\0,1\C,0,2.75603,0.254769,1.13239\C,
 0,3.21054,-0.813189,0.125924\C,0,2.16882,-1.02402,-0.998393\C,0,-0.239
 558,-0.756842,-0.282795\C,0,-2.41224,-0.606653,0.257901\C,0,-1.29778,1
 .23764,-0.286271\H,0,-0.482356,3.004,-0.903648\H,0,-2.14284,3.05998,-0
 .524771\H,0,-4.29453,-0.641002,0.88423\H,0,-3.47982,-2.14015,1.03687\H
 ,0,0.760551,-2.45237,-0.35687\H,0,2.02864,-0.0609359,-1.52842\H,0,2.58

 Normal termination of Gaussian 16 at Tue Apr  8 19:33:50 2025.
