 Gaussian 16, Revision C.01,

 ----------------------------------------------------------------------
 #t hf aug-cc-pvdz symm=none int=(grid=ultrafine) guess=(read,tcheck) s
 table=(opt,rrhf)
 ----------------------------------------------------------------------
 -----
 title
 -----
 Symbolic Z-matrix:
 Charge =  0 Multiplicity = 1

 SCF Done:  E(RHF) =  -414.375088959     A.U. after   14 cycles
 Normal termination of Gaussian 16 at Tue Apr  8 21:38:45 2025.
 Gaussian 16:  ES64L-G16RevC.01  3-Jul-2019

 ----------------------------------------------------------------------
 #t hf aug-cc-pvdz iop(5/13=1,5/36=2,99/5=2) pseudo=read geom=check gue
 ss=(read,tcheck) scf=(maxcycle=1)
 ----------------------------------------------------------------------
 -----
 title
 -----
 Structure from the checkpoint file:  "ANI1ccx_410_conf3_mol2.chk"
 Charge =  0 Multiplicity = 1

                         Standard orientation:
 ---------------------------------------------------------------------
 Center     Atomic      Atomic             Coordinates (Angstroms)
 Number     Number       Type             X           Y           Z
 ---------------------------------------------------------------------
      1          6           0        2.452111    0.030554    0.195147
      2          1           0       -0.466234   -0.146757   -0.004218
      3          1           0       -3.189349    0.714193   -0.651793
      4          1           0        1.640122    1.750919    0.065756
      5          1           0        2.952441    0.462847    1.072100
      6          8           0       -1.062389    0.363590    0.556683
      7          8           0       -2.261469   -0.372820    0.559778
      8          8           0       -2.876109   -0.192363   -0.707726
      9          8           0        1.638751    0.910450   -0.410492
     10          8           0        2.605010   -1.079422   -0.204835
 ---------------------------------------------------------------------

 SCF Done:  E(RHF) =  -416.045821295     A.U. after    2 cycles

 The electronic state is 1-A.
 Alpha  occ. eigenvalues --  -21.15253 -21.15121 -21.13603 -21.13281 -21.07911
 Alpha  occ. eigenvalues --  -11.52945  -2.07049  -1.84703  -1.69464  -1.67903
 Alpha  occ. eigenvalues --   -1.28002  -0.88519  -0.75313  -0.68822  -0.57866
 Alpha  occ. eigenvalues --   -0.56667  -0.56082  -0.55489  -0.54588  -0.49760
 Alpha  occ. eigenvalues --   -0.36766  -0.35078  -0.34004  -0.33062  -0.30686
 Alpha virt. eigenvalues --    0.02752   0.05021   0.05423   0.09563   0.10046
 Alpha virt. eigenvalues --    0.11830   0.12679   0.13427   0.14441   0.16337
 Alpha virt. eigenvalues --    0.17644   0.18083   0.19899   0.20167   0.21728

 Mulliken charges:
               1
     1  C    2.366912
     2  H    1.078946
     3  H    0.959816
     4  H    1.026817
     5  H    1.449065
     6  O   -1.312477
     7  O    0.303449
     8  O   -1.032954
     9  O   -2.382970
    10  O   -2.456603
 Sum of Mulliken charges =  -0.00000

 Dipole moment (field-independent basis, Debye):
    X=              0.6093    Y=              2.5520    Z=              0.2420  Tot=              2.6349

 Test job not archived.
 1\1\GINC-SE338\SP\RHF\Aug-CC-pVDZ\C1H4O5\OHZDE\08-Apr-2025\0\\#t hf au
 g-cc-pvdz iop(5/13=1,5/36=2,99/5=2) pseudo=read geom=check guess=(read
 ,tcheck) scf=(maxcycle=1)\\title\\0,1\C,0,2.45211,0.0305551,0.195147\H
 ,0,-0.466235,-0.146757,-0.00421839\H,0,-3.18935,0.714192,-0.651793\H,0
 ,1.64012,1.75092,0.0657561\H,0,2.95244,0.462849,1.0721\O,0,-1.06239,0.
 36359,0.556683\O,0,-2.26147,-0.372821,0.559778\O,0,-2.87611,-0.192364,
 -0.707726\O,0,1.63875,0.910451,-0.410492\O,0,2.60501,-1.07942,-0.20483
 5\\Version=ES64L-G16RevC.01\State=1-A\HF=-416.0458213\RMSD=3.824e-02\D

 Normal termination of Gaussian 16 at Tue Apr  8 21:38:47 2025.
