 Gaussian 16, Revision C.01,

 ----------------------------------------------------------------------
 #t hf aug-cc-pvdz symm=none int=(grid=ultrafine) guess=(read,tcheck) s
 table=(opt,rrhf)
 ----------------------------------------------------------------------
 -----
 title
 -----
 Symbolic Z-matrix:
 Charge =  0 Multiplicity = 1

 SCF Done:  E(RHF) =  -639.623802304     A.U. after   15 cycles
 Normal termination of Gaussian 16 at Tue Apr  8 19:46:27 2025.
 Gaussian 16:  ES64L-G16RevC.01  3-Jul-2019

 ----------------------------------------------------------------------
 #t hf aug-cc-pvdz iop(5/13=1,5/36=2,99/5=2) pseudo=read geom=check gue
 ss=(read,tcheck) scf=(maxcycle=1)
 ----------------------------------------------------------------------
 -----
 title
 -----
 Structure from the checkpoint file:  "ANI1ccx_1409_conf3_mol1.chk"
 Charge =  0 Multiplicity = 1

                         Standard orientation:
 ---------------------------------------------------------------------
 Center     Atomic      Atomic             Coordinates (Angstroms)
 Number     Number       Type             X           Y           Z
 ---------------------------------------------------------------------
      1          6           0       -2.336909    0.919241   -0.525134
      2          6           0       -2.989200   -0.412258   -0.186592
      3          6           0       -1.008021   -1.408639    0.804312
      4          6           0        0.946218   -1.324160   -0.715351
      5          6           0        2.122119   -0.748953   -1.230181
      6          6           0        2.721930    0.306120   -0.348847
      7          6           0        0.863894    0.319039    1.083959
      8          1           0        4.616790    0.458944   -1.395941
      9          1           0        4.392001    1.527687    0.078712
     10          1           0        2.620479   -1.166312   -2.126291
     11          1           0        0.502715   -2.166740   -1.205141
     12          1           0       -0.808029   -2.493699    1.116719
     13          1           0       -1.391541   -0.899159    1.689359
     14          1           0       -3.616361   -0.748828   -1.105841
     15          1           0       -3.503890   -0.326113    0.749590
     16          1           0       -1.571379    1.204841    0.275682
     17          1           0       -1.739070    0.801404   -1.421771
     18          1           0       -3.823749    2.181153   -0.018785
     19          1           0       -3.028888    2.574832   -1.456491
     20          7           0       -3.425819    1.816882   -0.933444
     21          7           0        0.307365   -0.762059    0.368772
     22          7           0        3.918910    0.864782   -0.645064
     23          7           0        2.055830    0.791483    0.701037
     24          8           0       -2.024311   -1.474699   -0.165240
     25          8           0        0.203901    0.746204    2.051249
 ---------------------------------------------------------------------

 SCF Done:  E(RHF) =  -642.530287659     A.U. after    2 cycles

 The electronic state is 1-A.
 Alpha  occ. eigenvalues --  -21.05314 -20.99314 -15.79444 -15.78004 -15.73139
 Alpha  occ. eigenvalues --  -15.71207 -11.53309 -11.50386 -11.49050 -11.45552
 Alpha  occ. eigenvalues --  -11.45128 -11.41234 -11.37903  -1.76561  -1.68655
 Alpha  occ. eigenvalues --   -1.49340  -1.39865  -1.32713  -1.27055  -1.13569
 Alpha  occ. eigenvalues --   -1.05820  -0.97091  -0.91982  -0.87789  -0.84137
 Alpha  occ. eigenvalues --   -0.72316  -0.71558  -0.69182  -0.67897  -0.66087
 Alpha  occ. eigenvalues --   -0.63826  -0.62298  -0.60142  -0.58251  -0.57875
 Alpha  occ. eigenvalues --   -0.54524  -0.52797  -0.52319  -0.48291  -0.47591
 Alpha  occ. eigenvalues --   -0.46451  -0.43378  -0.39446  -0.36372  -0.36227
 Alpha  occ. eigenvalues --   -0.33479  -0.30580  -0.27370  -0.26331
 Alpha virt. eigenvalues --    0.02846   0.04205   0.04594   0.05117   0.05650
 Alpha virt. eigenvalues --    0.05982   0.06259   0.06588   0.07652   0.08329
 Alpha virt. eigenvalues --    0.08740   0.09351   0.09903   0.10671   0.11598

 Mulliken charges:
               1
     1  C   -1.870646
     2  C   -1.149221
     3  C   -1.531057
     4  C   -0.092365
     5  C   -1.376756
     6  C    3.403913
     7  C    5.663479
     8  H    0.620659
     9  H    0.773179
    10  H    1.556315
    11  H    2.027643
    12  H    1.546591
    13  H    1.859542
    14  H    1.211333
    15  H    1.643844
    16  H    1.681849
    17  H    1.602884
    18  H    0.489978
    19  H    0.570070
    20  N   -2.826353
    21  N   -2.439469
    22  N   -3.380246
    23  N   -3.591210
    24  O   -3.157171
    25  O   -3.236786
 Sum of Mulliken charges =  -0.00000

 Dipole moment (field-independent basis, Debye):
    X=              2.0722    Y=             -1.4679    Z=             -2.8108  Tot=              3.7881

 Test job not archived.
 1\1\GINC-SE127\SP\RHF\Aug-CC-pVDZ\C7H12N4O2\OHZDE\08-Apr-2025\0\\#t hf
  aug-cc-pvdz iop(5/13=1,5/36=2,99/5=2) pseudo=read geom=check guess=(r
 ead,tcheck) scf=(maxcycle=1)\\title\\0,1\C,0,-2.33691,0.919239,-0.5251
 33\C,0,-2.9892,-0.41226,-0.186591\C,0,-1.00802,-1.40864,0.804313\C,0,0
 .946219,-1.32416,-0.71535\C,0,2.12212,-0.748952,-1.23018\C,0,2.72193,0
 .306122,-0.348846\C,0,0.863894,0.319039,1.08396\H,0,4.61679,0.458947,-
 1.39594\H,0,4.392,1.52769,0.0787128\H,0,2.62048,-1.16631,-2.12629\H,0,
 0.502716,-2.16674,-1.20514\H,0,-0.808027,-2.4937,1.11672\H,0,-1.39154,

 Normal termination of Gaussian 16 at Tue Apr  8 19:46:49 2025.
