 Gaussian 16, Revision C.01,

 ----------------------------------------------------------------------
 #t hf aug-cc-pvdz symm=none int=(grid=ultrafine) guess=(read,tcheck) s
 table=(opt,rrhf)
 ----------------------------------------------------------------------
 -----
 title
 -----
 Symbolic Z-matrix:
 Charge =  0 Multiplicity = 1

 SCF Done:  E(RHF) =  -259.755520131     A.U. after   14 cycles
 Normal termination of Gaussian 16 at Tue Apr  8 21:11:18 2025.
 Gaussian 16:  ES64L-G16RevC.01  3-Jul-2019

 ----------------------------------------------------------------------
 #t hf aug-cc-pvdz iop(5/13=1,5/36=2,99/5=2) pseudo=read geom=check gue
 ss=(read,tcheck) scf=(maxcycle=1)
 ----------------------------------------------------------------------
 -----
 title
 -----
 Structure from the checkpoint file:  "ANI1ccx_1858_conf10_mol1.chk"
 Charge =  0 Multiplicity = 1

                         Standard orientation:
 ---------------------------------------------------------------------
 Center     Atomic      Atomic             Coordinates (Angstroms)
 Number     Number       Type             X           Y           Z
 ---------------------------------------------------------------------
      1          1           0        0.465025   -0.738361    0.592075
      2          1           0        1.613418    1.077620   -0.537849
      3          7           0       -1.856902    0.630067   -0.071432
      4          7           0       -1.689533   -0.455325    0.101307
      5          8           0        1.006637   -0.644429   -0.202663
      6          8           0        1.836688    0.449122    0.169745
 ---------------------------------------------------------------------

 SCF Done:  E(RHF) =  -260.809465759     A.U. after    2 cycles

 The electronic state is 1-A.
 Alpha  occ. eigenvalues --  -21.12206 -21.11717 -15.88570 -15.88323  -1.94111
 Alpha  occ. eigenvalues --   -1.57028  -1.39853  -0.80678  -0.63277  -0.62323
 Alpha  occ. eigenvalues --   -0.58869  -0.58298  -0.57116  -0.47767  -0.36682
 Alpha  occ. eigenvalues --   -0.30140
 Alpha virt. eigenvalues --    0.05324   0.06750   0.10796   0.12454   0.13086
 Alpha virt. eigenvalues --    0.13884   0.14720   0.16579   0.17884   0.20624
 Alpha virt. eigenvalues --    0.21875   0.22833   0.23982   0.25242   0.26110

 Mulliken charges:
               1
     1  H    1.051718
     2  H    0.930676
     3  N   -0.051379
     4  N    0.055737
     5  O   -0.970966
     6  O   -1.015784
 Sum of Mulliken charges =  -0.00000

 Dipole moment (field-independent basis, Debye):
    X=             -0.6947    Y=              0.4677    Z=             -0.0430  Tot=              0.8386

 Test job not archived.
 1\1\GINC-SE048\SP\RHF\Aug-CC-pVDZ\H2N2O2\OHZDE\08-Apr-2025\0\\#t hf au
 g-cc-pvdz iop(5/13=1,5/36=2,99/5=2) pseudo=read geom=check guess=(read
 ,tcheck) scf=(maxcycle=1)\\title\\0,1\H,0,0.465028,-0.738361,0.592075\
 H,0,1.61342,1.07762,-0.537849\N,0,-1.8569,0.630067,-0.0714323\N,0,-1.6
 8953,-0.455325,0.101307\O,0,1.00664,-0.644429,-0.202663\O,0,1.83669,0.
 449122,0.169745\\Version=ES64L-G16RevC.01\State=1-A\HF=-260.8094658\RM
 SD=9.644e-02\Dipole=-0.2733162,0.184016,-0.016928\Quadrupole=-1.214536
 8,0.3866658,0.827871,1.356322,-0.6825514,-1.3723528\PG=C01 [X(H2N2O2)]

 Normal termination of Gaussian 16 at Tue Apr  8 21:11:19 2025.
