 Gaussian 16, Revision C.01,

 ----------------------------------------------------------------------
 #t hf aug-cc-pvdz symm=none int=(grid=ultrafine) guess=(read,tcheck) s
 table=(opt,rrhf)
 ----------------------------------------------------------------------
 -----
 title
 -----
 Symbolic Z-matrix:
 Charge =  0 Multiplicity = 1

 SCF Done:  E(RHF) =  -791.382104840     A.U. after   15 cycles
 Normal termination of Gaussian 16 at Tue Apr  8 21:00:08 2025.
 Gaussian 16:  ES64L-G16RevC.01  3-Jul-2019

 ----------------------------------------------------------------------
 #t hf aug-cc-pvdz iop(5/13=1,5/36=2,99/5=2) pseudo=read geom=check gue
 ss=(read,tcheck) scf=(maxcycle=1)
 ----------------------------------------------------------------------
 -----
 title
 -----
 Structure from the checkpoint file:  "ANI1ccx_1745_conf16_mol1.chk"
 Charge =  0 Multiplicity = 1

                         Standard orientation:
 ---------------------------------------------------------------------
 Center     Atomic      Atomic             Coordinates (Angstroms)
 Number     Number       Type             X           Y           Z
 ---------------------------------------------------------------------
      1          6           0        2.177088   -1.844912   -0.645681
      2          6           0        1.408299   -0.582075   -0.152869
      3          6           0        1.744937   -3.156041    0.015259
      4          6           0       -0.074046    1.253560   -0.397766
      5          6           0        0.936047    2.436139   -0.147052
      6          6           0       -0.897670    0.945420    0.833709
      7          6           0       -2.060930    0.051540    0.272959
      8          6           0       -3.176170    0.439753   -0.388168
      9          6           0       -3.515522   -1.535847    0.261284
     10          1           0        1.624571    1.498749    1.278140
     11          1           0       -5.191571   -0.476738   -0.518249
     12          1           0       -4.037393   -2.579127    0.314620
     13          1           0       -3.282109    1.367123   -0.891299
     14          1           0       -0.283458    0.394712    1.572700
     15          1           0       -1.193579    1.806431    1.371390
     16          1           0       -0.692053    1.753890   -1.038380
     17          1           0        2.312617   -3.261842    0.921614
     18          1           0        1.824916   -4.123072   -0.579347
     19          1           0        0.676251   -2.988181    0.341379
     20          1           0        2.073038   -1.795682   -1.704600
     21          1           0        3.861828   -1.654123    0.756151
     22          1           0        3.697939   -0.583195   -0.327784
     23          1           0        0.491572   -0.068767   -1.896180
     24          7           0        3.552658   -1.550853   -0.212873
     25          7           0        0.568016    0.053945   -0.897027
     26          7           0       -2.288072   -1.365628    0.575540
     27          7           0       -4.153331   -0.499190   -0.362367
     28          8           0        0.941181    3.443899   -0.845120
     29          8           0        1.897499   -0.065322    0.873203
     30          8           0        1.550111    2.396009    1.067780
 ---------------------------------------------------------------------

 SCF Done:  E(RHF) =  -794.964486243     A.U. after    2 cycles

 The electronic state is 1-A.
 Alpha  occ. eigenvalues --  -21.08990 -21.04571 -21.02718 -15.81007 -15.80399
 Alpha  occ. eigenvalues --  -15.73451 -15.72053 -11.54803 -11.53295 -11.50121
 Alpha  occ. eigenvalues --  -11.46756 -11.45838 -11.44416 -11.43780 -11.40238
 Alpha  occ. eigenvalues --  -11.39230  -1.80554  -1.73770  -1.64054  -1.57333
 Alpha  occ. eigenvalues --   -1.45480  -1.34685  -1.28220  -1.20130  -1.10175
 Alpha  occ. eigenvalues --   -1.07802  -0.98584  -0.93147  -0.84925  -0.83703
 Alpha  occ. eigenvalues --   -0.79856  -0.77361  -0.76728  -0.74088  -0.71644
 Alpha  occ. eigenvalues --   -0.66255  -0.64666  -0.63533  -0.61516  -0.59024
 Alpha  occ. eigenvalues --   -0.58063  -0.56365  -0.55770  -0.55134  -0.53464
 Alpha  occ. eigenvalues --   -0.52368  -0.50958  -0.49305  -0.48898  -0.47675
 Alpha  occ. eigenvalues --   -0.46576  -0.43239  -0.39942  -0.37742  -0.35956
 Alpha  occ. eigenvalues --   -0.32970  -0.32622  -0.31121  -0.29047  -0.26715
 Alpha virt. eigenvalues --    0.02646   0.03752   0.04222   0.04600   0.04991
 Alpha virt. eigenvalues --    0.05541   0.06403   0.06788   0.07080   0.07651
 Alpha virt. eigenvalues --    0.07919   0.08228   0.08811   0.09634   0.10138

 Mulliken charges:
               1
     1  C   -2.476785
     2  C    6.577240
     3  C   -4.056624
     4  C   -0.951520
     5  C    5.960006
     6  C   -4.778829
     7  C    4.299261
     8  C   -1.339669
     9  C    1.136536
    10  H    1.911787
    11  H    0.853113
    12  H    1.619003
    13  H    1.494794
    14  H    1.547874
    15  H    1.475505
    16  H    2.097994
    17  H    1.335780
    18  H    1.263510
    19  H    1.485313
    20  H    1.610407
    21  H    0.649491
    22  H    0.665248
    23  H    0.789321
    24  N   -2.342132
    25  N   -2.956979
    26  N   -3.971765
    27  N   -3.308594
    28  O   -3.523063
    29  O   -3.622803
    30  O   -3.443421
 Sum of Mulliken charges =   0.00000

 Dipole moment (field-independent basis, Debye):
    X=             -5.0574    Y=             -1.9836    Z=             -1.3118  Tot=              5.5887

 Test job not archived.
 1\1\GINC-SE247\SP\RHF\Aug-CC-pVDZ\C9H14N4O3\OHZDE\08-Apr-2025\0\\#t hf
  aug-cc-pvdz iop(5/13=1,5/36=2,99/5=2) pseudo=read geom=check guess=(r
 ead,tcheck) scf=(maxcycle=1)\\title\\0,1\C,0,2.17709,-1.84491,-0.64568
 1\C,0,1.4083,-0.582074,-0.152869\C,0,1.74494,-3.15604,0.015259\C,0,-0.
 0740469,1.25356,-0.397766\C,0,0.936046,2.43614,-0.147052\C,0,-0.89767,
 0.945419,0.833709\C,0,-2.06093,0.0515387,0.272959\C,0,-3.17617,0.43975
 1,-0.388168\C,0,-3.51552,-1.53585,0.261284\H,0,1.62457,1.49875,1.27814
 \H,0,-5.19157,-0.476742,-0.518249\H,0,-4.03739,-2.57913,0.31462\H,0,-3

 Normal termination of Gaussian 16 at Tue Apr  8 21:00:46 2025.
