 Gaussian 16, Revision C.01,

 ----------------------------------------------------------------------
 #t hf aug-cc-pvdz symm=none int=(grid=ultrafine) guess=(read,tcheck) s
 table=(opt,rrhf)
 ----------------------------------------------------------------------
 -----
 title
 -----
 Symbolic Z-matrix:
 Charge =  0 Multiplicity = 1

 SCF Done:  E(RHF) =  -487.415409031     A.U. after   14 cycles
 Normal termination of Gaussian 16 at Tue Apr  8 22:06:12 2025.
 Gaussian 16:  ES64L-G16RevC.01  3-Jul-2019

 ----------------------------------------------------------------------
 #t hf aug-cc-pvdz iop(5/13=1,5/36=2,99/5=2) pseudo=read geom=check gue
 ss=(read,tcheck) scf=(maxcycle=1)
 ----------------------------------------------------------------------
 -----
 title
 -----
 Structure from the checkpoint file:  "ANI1ccx_877_conf2_mol1.chk"
 Charge =  0 Multiplicity = 1

                         Standard orientation:
 ---------------------------------------------------------------------
 Center     Atomic      Atomic             Coordinates (Angstroms)
 Number     Number       Type             X           Y           Z
 ---------------------------------------------------------------------
      1          6           0        0.893860   -1.131578   -0.051768
      2          6           0       -0.569222   -1.412521    0.105360
      3          6           0       -1.434350   -0.193122   -0.055466
      4          6           0        0.534218    1.333612    0.032217
      5          1           0       -0.811071   -2.114561   -0.654812
      6          1           0       -0.713051   -1.817601    1.085240
      7          1           0       -1.378154    1.806978   -0.206040
      8          1           0        2.290769    0.294311    0.014829
      9          7           0       -0.808957    1.022119   -0.261321
     10          7           0        1.310449    0.207867   -0.050157
     11          8           0        1.744953   -1.965896   -0.022306
     12          8           0       -2.675460   -0.274529    0.090596
     13          8           0        0.999760    2.445753    0.151595
 ---------------------------------------------------------------------

 SCF Done:  E(RHF) =  -489.489652349     A.U. after    2 cycles

 The electronic state is 1-A.
 Alpha  occ. eigenvalues --  -21.08065 -21.07934 -21.07391 -15.83039 -15.81829
 Alpha  occ. eigenvalues --  -11.56772 -11.56194 -11.55852 -11.45377  -1.78683
 Alpha  occ. eigenvalues --   -1.76055  -1.72628  -1.48835  -1.37972  -1.20235
 Alpha  occ. eigenvalues --   -0.95758  -0.91537  -0.84737  -0.74939  -0.71958
 Alpha  occ. eigenvalues --   -0.64643  -0.63613  -0.60769  -0.58886  -0.56827
 Alpha  occ. eigenvalues --   -0.54026  -0.51975  -0.46066  -0.37627  -0.36570
 Alpha  occ. eigenvalues --   -0.35800  -0.34193  -0.29627
 Alpha virt. eigenvalues --    0.02589   0.05618   0.05936   0.06273   0.08442
 Alpha virt. eigenvalues --    0.08921   0.09740   0.10038   0.10724   0.11304
 Alpha virt. eigenvalues --    0.12322   0.12746   0.13792   0.14010   0.14509

 Mulliken charges:
               1
     1  C    5.032513
     2  C   -3.830307
     3  C    4.908506
     4  C    4.939723
     5  H    1.415107
     6  H    1.378096
     7  H    0.581937
     8  H    0.610498
     9  N   -2.746637
    10  N   -2.458153
    11  O   -3.490140
    12  O   -3.246714
    13  O   -3.094430
 Sum of Mulliken charges =  -0.00000

 Dipole moment (field-independent basis, Debye):
    X=              0.0678    Y=             -0.2792    Z=              0.1476  Tot=              0.3230

 Test job not archived.
 1\1\GINC-SE099\SP\RHF\Aug-CC-pVDZ\C4H4N2O3\OHZDE\08-Apr-2025\0\\#t hf
 aug-cc-pvdz iop(5/13=1,5/36=2,99/5=2) pseudo=read geom=check guess=(re
 ad,tcheck) scf=(maxcycle=1)\\title\\0,1\C,0,0.893858,-1.13158,-0.05176
 82\C,0,-0.569224,-1.41252,0.10536\C,0,-1.43435,-0.19312,-0.0554658\C,0
 ,0.534221,1.33361,0.0322168\H,0,-0.811075,-2.11456,-0.654812\H,0,-0.71
 3054,-1.8176,1.08524\H,0,-1.37815,1.80698,-0.20604\H,0,2.29077,0.29430
 6,0.0148286\N,0,-0.808954,1.02212,-0.261321\N,0,1.31045,0.207864,-0.05
 01571\O,0,1.74495,-1.9659,-0.0223063\O,0,-2.67546,-0.274524,0.0905957\

 Normal termination of Gaussian 16 at Tue Apr  8 22:06:18 2025.
