 Gaussian 16, Revision C.01,

 ----------------------------------------------------------------------
 #t hf aug-cc-pvdz symm=none int=(grid=ultrafine) guess=(read,tcheck) s
 table=(opt,rrhf)
 ----------------------------------------------------------------------
 -----
 title
 -----
 Symbolic Z-matrix:
 Charge =  0 Multiplicity = 1

 SCF Done:  E(RHF) =  -564.587316308     A.U. after   14 cycles
 Normal termination of Gaussian 16 at Tue Apr  8 22:17:56 2025.
 Gaussian 16:  ES64L-G16RevC.01  3-Jul-2019

 ----------------------------------------------------------------------
 #t hf aug-cc-pvdz iop(5/13=1,5/36=2,99/5=2) pseudo=read geom=check gue
 ss=(read,tcheck) scf=(maxcycle=1)
 ----------------------------------------------------------------------
 -----
 title
 -----
 Structure from the checkpoint file:  "ANI1ccx_958_conf3_mol1.chk"
 Charge =  0 Multiplicity = 1

                         Standard orientation:
 ---------------------------------------------------------------------
 Center     Atomic      Atomic             Coordinates (Angstroms)
 Number     Number       Type             X           Y           Z
 ---------------------------------------------------------------------
      1          6           0       -2.324941   -1.573871    0.775231
      2          6           0       -0.409865   -0.294203    0.162429
      3          6           0        2.059949   -0.310916   -0.120464
      4          6           0       -0.950535    1.143840   -0.108130
      5          1           0       -2.159601    0.274006   -1.076840
      6          1           0        1.380098    1.345421    0.780715
      7          1           0        3.038658    0.941430    1.212640
      8          1           0        0.735943   -1.246179   -1.320540
      9          1           0       -3.010690   -2.327351    0.354879
     10          1           0       -2.844551   -0.650173    1.087000
     11          1           0       -1.747050   -1.951070    1.620330
     12          1           0       -0.250730   -0.375368    1.241990
     13          7           0        0.784617   -0.538627   -0.582045
     14          7           0        2.128909    0.663653    0.858710
     15          8           0       -1.978622    1.213050   -0.898844
     16          8           0       -1.360051   -1.248360   -0.239203
     17          8           0        3.026499   -0.918045   -0.493231
     18          8           0       -0.410878    2.118980    0.369876
 ---------------------------------------------------------------------

 SCF Done:  E(RHF) =  -567.009904956     A.U. after    2 cycles

 The electronic state is 1-A.
 Alpha  occ. eigenvalues --  -21.15225 -21.10466 -21.06661 -21.01665 -15.77317
 Alpha  occ. eigenvalues --  -15.75729 -11.56188 -11.50719 -11.49851 -11.45738
 Alpha  occ. eigenvalues --   -1.88566  -1.80861  -1.72139  -1.68307  -1.42320
 Alpha  occ. eigenvalues --   -1.30256  -1.08573  -0.99835  -0.85199  -0.82253
 Alpha  occ. eigenvalues --   -0.77288  -0.72774  -0.70836  -0.65858  -0.64508
 Alpha  occ. eigenvalues --   -0.61190  -0.59992  -0.57761  -0.55502  -0.54511
 Alpha  occ. eigenvalues --   -0.50000  -0.48603  -0.44601  -0.40600  -0.36808
 Alpha  occ. eigenvalues --   -0.35781  -0.31892  -0.31102  -0.27765
 Alpha virt. eigenvalues --    0.02695   0.04503   0.04882   0.05216   0.06219
 Alpha virt. eigenvalues --    0.06285   0.07554   0.08725   0.09142   0.10613
 Alpha virt. eigenvalues --    0.11063   0.11585   0.12738   0.13743   0.14029

 Mulliken charges:
               1
     1  C   -3.344312
     2  C    0.374654
     3  C    5.514819
     4  C    6.412459
     5  H    1.157792
     6  H    0.744431
     7  H    0.669175
     8  H    0.375329
     9  H    1.294956
    10  H    1.267775
    11  H    1.311723
    12  H    2.194055
    13  N   -2.030687
    14  N   -2.641493
    15  O   -3.294753
    16  O   -3.555521
    17  O   -3.162879
    18  O   -3.287522
 Sum of Mulliken charges =  -0.00000

 Dipole moment (field-independent basis, Debye):
    X=             -3.4925    Y=             -1.3890    Z=              0.7932  Tot=              3.8413

 Test job not archived.
 1\1\GINC-SE015\SP\RHF\Aug-CC-pVDZ\C4H8N2O4\OHZDE\08-Apr-2025\0\\#t hf
 aug-cc-pvdz iop(5/13=1,5/36=2,99/5=2) pseudo=read geom=check guess=(re
 ad,tcheck) scf=(maxcycle=1)\\title\\0,1\C,0,-2.32494,-1.57387,0.775231
 \C,0,-0.409864,-0.294203,0.162429\C,0,2.05995,-0.310917,-0.120464\C,0,
 -0.950533,1.14384,-0.10813\H,0,-2.1596,0.274007,-1.07684\H,0,1.3801,1.
 34542,0.780715\H,0,3.03866,0.941429,1.21264\H,0,0.735944,-1.24618,-1.3
 2054\H,0,-3.01069,-2.32735,0.354879\H,0,-2.84455,-0.650172,1.087\H,0,-
 1.74705,-1.95107,1.62033\H,0,-0.250729,-0.375368,1.24199\N,0,0.784618,

 Normal termination of Gaussian 16 at Tue Apr  8 22:18:12 2025.
