 Gaussian 16, Revision C.01,

 ----------------------------------------------------------------------
 #t hf aug-cc-pvdz symm=none int=(grid=ultrafine) guess=(read,tcheck) s
 table=(opt,rrhf)
 ----------------------------------------------------------------------
 -----
 title
 -----
 Symbolic Z-matrix:
 Charge =  0 Multiplicity = 1

 SCF Done:  E(RHF) =  -451.834752125     A.U. after   13 cycles
 Normal termination of Gaussian 16 at Tue Apr  8 21:57:17 2025.
 Gaussian 16:  ES64L-G16RevC.01  3-Jul-2019

 ----------------------------------------------------------------------
 #t hf aug-cc-pvdz iop(5/13=1,5/36=2,99/5=2) pseudo=read geom=check gue
 ss=(read,tcheck) scf=(maxcycle=1)
 ----------------------------------------------------------------------
 -----
 title
 -----
 Structure from the checkpoint file:  "ANI1ccx_764_conf11_mol2.chk"
 Charge =  0 Multiplicity = 1

                         Standard orientation:
 ---------------------------------------------------------------------
 Center     Atomic      Atomic             Coordinates (Angstroms)
 Number     Number       Type             X           Y           Z
 ---------------------------------------------------------------------
      1          6           0       -2.249851    0.005743    0.314303
      2          6           0        0.110690    0.728257    0.067479
      3          6           0        1.857649   -0.779873    0.525697
      4          1           0       -2.380221   -0.987217   -1.340290
      5          1           0       -2.029761   -0.307204    1.352840
      6          1           0       -3.177051    0.594834    0.228499
      7          1           0       -1.484602    1.898609   -0.279502
      8          1           0       -0.161126   -1.267700    0.089030
      9          1           0        2.246199   -0.172911    1.387420
     10          1           0        2.033700   -1.831549    0.795452
     11          1           0        2.426289    0.406749   -0.826330
     12          7           0       -1.226991    0.924390   -0.121331
     13          7           0        0.437748   -0.539632    0.451671
     14          8           0       -2.270301   -1.201821   -0.410456
     15          8           0        0.918174    1.670160   -0.054575
     16          8           0        2.569669   -0.562299   -0.680515
 ---------------------------------------------------------------------

 SCF Done:  E(RHF) =  -453.809340983     A.U. after    2 cycles

 The electronic state is 1-A.
 Alpha  occ. eigenvalues --  -21.10441 -21.05698 -21.02285 -15.76922 -15.76151
 Alpha  occ. eigenvalues --  -11.50872 -11.46273 -11.43245  -1.76292  -1.72902
 Alpha  occ. eigenvalues --   -1.68647  -1.42885  -1.34194  -1.00704  -0.95510
 Alpha  occ. eigenvalues --   -0.81398  -0.76265  -0.69323  -0.67282  -0.64141
 Alpha  occ. eigenvalues --   -0.61111  -0.58785  -0.56470  -0.51978  -0.49738
 Alpha  occ. eigenvalues --   -0.46900  -0.43791  -0.37011  -0.35834  -0.32506
 Alpha  occ. eigenvalues --   -0.31367  -0.29502
 Alpha virt. eigenvalues --    0.03205   0.04873   0.05193   0.05440   0.06105
 Alpha virt. eigenvalues --    0.06668   0.08006   0.09065   0.10614   0.10968
 Alpha virt. eigenvalues --    0.12190   0.12773   0.13275   0.14716   0.15251

 Mulliken charges:
               1
     1  C   -0.618589
     2  C    5.517249
     3  C   -0.393961
     4  H    0.609999
     5  H    1.559667
     6  H    1.428771
     7  H    0.498548
     8  H    0.769260
     9  H    1.373039
    10  H    1.432390
    11  H    0.800525
    12  N   -2.433584
    13  N   -2.838814
    14  O   -2.309777
    15  O   -2.905542
    16  O   -2.489181
 Sum of Mulliken charges =   0.00000

 Dipole moment (field-independent basis, Debye):
    X=             -2.9358    Y=             -0.7660    Z=              0.0355  Tot=              3.0342

 Test job not archived.
 1\1\GINC-SE084\SP\RHF\Aug-CC-pVDZ\C3H8N2O3\OHZDE\08-Apr-2025\0\\#t hf
 aug-cc-pvdz iop(5/13=1,5/36=2,99/5=2) pseudo=read geom=check guess=(re
 ad,tcheck) scf=(maxcycle=1)\\title\\0,1\C,0,-2.24985,0.00574422,0.3143
 03\C,0,0.110691,0.728257,0.0674792\C,0,1.85765,-0.779874,0.525697\H,0,
 -2.38022,-0.987216,-1.34029\H,0,-2.02976,-0.307203,1.35284\H,0,-3.1770
 5,0.594835,0.228499\H,0,-1.4846,1.89861,-0.279502\H,0,-0.161126,-1.267
 7,0.0890303\H,0,2.2462,-0.172912,1.38742\H,0,2.0337,-1.83155,0.795452\
 H,0,2.42629,0.406748,-0.82633\N,0,-1.22699,0.924391,-0.121331\N,0,0.43

 Normal termination of Gaussian 16 at Tue Apr  8 21:57:24 2025.
