 Gaussian 16, Revision C.01,

 ----------------------------------------------------------------------
 #t hf aug-cc-pvdz symm=none int=(grid=ultrafine) guess=(read,tcheck) s
 table=(opt,rrhf)
 ----------------------------------------------------------------------
 -----
 title
 -----
 Symbolic Z-matrix:
 Charge =  0 Multiplicity = 1

 SCF Done:  E(RHF) =  -468.181345595     A.U. after   15 cycles
 Normal termination of Gaussian 16 at Tue Apr  8 21:49:58 2025.
 Gaussian 16:  ES64L-G16RevC.01  3-Jul-2019

 ----------------------------------------------------------------------
 #t hf aug-cc-pvdz iop(5/13=1,5/36=2,99/5=2) pseudo=read geom=check gue
 ss=(read,tcheck) scf=(maxcycle=1)
 ----------------------------------------------------------------------
 -----
 title
 -----
 Structure from the checkpoint file:  "ANI1ccx_646_conf3_mol2.chk"
 Charge =  0 Multiplicity = 1

                         Standard orientation:
 ---------------------------------------------------------------------
 Center     Atomic      Atomic             Coordinates (Angstroms)
 Number     Number       Type             X           Y           Z
 ---------------------------------------------------------------------
      1          6           0        1.356551    0.015477    0.013006
      2          6           0       -0.803622    0.748061    0.003684
      3          6           0       -0.754816   -0.782833    0.023242
      4          1           0        0.813296    2.022200    0.063713
      5          7           0        0.505494    1.071050    0.173215
      6          8           0        2.552121    0.010154   -0.130179
      7          8           0       -1.800449    1.429572   -0.094003
      8          8           0       -1.720420   -1.466269   -0.027014
      9          8           0        0.576195   -1.148930    0.061721
 ---------------------------------------------------------------------

 SCF Done:  E(RHF) =  -470.079576654     A.U. after    2 cycles

 The electronic state is 1-A.
 Alpha  occ. eigenvalues --  -21.17944 -21.12856 -21.11661 -21.11467 -15.86483
 Alpha  occ. eigenvalues --  -11.60365 -11.59652 -11.55316  -1.95440  -1.78716
 Alpha  occ. eigenvalues --   -1.75932  -1.71759  -1.48616  -1.05888  -0.94503
 Alpha  occ. eigenvalues --   -0.85571  -0.73483  -0.72460  -0.62224  -0.60856
 Alpha  occ. eigenvalues --   -0.56804  -0.56085  -0.54687  -0.53599  -0.42833
 Alpha  occ. eigenvalues --   -0.38770  -0.37974  -0.34999  -0.32268
 Alpha virt. eigenvalues --    0.03009   0.06550   0.07732   0.08795   0.09123
 Alpha virt. eigenvalues --    0.09762   0.10461   0.10726   0.11673   0.12002
 Alpha virt. eigenvalues --    0.13526   0.13677   0.15615   0.15989   0.17141

 Mulliken charges:
               1
     1  C    5.514279
     2  C    3.428112
     3  C    4.742322
     4  H    0.696849
     5  N   -2.403475
     6  O   -2.923030
     7  O   -3.097444
     8  O   -3.046041
     9  O   -2.911572
 Sum of Mulliken charges =  -0.00000

 Dipole moment (field-independent basis, Debye):
    X=              0.6384    Y=              1.3716    Z=              0.0691  Tot=              1.5144

 Test job not archived.
 1\1\GINC-SE393\SP\RHF\Aug-CC-pVDZ\C3H1N1O4\OHZDE\08-Apr-2025\0\\#t hf
 aug-cc-pvdz iop(5/13=1,5/36=2,99/5=2) pseudo=read geom=check guess=(re
 ad,tcheck) scf=(maxcycle=1)\\title\\0,1\C,0,1.35655,0.015478,0.0130055
 \C,0,-0.803623,0.74806,0.00368365\C,0,-0.754816,-0.782834,0.0232424\H,
 0,0.813294,2.0222,0.0637129\N,0,0.505493,1.07105,0.173215\O,0,2.55212,
 0.0101557,-0.130179\O,0,-1.80045,1.42957,-0.0940035\O,0,-1.72042,-1.46
 627,-0.0270144\O,0,0.576195,-1.14893,0.0617209\\Version=ES64L-G16RevC.
 01\State=1-A\HF=-470.0795767\RMSD=1.486e-01\Dipole=0.2511559,0.5396178

 Normal termination of Gaussian 16 at Tue Apr  8 21:50:01 2025.
