 Gaussian 16, Revision C.01,

 ----------------------------------------------------------------------
 #t hf aug-cc-pvdz symm=none int=(grid=ultrafine) guess=(read,tcheck) s
 table=(opt,rrhf)
 ----------------------------------------------------------------------
 -----
 title
 -----
 Symbolic Z-matrix:
 Charge =  0 Multiplicity = 1

 SCF Done:  E(RHF) =  -583.237106611     A.U. after   15 cycles
 Normal termination of Gaussian 16 at Tue Apr  8 22:09:58 2025.
 Gaussian 16:  ES64L-G16RevC.01  3-Jul-2019

 ----------------------------------------------------------------------
 #t hf aug-cc-pvdz iop(5/13=1,5/36=2,99/5=2) pseudo=read geom=check gue
 ss=(read,tcheck) scf=(maxcycle=1)
 ----------------------------------------------------------------------
 -----
 title
 -----
 Structure from the checkpoint file:  "ANI1ccx_900_conf5_mol1.chk"
 Charge =  0 Multiplicity = 1

                         Standard orientation:
 ---------------------------------------------------------------------
 Center     Atomic      Atomic             Coordinates (Angstroms)
 Number     Number       Type             X           Y           Z
 ---------------------------------------------------------------------
      1          6           0        2.354779   -0.120565   -0.025419
      2          6           0        1.057299   -0.308941    0.841901
      3          6           0       -1.208770    0.756504    0.117900
      4          6           0       -1.817901   -0.667120   -0.142129
      5          1           0        1.581570    1.345890   -0.977700
      6          1           0        0.556288   -1.120750    0.474177
      7          1           0        1.561849   -0.438197    1.787340
      8          1           0        0.393351    1.696100    0.737934
      9          1           0       -3.537981    0.140466   -0.121343
     10          7           0        0.118632    0.790751    0.652077
     11          8           0        2.383010    0.847922   -0.983054
     12          8           0        3.324079   -0.853385    0.118440
     13          8           0       -1.919860    1.719601   -0.006342
     14          8           0       -3.164171   -0.765342   -0.146329
     15          8           0       -1.085301   -1.588549   -0.385023
 ---------------------------------------------------------------------

 SCF Done:  E(RHF) =  -585.681456346     A.U. after    2 cycles

 The electronic state is 1-A.
 Alpha  occ. eigenvalues --  -21.16508 -21.14452 -21.11110 -21.10411 -21.06012
 Alpha  occ. eigenvalues --  -15.82616 -11.59581 -11.54832 -11.54416 -11.46345
 Alpha  occ. eigenvalues --   -1.87001  -1.83094  -1.77316  -1.70990  -1.65847
 Alpha  occ. eigenvalues --   -1.44033  -1.10836  -1.00055  -0.83303  -0.81855
 Alpha  occ. eigenvalues --   -0.74203  -0.74007  -0.69591  -0.64488  -0.62372
 Alpha  occ. eigenvalues --   -0.60946  -0.56225  -0.54964  -0.52483  -0.51901
 Alpha  occ. eigenvalues --   -0.50310  -0.46782  -0.41788  -0.39264  -0.37665
 Alpha  occ. eigenvalues --   -0.34647  -0.31513  -0.29506
 Alpha virt. eigenvalues --    0.03036   0.04941   0.05369   0.05732   0.07975
 Alpha virt. eigenvalues --    0.08628   0.09196   0.09550   0.09881   0.10714
 Alpha virt. eigenvalues --    0.11293   0.11705   0.12477   0.13178   0.13674

 Mulliken charges:
               1
     1  C    5.777611
     2  C   -3.157574
     3  C    3.457164
     4  C    5.411411
     5  H    1.142805
     6  H    2.037305
     7  H    1.209317
     8  H    0.680301
     9  H    0.956075
    10  N   -2.035177
    11  O   -3.156727
    12  O   -3.167738
    13  O   -3.206243
    14  O   -2.969709
    15  O   -2.978821
 Sum of Mulliken charges =   0.00000

 Dipole moment (field-independent basis, Debye):
    X=             -1.9922    Y=              1.6633    Z=              0.6792  Tot=              2.6827

 Test job not archived.
 1\1\GINC-SE460\SP\RHF\Aug-CC-pVDZ\C4H5N1O5\OHZDE\08-Apr-2025\0\\#t hf
 aug-cc-pvdz iop(5/13=1,5/36=2,99/5=2) pseudo=read geom=check guess=(re
 ad,tcheck) scf=(maxcycle=1)\\title\\0,1\C,0,2.35478,-0.120565,-0.02541
 92\C,0,1.0573,-0.308941,0.841901\C,0,-1.20877,0.756503,0.1179\C,0,-1.8
 179,-0.667121,-0.142129\H,0,1.58157,1.34589,-0.9777\H,0,0.556289,-1.12
 075,0.474177\H,0,1.56185,-0.438197,1.78734\H,0,0.393351,1.6961,0.73793
 4\H,0,-3.53798,0.140465,-0.121343\N,0,0.118632,0.790751,0.652077\O,0,2
 .38301,0.847922,-0.983054\O,0,3.32408,-0.853385,0.11844\O,0,-1.91986,1

 Normal termination of Gaussian 16 at Tue Apr  8 22:10:04 2025.
