 Gaussian 16, Revision C.01,

 ----------------------------------------------------------------------
 #t hf aug-cc-pvdz symm=none int=(grid=ultrafine) guess=(read,tcheck) s
 table=(opt,rrhf)
 ----------------------------------------------------------------------
 -----
 title
 -----
 Symbolic Z-matrix:
 Charge =  0 Multiplicity = 1

 SCF Done:  E(RHF) =  -982.050387751     A.U. after   14 cycles
 Normal termination of Gaussian 16 at Tue Apr  8 20:58:40 2025.
 Gaussian 16:  ES64L-G16RevC.01  3-Jul-2019

 ----------------------------------------------------------------------
 #t hf aug-cc-pvdz iop(5/13=1,5/36=2,99/5=2) pseudo=read geom=check gue
 ss=(read,tcheck) scf=(maxcycle=1)
 ----------------------------------------------------------------------
 -----
 title
 -----
 Structure from the checkpoint file:  "ANI1ccx_1743_conf39_mol1.chk"
 Charge =  0 Multiplicity = 1

                         Standard orientation:
 ---------------------------------------------------------------------
 Center     Atomic      Atomic             Coordinates (Angstroms)
 Number     Number       Type             X           Y           Z
 ---------------------------------------------------------------------
      1          6           0        1.311800   -1.898391   -0.108516
      2          6           0        1.150910   -0.819714    1.006090
      3          6           0        1.929370   -1.277801   -1.356320
      4          6           0        3.201560   -0.399099   -1.124540
      5          6           0        2.939930    0.893822   -0.293548
      6          6           0       -1.021040    0.314576    0.131759
      7          6           0       -1.397410    1.697699   -0.256458
      8          6           0       -2.194600   -0.323174    0.948186
      9          6           0       -3.498690   -0.496361    0.132020
     10          1           0        0.384749    2.161689   -0.162314
     11          1           0       -4.031140   -1.003520   -1.514870
     12          1           0       -2.310950    0.228519    1.830830
     13          1           0       -1.951450   -1.230851    1.346820
     14          1           0       -0.912519   -0.262272   -0.812839
     15          1           0       -0.034707    0.507614    1.954110
     16          1           0        3.767970    1.523179    1.226620
     17          1           0        3.795900   -1.066931   -0.522489
     18          1           0        3.464240   -0.126617   -2.147730
     19          1           0        2.306740   -2.006381   -2.035020
     20          1           0        1.163570   -0.603393   -1.811930
     21          1           0        1.980410   -2.617411    0.445611
     22          1           0       -0.558975   -2.759611    0.320761
     23          1           0        0.014692   -3.055191   -1.190300
     24          7           0       -0.007181   -2.373351   -0.449825
     25          7           0        0.170594    0.152057    0.928042
     26          8           0        1.934560   -0.931276    1.891350
     27          8           0        2.003500    1.636619   -0.261819
     28          8           0        4.005370    0.988964    0.486879
     29          8           0       -2.578310    1.892359   -0.434889
     30          8           0       -4.607300   -0.283653    0.525240
     31          8           0       -3.186950   -0.895451   -1.118200
     32          8           0       -0.415049    2.556299   -0.431908
 ---------------------------------------------------------------------

 SCF Done:  E(RHF) =  -986.316322804     A.U. after    2 cycles

 The electronic state is 1-A.
 Alpha  occ. eigenvalues --  -21.14295 -21.12370 -21.11862 -21.08174 -21.05666
 Alpha  occ. eigenvalues --  -21.04823 -21.03934 -15.77340 -15.75824 -11.57073
 Alpha  occ. eigenvalues --  -11.56034 -11.54993 -11.52873 -11.49199 -11.47508
 Alpha  occ. eigenvalues --  -11.45803 -11.41882 -11.40838  -1.86873  -1.84085
 Alpha  occ. eigenvalues --   -1.82480  -1.75486  -1.70168  -1.66411  -1.65621
 Alpha  occ. eigenvalues --   -1.43085  -1.37668  -1.21405  -1.16946  -1.04805
 Alpha  occ. eigenvalues --   -1.02012  -0.94369  -0.83716  -0.82346  -0.80216
 Alpha  occ. eigenvalues --   -0.79038  -0.73913  -0.70045  -0.69637  -0.68651
 Alpha  occ. eigenvalues --   -0.66446  -0.64890  -0.64089  -0.63124  -0.61302
 Alpha  occ. eigenvalues --   -0.60656  -0.58836  -0.56989  -0.56206  -0.56111
 Alpha  occ. eigenvalues --   -0.54215  -0.53122  -0.51544  -0.49926  -0.49406
 Alpha  occ. eigenvalues --   -0.49039  -0.46941  -0.46437  -0.44538  -0.43449
 Alpha  occ. eigenvalues --   -0.38636  -0.37888  -0.34680  -0.34050  -0.33191
 Alpha  occ. eigenvalues --   -0.31525  -0.31348  -0.29056  -0.26978
 Alpha virt. eigenvalues --    0.03030   0.03668   0.04228   0.04314   0.04943
 Alpha virt. eigenvalues --    0.05452   0.05751   0.06367   0.06547   0.07085
 Alpha virt. eigenvalues --    0.07926   0.08167   0.09119   0.10026   0.10244

 Mulliken charges:
               1
     1  C   -1.266064
     2  C    6.834459
     3  C   -2.648479
     4  C   -3.972160
     5  C    6.766411
     6  C   -3.049961
     7  C    6.968171
     8  C   -4.741266
     9  C    6.469059
    10  H    1.805600
    11  H    1.028254
    12  H    1.304690
    13  H    2.001050
    14  H    2.843925
    15  H    0.393410
    16  H    0.852109
    17  H    1.575203
    18  H    1.333124
    19  H    1.318663
    20  H    1.592188
    21  H    1.481357
    22  H    0.633321
    23  H    0.609831
    24  N   -2.837664
    25  N   -1.452702
    26  O   -4.315128
    27  O   -4.048394
    28  O   -3.481012
    29  O   -3.558511
    30  O   -3.406823
    31  O   -3.354429
    32  O   -3.678230
 Sum of Mulliken charges =   0.00000

 Dipole moment (field-independent basis, Debye):
    X=              3.9622    Y=             -3.0571    Z=             -1.1709  Tot=              5.1396

 Test job not archived.
 1\1\GINC-SE021\SP\RHF\Aug-CC-pVDZ\C9H14N2O7\OHZDE\08-Apr-2025\0\\#t hf
  aug-cc-pvdz iop(5/13=1,5/36=2,99/5=2) pseudo=read geom=check guess=(r
 ead,tcheck) scf=(maxcycle=1)\\title\\0,1\C,0,1.3118,-1.89839,-0.108516
 \C,0,1.15091,-0.819713,1.00609\C,0,1.92937,-1.2778,-1.35632\C,0,3.2015
 6,-0.399098,-1.12454\C,0,2.93993,0.893823,-0.293548\C,0,-1.02104,0.314
 577,0.131759\C,0,-1.39741,1.6977,-0.256458\C,0,-2.1946,-0.323173,0.948
 186\C,0,-3.49869,-0.496361,0.13202\H,0,0.384748,2.16169,-0.162314\H,0,
 -4.03114,-1.00352,-1.51487\H,0,-2.31095,0.22852,1.83083\H,0,-1.95145,-

 Normal termination of Gaussian 16 at Tue Apr  8 20:59:31 2025.
