 Gaussian 16, Revision C.01,

 ----------------------------------------------------------------------
 #t hf aug-cc-pvdz symm=none int=(grid=ultrafine) guess=(read,tcheck) s
 table=(opt,rrhf)
 ----------------------------------------------------------------------
 -----
 title
 -----
 Symbolic Z-matrix:
 Charge =  0 Multiplicity = 1

 SCF Done:  E(RHF) =  -389.490045573     A.U. after   15 cycles
 Normal termination of Gaussian 16 at Tue Apr  8 21:42:47 2025.
 Gaussian 16:  ES64L-G16RevC.01  3-Jul-2019

 ----------------------------------------------------------------------
 #t hf aug-cc-pvdz iop(5/13=1,5/36=2,99/5=2) pseudo=read geom=check gue
 ss=(read,tcheck) scf=(maxcycle=1)
 ----------------------------------------------------------------------
 -----
 title
 -----
 Structure from the checkpoint file:  "ANI1ccx_473_conf4_mol1.chk"
 Charge =  0 Multiplicity = 1

                         Standard orientation:
 ---------------------------------------------------------------------
 Center     Atomic      Atomic             Coordinates (Angstroms)
 Number     Number       Type             X           Y           Z
 ---------------------------------------------------------------------
      1          6           0        1.294342    0.878334   -0.028402
      2          6           0        1.060372   -1.443459    0.068398
      3          1           0        1.712613   -2.339669    0.200413
      4          7           0        1.808712   -0.229943   -0.049875
      5          7           0       -2.956728   -0.070259    0.002907
      6          7           0       -2.085968    0.608625    0.009614
      7          8           0        0.967090    1.974661    0.029181
      8          8           0       -0.117466   -1.528229   -0.051544
 ---------------------------------------------------------------------

 SCF Done:  E(RHF) =  -391.089029999     A.U. after    2 cycles

 The electronic state is 1-A.
 Alpha  occ. eigenvalues --  -21.16807 -21.09085 -15.86162 -15.85979 -15.79197
 Alpha  occ. eigenvalues --  -11.61486 -11.53406  -1.81795  -1.75975  -1.54980
 Alpha  occ. eigenvalues --   -1.41274  -0.95833  -0.78068  -0.74123  -0.67426
 Alpha  occ. eigenvalues --   -0.64547  -0.61965  -0.57933  -0.56690  -0.56373
 Alpha  occ. eigenvalues --   -0.54792  -0.50851  -0.42921  -0.35561  -0.33126
 Alpha virt. eigenvalues --    0.03594   0.07578   0.09535   0.10291   0.10606
 Alpha virt. eigenvalues --    0.10854   0.11056   0.11980   0.13055   0.13623
 Alpha virt. eigenvalues --    0.14784   0.15533   0.16019   0.16809   0.17181

 Mulliken charges:
               1
     1  C    3.782948
     2  C    1.893648
     3  H    1.658247
     4  N   -2.477460
     5  N    0.389333
     6  N   -0.346571
     7  O   -2.407551
     8  O   -2.492594
 Sum of Mulliken charges =  -0.00000

 Dipole moment (field-independent basis, Debye):
    X=              0.0824    Y=              0.7564    Z=              0.1700  Tot=              0.7797

 Test job not archived.
 1\1\GINC-SE226\SP\RHF\Aug-CC-pVDZ\C2H1N3O2\OHZDE\08-Apr-2025\0\\#t hf
 aug-cc-pvdz iop(5/13=1,5/36=2,99/5=2) pseudo=read geom=check guess=(re
 ad,tcheck) scf=(maxcycle=1)\\title\\0,1\C,0,1.29434,0.878333,-0.028402
 5\C,0,1.06037,-1.44346,0.0683981\H,0,1.71261,-2.33967,0.200413\N,0,1.8
 0871,-0.229944,-0.0498754\N,0,-2.95673,-0.0702589,0.00290745\N,0,-2.08
 597,0.608625,0.00961352\O,0,0.967089,1.97466,0.029181\O,0,-0.117469,-1
 .52823,-0.0515442\\Version=ES64L-G16RevC.01\State=1-A\HF=-391.08903\RM
 SD=8.259e-02\Dipole=0.0324302,0.2976003,0.0668862\Quadrupole=-2.606960

 Normal termination of Gaussian 16 at Tue Apr  8 21:42:50 2025.
