 Gaussian 16, Revision C.01,

 ----------------------------------------------------------------------
 #t hf aug-cc-pvdz symm=none int=(grid=ultrafine) guess=(read,tcheck) s
 table=(opt,rrhf)
 ----------------------------------------------------------------------
 -----
 title
 -----
 Symbolic Z-matrix:
 Charge =  0 Multiplicity = 1

 SCF Done:  E(RHF) =  -833.410532434     A.U. after   15 cycles
 Normal termination of Gaussian 16 at Tue Apr  8 21:09:51 2025.
 Gaussian 16:  ES64L-G16RevC.01  3-Jul-2019

 ----------------------------------------------------------------------
 #t hf aug-cc-pvdz iop(5/13=1,5/36=2,99/5=2) pseudo=read geom=check gue
 ss=(read,tcheck) scf=(maxcycle=1)
 ----------------------------------------------------------------------
 -----
 title
 -----
 Structure from the checkpoint file:  "ANI1ccx_1760_conf53_mol1.chk"
 Charge =  0 Multiplicity = 1

                         Standard orientation:
 ---------------------------------------------------------------------
 Center     Atomic      Atomic             Coordinates (Angstroms)
 Number     Number       Type             X           Y           Z
 ---------------------------------------------------------------------
      1          6           0        1.894291    1.040650   -0.882321
      2          6           0       -3.056119    1.791440   -0.496914
      3          6           0       -2.641579    0.848588    0.761444
      4          6           0       -1.822960   -1.099410   -0.534446
      5          6           0       -3.857300    0.050296    1.313181
      6          6           0        3.173200   -0.491164    0.552786
      7          6           0        3.288470    0.268600   -0.764296
      8          6           0        0.732268    0.144301   -0.610119
      9          6           0       -1.482510   -0.124875    0.626932
     10          1           0       -3.714579    2.570220   -0.181031
     11          1           0       -1.949820   -2.936820   -0.936489
     12          1           0       -4.019980   -0.849461    0.846608
     13          1           0       -3.515610   -0.201281    2.410751
     14          1           0       -4.701909    0.723953    1.438781
     15          1           0       -3.523179    1.027060   -1.182009
     16          1           0       -2.265689    2.410210   -0.953809
     17          1           0       -2.151819    1.636490    1.523931
     18          1           0       -0.129704    1.588520    0.412063
     19          1           0        2.046510   -0.995964    2.015381
     20          1           0        4.111031    0.917673   -0.663355
     21          1           0        3.298990   -0.513986   -1.492049
     22          1           0        1.790861    1.386040   -1.925089
     23          1           0        2.014411    2.156940    1.053111
     24          1           0        2.277361    3.055500   -0.271475
     25          1           0       -1.274040   -0.804854    1.512931
     26          7           0        1.828181    2.257770    0.042490
     27          7           0       -0.231330    0.620416    0.266645
     28          8           0       -1.817300   -0.720426   -1.710159
     29          8           0        0.858568   -0.980008   -1.041929
     30          8           0        3.992650   -1.285730    0.952468
     31          8           0        2.028700   -0.335582    1.244741
     32          8           0       -2.167290   -2.414270   -0.141325
 ---------------------------------------------------------------------

 SCF Done:  E(RHF) =  -837.163395396     A.U. after    2 cycles

 The electronic state is 1-A.
 Alpha  occ. eigenvalues --  -21.11818 -21.10803 -21.05006 -21.04376 -21.01628
 Alpha  occ. eigenvalues --  -15.75310 -15.74909 -11.55550 -11.54034 -11.52898
 Alpha  occ. eigenvalues --  -11.50494 -11.46902 -11.43915 -11.41822 -11.39569
 Alpha  occ. eigenvalues --  -11.37977  -1.83510  -1.79138  -1.71328  -1.64349
 Alpha  occ. eigenvalues --   -1.64178  -1.41184  -1.33340  -1.22075  -1.15009
 Alpha  occ. eigenvalues --   -1.05480  -1.01000  -0.97724  -0.86765  -0.81743
 Alpha  occ. eigenvalues --   -0.77933  -0.75307  -0.71835  -0.68626  -0.67507
 Alpha  occ. eigenvalues --   -0.65900  -0.63196  -0.61411  -0.60804  -0.59625
 Alpha  occ. eigenvalues --   -0.58974  -0.58217  -0.56754  -0.54891  -0.54124
 Alpha  occ. eigenvalues --   -0.52914  -0.51685  -0.50950  -0.49824  -0.48219
 Alpha  occ. eigenvalues --   -0.47209  -0.45555  -0.43839  -0.42177  -0.41161
 Alpha  occ. eigenvalues --   -0.36699  -0.34070  -0.33136  -0.30768  -0.28501
 Alpha  occ. eigenvalues --   -0.28418  -0.27690
 Alpha virt. eigenvalues --    0.03397   0.03495   0.04043   0.04573   0.05143
 Alpha virt. eigenvalues --    0.05512   0.06022   0.06271   0.06459   0.07111
 Alpha virt. eigenvalues --    0.07378   0.07564   0.08123   0.08665   0.09722

 Mulliken charges:
               1
     1  C   -0.953541
     2  C   -4.295538
     3  C   -1.278659
     4  C    8.215993
     5  C   -5.024145
     6  C    6.044070
     7  C   -4.156221
     8  C    5.545993
     9  C   -1.244020
    10  H    1.134218
    11  H    0.714684
    12  H    1.428771
    13  H    1.078383
    14  H    1.328775
    15  H    1.486306
    16  H    1.384129
    17  H    1.673530
    18  H    0.826904
    19  H    0.882892
    20  H    1.402692
    21  H    1.330931
    22  H    1.947009
    23  H    0.635865
    24  H    0.766456
    25  H    2.026519
    26  N   -3.327667
    27  N   -2.389657
    28  O   -3.341453
    29  O   -4.049785
    30  O   -3.366190
    31  O   -3.049776
    32  O   -3.377466
 Sum of Mulliken charges =  -0.00000

 Dipole moment (field-independent basis, Debye):
    X=             -0.9139    Y=              2.4500    Z=              0.9531  Tot=              2.7832

 Test job not archived.
 1\1\GINC-SE049\SP\RHF\Aug-CC-pVDZ\C9H16N2O5\OHZDE\08-Apr-2025\0\\#t hf
  aug-cc-pvdz iop(5/13=1,5/36=2,99/5=2) pseudo=read geom=check guess=(r
 ead,tcheck) scf=(maxcycle=1)\\title\\0,1\C,0,1.89429,1.04065,-0.882322
 \C,0,-3.05612,1.79144,-0.496915\C,0,-2.64158,0.848588,0.761443\C,0,-1.
 82296,-1.09941,-0.534447\C,0,-3.8573,0.050296,1.31318\C,0,3.1732,-0.49
 1164,0.552785\C,0,3.28847,0.2686,-0.764297\C,0,0.732268,0.144301,-0.61
 012\C,0,-1.48251,-0.124875,0.626931\H,0,-3.71458,2.57022,-0.181032\H,0
 ,-1.94982,-2.93682,-0.93649\H,0,-4.01998,-0.849461,0.846607\H,0,-3.515

 Normal termination of Gaussian 16 at Tue Apr  8 21:10:34 2025.
