 Gaussian 16, Revision C.01,

 ----------------------------------------------------------------------
 #t hf aug-cc-pvdz symm=none int=(grid=ultrafine) guess=(read,tcheck) s
 table=(opt,rrhf)
 ----------------------------------------------------------------------
 -----
 title
 -----
 Symbolic Z-matrix:
 Charge =  0 Multiplicity = 1

 SCF Done:  E(RHF) =  -541.417929143     A.U. after   16 cycles
 Normal termination of Gaussian 16 at Tue Apr  8 19:57:57 2025.
 Gaussian 16:  ES64L-G16RevC.01  3-Jul-2019

 ----------------------------------------------------------------------
 #t hf aug-cc-pvdz iop(5/13=1,5/36=2,99/5=2) pseudo=read geom=check gue
 ss=(read,tcheck) scf=(maxcycle=1)
 ----------------------------------------------------------------------
 -----
 title
 -----
 Structure from the checkpoint file:  "ANI1ccx_1513_conf4_mol1.chk"
 Charge =  0 Multiplicity = 1

                         Standard orientation:
 ---------------------------------------------------------------------
 Center     Atomic      Atomic             Coordinates (Angstroms)
 Number     Number       Type             X           Y           Z
 ---------------------------------------------------------------------
      1          6           0       -1.440670    0.069859    0.029857
      2          6           0       -3.807580   -0.330296    0.014190
      3          6           0        1.036350   -0.253773    0.086379
      4          6           0        1.439460    1.051540    0.185219
      5          6           0        2.741770    1.294229    0.025067
      6          6           0        3.709760    0.262546   -0.061466
      7          6           0        2.043429   -1.248280   -0.018345
      8          1           0        1.690129   -2.294280   -0.071896
      9          1           0        4.767260    0.565759   -0.200929
     10          1           0        3.134740    2.303989    0.140507
     11          1           0       -0.369487   -1.694990    0.066631
     12          1           0       -2.376061   -1.746229    0.099911
     13          1           0       -2.334660    1.750061   -0.249938
     14          1           0        0.714363    1.807180    0.383491
     15          7           0       -0.305546   -0.700672    0.119001
     16          7           0       -1.434240    1.327941   -0.194343
     17          7           0       -2.565971   -0.773704    0.019064
     18          7           0       -4.747760    0.354658   -0.050333
     19          7           0        3.401889   -1.032001   -0.140986
 ---------------------------------------------------------------------

 SCF Done:  E(RHF) =  -543.893006956     A.U. after    2 cycles

 The electronic state is 1-A.
 Alpha  occ. eigenvalues --  -15.84862 -15.80757 -15.78027 -15.76040 -15.73573
 Alpha  occ. eigenvalues --  -11.53950 -11.50953 -11.49422 -11.46190 -11.44640
 Alpha  occ. eigenvalues --  -11.43213 -11.38700  -1.58372  -1.47123  -1.39648
 Alpha  occ. eigenvalues --   -1.30773  -1.27923  -1.19726  -1.10144  -0.94899
 Alpha  occ. eigenvalues --   -0.91722  -0.85635  -0.82335  -0.77803  -0.73109
 Alpha  occ. eigenvalues --   -0.67871  -0.65815  -0.63692  -0.59322  -0.58759
 Alpha  occ. eigenvalues --   -0.57588  -0.56760  -0.54625  -0.52062  -0.49290
 Alpha  occ. eigenvalues --   -0.46713  -0.42890  -0.42067  -0.38097  -0.36555
 Alpha  occ. eigenvalues --   -0.35887  -0.29812
 Alpha virt. eigenvalues --    0.02092   0.04420   0.04997   0.06027   0.06138
 Alpha virt. eigenvalues --    0.07583   0.07893   0.08744   0.09452   0.09841
 Alpha virt. eigenvalues --    0.10359   0.10821   0.11195   0.11748   0.11824

 Mulliken charges:
               1
     1  C    4.356164
     2  C    2.736734
     3  C    3.521045
     4  C    0.758231
     5  C   -1.116553
     6  C   -1.466469
     7  C   -2.317476
     8  H    1.629432
     9  H    1.533903
    10  H    1.325546
    11  H    0.856417
    12  H    0.828536
    13  H    0.715810
    14  H    1.766138
    15  N   -3.961801
    16  N   -2.864783
    17  N   -2.372054
    18  N   -2.485823
    19  N   -3.442997
 Sum of Mulliken charges =  -0.00000

 Dipole moment (field-independent basis, Debye):
    X=              0.7806    Y=             -2.2796    Z=              0.4859  Tot=              2.4580

 Test job not archived.
 1\1\GINC-SE362\SP\RHF\Aug-CC-pVDZ\C7H7N5\OHZDE\08-Apr-2025\0\\#t hf au
 g-cc-pvdz iop(5/13=1,5/36=2,99/5=2) pseudo=read geom=check guess=(read
 ,tcheck) scf=(maxcycle=1)\\title\\0,1\C,0,-1.44067,0.0698583,0.0298573
 \C,0,-3.80758,-0.330297,0.0141903\C,0,1.03635,-0.253773,0.0863788\C,0,
 1.43946,1.05154,0.185219\C,0,2.74177,1.29423,0.0250672\C,0,3.70976,0.2
 62547,-0.0614664\C,0,2.04343,-1.24828,-0.0183448\H,0,1.69013,-2.29428,
 -0.071896\H,0,4.76726,0.56576,-0.200929\H,0,3.13474,2.30399,0.140507\H
 ,0,-0.369486,-1.69499,0.0666308\H,0,-2.37606,-1.74623,0.099911\H,0,-2.

 Normal termination of Gaussian 16 at Tue Apr  8 19:58:06 2025.
