 Gaussian 16, Revision C.01,

 ----------------------------------------------------------------------
 #t hf aug-cc-pvdz symm=none int=(grid=ultrafine) guess=(read,tcheck) s
 table=(opt,rrhf)
 ----------------------------------------------------------------------
 -----
 title
 -----
 Symbolic Z-matrix:
 Charge =  0 Multiplicity = 1

 SCF Done:  E(RHF) =  -509.502785686     A.U. after   14 cycles
 Normal termination of Gaussian 16 at Tue Apr  8 22:13:33 2025.
 Gaussian 16:  ES64L-G16RevC.01  3-Jul-2019

 ----------------------------------------------------------------------
 #t hf aug-cc-pvdz iop(5/13=1,5/36=2,99/5=2) pseudo=read geom=check gue
 ss=(read,tcheck) scf=(maxcycle=1)
 ----------------------------------------------------------------------
 -----
 title
 -----
 Structure from the checkpoint file:  "ANI1ccx_939_conf143_mol1.chk"
 Charge =  0 Multiplicity = 1

                         Standard orientation:
 ---------------------------------------------------------------------
 Center     Atomic      Atomic             Coordinates (Angstroms)
 Number     Number       Type             X           Y           Z
 ---------------------------------------------------------------------
      1          6           0        0.413380    0.139528    0.514977
      2          6           0        2.012429   -0.177187    0.200260
      3          6           0       -0.629571   -0.739678   -0.173823
      4          6           0       -2.020731   -0.230656   -0.019943
      5          1           0        0.984650    1.885281   -0.462743
      6          1           0        0.423316    2.125461    0.902947
      7          1           0        0.422268   -0.013357    1.624260
      8          1           0       -0.338749   -0.837388   -1.254740
      9          1           0       -0.629678   -1.742909    0.224220
     10          1           0       -1.297931    1.433061   -0.383181
     11          1           0        1.471539   -1.949059   -0.340586
     12          7           0        0.243241    1.592461    0.042320
     13          8           0        2.757439    0.676110   -0.160777
     14          8           0       -2.947041   -0.984355    0.210358
     15          8           0       -2.204151    1.022500   -0.342451
     16          8           0        2.219859   -1.464299   -0.174035
 ---------------------------------------------------------------------

 SCF Done:  E(RHF) =  -511.696138677     A.U. after    2 cycles

 The electronic state is 1-A.
 Alpha  occ. eigenvalues --  -21.15663 -21.09649 -21.09463 -21.03928 -15.79520
 Alpha  occ. eigenvalues --  -11.56662 -11.53226 -11.51550 -11.44066  -1.86671
 Alpha  occ. eigenvalues --   -1.82459  -1.70157  -1.64394  -1.39788  -1.18573
 Alpha  occ. eigenvalues --   -0.99934  -0.83356  -0.80128  -0.77473  -0.72814
 Alpha  occ. eigenvalues --   -0.68072  -0.65931  -0.60863  -0.58398  -0.56516
 Alpha  occ. eigenvalues --   -0.55065  -0.52385  -0.50311  -0.49219  -0.45591
 Alpha  occ. eigenvalues --   -0.37832  -0.36801  -0.33785  -0.32117  -0.28939
 Alpha virt. eigenvalues --    0.02705   0.03993   0.04790   0.05253   0.05718
 Alpha virt. eigenvalues --    0.06727   0.07836   0.09087   0.10341   0.10457
 Alpha virt. eigenvalues --    0.11799   0.12096   0.12343   0.12507   0.13087

 Mulliken charges:
               1
     1  C   -0.962678
     2  C    5.337297
     3  C   -3.544994
     4  C    6.090343
     5  H    0.934831
     6  H    0.520429
     7  H    1.774957
     8  H    1.439474
     9  H    1.267452
    10  H    1.778053
    11  H    1.163736
    12  N   -3.002535
    13  O   -2.902233
    14  O   -3.218721
    15  O   -3.512080
    16  O   -3.163331
 Sum of Mulliken charges =  -0.00000

 Dipole moment (field-independent basis, Debye):
    X=              2.5851    Y=              0.7016    Z=              0.1184  Tot=              2.6812

 Test job not archived.
 1\1\GINC-SE015\SP\RHF\Aug-CC-pVDZ\C4H7N1O4\OHZDE\08-Apr-2025\0\\#t hf
 aug-cc-pvdz iop(5/13=1,5/36=2,99/5=2) pseudo=read geom=check guess=(re
 ad,tcheck) scf=(maxcycle=1)\\title\\0,1\C,0,0.413381,0.139527,0.514977
 \C,0,2.01243,-0.177188,0.20026\C,0,-0.62957,-0.739679,-0.173823\C,0,-2
 .02073,-0.230656,-0.0199431\H,0,0.984651,1.88528,-0.462743\H,0,0.42331
 7,2.12546,0.902947\H,0,0.422269,-0.0133581,1.62426\H,0,-0.338748,-0.83
 7389,-1.25474\H,0,-0.629677,-1.74291,0.22422\H,0,-1.29793,1.43306,-0.3
 83181\H,0,1.47154,-1.94906,-0.340586\N,0,0.243242,1.59246,0.0423202\O,

 Normal termination of Gaussian 16 at Tue Apr  8 22:13:40 2025.
