 Gaussian 16, Revision C.01,

 ----------------------------------------------------------------------
 #t hf aug-cc-pvdz symm=none int=(grid=ultrafine) guess=(read,tcheck) s
 table=(opt,rrhf)
 ----------------------------------------------------------------------
 -----
 title
 -----
 Symbolic Z-matrix:
 Charge =  0 Multiplicity = 1

 SCF Done:  E(RHF) =  -394.541903660     A.U. after   15 cycles
 Normal termination of Gaussian 16 at Tue Apr  8 21:38:47 2025.
 Gaussian 16:  ES64L-G16RevC.01  3-Jul-2019

 ----------------------------------------------------------------------
 #t hf aug-cc-pvdz iop(5/13=1,5/36=2,99/5=2) pseudo=read geom=check gue
 ss=(read,tcheck) scf=(maxcycle=1)
 ----------------------------------------------------------------------
 -----
 title
 -----
 Structure from the checkpoint file:  "ANI1ccx_415_conf1_mol1.chk"
 Charge =  0 Multiplicity = 1

                         Standard orientation:
 ---------------------------------------------------------------------
 Center     Atomic      Atomic             Coordinates (Angstroms)
 Number     Number       Type             X           Y           Z
 ---------------------------------------------------------------------
      1          6           0        2.187070    0.337803   -0.043391
      2          1           0        1.434800   -1.549270    0.277065
      3          1           0        0.265818   -0.202506    0.303998
      4          1           0        1.765210    1.352000   -0.167179
      5          1           0       -1.588010    1.523850   -0.697148
      6          1           0       -3.043080   -1.124340   -0.037590
      7          7           0        1.198840   -0.568601    0.111962
      8          8           0        3.382900    0.095000   -0.093217
      9          8           0       -2.218570    1.166550   -0.041197
     10          8           0       -1.583360    0.016037    0.432110
     11          8           0       -2.124600   -1.033380   -0.323013
 ---------------------------------------------------------------------

 SCF Done:  E(RHF) =  -396.170819638     A.U. after    2 cycles

 The electronic state is 1-A.
 Alpha  occ. eigenvalues --  -21.18539 -21.16375 -21.15922 -21.02312 -15.77105
 Alpha  occ. eigenvalues --  -11.47499  -2.12554  -1.72296  -1.68569  -1.34123
 Alpha  occ. eigenvalues --   -1.30639  -0.86039  -0.74126  -0.70668  -0.63439
 Alpha  occ. eigenvalues --   -0.62305  -0.58967  -0.56396  -0.52290  -0.49121
 Alpha  occ. eigenvalues --   -0.40047  -0.34881  -0.34400  -0.31763  -0.28721
 Alpha virt. eigenvalues --    0.03484   0.04618   0.05754   0.06216   0.08241
 Alpha virt. eigenvalues --    0.11290   0.12798   0.13431   0.13443   0.15792
 Alpha virt. eigenvalues --    0.16386   0.17798   0.17844   0.17954   0.19475

 Mulliken charges:
               1
     1  C    1.836159
     2  H    0.629355
     3  H    1.235281
     4  H    1.489744
     5  H    0.892180
     6  H    0.996313
     7  N   -2.385244
     8  O   -2.611994
     9  O   -1.141131
    10  O    0.357929
    11  O   -1.298593
 Sum of Mulliken charges =  -0.00000

 Dipole moment (field-independent basis, Debye):
    X=             -4.0345    Y=             -0.2258    Z=             -0.0452  Tot=              4.0411

 Test job not archived.
 1\1\GINC-SE457\SP\RHF\Aug-CC-pVDZ\C1H5N1O4\OHZDE\08-Apr-2025\0\\#t hf
 aug-cc-pvdz iop(5/13=1,5/36=2,99/5=2) pseudo=read geom=check guess=(re
 ad,tcheck) scf=(maxcycle=1)\\title\\0,1\C,0,2.18707,0.337803,-0.043390
 6\H,0,1.4348,-1.54927,0.277065\H,0,0.265818,-0.202506,0.303998\H,0,1.7
 6521,1.352,-0.167179\H,0,-1.58801,1.52385,-0.697148\H,0,-3.04308,-1.12
 434,-0.0375899\N,0,1.19884,-0.568601,0.111962\O,0,3.3829,0.0950005,-0.
 0932174\O,0,-2.21857,1.16655,-0.0411967\O,0,-1.58336,0.0160371,0.43211
 \O,0,-2.1246,-1.03338,-0.323013\\Version=ES64L-G16RevC.01\State=1-A\HF

 Normal termination of Gaussian 16 at Tue Apr  8 21:38:50 2025.
