 Gaussian 16, Revision C.01,

 ----------------------------------------------------------------------
 #t hf aug-cc-pvdz symm=none int=(grid=ultrafine) guess=(read,tcheck) s
 table=(opt,rrhf)
 ----------------------------------------------------------------------
 -----
 title
 -----
 Symbolic Z-matrix:
 Charge =  0 Multiplicity = 1

 SCF Done:  E(RHF) =  -868.338501466     A.U. after   16 cycles
 Normal termination of Gaussian 16 at Tue Apr  8 20:57:30 2025.
 Gaussian 16:  ES64L-G16RevC.01  3-Jul-2019

 ----------------------------------------------------------------------
 #t hf aug-cc-pvdz iop(5/13=1,5/36=2,99/5=2) pseudo=read geom=check gue
 ss=(read,tcheck) scf=(maxcycle=1)
 ----------------------------------------------------------------------
 -----
 title
 -----
 Structure from the checkpoint file:  "ANI1ccx_170_conf13_mol2.chk"
 Charge =  0 Multiplicity = 1

                         Standard orientation:
 ---------------------------------------------------------------------
 Center     Atomic      Atomic             Coordinates (Angstroms)
 Number     Number       Type             X           Y           Z
 ---------------------------------------------------------------------
      1          6           0       -0.641894    0.782178    1.118790
      2          6           0        1.772850   -1.993860    0.179673
      3          6           0        3.705120   -0.659427    0.107124
      4          6           0        2.231910    1.138360   -0.935517
      5          6           0        2.423090    0.270493    0.298624
      6          6           0        3.029940   -1.833590   -0.653956
      7          6           0       -2.713240   -0.904266   -1.031300
      8          6           0       -2.630320    0.338857   -0.444640
      9          6           0       -1.350730    1.083949   -0.228375
     10          6           0        0.141664   -0.488181    1.253370
     11          6           0       -4.703050   -0.244842   -0.283891
     12          1           0        4.085480   -1.035060    1.011310
     13          1           0        1.125500    2.180639    0.247463
     14          1           0        0.956239   -2.530781   -0.348009
     15          1           0        1.941610   -2.524210    1.129240
     16          1           0        3.621040   -2.765820   -0.674240
     17          1           0        2.839330   -1.547850   -1.674630
     18          1           0        4.508810   -0.165967   -0.418684
     19          1           0        2.489620    0.789437    1.189740
     20          1           0       -1.987590   -1.420961   -1.656500
     21          1           0       -5.781300   -0.124162   -0.252326
     22          1           0       -0.615570    0.856250   -1.038400
     23          1           0       -1.519880    2.173619   -0.307070
     24          1           0       -1.441270    0.590476    1.919640
     25          1           0       -0.279717    2.799179    1.587610
     26          1           0        0.508004    1.658739    2.555070
     27          1           0       -4.521110   -2.076951   -1.359210
     28          7           0        0.233422    1.916259    1.605970
     29          7           0       -3.845300    0.722251    0.080474
     30          7           0       -4.045900   -1.262951   -0.938824
     31          7           0        1.263870   -0.653698    0.402761
     32          8           0        2.756900    0.908257   -2.008130
     33          8           0       -0.223686   -1.422811    1.933290
     34          8           0        1.371300    2.158600   -0.705543
 ---------------------------------------------------------------------

 SCF Done:  E(RHF) =  -872.299767076     A.U. after    2 cycles

 The electronic state is 1-A.
 Alpha  occ. eigenvalues --  -21.08189 -21.05102 -21.03801 -15.80815 -15.77528
 Alpha  occ. eigenvalues --  -15.73397 -15.72553 -11.55745 -11.53819 -11.49324
 Alpha  occ. eigenvalues --  -11.46225 -11.45894 -11.44093 -11.43723 -11.43535
 Alpha  occ. eigenvalues --  -11.41482 -11.39085 -11.36864  -1.79780  -1.72914
 Alpha  occ. eigenvalues --   -1.64309  -1.55624  -1.46298  -1.37829  -1.27205
 Alpha  occ. eigenvalues --   -1.18475  -1.15276  -1.10555  -1.05682  -0.97607
 Alpha  occ. eigenvalues --   -0.91876  -0.85942  -0.85158  -0.80146  -0.78234
 Alpha  occ. eigenvalues --   -0.76944  -0.75498  -0.72528  -0.69250  -0.65781
 Alpha  occ. eigenvalues --   -0.65016  -0.63219  -0.62058  -0.60915  -0.58573
 Alpha  occ. eigenvalues --   -0.57813  -0.57169  -0.55252  -0.54111  -0.52681
 Alpha  occ. eigenvalues --   -0.51501  -0.51090  -0.50032  -0.48863  -0.47123
 Alpha  occ. eigenvalues --   -0.46891  -0.44799  -0.43095  -0.41509  -0.39017
 Alpha  occ. eigenvalues --   -0.36924  -0.36043  -0.33034  -0.31889  -0.30690
 Alpha  occ. eigenvalues --   -0.29604  -0.26646
 Alpha virt. eigenvalues --    0.03018   0.03860   0.04565   0.04647   0.05166
 Alpha virt. eigenvalues --    0.05933   0.06055   0.06329   0.06471   0.06896
 Alpha virt. eigenvalues --    0.07641   0.07806   0.08278   0.08432   0.09381

 Mulliken charges:
               1
     1  C   -0.901653
     2  C   -2.638112
     3  C   -3.232553
     4  C    6.825432
     5  C   -3.125082
     6  C   -3.278199
     7  C   -2.357652
     8  C    4.754895
     9  C   -4.382219
    10  C    6.808750
    11  C    0.492351
    12  H    1.198031
    13  H    2.076633
    14  H    1.862162
    15  H    1.692912
    16  H    1.229945
    17  H    1.504986
    18  H    1.390572
    19  H    2.501098
    20  H    1.369564
    21  H    1.732331
    22  H    1.971827
    23  H    1.415904
    24  H    1.616132
    25  H    0.640430
    26  H    0.730362
    27  H    0.888356
    28  N   -3.144091
    29  N   -3.770531
    30  N   -3.139973
    31  N   -1.749178
    32  O   -3.420637
    33  O   -3.886615
    34  O   -3.676180
 Sum of Mulliken charges =   0.00000

 Dipole moment (field-independent basis, Debye):
    X=             -2.0213    Y=             -1.9554    Z=              0.7204  Tot=              2.9032

 Test job not archived.
 1\1\GINC-SE342\SP\RHF\Aug-CC-pVDZ\C11H16N4O3\OHZDE\08-Apr-2025\0\\#t h
 f aug-cc-pvdz iop(5/13=1,5/36=2,99/5=2) pseudo=read geom=check guess=(
 read,tcheck) scf=(maxcycle=1)\\title\\0,1\C,0,-0.641894,0.782179,1.118
 79\C,0,1.77285,-1.99386,0.179673\C,0,3.70512,-0.659427,0.107124\C,0,2.
 23191,1.13836,-0.935517\C,0,2.42309,0.270493,0.298624\C,0,3.02994,-1.8
 3359,-0.653956\C,0,-2.71324,-0.904265,-1.0313\C,0,-2.63032,0.338858,-0
 .44464\C,0,-1.35073,1.08395,-0.228375\C,0,0.141664,-0.48818,1.25337\C,
 0,-4.70305,-0.244841,-0.283891\H,0,4.08548,-1.03506,1.01131\H,0,1.1255

 Normal termination of Gaussian 16 at Tue Apr  8 20:58:26 2025.
