 Gaussian 16, Revision C.01,

 ----------------------------------------------------------------------
 #t hf aug-cc-pvdz symm=none int=(grid=ultrafine) guess=(read,tcheck) s
 table=(opt,rrhf)
 ----------------------------------------------------------------------
 -----
 title
 -----
 Symbolic Z-matrix:
 Charge =  0 Multiplicity = 1

 SCF Done:  E(RHF) =  -603.545235318     A.U. after   14 cycles
 Normal termination of Gaussian 16 at Tue Apr  8 22:21:04 2025.
 Gaussian 16:  ES64L-G16RevC.01  3-Jul-2019

 ----------------------------------------------------------------------
 #t hf aug-cc-pvdz iop(5/13=1,5/36=2,99/5=2) pseudo=read geom=check gue
 ss=(read,tcheck) scf=(maxcycle=1)
 ----------------------------------------------------------------------
 -----
 title
 -----
 Structure from the checkpoint file:  "ANI1ccx_999_conf34_mol1.chk"
 Charge =  0 Multiplicity = 1

                         Standard orientation:
 ---------------------------------------------------------------------
 Center     Atomic      Atomic             Coordinates (Angstroms)
 Number     Number       Type             X           Y           Z
 ---------------------------------------------------------------------
      1          6           0       -2.240331    0.027148    0.840955
      2          6           0       -1.439482   -1.019179   -0.018447
      3          6           0        0.890687   -0.132631    0.233296
      4          6           0        0.792125    1.277838   -0.179096
      5          6           0        2.206199   -0.542828   -0.191605
      6          1           0        2.130921    1.425357    1.053790
      7          1           0        2.663947   -1.749264    1.243860
      8          1           0        2.984570    0.240439   -0.109987
      9          1           0        2.114969   -0.429705   -1.340720
     10          1           0        0.786126   -0.256565    1.364420
     11          1           0       -1.437220    0.310690    1.506480
     12          1           0       -2.900111   -0.599907    1.391560
     13          1           0       -3.440689    1.511404    0.700895
     14          1           0       -2.161978    1.663622   -0.256424
     15          1           0        0.200048   -1.280761   -1.248400
     16          7           0       -2.853909    1.024843    0.089616
     17          7           0       -0.100721   -0.967301   -0.318437
     18          8           0        2.655487   -1.769674    0.262518
     19          8           0       -2.143953   -1.865448   -0.525340
     20          8           0        0.094664    1.777769   -1.019870
     21          8           0        1.704632    1.994827    0.430899
 ---------------------------------------------------------------------

 SCF Done:  E(RHF) =  -606.187081111     A.U. after    2 cycles

 The electronic state is 1-A.
 Alpha  occ. eigenvalues --  -21.15562 -21.11424 -21.07558 -21.02045 -15.76923
 Alpha  occ. eigenvalues --  -15.74110 -11.56269 -11.52719 -11.50632 -11.45540
 Alpha  occ. eigenvalues --  -11.41432  -1.89003  -1.76263  -1.70623  -1.68882
 Alpha  occ. eigenvalues --   -1.44034  -1.36082  -1.17415  -1.01736  -0.96646
 Alpha  occ. eigenvalues --   -0.85302  -0.82566  -0.76285  -0.71185  -0.68918
 Alpha  occ. eigenvalues --   -0.66802  -0.64718  -0.63700  -0.59679  -0.57724
 Alpha  occ. eigenvalues --   -0.56735  -0.54613  -0.53265  -0.51779  -0.48637
 Alpha  occ. eigenvalues --   -0.44810  -0.44202  -0.38691  -0.37051  -0.35090
 Alpha  occ. eigenvalues --   -0.33314  -0.30657  -0.26917
 Alpha virt. eigenvalues --    0.02336   0.04061   0.04150   0.04486   0.05722
 Alpha virt. eigenvalues --    0.05999   0.06560   0.07573   0.08300   0.09049
 Alpha virt. eigenvalues --    0.10043   0.10639   0.11112   0.12469   0.12679

 Mulliken charges:
               1
     1  C   -2.471733
     2  C    5.170124
     3  C   -1.773370
     4  C    7.241440
     5  C    0.039290
     6  H    1.111633
     7  H    0.574366
     8  H    1.063924
     9  H    1.207316
    10  H    1.756339
    11  H    1.576688
    12  H    1.277425
    13  H    0.550051
    14  H    0.652745
    15  H    0.424788
    16  N   -2.463048
    17  N   -2.557133
    18  O   -2.939898
    19  O   -3.466530
    20  O   -3.557312
    21  O   -3.417106
 Sum of Mulliken charges =  -0.00000

 Dipole moment (field-independent basis, Debye):
    X=              3.0331    Y=              1.2431    Z=              2.5013  Tot=              4.1232

 Test job not archived.
 1\1\GINC-SE338\SP\RHF\Aug-CC-pVDZ\C5H10N2O4\OHZDE\08-Apr-2025\0\\#t hf
  aug-cc-pvdz iop(5/13=1,5/36=2,99/5=2) pseudo=read geom=check guess=(r
 ead,tcheck) scf=(maxcycle=1)\\title\\0,1\C,0,-2.24033,0.0271461,0.8409
 55\C,0,-1.43948,-1.01918,-0.0184466\C,0,0.890688,-0.132629,0.233296\C,
 0,0.792124,1.27784,-0.179096\C,0,2.2062,-0.542824,-0.191605\H,0,2.1309
 2,1.42536,1.05379\H,0,2.66395,-1.74926,1.24386\H,0,2.98457,0.240444,-0
 .109987\H,0,2.11497,-0.429702,-1.34072\H,0,0.786127,-0.256563,1.36442\
 H,0,-1.43722,0.310689,1.50648\H,0,-2.90011,-0.59991,1.39156\H,0,-3.440

 Normal termination of Gaussian 16 at Tue Apr  8 22:21:16 2025.
