 Gaussian 16, Revision C.01,

 ----------------------------------------------------------------------
 #t hf aug-cc-pvdz symm=none int=(grid=ultrafine) guess=(read,tcheck) s
 table=(opt,rrhf)
 ----------------------------------------------------------------------
 -----
 title
 -----
 Symbolic Z-matrix:
 Charge =  0 Multiplicity = 1

 SCF Done:  E(RHF) =  -832.260370979     A.U. after   15 cycles
 Normal termination of Gaussian 16 at Tue Apr  8 20:51:30 2025.
 Gaussian 16:  ES64L-G16RevC.01  3-Jul-2019

 ----------------------------------------------------------------------
 #t hf aug-cc-pvdz iop(5/13=1,5/36=2,99/5=2) pseudo=read geom=check gue
 ss=(read,tcheck) scf=(maxcycle=1)
 ----------------------------------------------------------------------
 -----
 title
 -----
 Structure from the checkpoint file:  "ANI1ccx_1742_conf3_mol2.chk"
 Charge =  0 Multiplicity = 1

                         Standard orientation:
 ---------------------------------------------------------------------
 Center     Atomic      Atomic             Coordinates (Angstroms)
 Number     Number       Type             X           Y           Z
 ---------------------------------------------------------------------
      1          6           0       -1.624841   -0.038135   -0.436793
      2          6           0       -1.039100   -1.476730   -0.260693
      3          6           0       -2.039421    0.607928    0.954062
      4          6           0       -3.564941    0.631076    0.962502
      5          6           0       -3.861941    0.733077   -0.461024
      6          6           0        1.329870   -0.557105   -0.286839
      7          6           0        2.703400   -1.029428   -0.015502
      8          6           0        1.087569    0.686675    0.588423
      9          6           0        1.603148    2.007531    0.030303
     10          1           0        1.820871   -2.116709    1.189550
     11          1           0        3.231198    1.388842   -0.661099
     12          1           0       -0.014664    0.746557    0.734773
     13          1           0        1.421289    0.490241    1.591190
     14          1           0        1.343179   -0.350038   -1.353450
     15          1           0        0.625875   -2.514369   -0.063294
     16          1           0       -3.774462    1.791488   -0.758211
     17          1           0       -3.976982    1.475818    1.534760
     18          1           0       -3.863611   -0.372110    1.413490
     19          1           0       -1.703582    1.651169    1.069160
     20          1           0       -1.772321    0.028261    1.849260
     21          1           0       -0.987361    0.592027   -1.078970
     22          1           0       -3.296750   -1.082922   -1.129800
     23          1           0       -4.879731    0.501335   -0.752343
     24          7           0       -2.926071   -0.121725   -1.177880
     25          7           0        0.301081   -1.561830    0.067481
     26          8           0        2.720518    2.212972   -0.692700
     27          8           0       -1.784029   -2.485761   -0.271876
     28          8           0        3.693480   -0.714818   -0.659606
     29          8           0        0.922252    2.976951    0.294949
     30          8           0        2.777720   -1.968598    1.046880
 ---------------------------------------------------------------------

 SCF Done:  E(RHF) =  -835.962087809     A.U. after    2 cycles

 The electronic state is 1-A.
 Alpha  occ. eigenvalues --  -21.15656 -21.14350 -21.11029 -21.07119 -21.05780
 Alpha  occ. eigenvalues --  -15.82001 -15.72459 -11.61321 -11.57768 -11.55807
 Alpha  occ. eigenvalues --  -11.53819 -11.50943 -11.47137 -11.46514 -11.42738
 Alpha  occ. eigenvalues --  -11.37941  -1.85253  -1.83419  -1.72929  -1.70148
 Alpha  occ. eigenvalues --   -1.66219  -1.47505  -1.43622  -1.22357  -1.15975
 Alpha  occ. eigenvalues --   -1.12167  -1.04845  -0.92949  -0.85648  -0.84611
 Alpha  occ. eigenvalues --   -0.82849  -0.82250  -0.75998  -0.74625  -0.71587
 Alpha  occ. eigenvalues --   -0.69553  -0.66780  -0.65777  -0.64413  -0.63219
 Alpha  occ. eigenvalues --   -0.60623  -0.58379  -0.55738  -0.55193  -0.53763
 Alpha  occ. eigenvalues --   -0.52580  -0.51675  -0.50556  -0.49437  -0.48732
 Alpha  occ. eigenvalues --   -0.47766  -0.47330  -0.46756  -0.44100  -0.38417
 Alpha  occ. eigenvalues --   -0.36844  -0.35302  -0.34886  -0.34166  -0.32258
 Alpha  occ. eigenvalues --   -0.30555
 Alpha virt. eigenvalues --    0.03387   0.04420   0.04584   0.05030   0.05130
 Alpha virt. eigenvalues --    0.05533   0.06146   0.06670   0.06940   0.07213
 Alpha virt. eigenvalues --    0.07603   0.07898   0.08850   0.09370   0.10003

 Mulliken charges:
               1
     1  C   -0.995861
     2  C    6.119598
     3  C   -1.257152
     4  C   -3.114850
     5  C   -2.911067
     6  C   -2.865972
     7  C    6.603997
     8  C   -4.722351
     9  C    6.108187
    10  H    1.219759
    11  H    1.074463
    12  H    4.302834
    13  H    1.283294
    14  H    2.030272
    15  H    0.635014
    16  H    1.460666
    17  H    1.014397
    18  H    1.161293
    19  H    0.928440
    20  H    1.058166
    21  H    1.895703
    22  H    0.544661
    23  H    1.424383
    24  N   -3.014939
    25  N   -2.966539
    26  O   -3.264296
    27  O   -3.662654
    28  O   -3.427134
    29  O   -3.319900
    30  O   -3.342410
 Sum of Mulliken charges =  -0.00000

 Dipole moment (field-independent basis, Debye):
    X=             -0.8302    Y=             -1.6392    Z=              1.2008  Tot=              2.1950

 Test job not archived.
 1\1\GINC-SE009\SP\RHF\Aug-CC-pVDZ\C9H14N2O5\OHZDE\08-Apr-2025\0\\#t hf
  aug-cc-pvdz iop(5/13=1,5/36=2,99/5=2) pseudo=read geom=check guess=(r
 ead,tcheck) scf=(maxcycle=1)\\title\\0,1\C,0,-1.62484,-0.038134,-0.436
 793\C,0,-1.0391,-1.47673,-0.260693\C,0,-2.03942,0.607929,0.954062\C,0,
 -3.56494,0.631078,0.962502\C,0,-3.86194,0.733079,-0.461024\C,0,1.32987
 ,-0.557106,-0.286839\C,0,2.7034,-1.02943,-0.0155014\C,0,1.08757,0.6866
 74,0.588423\C,0,1.60315,2.00753,0.030303\H,0,1.82087,-2.11671,1.18955\
 H,0,3.2312,1.38884,-0.661099\H,0,-0.0146625,0.746557,0.734773\H,0,1.42

 Normal termination of Gaussian 16 at Tue Apr  8 20:52:08 2025.
