 Gaussian 16, Revision C.01,

 ----------------------------------------------------------------------
 #t hf aug-cc-pvdz symm=none int=(grid=ultrafine) guess=(read,tcheck) s
 table=(opt,rrhf)
 ----------------------------------------------------------------------
 -----
 title
 -----
 Symbolic Z-matrix:
 Charge =  0 Multiplicity = 1

 SCF Done:  E(RHF) =  -537.855268495     A.U. after   15 cycles
 Normal termination of Gaussian 16 at Tue Apr  8 22:20:36 2025.
 Gaussian 16:  ES64L-G16RevC.01  3-Jul-2019

 ----------------------------------------------------------------------
 #t hf aug-cc-pvdz iop(5/13=1,5/36=2,99/5=2) pseudo=read geom=check gue
 ss=(read,tcheck) scf=(maxcycle=1)
 ----------------------------------------------------------------------
 -----
 title
 -----
 Structure from the checkpoint file:  "ANI1ccx_988_conf5_mol1.chk"
 Charge =  0 Multiplicity = 1

                         Standard orientation:
 ---------------------------------------------------------------------
 Center     Atomic      Atomic             Coordinates (Angstroms)
 Number     Number       Type             X           Y           Z
 ---------------------------------------------------------------------
      1          6           0        2.112540   -0.400939   -0.001476
      2          6           0        0.736731    1.564769    0.613298
      3          6           0       -0.623527    1.865230   -0.019910
      4          6           0       -1.454270    0.532255   -0.088995
      5          1           0        0.017043   -1.029511    0.595517
      6          1           0       -0.472137    2.277320   -1.071060
      7          1           0       -1.211310    2.598800    0.535019
      8          1           0        1.169690    2.528969    0.910558
      9          1           0        0.631682    0.994810    1.601940
     10          1           0        1.807670   -2.130551    0.851367
     11          1           0        3.379610   -1.791311   -0.907365
     12          1           0        3.964490   -0.155462   -0.881829
     13          1           0        1.957990    1.306319   -1.091300
     14          7           0       -2.000100   -1.549120    0.124952
     15          7           0        3.146310   -0.772492   -0.853210
     16          7           0        1.542770   -1.129901    0.938984
     17          7           0        1.715420    0.878022   -0.192579
     18          7           0       -2.666520    0.424938   -0.477128
     19          7           0       -3.005900   -0.882774   -0.365403
     20          7           0       -0.999632   -0.678283    0.315763
 ---------------------------------------------------------------------

 SCF Done:  E(RHF) =  -540.331137632     A.U. after    2 cycles

 The electronic state is 1-A.
 Alpha  occ. eigenvalues --  -15.80230 -15.79105 -15.77256 -15.76643 -15.75342
 Alpha  occ. eigenvalues --  -15.72803 -15.71887 -11.52680 -11.49412 -11.44742
 Alpha  occ. eigenvalues --  -11.40305  -1.70478  -1.53779  -1.35469  -1.33652
 Alpha  occ. eigenvalues --   -1.26862  -1.26592  -1.12725  -0.95954  -0.86291
 Alpha  occ. eigenvalues --   -0.84940  -0.81612  -0.75881  -0.72364  -0.69045
 Alpha  occ. eigenvalues --   -0.66246  -0.63502  -0.62480  -0.60705  -0.59312
 Alpha  occ. eigenvalues --   -0.54625  -0.52973  -0.50629  -0.45883  -0.43620
 Alpha  occ. eigenvalues --   -0.38519  -0.38270  -0.37727  -0.37112  -0.34436
 Alpha  occ. eigenvalues --   -0.33645
 Alpha virt. eigenvalues --    0.02064   0.03551   0.04124   0.04706   0.05799
 Alpha virt. eigenvalues --    0.06121   0.06568   0.07146   0.09227   0.09394
 Alpha virt. eigenvalues --    0.10769   0.11558   0.12862   0.13006   0.13917

 Mulliken charges:
               1
     1  C    4.714638
     2  C   -2.219760
     3  C   -2.833005
     4  C    3.883264
     5  H    1.573584
     6  H    1.344156
     7  H    1.302729
     8  H    1.177013
     9  H    1.684266
    10  H    0.588708
    11  H    0.537884
    12  H    0.610459
    13  H    0.679027
    14  N   -0.120921
    15  N   -2.816331
    16  N   -2.688835
    17  N   -2.371264
    18  N   -2.200760
    19  N   -0.461409
    20  N   -2.383444
 Sum of Mulliken charges =  -0.00000

 Dipole moment (field-independent basis, Debye):
    X=              9.3878    Y=              2.4666    Z=             -0.5319  Tot=              9.7210

 Test job not archived.
 1\1\GINC-SE044\SP\RHF\Aug-CC-pVDZ\C4H9N7\OHZDE\08-Apr-2025\0\\#t hf au
 g-cc-pvdz iop(5/13=1,5/36=2,99/5=2) pseudo=read geom=check guess=(read
 ,tcheck) scf=(maxcycle=1)\\title\\0,1\C,0,2.11254,-0.400938,-0.0014761
 3\C,0,0.736731,1.56477,0.613298\C,0,-0.623527,1.86523,-0.0199099\C,0,-
 1.45427,0.532255,-0.0889946\H,0,0.0170428,-1.02951,0.595517\H,0,-0.472
 137,2.27732,-1.07106\H,0,-1.21131,2.5988,0.535019\H,0,1.16969,2.52897,
 0.910558\H,0,0.631682,0.994811,1.60194\H,0,1.80767,-2.13055,0.851367\H
 ,0,3.37961,-1.79131,-0.907365\H,0,3.96449,-0.155461,-0.881829\H,0,1.95

 Normal termination of Gaussian 16 at Tue Apr  8 22:20:48 2025.
