 Gaussian 16, Revision C.01,

 ----------------------------------------------------------------------
 #t hf aug-cc-pvdz symm=none int=(grid=ultrafine) guess=(read,tcheck) s
 table=(opt,rrhf)
 ----------------------------------------------------------------------
 -----
 title
 -----
 Symbolic Z-matrix:
 Charge =  0 Multiplicity = 1

 SCF Done:  E(RHF) =  -205.851017611     A.U. after   14 cycles
 Normal termination of Gaussian 16 at Tue Apr  8 21:12:18 2025.
 Gaussian 16:  ES64L-G16RevC.01  3-Jul-2019

 ----------------------------------------------------------------------
 #t hf aug-cc-pvdz iop(5/13=1,5/36=2,99/5=2) pseudo=read geom=check gue
 ss=(read,tcheck) scf=(maxcycle=1)
 ----------------------------------------------------------------------
 -----
 title
 -----
 Structure from the checkpoint file:  "ANI1ccx_1869_conf28_mol1.chk"
 Charge =  0 Multiplicity = 1

                         Standard orientation:
 ---------------------------------------------------------------------
 Center     Atomic      Atomic             Coordinates (Angstroms)
 Number     Number       Type             X           Y           Z
 ---------------------------------------------------------------------
      1          1           0       -1.123368    1.243731   -0.227796
      2          1           0        2.352232    0.605782    0.551356
      3          1           0        1.268802   -0.263554   -0.151492
      4          7           0       -0.830803    0.271585   -0.020617
      5          8           0       -1.838368   -0.297654    0.043321
      6          8           0        2.253112   -0.138227   -0.046790
 ---------------------------------------------------------------------

 SCF Done:  E(RHF) =  -206.715157315     A.U. after    2 cycles

 The electronic state is 1-A.
 Alpha  occ. eigenvalues --  -21.17001 -21.07853 -15.90297  -1.92192  -1.63789
 Alpha  occ. eigenvalues --   -1.04896  -0.71637  -0.62203  -0.58305  -0.56361
 Alpha  occ. eigenvalues --   -0.44735  -0.33877  -0.31061
 Alpha virt. eigenvalues --    0.03408   0.05798   0.07993   0.10529   0.12179
 Alpha virt. eigenvalues --    0.16287   0.17360   0.19659   0.20664   0.23849
 Alpha virt. eigenvalues --    0.24184   0.24776   0.25652   0.27262   0.29654

 Mulliken charges:
               1
     1  H    0.794528
     2  H    0.849869
     3  H    1.176734
     4  N    1.052250
     5  O   -1.839830
     6  O   -2.033551
 Sum of Mulliken charges =   0.00000

 Dipole moment (field-independent basis, Debye):
    X=             -1.8230    Y=              1.5049    Z=              0.2319  Tot=              2.3752

 Test job not archived.
 1\1\GINC-SE095\SP\RHF\Aug-CC-pVDZ\H3N1O2\OHZDE\08-Apr-2025\0\\#t hf au
 g-cc-pvdz iop(5/13=1,5/36=2,99/5=2) pseudo=read geom=check guess=(read
 ,tcheck) scf=(maxcycle=1)\\title\\0,1\H,0,-1.12337,1.24373,-0.227796\H
 ,0,2.35223,0.605782,0.551356\H,0,1.2688,-0.263554,-0.151492\N,0,-0.830
 805,0.271584,-0.0206166\O,0,-1.83837,-0.297655,0.043321\O,0,2.25311,-0
 .138227,-0.0467899\\Version=ES64L-G16RevC.01\State=1-A\HF=-206.7151573
 \RMSD=5.904e-02\Dipole=-0.7172062,0.5920805,0.091246\Quadrupole=-1.669
 9369,1.0246945,0.6452425,0.6575673,1.3171268,0.9213966\PG=C01 [X(H3N1O

 Normal termination of Gaussian 16 at Tue Apr  8 21:12:19 2025.
