 Gaussian 16, Revision C.01,

 ----------------------------------------------------------------------
 #t hf aug-cc-pvdz symm=none int=(grid=ultrafine) guess=(read,tcheck) s
 table=(opt,rrhf)
 ----------------------------------------------------------------------
 -----
 title
 -----
 Symbolic Z-matrix:
 Charge =  0 Multiplicity = 1

 SCF Done:  E(RHF) =  -923.182209509     A.U. after   15 cycles
 Normal termination of Gaussian 16 at Tue Apr  8 20:29:21 2025.
 Gaussian 16:  ES64L-G16RevC.01  3-Jul-2019

 ----------------------------------------------------------------------
 #t hf aug-cc-pvdz iop(5/13=1,5/36=2,99/5=2) pseudo=read geom=check gue
 ss=(read,tcheck) scf=(maxcycle=1)
 ----------------------------------------------------------------------
 -----
 title
 -----
 Structure from the checkpoint file:  "ANI1ccx_1584_conf24_mol1.chk"
 Charge =  0 Multiplicity = 1

                         Standard orientation:
 ---------------------------------------------------------------------
 Center     Atomic      Atomic             Coordinates (Angstroms)
 Number     Number       Type             X           Y           Z
 ---------------------------------------------------------------------
      1          6           0        1.403080   -0.344199    0.979638
      2          6           0        1.158360   -1.021400   -0.437406
      3          6           0        2.903460   -0.114573    1.050540
      4          6           0        3.334370    0.846298   -0.150013
      5          6           0       -1.210970   -0.368374   -0.344844
      6          6           0       -2.397571   -1.308769   -0.113615
      7          6           0       -1.657770    1.010281   -0.978898
      8          6           0       -2.312810    1.771461    0.163806
      9          1           0       -3.324331   -2.677819   -0.965642
     10          1           0       -3.322049    2.913571   -1.123500
     11          1           0       -3.433029    3.434121    0.614571
     12          1           0       -2.438640    1.011001   -1.682750
     13          1           0       -0.727441    1.517781   -1.361870
     14          1           0       -1.028800   -0.051518    0.640089
     15          1           0       -0.091971   -1.496320   -1.858850
     16          1           0        2.895581    2.154479   -1.220310
     17          1           0        3.225560    0.330250    1.967300
     18          1           0        3.416560   -1.068881    0.838843
     19          1           0        0.905338    0.603232    1.076190
     20          1           0        1.325009   -2.213310    1.864140
     21          1           0       -0.164621   -1.410980    1.848140
     22          7           0        0.862706   -1.325980    1.907370
     23          7           0       -0.071358   -1.024690   -0.953231
     24          7           0       -2.989059    2.903241   -0.172071
     25          8           0        2.078889   -1.691820   -0.860543
     26          8           0        4.489310    0.952812   -0.559097
     27          8           0        2.380110    1.678700   -0.534577
     28          8           0       -3.183230   -1.196789    0.774561
     29          8           0       -2.022850    1.366841    1.315480
     30          8           0       -2.388991   -2.326989   -1.026590
 ---------------------------------------------------------------------

 SCF Done:  E(RHF) =  -927.210855880     A.U. after    2 cycles

 The electronic state is 1-A.
 Alpha  occ. eigenvalues --  -21.13677 -21.13596 -21.07774 -21.04388 -21.04019
 Alpha  occ. eigenvalues --  -21.02095 -15.81287 -15.77674 -15.73863 -11.56382
 Alpha  occ. eigenvalues --  -11.54499 -11.52468 -11.51689 -11.49925 -11.46317
 Alpha  occ. eigenvalues --  -11.44347 -11.40369  -1.84577  -1.84188  -1.72056
 Alpha  occ. eigenvalues --   -1.71149  -1.67868  -1.63913  -1.43061  -1.37888
 Alpha  occ. eigenvalues --   -1.34548  -1.18225  -1.13136  -1.03045  -0.94815
 Alpha  occ. eigenvalues --   -0.84494  -0.82424  -0.80082  -0.78347  -0.75035
 Alpha  occ. eigenvalues --   -0.72444  -0.70157  -0.67293  -0.65321  -0.64876
 Alpha  occ. eigenvalues --   -0.63599  -0.61947  -0.61259  -0.59270  -0.57375
 Alpha  occ. eigenvalues --   -0.56904  -0.55885  -0.54264  -0.52229  -0.51924
 Alpha  occ. eigenvalues --   -0.50551  -0.48889  -0.47972  -0.46694  -0.46114
 Alpha  occ. eigenvalues --   -0.44154  -0.37036  -0.36353  -0.36065  -0.33538
 Alpha  occ. eigenvalues --   -0.33316  -0.30180  -0.29166  -0.28734  -0.26781
 Alpha virt. eigenvalues --    0.02241   0.03657   0.04075   0.04461   0.05147
 Alpha virt. eigenvalues --    0.06212   0.06598   0.06831   0.07541   0.07937
 Alpha virt. eigenvalues --    0.08527   0.09153   0.09589   0.10181   0.10829

 Mulliken charges:
               1
     1  C    1.059489
     2  C    5.875628
     3  C   -5.147164
     4  C    6.185097
     5  C   -1.966235
     6  C    7.932383
     7  C   -5.044942
     8  C    5.804300
     9  H    0.890155
    10  H    0.700527
    11  H    0.766857
    12  H    1.715509
    13  H    1.342580
    14  H    2.784281
    15  H    0.737870
    16  H    0.856647
    17  H    1.326441
    18  H    1.274981
    19  H    2.230976
    20  H    0.602730
    21  H    0.621382
    22  N   -3.420075
    23  N   -3.356853
    24  N   -3.407629
    25  O   -3.987264
    26  O   -3.259394
    27  O   -2.964513
    28  O   -3.545960
    29  O   -3.217445
    30  O   -3.390361
 Sum of Mulliken charges =  -0.00000

 Dipole moment (field-independent basis, Debye):
    X=             -5.0651    Y=              1.9107    Z=             -1.7629  Tot=              5.6933

 Test job not archived.
 1\1\GINC-SE186\SP\RHF\Aug-CC-pVDZ\C8H13N3O6\OHZDE\08-Apr-2025\0\\#t hf
  aug-cc-pvdz iop(5/13=1,5/36=2,99/5=2) pseudo=read geom=check guess=(r
 ead,tcheck) scf=(maxcycle=1)\\title\\0,1\C,0,1.40308,-0.344199,0.97963
 8\C,0,1.15836,-1.0214,-0.437406\C,0,2.90346,-0.114572,1.05054\C,0,3.33
 437,0.846299,-0.150013\C,0,-1.21097,-0.368375,-0.344844\C,0,-2.39757,-
 1.30877,-0.113615\C,0,-1.65777,1.01028,-0.978898\C,0,-2.31281,1.77146,
 0.163806\H,0,-3.32433,-2.67782,-0.965642\H,0,-3.32205,2.91357,-1.1235\
 H,0,-3.43303,3.43412,0.614571\H,0,-2.43864,1.011,-1.68275\H,0,-0.72744

 Normal termination of Gaussian 16 at Tue Apr  8 20:30:02 2025.
