 Gaussian 16, Revision C.01,

 ----------------------------------------------------------------------
 #t hf aug-cc-pvdz symm=none int=(grid=ultrafine) guess=(read,tcheck) s
 table=(opt,rrhf)
 ----------------------------------------------------------------------
 -----
 title
 -----
 Symbolic Z-matrix:
 Charge =  0 Multiplicity = 1

 SCF Done:  E(RHF) =  -792.003281029     A.U. after   13 cycles
 Normal termination of Gaussian 16 at Tue Apr  8 19:36:01 2025.
 Gaussian 16:  ES64L-G16RevC.01  3-Jul-2019

 ----------------------------------------------------------------------
 #t hf aug-cc-pvdz iop(5/13=1,5/36=2,99/5=2) pseudo=read geom=check gue
 ss=(read,tcheck) scf=(maxcycle=1)
 ----------------------------------------------------------------------
 -----
 title
 -----
 Structure from the checkpoint file:  "ANI1ccx_1216_conf8_mol1.chk"
 Charge =  0 Multiplicity = 1

                         Standard orientation:
 ---------------------------------------------------------------------
 Center     Atomic      Atomic             Coordinates (Angstroms)
 Number     Number       Type             X           Y           Z
 ---------------------------------------------------------------------
      1          6           0       -1.719630    0.997096   -0.981321
      2          6           0        1.456281    1.570830   -0.194482
      3          6           0        1.383230   -0.024122    1.756120
      4          6           0       -1.873540   -0.246191    1.104150
      5          6           0       -1.273211   -1.535099   -0.951821
      6          6           0        1.985659   -0.782634   -0.622945
      7          1           0        2.734450   -0.351322   -1.374000
      8          1           0        2.421949   -1.661951   -0.064999
      9          1           0       -1.828632   -2.351958   -0.448006
     10          1           0       -1.529281   -1.572388   -2.034390
     11          1           0       -2.123801   -1.268388    1.517800
     12          1           0       -2.725530    0.444015    1.315570
     13          1           0        2.100039   -0.820537    2.093840
     14          1           0        1.197111    2.322510    0.590983
     15          1           0        2.393081    1.853959   -0.721082
     16          1           0       -1.785880    0.903626   -2.058980
     17          1           0       -2.599229    1.509652   -0.604034
     18          1           0        1.462940    0.915627    2.381570
     19          7           0        1.594530    0.251353    0.321488
     20          7           0       -1.655920   -0.274033   -0.321729
     21          8           0        0.049402   -1.976359   -0.693690
     22          8           0       -0.761404    1.936341   -0.568852
     23          8           0        0.503239    1.663930   -1.230570
     24          8           0        0.190590   -0.662694    1.969710
     25          8           0       -0.836026    0.335422    1.876390
     26          8           0        0.974172   -1.252060   -1.509340
 ---------------------------------------------------------------------

 SCF Done:  E(RHF) =  -795.453056663     A.U. after    2 cycles

 The electronic state is 1-A.
 Alpha  occ. eigenvalues --  -21.08713 -21.08378 -21.08375 -21.08262 -21.07945
 Alpha  occ. eigenvalues --  -21.07923 -15.72212 -15.71337 -11.45251 -11.44923
 Alpha  occ. eigenvalues --  -11.44742 -11.44626 -11.43571 -11.43313  -1.98278
 Alpha  occ. eigenvalues --   -1.96678  -1.95571  -1.55780  -1.48884  -1.47674
 Alpha  occ. eigenvalues --   -1.38986  -1.31361  -1.01073  -1.00329  -0.96081
 Alpha  occ. eigenvalues --   -0.95293  -0.84035  -0.82267  -0.71140  -0.70863
 Alpha  occ. eigenvalues --   -0.69673  -0.68084  -0.64912  -0.64106  -0.62386
 Alpha  occ. eigenvalues --   -0.61904  -0.60587  -0.57484  -0.57072  -0.55984
 Alpha  occ. eigenvalues --   -0.53806  -0.49338  -0.48871  -0.48278  -0.43536
 Alpha  occ. eigenvalues --   -0.39984  -0.39031  -0.38041  -0.36504  -0.33631
 Alpha  occ. eigenvalues --   -0.33045  -0.30237  -0.26823  -0.26089  -0.23988
 Alpha virt. eigenvalues --    0.04248   0.04292   0.04386   0.05655   0.05761
 Alpha virt. eigenvalues --    0.06072   0.06531   0.06676   0.07129   0.07599
 Alpha virt. eigenvalues --    0.08031   0.09040   0.09864   0.10985   0.12045

 Mulliken charges:
               1
     1  C   -0.231929
     2  C   -0.236119
     3  C   -0.224542
     4  C   -0.390489
     5  C   -0.091916
     6  C   -0.428789
     7  H    1.555115
     8  H    1.780099
     9  H    1.627919
    10  H    1.773396
    11  H    1.727804
    12  H    1.560440
    13  H    1.677816
    14  H    1.815941
    15  H    1.609264
    16  H    1.909916
    17  H    1.558956
    18  H    1.718846
    19  N   -3.493630
    20  N   -3.726955
    21  O   -2.001144
    22  O   -2.058335
    23  O   -1.687471
    24  O   -1.994412
    25  O   -1.935148
    26  O   -1.814635
 Sum of Mulliken charges =  -0.00000

 Dipole moment (field-independent basis, Debye):
    X=             -0.1720    Y=             -0.1149    Z=              0.1756  Tot=              0.2713

 Test job not archived.
 1\1\GINC-SE342\SP\RHF\Aug-CC-pVDZ\C6H12N2O6\OHZDE\08-Apr-2025\0\\#t hf
  aug-cc-pvdz iop(5/13=1,5/36=2,99/5=2) pseudo=read geom=check guess=(r
 ead,tcheck) scf=(maxcycle=1)\\title\\0,1\C,0,-1.71963,0.997094,-0.9813
 21\C,0,1.45628,1.57083,-0.194482\C,0,1.38323,-0.0241215,1.75612\C,0,-1
 .87354,-0.246193,1.10415\C,0,-1.27321,-1.5351,-0.951821\C,0,1.98566,-0
 .782634,-0.622945\H,0,2.73445,-0.351321,-1.374\H,0,2.42195,-1.66195,-0
 .0649988\H,0,-1.82863,-2.35196,-0.448006\H,0,-1.52928,-1.57239,-2.0343
 9\H,0,-2.1238,-1.26839,1.5178\H,0,-2.72553,0.444013,1.31557\H,0,2.1000

 Normal termination of Gaussian 16 at Tue Apr  8 19:36:28 2025.
