 Gaussian 16, Revision C.01,

 ----------------------------------------------------------------------
 #t hf aug-cc-pvdz symm=none int=(grid=ultrafine) guess=(read,tcheck) s
 table=(opt,rrhf)
 ----------------------------------------------------------------------
 -----
 title
 -----
 Symbolic Z-matrix:
 Charge =  0 Multiplicity = 1

 SCF Done:  E(RHF) =  -393.465904704     A.U. after   15 cycles
 Normal termination of Gaussian 16 at Tue Apr  8 21:37:35 2025.
 Gaussian 16:  ES64L-G16RevC.01  3-Jul-2019

 ----------------------------------------------------------------------
 #t hf aug-cc-pvdz iop(5/13=1,5/36=2,99/5=2) pseudo=read geom=check gue
 ss=(read,tcheck) scf=(maxcycle=1)
 ----------------------------------------------------------------------
 -----
 title
 -----
 Structure from the checkpoint file:  "ANI1ccx_388_conf9_mol1.chk"
 Charge =  0 Multiplicity = 1

                         Standard orientation:
 ---------------------------------------------------------------------
 Center     Atomic      Atomic             Coordinates (Angstroms)
 Number     Number       Type             X           Y           Z
 ---------------------------------------------------------------------
      1          6           0       -2.286010   -0.071184    0.324449
      2          1           0       -1.604910    1.681190    0.463012
      3          1           0       -2.343260   -0.028932    1.410840
      4          1           0        0.561170   -0.404752    0.355998
      5          7           0        2.368721   -0.461928    0.268233
      6          8           0       -1.823900    1.053320   -0.228766
      7          8           0       -2.598459   -1.036271   -0.296538
      8          8           0        1.185510    0.245087   -0.027415
      9          8           0        3.302100    0.039501   -0.204053
 ---------------------------------------------------------------------

 SCF Done:  E(RHF) =  -395.069891407     A.U. after    2 cycles

 The electronic state is 1-A.
 Alpha  occ. eigenvalues --  -21.16298 -21.15185 -21.14197 -21.07860 -15.94573
 Alpha  occ. eigenvalues --  -11.52893  -1.98600  -1.84774  -1.71976  -1.68145
 Alpha  occ. eigenvalues --   -0.95700  -0.88682  -0.75502  -0.72560  -0.62101
 Alpha  occ. eigenvalues --   -0.61803  -0.56877  -0.55523  -0.50200  -0.49693
 Alpha  occ. eigenvalues --   -0.37654  -0.36072  -0.32946  -0.30578
 Alpha virt. eigenvalues --    0.02612   0.04986   0.06957   0.09617   0.11146
 Alpha virt. eigenvalues --    0.12168   0.12464   0.13393   0.13508   0.14395
 Alpha virt. eigenvalues --    0.15694   0.17107   0.18504   0.20122   0.20867

 Mulliken charges:
               1
     1  C    2.338241
     2  H    0.991561
     3  H    1.481830
     4  H    1.030370
     5  N    2.889119
     6  O   -2.354017
     7  O   -2.449876
     8  O   -1.997213
     9  O   -1.930014
 Sum of Mulliken charges =  -0.00000

 Dipole moment (field-independent basis, Debye):
    X=             -0.4811    Y=              1.8271    Z=              1.2680  Tot=              2.2755

 Test job not archived.
 1\1\GINC-SE226\SP\RHF\Aug-CC-pVDZ\C1H3N1O4\OHZDE\08-Apr-2025\0\\#t hf
 aug-cc-pvdz iop(5/13=1,5/36=2,99/5=2) pseudo=read geom=check guess=(re
 ad,tcheck) scf=(maxcycle=1)\\title\\0,1\C,0,-2.28601,-0.0711838,0.3244
 49\H,0,-1.60491,1.68119,0.463012\H,0,-2.34326,-0.0289311,1.41084\H,0,0
 .561169,-0.404752,0.355998\N,0,2.36872,-0.461928,0.268233\O,0,-1.8239,
 1.05332,-0.228766\O,0,-2.59846,-1.03627,-0.296538\O,0,1.18551,0.245087
 ,-0.0274146\O,0,3.3021,0.0394999,-0.204053\\Version=ES64L-G16RevC.01\S
 tate=1-A\HF=-395.0698914\RMSD=5.237e-02\Dipole=-0.1892722,0.7188539,0.

 Normal termination of Gaussian 16 at Tue Apr  8 21:37:37 2025.
