 Gaussian 16, Revision C.01,

 ----------------------------------------------------------------------
 #t hf aug-cc-pvdz symm=none int=(grid=ultrafine) guess=(read,tcheck) s
 table=(opt,rrhf)
 ----------------------------------------------------------------------
 -----
 title
 -----
 Symbolic Z-matrix:
 Charge =  0 Multiplicity = 1

 SCF Done:  E(RHF) =  -489.412881533     A.U. after   16 cycles
 Normal termination of Gaussian 16 at Tue Apr  8 19:31:19 2025.
 Gaussian 16:  ES64L-G16RevC.01  3-Jul-2019

 ----------------------------------------------------------------------
 #t hf aug-cc-pvdz iop(5/13=1,5/36=2,99/5=2) pseudo=read geom=check gue
 ss=(read,tcheck) scf=(maxcycle=1)
 ----------------------------------------------------------------------
 -----
 title
 -----
 Structure from the checkpoint file:  "ANI1ccx_1315_conf1_mol2.chk"
 Charge =  0 Multiplicity = 1

                         Standard orientation:
 ---------------------------------------------------------------------
 Center     Atomic      Atomic             Coordinates (Angstroms)
 Number     Number       Type             X           Y           Z
 ---------------------------------------------------------------------
      1          6           0        2.075300   -0.003766   -0.003100
      2          6           0        1.406690    1.229780   -0.053310
      3          6           0        0.027610    1.267570   -0.050062
      4          6           0       -0.669965    0.056815   -0.019869
      5          6           0        1.291090   -1.183880   -0.070813
      6          6           0       -2.181060    0.081483    0.023209
      7          1           0        3.832440   -0.944732    0.411467
      8          1           0        4.005290    0.715446    0.214696
      9          1           0        1.935890    2.222630   -0.064172
     10          1           0       -0.549892    2.201790   -0.084088
     11          1           0        1.801200   -2.126180   -0.073716
     12          1           0       -2.079390   -1.815601   -0.055893
     13          7           0        3.452600   -0.116113    0.032498
     14          7           0       -0.025032   -1.126970   -0.028170
     15          8           0       -2.766430   -1.138311    0.020130
     16          8           0       -2.813130    1.108339    0.063004
 ---------------------------------------------------------------------

 SCF Done:  E(RHF) =  -491.580755385     A.U. after    2 cycles

 The electronic state is 1-A.
 Alpha  occ. eigenvalues --  -21.10792 -21.04120 -15.79051 -15.77232 -11.53295
 Alpha  occ. eigenvalues --  -11.52017 -11.47833 -11.45392 -11.44604 -11.40091
 Alpha  occ. eigenvalues --   -1.80900  -1.64692  -1.48928  -1.37142  -1.18839
 Alpha  occ. eigenvalues --   -1.11876  -0.93472  -0.91940  -0.81106  -0.74008
 Alpha  occ. eigenvalues --   -0.71800  -0.68855  -0.64357  -0.60670  -0.59754
 Alpha  occ. eigenvalues --   -0.58183  -0.54391  -0.53237  -0.50551  -0.46587
 Alpha  occ. eigenvalues --   -0.44058  -0.38931  -0.38494  -0.33004  -0.29463
 Alpha  occ. eigenvalues --   -0.29212
 Alpha virt. eigenvalues --    0.02518   0.04175   0.04305   0.06546   0.06895
 Alpha virt. eigenvalues --    0.08139   0.08736   0.09178   0.09963   0.10794
 Alpha virt. eigenvalues --    0.11300   0.11978   0.12358   0.12819   0.13172

 Mulliken charges:
               1
     1  C    3.140398
     2  C    0.101619
     3  C   -1.167719
     4  C    0.589892
     5  C   -0.738045
     6  C    4.633614
     7  H    0.703627
     8  H    0.667950
     9  H    1.637755
    10  H    1.724516
    11  H    1.657001
    12  H    1.122577
    13  N   -4.012604
    14  N   -3.594543
    15  O   -3.191909
    16  O   -3.274127
 Sum of Mulliken charges =  -0.00000

 Dipole moment (field-independent basis, Debye):
    X=              5.5153    Y=             -0.1027    Z=              0.6062  Tot=              5.5495

 Test job not archived.
 1\1\GINC-SE220\SP\RHF\Aug-CC-pVDZ\C6H6N2O2\OHZDE\08-Apr-2025\0\\#t hf
 aug-cc-pvdz iop(5/13=1,5/36=2,99/5=2) pseudo=read geom=check guess=(re
 ad,tcheck) scf=(maxcycle=1)\\title\\0,1\C,0,2.0753,-0.00376524,-0.0030
 996\C,0,1.40669,1.22978,-0.0533098\C,0,0.0276101,1.26757,-0.0500624\C,
 0,-0.669965,0.0568153,-0.0198687\C,0,1.29109,-1.18388,-0.0708131\C,0,-
 2.18106,0.0814834,0.0232093\H,0,3.83244,-0.944732,0.411467\H,0,4.00529
 ,0.715446,0.214696\H,0,1.93589,2.22263,-0.0641719\H,0,-0.549892,2.2017
 9,-0.0840881\H,0,1.8012,-2.12618,-0.0737158\H,0,-2.07939,-1.8156,-0.05

 Normal termination of Gaussian 16 at Tue Apr  8 19:31:42 2025.
