 Gaussian 16, Revision C.01,

 ----------------------------------------------------------------------
 #t hf aug-cc-pvdz symm=none int=(grid=ultrafine) guess=(read,tcheck) s
 table=(opt,rrhf)
 ----------------------------------------------------------------------
 -----
 title
 -----
 Symbolic Z-matrix:
 Charge =  0 Multiplicity = 1

 SCF Done:  E(RHF) =  -445.274092241     A.U. after   15 cycles
 Normal termination of Gaussian 16 at Tue Apr  8 22:02:55 2025.
 Gaussian 16:  ES64L-G16RevC.01  3-Jul-2019

 ----------------------------------------------------------------------
 #t hf aug-cc-pvdz iop(5/13=1,5/36=2,99/5=2) pseudo=read geom=check gue
 ss=(read,tcheck) scf=(maxcycle=1)
 ----------------------------------------------------------------------
 -----
 title
 -----
 Structure from the checkpoint file:  "ANI1ccx_856_conf3_mol1.chk"
 Charge =  0 Multiplicity = 1

                         Standard orientation:
 ---------------------------------------------------------------------
 Center     Atomic      Atomic             Coordinates (Angstroms)
 Number     Number       Type             X           Y           Z
 ---------------------------------------------------------------------
      1          6           0        1.369029   -0.443442    0.044298
      2          6           0        1.516192    1.087888    0.027045
      3          6           0       -0.568008    0.811114   -0.014366
      4          6           0       -1.105092   -1.305068    0.032866
      5          1           0        2.501382    1.544156    0.139702
      6          1           0       -1.044773   -2.385978   -0.043118
      7          7           0        0.425089    1.786019   -0.041336
      8          7           0       -1.860349    0.775954   -0.004799
      9          7           0       -2.207851   -0.576930   -0.007744
     10          7           0       -0.092186   -0.488584    0.020888
     11          8           0        2.177218   -1.317043   -0.050588
 ---------------------------------------------------------------------

 SCF Done:  E(RHF) =  -447.198452375     A.U. after    2 cycles

 The electronic state is 1-A.
 Alpha  occ. eigenvalues --  -21.14037 -15.82882 -15.82667 -15.77853 -15.76322
 Alpha  occ. eigenvalues --  -11.59813 -11.50714 -11.49080 -11.47130  -1.79839
 Alpha  occ. eigenvalues --   -1.69881  -1.49009  -1.36454  -1.18967  -1.06606
 Alpha  occ. eigenvalues --   -0.92128  -0.86244  -0.82703  -0.71511  -0.68066
 Alpha  occ. eigenvalues --   -0.66512  -0.63298  -0.57829  -0.55774  -0.51530
 Alpha  occ. eigenvalues --   -0.49999  -0.46068  -0.40519  -0.39916  -0.35239
 Alpha  occ. eigenvalues --   -0.34570
 Alpha virt. eigenvalues --    0.02324   0.02695   0.05117   0.07603   0.08789
 Alpha virt. eigenvalues --    0.09363   0.09572   0.10349   0.11061   0.12058
 Alpha virt. eigenvalues --    0.12494   0.12665   0.13572   0.13804   0.14631

 Mulliken charges:
               1
     1  C    4.829032
     2  C   -0.581926
     3  C    3.798843
     4  C    1.390592
     5  H    1.513137
     6  H    1.597957
     7  N   -2.925342
     8  N   -1.828048
     9  N   -2.007439
    10  N   -2.534803
    11  O   -3.252002
 Sum of Mulliken charges =  -0.00000

 Dipole moment (field-independent basis, Debye):
    X=              4.2882    Y=             -1.7952    Z=              0.1179  Tot=              4.6503

 Test job not archived.
 1\1\GINC-SE102\SP\RHF\Aug-CC-pVDZ\C4H2N4O1\OHZDE\08-Apr-2025\0\\#t hf
 aug-cc-pvdz iop(5/13=1,5/36=2,99/5=2) pseudo=read geom=check guess=(re
 ad,tcheck) scf=(maxcycle=1)\\title\\0,1\C,0,1.36903,-0.44344,0.0442981
 \C,0,1.51619,1.08789,0.0270454\C,0,-0.568009,0.811113,-0.0143665\C,0,-
 1.10509,-1.30507,0.0328662\H,0,2.50138,1.54416,0.139702\H,0,-1.04477,-
 2.38598,-0.0431181\N,0,0.425086,1.78602,-0.041336\N,0,-1.86035,0.77595
 1,-0.00479881\N,0,-2.20785,-0.576933,-0.00774368\N,0,-0.0921858,-0.488
 584,0.0208875\O,0,2.17722,-1.31704,-0.0505884\\Version=ES64L-G16RevC.0

 Normal termination of Gaussian 16 at Tue Apr  8 22:03:01 2025.
