 Gaussian 16, Revision C.01,

 ----------------------------------------------------------------------
 #t hf aug-cc-pvdz symm=none int=(grid=ultrafine) guess=(read,tcheck) s
 table=(opt,rrhf)
 ----------------------------------------------------------------------
 -----
 title
 -----
 Symbolic Z-matrix:
 Charge =  0 Multiplicity = 1

 SCF Done:  E(RHF) =  -564.586506577     A.U. after   14 cycles
 Normal termination of Gaussian 16 at Tue Apr  8 22:16:20 2025.
 Gaussian 16:  ES64L-G16RevC.01  3-Jul-2019

 ----------------------------------------------------------------------
 #t hf aug-cc-pvdz iop(5/13=1,5/36=2,99/5=2) pseudo=read geom=check gue
 ss=(read,tcheck) scf=(maxcycle=1)
 ----------------------------------------------------------------------
 -----
 title
 -----
 Structure from the checkpoint file:  "ANI1ccx_958_conf1_mol1.chk"
 Charge =  0 Multiplicity = 1

                         Standard orientation:
 ---------------------------------------------------------------------
 Center     Atomic      Atomic             Coordinates (Angstroms)
 Number     Number       Type             X           Y           Z
 ---------------------------------------------------------------------
      1          6           0       -0.471889    1.799740    1.052840
      2          6           0       -0.382018   -0.019023   -0.462575
      3          6           0        2.055909   -0.369265   -0.029194
      4          6           0       -1.719921   -0.705481   -0.093426
      5          1           0       -2.580931    0.911914   -0.576399
      6          1           0        1.472309    1.426380   -0.764202
      7          1           0        3.117629    1.089200   -0.872788
      8          1           0        0.562518   -1.599770    0.544521
      9          1           0       -1.349951    1.465889    1.618200
     10          1           0        0.413428    1.417390    1.591330
     11          1           0       -0.423204    2.882100    1.014230
     12          1           0       -0.288962   -0.174643   -1.529520
     13          7           0        0.679671   -0.632761    0.225115
     14          7           0        2.170999    0.748151   -0.800656
     15          8           0       -2.831371    0.022960   -0.386374
     16          8           0       -0.497242    1.387790   -0.286572
     17          8           0        2.886170   -1.123130    0.429137
     18          8           0       -1.778810   -1.845371    0.268501
 ---------------------------------------------------------------------

 SCF Done:  E(RHF) =  -567.019443983     A.U. after    2 cycles

 The electronic state is 1-A.
 Alpha  occ. eigenvalues --  -21.14405 -21.10259 -21.07715 -21.03606 -15.79125
 Alpha  occ. eigenvalues --  -15.76155 -11.56545 -11.52080 -11.49211 -11.43929
 Alpha  occ. eigenvalues --   -1.86498  -1.80451  -1.72588  -1.68422  -1.43279
 Alpha  occ. eigenvalues --   -1.33213  -1.09340  -0.98313  -0.85286  -0.82193
 Alpha  occ. eigenvalues --   -0.77468  -0.74658  -0.71646  -0.66985  -0.63863
 Alpha  occ. eigenvalues --   -0.60284  -0.58592  -0.57184  -0.55095  -0.52780
 Alpha  occ. eigenvalues --   -0.52063  -0.48396  -0.44197  -0.39391  -0.38787
 Alpha  occ. eigenvalues --   -0.35915  -0.33321  -0.31539  -0.29494
 Alpha virt. eigenvalues --    0.02836   0.04305   0.04487   0.05252   0.05847
 Alpha virt. eigenvalues --    0.06368   0.07604   0.08176   0.10124   0.10567
 Alpha virt. eigenvalues --    0.11723   0.12396   0.12847   0.13331   0.13445

 Mulliken charges:
               1
     1  C   -3.459594
     2  C    0.654309
     3  C    5.539731
     4  C    6.457480
     5  H    1.120116
     6  H    0.866062
     7  H    0.638550
     8  H    0.582286
     9  H    1.387136
    10  H    1.487911
    11  H    1.124550
    12  H    1.901088
    13  N   -2.572678
    14  N   -2.890505
    15  O   -3.315270
    16  O   -3.004115
    17  O   -3.191467
    18  O   -3.325588
 Sum of Mulliken charges =  -0.00000

 Dipole moment (field-independent basis, Debye):
    X=             -0.8419    Y=              3.7592    Z=             -0.7874  Tot=              3.9320

 Test job not archived.
 1\1\GINC-SE460\SP\RHF\Aug-CC-pVDZ\C4H8N2O4\OHZDE\08-Apr-2025\0\\#t hf
 aug-cc-pvdz iop(5/13=1,5/36=2,99/5=2) pseudo=read geom=check guess=(re
 ad,tcheck) scf=(maxcycle=1)\\title\\0,1\C,0,-0.471888,1.79974,1.05284\
 C,0,-0.382017,-0.0190225,-0.462575\C,0,2.05591,-0.369265,-0.0291945\C,
 0,-1.71992,-0.70548,-0.0934261\H,0,-2.58093,0.911915,-0.576399\H,0,1.4
 7231,1.42638,-0.764202\H,0,3.11763,1.0892,-0.872788\H,0,0.562518,-1.59
 977,0.544521\H,0,-1.34995,1.46589,1.6182\H,0,0.413429,1.41739,1.59133\
 H,0,-0.423203,2.8821,1.01423\H,0,-0.288961,-0.174643,-1.52952\N,0,0.67

 Normal termination of Gaussian 16 at Tue Apr  8 22:16:29 2025.
