 Gaussian 16, Revision C.01,

 ----------------------------------------------------------------------
 #t hf aug-cc-pvdz symm=none int=(grid=ultrafine) guess=(read,tcheck) s
 table=(opt,rrhf)
 ----------------------------------------------------------------------
 -----
 title
 -----
 Symbolic Z-matrix:
 Charge =  0 Multiplicity = 1

 SCF Done:  E(RHF) =  -581.854872659     A.U. after   19 cycles
 Normal termination of Gaussian 16 at Tue Apr  8 21:05:09 2025.
 Gaussian 16:  ES64L-G16RevC.01  3-Jul-2019

 ----------------------------------------------------------------------
 #t hf aug-cc-pvdz iop(5/13=1,5/36=2,99/5=2) pseudo=read geom=check gue
 ss=(read,tcheck) scf=(maxcycle=1)
 ----------------------------------------------------------------------
 -----
 title
 -----
 Structure from the checkpoint file:  "ANI1ccx_1808_conf3_mol1.chk"
 Charge =  0 Multiplicity = 1

                         Standard orientation:
 ---------------------------------------------------------------------
 Center     Atomic      Atomic             Coordinates (Angstroms)
 Number     Number       Type             X           Y           Z
 ---------------------------------------------------------------------
      1          6           0       -1.818988    1.691891    0.358705
      2          6           0        2.912260   -0.901977    0.578995
      3          6           0        3.408621    0.271299    0.079981
      4          6           0        2.614591    1.164688   -0.504252
      5          6           0        1.603800   -1.209281    0.387318
      6          6           0        0.731238   -0.291099   -0.196712
      7          6           0       -0.682778   -0.624519   -0.226482
      8          6           0       -1.737409    0.301360    0.080346
      9          6           0        1.260041    0.897195   -0.646621
     10          1           0        0.580080    1.612189   -1.084890
     11          1           0        2.980372    2.172428   -0.904357
     12          1           0        4.482821    0.392268    0.324612
     13          1           0        3.442949   -1.675883    1.290250
     14          1           0        1.084579   -2.089791    0.784305
     15          7           0       -1.179021   -1.836219   -0.306655
     16          7           0       -1.942687    2.847621    0.463979
     17          7           0       -2.883470   -0.326956    0.049103
     18          8           0       -2.535351   -1.624958   -0.165321
 ---------------------------------------------------------------------

 SCF Done:  E(RHF) =  -584.483471296     A.U. after    2 cycles

 The electronic state is 1-A.
 Alpha  occ. eigenvalues --  -21.17622 -15.86032 -15.83909 -15.80391 -11.56629
 Alpha  occ. eigenvalues --  -11.54007 -11.49934 -11.47860 -11.46037 -11.45933
 Alpha  occ. eigenvalues --  -11.43877 -11.43143 -11.39417  -1.99254  -1.42538
 Alpha  occ. eigenvalues --   -1.38935  -1.33086  -1.29486  -1.13902  -1.12236
 Alpha  occ. eigenvalues --   -0.96301  -0.94544  -0.89273  -0.86116  -0.78212
 Alpha  occ. eigenvalues --   -0.72125  -0.68638  -0.66543  -0.62086  -0.60338
 Alpha  occ. eigenvalues --   -0.60217  -0.56683  -0.55587  -0.53120  -0.51893
 Alpha  occ. eigenvalues --   -0.50841  -0.47264  -0.46392  -0.45046  -0.44628
 Alpha  occ. eigenvalues --   -0.43639  -0.39265  -0.35891  -0.33313
 Alpha virt. eigenvalues --    0.02741   0.04687   0.04802   0.05897   0.07015
 Alpha virt. eigenvalues --    0.07985   0.08616   0.09148   0.09445   0.09688
 Alpha virt. eigenvalues --    0.10391   0.11063   0.11552   0.11823   0.12103

 Mulliken charges:
               1
     1  C    2.323862
     2  C   -2.674672
     3  C   -0.422458
     4  C   -1.102666
     5  C   -2.886492
     6  C    3.039897
     7  C    2.118176
     8  C    1.419917
     9  C   -1.742320
    10  H    1.890061
    11  H    1.358152
    12  H    1.407602
    13  H    1.226993
    14  H    1.559423
    15  N   -1.536398
    16  N   -2.923063
    17  N   -0.615408
    18  O   -2.440605
 Sum of Mulliken charges =  -0.00000

 Dipole moment (field-independent basis, Debye):
    X=              2.7664    Y=             -1.6782    Z=             -0.0755  Tot=              3.2365

 Test job not archived.
 1\1\GINC-SE150\SP\RHF\Aug-CC-pVDZ\C9H5N3O1\OHZDE\08-Apr-2025\0\\#t hf
 aug-cc-pvdz iop(5/13=1,5/36=2,99/5=2) pseudo=read geom=check guess=(re
 ad,tcheck) scf=(maxcycle=1)\\title\\0,1\C,0,-1.81899,1.69189,0.358705\
 C,0,2.91226,-0.901975,0.578995\C,0,3.40862,0.271302,0.079981\C,0,2.614
 59,1.16469,-0.504252\C,0,1.6038,-1.20928,0.387318\C,0,0.731238,-0.2910
 98,-0.196712\C,0,-0.682778,-0.624519,-0.226482\C,0,-1.73741,0.301359,0
 .0803456\C,0,1.26004,0.897196,-0.646621\H,0,0.580078,1.61219,-1.08489\
 H,0,2.98037,2.17243,-0.904357\H,0,4.48282,0.392271,0.324612\H,0,3.4429

 Normal termination of Gaussian 16 at Tue Apr  8 21:05:22 2025.
