 Gaussian 16, Revision C.01,

 ----------------------------------------------------------------------
 #t hf aug-cc-pvdz symm=none int=(grid=ultrafine) guess=(read,tcheck) s
 table=(opt,rrhf)
 ----------------------------------------------------------------------
 -----
 title
 -----
 Symbolic Z-matrix:
 Charge =  0 Multiplicity = 1

 SCF Done:  E(RHF) =  -982.113747602     A.U. after   14 cycles
 Normal termination of Gaussian 16 at Tue Apr  8 20:55:59 2025.
 Gaussian 16:  ES64L-G16RevC.01  3-Jul-2019

 ----------------------------------------------------------------------
 #t hf aug-cc-pvdz iop(5/13=1,5/36=2,99/5=2) pseudo=read geom=check gue
 ss=(read,tcheck) scf=(maxcycle=1)
 ----------------------------------------------------------------------
 -----
 title
 -----
 Structure from the checkpoint file:  "ANI1ccx_1743_conf11_mol2.chk"
 Charge =  0 Multiplicity = 1

                         Standard orientation:
 ---------------------------------------------------------------------
 Center     Atomic      Atomic             Coordinates (Angstroms)
 Number     Number       Type             X           Y           Z
 ---------------------------------------------------------------------
      1          6           0        1.316630   -1.725200    0.138644
      2          6           0       -0.005434   -1.085760   -0.328938
      3          6           0        2.502680   -1.407001   -0.737676
      4          6           0        2.871770    0.068317   -0.986495
      5          6           0        3.191671    0.719831    0.341210
      6          6           0       -1.458579    0.890122   -0.247433
      7          6           0       -1.214349    2.390111   -0.379183
      8          6           0       -2.578059    0.605737    0.812508
      9          6           0       -3.219430   -0.759312    0.602818
     10          1           0        0.218071    3.642370   -0.379304
     11          1           0       -4.192910   -1.700418   -0.624557
     12          1           0       -2.177129    0.580246    1.827160
     13          1           0       -3.399079    1.335062    0.703222
     14          1           0       -1.804029    0.547665   -1.254390
     15          1           0        0.313567    0.577616    0.875355
     16          1           0        4.587271    1.085278    1.490860
     17          1           0        3.754630    0.053276   -1.609930
     18          1           0        2.122631    0.631298   -1.540770
     19          1           0        2.317239   -1.880931   -1.754280
     20          1           0        3.383439   -1.965911   -0.296952
     21          1           0        1.529190   -1.494350    1.168940
     22          1           0        0.380864   -3.387740    0.797982
     23          1           0        0.540633   -3.334640   -0.828249
     24          7           0        1.066259   -3.181110    0.070627
     25          7           0       -0.229551    0.202043    0.081732
     26          8           0       -0.729063   -1.723969   -1.093850
     27          8           0        2.392031    1.125269    1.187980
     28          8           0        4.517741    0.708227    0.613480
     29          8           0       -2.093928    3.199841   -0.540687
     30          8           0       -3.030000   -1.724298    1.278040
     31          8           0       -3.909230   -0.778884   -0.556344
     32          8           0        0.118359    2.691760   -0.255413
 ---------------------------------------------------------------------

 SCF Done:  E(RHF) =  -986.369303126     A.U. after    2 cycles

 The electronic state is 1-A.
 Alpha  occ. eigenvalues --  -21.14350 -21.13924 -21.12235 -21.07503 -21.06898
 Alpha  occ. eigenvalues --  -21.05862 -21.03327 -15.76976 -15.71856 -11.56763
 Alpha  occ. eigenvalues --  -11.55421 -11.54013 -11.53179 -11.49312 -11.48105
 Alpha  occ. eigenvalues --  -11.45082 -11.42233 -11.40454  -1.84729  -1.84339
 Alpha  occ. eigenvalues --   -1.82736  -1.71709  -1.67559  -1.66377  -1.66184
 Alpha  occ. eigenvalues --   -1.42252  -1.35024  -1.20153  -1.17397  -1.04902
 Alpha  occ. eigenvalues --   -1.01335  -0.91217  -0.82870  -0.81839  -0.80712
 Alpha  occ. eigenvalues --   -0.78171  -0.72221  -0.69588  -0.67672  -0.66049
 Alpha  occ. eigenvalues --   -0.64232  -0.63658  -0.63105  -0.62070  -0.60250
 Alpha  occ. eigenvalues --   -0.59471  -0.58746  -0.57947  -0.55305  -0.54438
 Alpha  occ. eigenvalues --   -0.53588  -0.52362  -0.51379  -0.50330  -0.49061
 Alpha  occ. eigenvalues --   -0.47905  -0.47294  -0.45968  -0.45596  -0.44683
 Alpha  occ. eigenvalues --   -0.35970  -0.35376  -0.35239  -0.34729  -0.33514
 Alpha  occ. eigenvalues --   -0.31443  -0.30722  -0.29805  -0.28825
 Alpha virt. eigenvalues --    0.03562   0.04358   0.04615   0.05128   0.05457
 Alpha virt. eigenvalues --    0.05938   0.06274   0.06355   0.06871   0.07104
 Alpha virt. eigenvalues --    0.07552   0.07976   0.08830   0.09209   0.09792

 Mulliken charges:
               1
     1  C   -1.767153
     2  C    7.611303
     3  C   -2.861818
     4  C   -4.283671
     5  C    6.620132
     6  C   -3.712544
     7  C    7.032987
     8  C   -4.844483
     9  C    7.561459
    10  H    1.090667
    11  H    0.898201
    12  H    1.457051
    13  H    1.545981
    14  H    1.988629
    15  H    0.899987
    16  H    0.816814
    17  H    1.325529
    18  H    1.610043
    19  H    1.273307
    20  H    1.294890
    21  H    2.154416
    22  H    0.551148
    23  H    0.551961
    24  N   -2.625298
    25  N   -2.233753
    26  O   -3.898774
    27  O   -3.115035
    28  O   -3.324735
    29  O   -3.480810
    30  O   -3.570475
    31  O   -3.342276
    32  O   -3.223679
 Sum of Mulliken charges =   0.00000

 Dipole moment (field-independent basis, Debye):
    X=              2.1692    Y=              1.8775    Z=             -0.2600  Tot=              2.8807

 Test job not archived.
 1\1\GINC-SE060\SP\RHF\Aug-CC-pVDZ\C9H14N2O7\OHZDE\08-Apr-2025\0\\#t hf
  aug-cc-pvdz iop(5/13=1,5/36=2,99/5=2) pseudo=read geom=check guess=(r
 ead,tcheck) scf=(maxcycle=1)\\title\\0,1\C,0,1.31663,-1.7252,0.138644\
 C,0,-0.00543393,-1.08576,-0.328938\C,0,2.50268,-1.407,-0.737676\C,0,2.
 87177,0.0683177,-0.986495\C,0,3.19167,0.719832,0.34121\C,0,-1.45858,0.
 890121,-0.247433\C,0,-1.21435,2.39011,-0.379183\C,0,-2.57806,0.605735,
 0.812508\C,0,-3.21943,-0.759314,0.602818\H,0,0.218069,3.64237,-0.37930
 4\H,0,-4.19291,-1.70042,-0.624557\H,0,-2.17713,0.580245,1.82716\H,0,-3

 Normal termination of Gaussian 16 at Tue Apr  8 20:56:49 2025.
