 Gaussian 16, Revision C.01,

 ----------------------------------------------------------------------
 #t hf aug-cc-pvdz symm=none int=(grid=ultrafine) guess=(read,tcheck) s
 table=(opt,rrhf)
 ----------------------------------------------------------------------
 -----
 title
 -----
 Symbolic Z-matrix:
 Charge =  0 Multiplicity = 1

 SCF Done:  E(RHF) =  -814.783663452     A.U. after   14 cycles
 Normal termination of Gaussian 16 at Tue Apr  8 21:12:40 2025.
 Gaussian 16:  ES64L-G16RevC.01  3-Jul-2019

 ----------------------------------------------------------------------
 #t hf aug-cc-pvdz iop(5/13=1,5/36=2,99/5=2) pseudo=read geom=check gue
 ss=(read,tcheck) scf=(maxcycle=1)
 ----------------------------------------------------------------------
 -----
 title
 -----
 Structure from the checkpoint file:  "ANI1ccx_1785_conf2_mol1.chk"
 Charge =  0 Multiplicity = 1

                         Standard orientation:
 ---------------------------------------------------------------------
 Center     Atomic      Atomic             Coordinates (Angstroms)
 Number     Number       Type             X           Y           Z
 ---------------------------------------------------------------------
      1          6           0        1.488398   -1.973252   -0.297391
      2          6           0        0.779418    2.203479    0.903055
      3          6           0       -0.745244    2.388561    0.757822
      4          6           0       -1.573048    1.311532   -0.017033
      5          6           0        1.424333    2.441728   -0.479644
      6          6           0       -1.559930   -0.038617    0.697744
      7          6           0        2.596009   -1.377723    0.569640
      8          6           0        0.359451   -1.018240   -0.522373
      9          6           0       -2.624851   -0.969314    0.186959
     10          1           0       -0.854660    3.440111    0.344315
     11          1           0       -4.313831   -1.031225   -0.568197
     12          1           0        1.354486    4.485798   -0.357119
     13          1           0        1.502485    3.930258   -1.889100
     14          1           0        1.142152    1.676719   -1.186140
     15          1           0        2.504963    2.416797   -0.311575
     16          1           0        1.150472    1.266909    1.283150
     17          1           0        1.163024    3.032479    1.537260
     18          1           0       -1.135127    2.362611    1.785810
     19          1           0       -1.229118    1.253692   -1.076520
     20          1           0       -1.791690    0.063018    1.796280
     21          1           0        0.148845   -1.051430    1.440550
     22          1           0        2.882179   -0.862604    2.463840
     23          1           0        3.464208   -1.982954    0.396942
     24          1           0        2.663200   -0.343736    0.148280
     25          1           0        1.084387   -2.866721    0.232208
     26          1           0        2.159108   -1.517863   -2.116550
     27          1           0        1.464697   -2.967402   -2.123230
     28          1           0       -2.619928    1.675063   -0.087025
     29          7           0        2.072127   -2.356113   -1.569780
     30          7           0       -0.270257   -0.655104    0.612287
     31          7           0        1.017735    3.750799   -1.006650
     32          8           0       -2.584732   -2.138317    0.211441
     33          8           0        0.097465   -0.631214   -1.648560
     34          8           0        2.271879   -1.415623    1.956020
     35          8           0       -3.702650   -0.310537   -0.363509
 ---------------------------------------------------------------------

 SCF Done:  E(RHF) =  -818.495512850     A.U. after    2 cycles

 The electronic state is 1-A.
 Alpha  occ. eigenvalues --  -21.11416 -21.09155 -21.06080 -21.02458 -15.75861
 Alpha  occ. eigenvalues --  -15.72538 -15.72246 -11.54862 -11.54151 -11.48918
 Alpha  occ. eigenvalues --  -11.47667 -11.43647 -11.42549 -11.41365 -11.39568
 Alpha  occ. eigenvalues --  -11.35479  -1.83581  -1.73908  -1.70975  -1.66312
 Alpha  occ. eigenvalues --   -1.43142  -1.34722  -1.33780  -1.20004  -1.11882
 Alpha  occ. eigenvalues --   -1.06490  -0.99820  -0.92226  -0.89630  -0.82266
 Alpha  occ. eigenvalues --   -0.80738  -0.75444  -0.74583  -0.68512  -0.67928
 Alpha  occ. eigenvalues --   -0.65523  -0.64999  -0.63452  -0.63402  -0.61609
 Alpha  occ. eigenvalues --   -0.60562  -0.58321  -0.56534  -0.55118  -0.53990
 Alpha  occ. eigenvalues --   -0.52927  -0.51601  -0.50545  -0.49393  -0.48125
 Alpha  occ. eigenvalues --   -0.47899  -0.47381  -0.44111  -0.43349  -0.41703
 Alpha  occ. eigenvalues --   -0.41485  -0.35641  -0.34949  -0.34278  -0.34143
 Alpha  occ. eigenvalues --   -0.31662  -0.29264  -0.28483
 Alpha virt. eigenvalues --    0.03792   0.04304   0.04432   0.04598   0.05016
 Alpha virt. eigenvalues --    0.05444   0.05769   0.06313   0.06613   0.06765
 Alpha virt. eigenvalues --    0.07208   0.07830   0.08031   0.08623   0.09059

 Mulliken charges:
               1
     1  C   -2.626790
     2  C   -3.809518
     3  C   -2.758290
     4  C   -2.413394
     5  C   -2.426376
     6  C   -4.379963
     7  C   -0.861999
     8  C    8.487096
     9  C    7.680014
    10  H    1.428609
    11  H    0.922625
    12  H    0.553582
    13  H    0.632213
    14  H    2.053410
    15  H    1.494107
    16  H    2.223718
    17  H    1.255801
    18  H    1.231065
    19  H    1.819621
    20  H    2.102103
    21  H    0.926529
    22  H    0.945610
    23  H    1.267675
    24  H    1.766045
    25  H    1.831165
    26  H    0.678164
    27  H    0.537345
    28  H    1.551341
    29  N   -2.996925
    30  N   -2.105850
    31  N   -2.771668
    32  O   -3.614860
    33  O   -4.199248
    34  O   -3.186955
    35  O   -3.236001
 Sum of Mulliken charges =  -0.00000

 Dipole moment (field-independent basis, Debye):
    X=              0.6508    Y=              1.1639    Z=              1.3722  Tot=              1.9134

 Test job not archived.
 1\1\GINC-SE460\SP\RHF\Aug-CC-pVDZ\C9H19N3O4\OHZDE\08-Apr-2025\0\\#t hf
  aug-cc-pvdz iop(5/13=1,5/36=2,99/5=2) pseudo=read geom=check guess=(r
 ead,tcheck) scf=(maxcycle=1)\\title\\0,1\C,0,1.4884,-1.97325,-0.297391
 \C,0,0.779415,2.20348,0.903055\C,0,-0.745247,2.38856,0.757822\C,0,-1.5
 7305,1.31153,-0.0170335\C,0,1.42433,2.44173,-0.479644\C,0,-1.55993,-0.
 038619,0.697744\C,0,2.59601,-1.37772,0.56964\C,0,0.359452,-1.01824,-0.
 522373\C,0,-2.62485,-0.969317,0.186959\H,0,-0.854665,3.44011,0.344315\
 H,0,-4.31383,-1.03123,-0.568197\H,0,1.35448,4.4858,-0.357119\H,0,1.502

 Normal termination of Gaussian 16 at Tue Apr  8 21:13:21 2025.
