 Gaussian 16, Revision C.01,

 ----------------------------------------------------------------------
 #t hf aug-cc-pvdz symm=none int=(grid=ultrafine) guess=(read,tcheck) s
 table=(opt,rrhf)
 ----------------------------------------------------------------------
 -----
 title
 -----
 Symbolic Z-matrix:
 Charge =  0 Multiplicity = 1

 SCF Done:  E(RHF) =  -242.205235335     A.U. after   12 cycles
 Normal termination of Gaussian 16 at Tue Apr  8 21:14:23 2025.
 Gaussian 16:  ES64L-G16RevC.01  3-Jul-2019

 ----------------------------------------------------------------------
 #t hf aug-cc-pvdz iop(5/13=1,5/36=2,99/5=2) pseudo=read geom=check gue
 ss=(read,tcheck) scf=(maxcycle=1)
 ----------------------------------------------------------------------
 -----
 title
 -----
 Structure from the checkpoint file:  "ANI1ccx_1902_conf4_mol2.chk"
 Charge =  0 Multiplicity = 1

                         Standard orientation:
 ---------------------------------------------------------------------
 Center     Atomic      Atomic             Coordinates (Angstroms)
 Number     Number       Type             X           Y           Z
 ---------------------------------------------------------------------
      1          1           0       -1.641160    0.908412   -1.002430
      2          1           0       -2.199650    1.357320    0.407991
      3          1           0       -2.695600   -0.753176    0.954835
      4          1           0       -1.911200   -1.326520   -0.274357
      5          1           0        2.354160   -1.083609    0.746240
      6          1           0        1.010950    0.667992    0.439988
      7          1           0        2.609120    1.121641    0.537483
      8          7           0       -1.654230    0.604951   -0.026619
      9          7           0       -2.539680   -0.572364   -0.029979
     10          7           0        1.918530    0.648985   -0.040440
     11          8           0        2.300130   -0.707882   -0.141310
 ---------------------------------------------------------------------

 SCF Done:  E(RHF) =  -243.299180719     A.U. after    2 cycles

 The electronic state is 1-A.
 Alpha  occ. eigenvalues --  -21.08009 -15.76478 -15.75805 -15.75360  -1.75132
 Alpha  occ. eigenvalues --   -1.42515  -1.14347  -1.08253  -0.69226  -0.66293
 Alpha  occ. eigenvalues --   -0.64054  -0.56198  -0.55502  -0.51670  -0.46201
 Alpha  occ. eigenvalues --   -0.36338  -0.33009  -0.31673
 Alpha virt. eigenvalues --    0.03883   0.04675   0.04976   0.06151   0.06596
 Alpha virt. eigenvalues --    0.08504   0.08735   0.15293   0.15508   0.16613
 Alpha virt. eigenvalues --    0.18021   0.18869   0.19533   0.20373   0.20563

 Mulliken charges:
               1
     1  H    0.713408
     2  H    0.632830
     3  H    0.657379
     4  H    0.680835
     5  H    0.672589
     6  H    0.776116
     7  H    0.727976
     8  N   -1.402351
     9  N   -1.293694
    10  N   -0.182743
    11  O   -1.982345
 Sum of Mulliken charges =   0.00000

 Dipole moment (field-independent basis, Debye):
    X=             -0.5707    Y=              0.3033    Z=              2.1360  Tot=              2.2317

 Test job not archived.
 1\1\GINC-SE398\SP\RHF\Aug-CC-pVDZ\H7N3O1\OHZDE\08-Apr-2025\0\\#t hf au
 g-cc-pvdz iop(5/13=1,5/36=2,99/5=2) pseudo=read geom=check guess=(read
 ,tcheck) scf=(maxcycle=1)\\title\\0,1\H,0,-1.64116,0.908412,-1.00243\H
 ,0,-2.19965,1.35732,0.407991\H,0,-2.6956,-0.753176,0.954835\H,0,-1.911
 2,-1.32652,-0.274357\H,0,2.35416,-1.08361,0.74624\H,0,1.01095,0.667992
 ,0.439988\H,0,2.60912,1.12164,0.537483\N,0,-1.65423,0.604951,-0.026619
 5\N,0,-2.53968,-0.572364,-0.0299793\N,0,1.91853,0.648984,-0.0404403\O,
 0,2.30013,-0.707883,-0.14131\\Version=ES64L-G16RevC.01\State=1-A\HF=-2

 Normal termination of Gaussian 16 at Tue Apr  8 21:14:26 2025.
