 Gaussian 16, Revision C.01,

 ----------------------------------------------------------------------
 #t hf aug-cc-pvdz symm=none int=(grid=ultrafine) guess=(read,tcheck) s
 table=(opt,rrhf)
 ----------------------------------------------------------------------
 -----
 title
 -----
 Symbolic Z-matrix:
 Charge =  0 Multiplicity = 1

 SCF Done:  E(RHF) =  -334.539160115     A.U. after   14 cycles
 Normal termination of Gaussian 16 at Tue Apr  8 21:11:21 2025.
 Gaussian 16:  ES64L-G16RevC.01  3-Jul-2019

 ----------------------------------------------------------------------
 #t hf aug-cc-pvdz iop(5/13=1,5/36=2,99/5=2) pseudo=read geom=check gue
 ss=(read,tcheck) scf=(maxcycle=1)
 ----------------------------------------------------------------------
 -----
 title
 -----
 Structure from the checkpoint file:  "ANI1ccx_1859_conf1_mol1.chk"
 Charge =  0 Multiplicity = 1

                         Standard orientation:
 ---------------------------------------------------------------------
 Center     Atomic      Atomic             Coordinates (Angstroms)
 Number     Number       Type             X           Y           Z
 ---------------------------------------------------------------------
      1          1           0        1.696361    1.492807   -0.541639
      2          1           0        0.908837   -1.469332   -0.454267
      3          7           0       -2.674781   -0.571468   -0.011163
      4          7           0       -2.138950    0.401445    0.013142
      5          8           0        0.851076    1.098738   -0.235470
      6          8           0        1.303480    0.048160    0.595454
      7          8           0        1.731809   -1.001063   -0.237227
 ---------------------------------------------------------------------

 SCF Done:  E(RHF) =  -335.888053756     A.U. after    2 cycles

 The electronic state is 1-A.
 Alpha  occ. eigenvalues --  -21.15544 -21.13796 -21.13536 -15.87276 -15.87048
 Alpha  occ. eigenvalues --   -2.07710  -1.69671  -1.55627  -1.27794  -0.78877
 Alpha  occ. eigenvalues --   -0.68956  -0.59226  -0.57698  -0.57075  -0.56974
 Alpha  occ. eigenvalues --   -0.55469  -0.54791  -0.35730  -0.33377  -0.32102
 Alpha virt. eigenvalues --    0.04993   0.06154   0.11514   0.13081   0.13816
 Alpha virt. eigenvalues --    0.14048   0.15354   0.16296   0.17073   0.18572
 Alpha virt. eigenvalues --    0.19733   0.21502   0.22528   0.22837   0.24499

 Mulliken charges:
               1
     1  H    1.004661
     2  H    0.898363
     3  N   -0.014895
     4  N   -0.017874
     5  O   -1.115872
     6  O    0.260235
     7  O   -1.014617
 Sum of Mulliken charges =  -0.00000

 Dipole moment (field-independent basis, Debye):
    X=              0.0572    Y=              0.0843    Z=             -0.7216  Tot=              0.7288

 Test job not archived.
 1\1\GINC-SE074\SP\RHF\Aug-CC-pVDZ\H2N2O3\OHZDE\08-Apr-2025\0\\#t hf au
 g-cc-pvdz iop(5/13=1,5/36=2,99/5=2) pseudo=read geom=check guess=(read
 ,tcheck) scf=(maxcycle=1)\\title\\0,1\H,0,1.69636,1.49281,-0.541639\H,
 0,0.908838,-1.46933,-0.454267\N,0,-2.67478,-0.571468,-0.011163\N,0,-2.
 13895,0.401445,0.0131416\O,0,0.851075,1.09874,-0.23547\O,0,1.30348,0.0
 481627,0.595454\O,0,1.73181,-1.00106,-0.237227\\Version=ES64L-G16RevC.
 01\State=1-A\HF=-335.8880538\RMSD=8.375e-02\Dipole=0.0225008,0.0331669
 ,-0.2839157\Quadrupole=-0.4568008,0.9791211,-0.5223203,1.6506158,-0.85

 Normal termination of Gaussian 16 at Tue Apr  8 21:11:22 2025.
