 Gaussian 16, Revision C.01,

 ----------------------------------------------------------------------
 #t hf aug-cc-pvdz symm=none int=(grid=ultrafine) guess=(read,tcheck) s
 table=(opt,rrhf)
 ----------------------------------------------------------------------
 -----
 title
 -----
 Symbolic Z-matrix:
 Charge =  0 Multiplicity = 1

 SCF Done:  E(RHF) =  -637.356264141     A.U. after   15 cycles
 Normal termination of Gaussian 16 at Tue Apr  8 20:00:15 2025.
 Gaussian 16:  ES64L-G16RevC.01  3-Jul-2019

 ----------------------------------------------------------------------
 #t hf aug-cc-pvdz iop(5/13=1,5/36=2,99/5=2) pseudo=read geom=check gue
 ss=(read,tcheck) scf=(maxcycle=1)
 ----------------------------------------------------------------------
 -----
 title
 -----
 Structure from the checkpoint file:  "ANI1ccx_1522_conf2_mol2.chk"
 Charge =  0 Multiplicity = 1

                         Standard orientation:
 ---------------------------------------------------------------------
 Center     Atomic      Atomic             Coordinates (Angstroms)
 Number     Number       Type             X           Y           Z
 ---------------------------------------------------------------------
      1          6           0        1.606342    0.678867    0.018169
      2          6           0        2.392468   -1.480734   -0.192921
      3          6           0        0.135599   -1.171370    0.006718
      4          6           0       -2.117421   -1.174056    0.650146
      5          6           0       -2.780319   -0.234847   -0.361144
      6          6           0       -0.797055    1.246951   -0.037024
      7          6           0        0.250108    0.221722   -0.042395
      8          1           0       -2.630046    1.874215   -0.526100
      9          1           0       -2.761900   -0.738168   -1.342100
     10          1           0       -3.815139   -0.041250   -0.126107
     11          1           0       -2.796523   -1.984345    0.813955
     12          1           0       -1.836870   -0.706865    1.582060
     13          1           0        3.183407   -2.177416   -0.421976
     14          1           0        2.971015    2.118135    0.202154
     15          1           0        1.298486    2.647248    0.384796
     16          7           0        1.981194    1.957127    0.146339
     17          7           0        2.680291   -0.206722   -0.094873
     18          7           0        1.196147   -1.986492   -0.080428
     19          7           0       -2.077577    1.049474   -0.464547
     20          8           0       -0.988210   -1.878278    0.096533
     21          8           0       -0.538184    2.477721    0.233291
 ---------------------------------------------------------------------

 SCF Done:  E(RHF) =  -640.213455216     A.U. after    2 cycles

 The electronic state is 1-A.
 Alpha  occ. eigenvalues --  -21.10598 -21.01679 -15.77354 -15.77149 -15.71908
 Alpha  occ. eigenvalues --  -15.71229 -11.54949 -11.53995 -11.52592 -11.49569
 Alpha  occ. eigenvalues --  -11.44769 -11.43065 -11.41741  -1.84215  -1.69664
 Alpha  occ. eigenvalues --   -1.51188  -1.40647  -1.38176  -1.25110  -1.17782
 Alpha  occ. eigenvalues --   -1.11218  -0.99052  -0.92094  -0.87933  -0.83502
 Alpha  occ. eigenvalues --   -0.73971  -0.73137  -0.71751  -0.68504  -0.63956
 Alpha  occ. eigenvalues --   -0.62220  -0.61577  -0.59637  -0.59431  -0.57883
 Alpha  occ. eigenvalues --   -0.54302  -0.51432  -0.49905  -0.47872  -0.44186
 Alpha  occ. eigenvalues --   -0.42221  -0.40058  -0.34834  -0.33795  -0.30663
 Alpha  occ. eigenvalues --   -0.29807  -0.28896
 Alpha virt. eigenvalues --    0.02925   0.04618   0.04875   0.05361   0.05910
 Alpha virt. eigenvalues --    0.06254   0.06385   0.08005   0.09540   0.10151
 Alpha virt. eigenvalues --    0.10389   0.10776   0.11597   0.11721   0.12431

 Mulliken charges:
               1
     1  C    3.136306
     2  C    0.716110
     3  C    5.607161
     4  C   -1.950607
     5  C   -2.778302
     6  C    6.088226
     7  C    1.057886
     8  H    0.821538
     9  H    1.481307
    10  H    1.504670
    11  H    1.324087
    12  H    1.766687
    13  H    1.784282
    14  H    0.917936
    15  H    0.614745
    16  N   -3.616488
    17  N   -3.792138
    18  N   -3.851377
    19  N   -3.262669
    20  O   -3.925149
    21  O   -3.644211
 Sum of Mulliken charges =  -0.00000

 Dipole moment (field-independent basis, Debye):
    X=             -3.0846    Y=              0.6686    Z=              0.5125  Tot=              3.1976

 Test job not archived.
 1\1\GINC-SE462\SP\RHF\Aug-CC-pVDZ\C7H8N4O2\OHZDE\08-Apr-2025\0\\#t hf
 aug-cc-pvdz iop(5/13=1,5/36=2,99/5=2) pseudo=read geom=check guess=(re
 ad,tcheck) scf=(maxcycle=1)\\title\\0,1\C,0,1.60634,0.67887,0.0181693\
 C,0,2.39247,-1.48073,-0.192921\C,0,0.1356,-1.17137,0.00671786\C,0,-2.1
 1742,-1.17406,0.650146\C,0,-2.78032,-0.234852,-0.361144\C,0,-0.797058,
 1.24695,-0.0370242\C,0,0.250107,0.221722,-0.0423951\H,0,-2.63005,1.874
 21,-0.5261\H,0,-2.7619,-0.738173,-1.3421\H,0,-3.81514,-0.0412569,-0.12
 6107\H,0,-2.79652,-1.98435,0.813955\H,0,-1.83687,-0.706868,1.58206\H,0

 Normal termination of Gaussian 16 at Tue Apr  8 20:00:31 2025.
