 Gaussian 16, Revision C.01,

 ----------------------------------------------------------------------
 #t hf aug-cc-pvdz symm=none int=(grid=ultrafine) guess=(read,tcheck) s
 table=(opt,rrhf)
 ----------------------------------------------------------------------
 -----
 title
 -----
 Symbolic Z-matrix:
 Charge =  0 Multiplicity = 1

 SCF Done:  E(RHF) =  -263.695738075     A.U. after   13 cycles
 Normal termination of Gaussian 16 at Tue Apr  8 21:36:37 2025.
 Gaussian 16:  ES64L-G16RevC.01  3-Jul-2019

 ----------------------------------------------------------------------
 #t hf aug-cc-pvdz iop(5/13=1,5/36=2,99/5=2) pseudo=read geom=check gue
 ss=(read,tcheck) scf=(maxcycle=1)
 ----------------------------------------------------------------------
 -----
 title
 -----
 Structure from the checkpoint file:  "ANI1ccx_383_conf102_mol2.chk"
 Charge =  0 Multiplicity = 1

                         Standard orientation:
 ---------------------------------------------------------------------
 Center     Atomic      Atomic             Coordinates (Angstroms)
 Number     Number       Type             X           Y           Z
 ---------------------------------------------------------------------
      1          6           0       -0.056877   -0.133259    0.000510
      2          1           0        1.628240    0.708151    0.000699
      3          1           0       -1.445585    1.119681    0.003719
      4          8           0        1.276991   -0.193698   -0.000133
      5          8           0       -0.476500    1.153093   -0.000517
      6          8           0       -0.780665   -1.087930   -0.000285
 ---------------------------------------------------------------------

 SCF Done:  E(RHF) =  -264.754569736     A.U. after    2 cycles

 The electronic state is 1-A.
 Alpha  occ. eigenvalues --  -21.14834 -21.14608 -21.06184 -11.55550  -1.91276
 Alpha  occ. eigenvalues --   -1.72263  -1.67434  -0.85180  -0.72465  -0.63354
 Alpha  occ. eigenvalues --   -0.62292  -0.49758  -0.48785  -0.40044  -0.34741
 Alpha  occ. eigenvalues --   -0.31896
 Alpha virt. eigenvalues --    0.03381   0.05214   0.10864   0.11418   0.12180
 Alpha virt. eigenvalues --    0.13160   0.17737   0.19483   0.20032   0.20588
 Alpha virt. eigenvalues --    0.21454   0.22721   0.23737   0.24944   0.28268

 Mulliken charges:
               1
     1  C    5.958242
     2  H    0.804396
     3  H    0.807971
     4  O   -2.599823
     5  O   -2.390710
     6  O   -2.580075
 Sum of Mulliken charges =   0.00000

 Dipole moment (field-independent basis, Debye):
    X=              0.5573    Y=              2.1213    Z=              0.0036  Tot=              2.1933

 Test job not archived.
 1\1\GINC-SE453\SP\RHF\Aug-CC-pVDZ\C1H2O3\OHZDE\08-Apr-2025\0\\#t hf au
 g-cc-pvdz iop(5/13=1,5/36=2,99/5=2) pseudo=read geom=check guess=(read
 ,tcheck) scf=(maxcycle=1)\\title\\0,1\C,0,-0.0568778,-0.133258,0.00051
 027\H,0,1.62825,0.708131,0.00069907\H,0,-1.44557,1.1197,0.00371937\O,0
 ,1.27699,-0.193713,-0.00013333\O,0,-0.476485,1.1531,-0.00051663\O,0,-0
 .780678,-1.08792,-0.00028503\\Version=ES64L-G16RevC.01\State=1-A\HF=-2
 64.7545697\RMSD=5.212e-02\Dipole=0.219287,0.8345922,0.0014223\Quadrupo
 le=2.0652691,-1.483747,-0.5815221,-0.5122462,-0.0065539,0.0049932\PG=C

 Normal termination of Gaussian 16 at Tue Apr  8 21:36:38 2025.
