 Gaussian 16, Revision C.01,

 ----------------------------------------------------------------------
 #t hf aug-cc-pvdz symm=none int=(grid=ultrafine) guess=(read,tcheck) s
 table=(opt,rrhf)
 ----------------------------------------------------------------------
 -----
 title
 -----
 Symbolic Z-matrix:
 Charge =  0 Multiplicity = 1

 SCF Done:  E(RHF) =  -348.516461208     A.U. after   17 cycles
 Normal termination of Gaussian 16 at Tue Apr  8 21:42:47 2025.
 Gaussian 16:  ES64L-G16RevC.01  3-Jul-2019

 ----------------------------------------------------------------------
 #t hf aug-cc-pvdz iop(5/13=1,5/36=2,99/5=2) pseudo=read geom=check gue
 ss=(read,tcheck) scf=(maxcycle=1)
 ----------------------------------------------------------------------
 -----
 title
 -----
 Structure from the checkpoint file:  "ANI1ccx_476_conf2_mol1.chk"
 Charge =  0 Multiplicity = 1

                         Standard orientation:
 ---------------------------------------------------------------------
 Center     Atomic      Atomic             Coordinates (Angstroms)
 Number     Number       Type             X           Y           Z
 ---------------------------------------------------------------------
      1          6           0        1.670280   -0.031676   -0.007982
      2          6           0        0.337809   -0.031831    0.066414
      3          1           0       -2.473150   -1.055940   -0.093918
      4          7           0        2.802080   -0.008704   -0.033653
      5          7           0       -0.431671    1.115730    0.027027
      6          7           0       -1.630040    0.772927   -0.039188
      7          7           0       -1.634410   -0.563390   -0.004684
      8          7           0       -0.473872   -1.111280    0.013830
 ---------------------------------------------------------------------

 SCF Done:  E(RHF) =  -350.045929091     A.U. after    2 cycles

 The electronic state is 1-A.
 Alpha  occ. eigenvalues --  -15.90250 -15.85477 -15.84859 -15.81808 -15.78886
 Alpha  occ. eigenvalues --  -11.50817 -11.45633  -1.82323  -1.45902  -1.37840
 Alpha  occ. eigenvalues --   -1.29718  -1.01424  -0.95399  -0.83225  -0.73787
 Alpha  occ. eigenvalues --   -0.72003  -0.59516  -0.55111  -0.53512  -0.48908
 Alpha  occ. eigenvalues --   -0.48459  -0.46629  -0.43184  -0.38008
 Alpha virt. eigenvalues --    0.02911   0.07458   0.09775   0.10233   0.10684
 Alpha virt. eigenvalues --    0.11536   0.11795   0.12912   0.13255   0.13935
 Alpha virt. eigenvalues --    0.14054   0.14495   0.16312   0.17473   0.18734

 Mulliken charges:
               1
     1  C    2.209316
     2  C    4.092940
     3  H    1.024287
     4  N   -2.753436
     5  N   -1.899399
     6  N   -0.156568
     7  N    0.069866
     8  N   -2.587006
 Sum of Mulliken charges =   0.00000

 Dipole moment (field-independent basis, Debye):
    X=             -4.2686    Y=             -2.0064    Z=             -0.0689  Tot=              4.7171

 Test job not archived.
 1\1\GINC-SE367\SP\RHF\Aug-CC-pVDZ\C2H1N5\OHZDE\08-Apr-2025\0\\#t hf au
 g-cc-pvdz iop(5/13=1,5/36=2,99/5=2) pseudo=read geom=check guess=(read
 ,tcheck) scf=(maxcycle=1)\\title\\0,1\C,0,1.67028,-0.0316753,-0.007981
 61\C,0,0.337809,-0.0318312,0.0664136\H,0,-2.47315,-1.05594,-0.0939184\
 N,0,2.80208,-0.00870327,-0.0336528\N,0,-0.431671,1.11573,0.0270268\N,0
 ,-1.63004,0.772927,-0.0391878\N,0,-1.63441,-0.56339,-0.0046839\N,0,-0.
 473872,-1.11128,0.0138301\\Version=ES64L-G16RevC.01\State=1-A\HF=-350.
 0459291\RMSD=5.785e-01\Dipole=-1.6793875,-0.7893976,-0.027107\Quadrupo

 Normal termination of Gaussian 16 at Tue Apr  8 21:42:50 2025.
