 Gaussian 16, Revision C.01,

 ----------------------------------------------------------------------
 #t hf aug-cc-pvdz symm=none int=(grid=ultrafine) guess=(read,tcheck) s
 table=(opt,rrhf)
 ----------------------------------------------------------------------
 -----
 title
 -----
 Symbolic Z-matrix:
 Charge =  0 Multiplicity = 1

 SCF Done:  E(RHF) =  -428.560667803     A.U. after   14 cycles
 Normal termination of Gaussian 16 at Tue Apr  8 21:39:51 2025.
 Gaussian 16:  ES64L-G16RevC.01  3-Jul-2019

 ----------------------------------------------------------------------
 #t hf aug-cc-pvdz iop(5/13=1,5/36=2,99/5=2) pseudo=read geom=check gue
 ss=(read,tcheck) scf=(maxcycle=1)
 ----------------------------------------------------------------------
 -----
 title
 -----
 Structure from the checkpoint file:  "ANI1ccx_419_conf8_mol1.chk"
 Charge =  0 Multiplicity = 1

                         Standard orientation:
 ---------------------------------------------------------------------
 Center     Atomic      Atomic             Coordinates (Angstroms)
 Number     Number       Type             X           Y           Z
 ---------------------------------------------------------------------
      1          6           0       -0.165707   -0.257683    0.022282
      2          1           0        1.943241    0.941385    0.003841
      3          1           0       -0.701337    1.679730   -0.180430
      4          1           0       -1.555282   -1.606589   -0.096038
      5          1           0       -3.165920    0.227830    0.430420
      6          1           0        2.569478   -1.566044    0.191994
      7          7           0        0.083177    1.083469   -0.298237
      8          7           0       -1.449241   -0.677490    0.394206
      9          7           0        0.683819   -1.244922   -0.039407
     10          8           0        1.217922    1.638978    0.269971
     11          8           0       -2.393860    0.152601   -0.239814
     12          8           0        2.010909   -0.823780   -0.140084
 ---------------------------------------------------------------------

 SCF Done:  E(RHF) =  -430.391803545     A.U. after    2 cycles

 The electronic state is 1-A.
 Alpha  occ. eigenvalues --  -21.11472 -21.10078 -21.08019 -15.80813 -15.78994
 Alpha  occ. eigenvalues --  -15.75374 -11.47863  -1.83141  -1.79214  -1.76093
 Alpha  occ. eigenvalues --   -1.37862  -1.19123  -1.12779  -0.82634  -0.73459
 Alpha  occ. eigenvalues --   -0.67669  -0.65904  -0.61468  -0.56730  -0.56021
 Alpha  occ. eigenvalues --   -0.54382  -0.52064  -0.44823  -0.40554  -0.37494
 Alpha  occ. eigenvalues --   -0.34136  -0.29900  -0.24820
 Alpha virt. eigenvalues --    0.03736   0.04997   0.06005   0.06781   0.07736
 Alpha virt. eigenvalues --    0.11193   0.12655   0.13502   0.14373   0.15502
 Alpha virt. eigenvalues --    0.16068   0.17299   0.18485   0.18514   0.19703

 Mulliken charges:
               1
     1  C    4.533702
     2  H    1.031153
     3  H    0.884463
     4  H    0.664853
     5  H    0.800475
     6  H    0.886804
     7  N   -0.608293
     8  N   -0.426855
     9  N   -0.320242
    10  O   -2.334225
    11  O   -2.355988
    12  O   -2.755848
 Sum of Mulliken charges =  -0.00000

 Dipole moment (field-independent basis, Debye):
    X=             -1.2977    Y=              0.4659    Z=              0.3739  Tot=              1.4286

 Test job not archived.
 1\1\GINC-SE334\SP\RHF\Aug-CC-pVDZ\C1H5N3O3\OHZDE\08-Apr-2025\0\\#t hf
 aug-cc-pvdz iop(5/13=1,5/36=2,99/5=2) pseudo=read geom=check guess=(re
 ad,tcheck) scf=(maxcycle=1)\\title\\0,1\C,0,-0.165707,-0.257683,0.0222
 815\H,0,1.94324,0.941388,0.003841\H,0,-0.701339,1.67973,-0.18043\H,0,-
 1.55528,-1.60659,-0.0960385\H,0,-3.16592,0.227826,0.43042\H,0,2.56948,
 -1.56604,0.191994\N,0,0.0831758,1.08347,-0.298237\N,0,-1.44924,-0.6774
 91,0.394206\N,0,0.68382,-1.24492,-0.0394068\O,0,1.21792,1.63898,0.2699
 71\O,0,-2.39386,0.152598,-0.239814\O,0,2.01091,-0.823777,-0.140084\\Ve

 Normal termination of Gaussian 16 at Tue Apr  8 21:39:55 2025.
