 Gaussian 16, Revision C.01,

 ----------------------------------------------------------------------
 #t hf aug-cc-pvdz symm=none int=(grid=ultrafine) guess=(read,tcheck) s
 table=(opt,rrhf)
 ----------------------------------------------------------------------
 -----
 title
 -----
 Symbolic Z-matrix:
 Charge =  0 Multiplicity = 1

 SCF Done:  E(RHF) =  -528.732981651     A.U. after   14 cycles
 Normal termination of Gaussian 16 at Tue Apr  8 22:19:47 2025.
 Gaussian 16:  ES64L-G16RevC.01  3-Jul-2019

 ----------------------------------------------------------------------
 #t hf aug-cc-pvdz iop(5/13=1,5/36=2,99/5=2) pseudo=read geom=check gue
 ss=(read,tcheck) scf=(maxcycle=1)
 ----------------------------------------------------------------------
 -----
 title
 -----
 Structure from the checkpoint file:  "ANI1ccx_998_conf19_mol1.chk"
 Charge =  0 Multiplicity = 1

                         Standard orientation:
 ---------------------------------------------------------------------
 Center     Atomic      Atomic             Coordinates (Angstroms)
 Number     Number       Type             X           Y           Z
 ---------------------------------------------------------------------
      1          6           0        0.970148    0.195240    0.392739
      2          6           0        2.376251   -0.339918   -0.081806
      3          6           0       -0.033993   -0.945945    0.118686
      4          6           0       -1.474649   -0.787900    0.656503
      5          6           0       -2.596979   -0.050021   -0.049832
      6          1           0        3.249131    1.155141    0.990395
      7          1           0       -3.042769    1.765240   -0.790449
      8          1           0       -1.907878   -1.828750    0.663801
      9          1           0       -1.467689   -0.525619    1.725940
     10          1           0       -1.542219    1.704670   -0.030419
     11          1           0        1.364951    2.215551   -0.061551
     12          1           0        0.639212    1.327870   -1.149910
     13          1           0        0.973471    0.481413    1.438370
     14          1           0       -0.040004   -1.119580   -0.944822
     15          1           0        0.360848   -1.854130    0.588337
     16          7           0        0.663714    1.511920   -0.209787
     17          7           0       -2.478079    1.310400   -0.145158
     18          8           0       -3.619569   -0.690486   -0.285288
     19          8           0        2.594392   -1.282599   -0.730080
     20          8           0        3.358781    0.534737    0.245015
 ---------------------------------------------------------------------

 SCF Done:  E(RHF) =  -531.086431956     A.U. after    2 cycles

 The electronic state is 1-A.
 Alpha  occ. eigenvalues --  -21.12659 -21.07667 -21.01939 -15.78042 -15.77076
 Alpha  occ. eigenvalues --  -11.54657 -11.50832 -11.48253 -11.44483 -11.39159
 Alpha  occ. eigenvalues --   -1.84287  -1.69230  -1.68198  -1.39555  -1.34275
 Alpha  occ. eigenvalues --   -1.19010  -1.04761  -0.92555  -0.81888  -0.79539
 Alpha  occ. eigenvalues --   -0.72664  -0.72289  -0.69355  -0.65873  -0.61194
 Alpha  occ. eigenvalues --   -0.58600  -0.57299  -0.55546  -0.55095  -0.50162
 Alpha  occ. eigenvalues --   -0.48691  -0.47275  -0.46818  -0.43685  -0.42324
 Alpha  occ. eigenvalues --   -0.36191  -0.32422  -0.30297  -0.27384
 Alpha virt. eigenvalues --    0.02507   0.03657   0.04176   0.05275   0.05764
 Alpha virt. eigenvalues --    0.06063   0.06613   0.07277   0.08398   0.08792
 Alpha virt. eigenvalues --    0.10696   0.11119   0.11355   0.11754   0.12449

 Mulliken charges:
               1
     1  C   -1.009717
     2  C    5.905031
     3  C   -2.539198
     4  C   -3.148444
     5  C    4.937217
     6  H    0.998456
     7  H    0.717325
     8  H    1.118909
     9  H    1.380496
    10  H    0.859027
    11  H    0.607349
    12  H    0.610271
    13  H    1.904361
    14  H    1.527673
    15  H    1.266744
    16  N   -2.557849
    17  N   -3.074534
    18  O   -3.152566
    19  O   -3.235343
    20  O   -3.115207
 Sum of Mulliken charges =  -0.00000

 Dipole moment (field-independent basis, Debye):
    X=              2.5598    Y=              2.7257    Z=              0.6669  Tot=              3.7983

 Test job not archived.
 1\1\GINC-SE458\SP\RHF\Aug-CC-pVDZ\C5H10N2O3\OHZDE\08-Apr-2025\0\\#t hf
  aug-cc-pvdz iop(5/13=1,5/36=2,99/5=2) pseudo=read geom=check guess=(r
 ead,tcheck) scf=(maxcycle=1)\\title\\0,1\C,0,0.970147,0.195239,0.39273
 9\C,0,2.37625,-0.339919,-0.0818065\C,0,-0.0339948,-0.945945,0.118686\C
 ,0,-1.47465,-0.7879,0.656503\C,0,-2.59698,-0.0500205,-0.0498326\H,0,3.
 24913,1.15514,0.990395\H,0,-3.04277,1.76524,-0.790449\H,0,-1.90788,-1.
 82875,0.663801\H,0,-1.46769,-0.525619,1.72594\H,0,-1.54222,1.70467,-0.
 030419\H,0,1.36495,2.21555,-0.0615514\H,0,0.639211,1.32787,-1.14991\H,

 Normal termination of Gaussian 16 at Tue Apr  8 22:19:57 2025.
