 Gaussian 16, Revision C.01,

 ----------------------------------------------------------------------
 #t hf aug-cc-pvdz symm=none int=(grid=ultrafine) guess=(read,tcheck) s
 table=(opt,rrhf)
 ----------------------------------------------------------------------
 -----
 title
 -----
 Symbolic Z-matrix:
 Charge =  0 Multiplicity = 1

 SCF Done:  E(RHF) =  -509.554273802     A.U. after   14 cycles
 Normal termination of Gaussian 16 at Tue Apr  8 22:13:01 2025.
 Gaussian 16:  ES64L-G16RevC.01  3-Jul-2019

 ----------------------------------------------------------------------
 #t hf aug-cc-pvdz iop(5/13=1,5/36=2,99/5=2) pseudo=read geom=check gue
 ss=(read,tcheck) scf=(maxcycle=1)
 ----------------------------------------------------------------------
 -----
 title
 -----
 Structure from the checkpoint file:  "ANI1ccx_939_conf112_mol2.chk"
 Charge =  0 Multiplicity = 1

                         Standard orientation:
 ---------------------------------------------------------------------
 Center     Atomic      Atomic             Coordinates (Angstroms)
 Number     Number       Type             X           Y           Z
 ---------------------------------------------------------------------
      1          6           0       -0.742903    0.678619   -0.677485
      2          6           0       -1.271889   -0.594188   -0.077775
      3          6           0        0.765546    0.665932   -0.937439
      4          6           0        1.642401    0.064327    0.094951
      5          1           0       -1.650179    2.521240   -0.355963
      6          1           0       -1.829439    1.390880    0.902354
      7          1           0       -1.265979    0.809874   -1.635501
      8          1           0        0.948627    0.221512   -1.915601
      9          1           0        1.103091    1.695070   -0.985754
     10          1           0        1.681121   -0.176357    1.983349
     11          1           0       -1.121959   -2.406440   -0.294396
     12          7           0       -1.162079    1.792710    0.201929
     13          8           0       -2.165809   -0.725668    0.739222
     14          8           0        2.714981   -0.466020   -0.134018
     15          8           0        1.106631    0.154987    1.346699
     16          8           0       -0.667009   -1.649910   -0.642594
 ---------------------------------------------------------------------

 SCF Done:  E(RHF) =  -511.725022124     A.U. after    2 cycles

 The electronic state is 1-A.
 Alpha  occ. eigenvalues --  -21.14163 -21.13152 -21.06853 -21.05516 -15.73536
 Alpha  occ. eigenvalues --  -11.54918 -11.54181 -11.48170 -11.41796  -1.85590
 Alpha  occ. eigenvalues --   -1.82965  -1.66964  -1.65678  -1.35797  -1.15412
 Alpha  occ. eigenvalues --   -1.00684  -0.84809  -0.77841  -0.70702  -0.68087
 Alpha  occ. eigenvalues --   -0.65888  -0.61357  -0.60103  -0.59494  -0.55429
 Alpha  occ. eigenvalues --   -0.53251  -0.51480  -0.50048  -0.46300  -0.45624
 Alpha  occ. eigenvalues --   -0.36339  -0.35467  -0.33960  -0.31755  -0.29535
 Alpha virt. eigenvalues --    0.03314   0.04437   0.05244   0.05818   0.06025
 Alpha virt. eigenvalues --    0.06566   0.08017   0.09737   0.11129   0.11207
 Alpha virt. eigenvalues --    0.12067   0.13272   0.13608   0.14374   0.14733

 Mulliken charges:
               1
     1  C   -1.410652
     2  C    6.688793
     3  C   -3.724778
     4  C    6.016187
     5  H    0.460319
     6  H    0.575720
     7  H    1.737050
     8  H    1.171500
     9  H    1.517843
    10  H    1.032736
    11  H    0.861809
    12  N   -2.413903
    13  O   -3.168981
    14  O   -3.130959
    15  O   -3.057740
    16  O   -3.154945
 Sum of Mulliken charges =   0.00000

 Dipole moment (field-independent basis, Debye):
    X=             -1.2650    Y=              0.0078    Z=             -0.5719  Tot=              1.3882

 Test job not archived.
 1\1\GINC-SE458\SP\RHF\Aug-CC-pVDZ\C4H7N1O4\OHZDE\08-Apr-2025\0\\#t hf
 aug-cc-pvdz iop(5/13=1,5/36=2,99/5=2) pseudo=read geom=check guess=(re
 ad,tcheck) scf=(maxcycle=1)\\title\\0,1\C,0,-0.742904,0.678619,-0.6774
 84\C,0,-1.27189,-0.594188,-0.0777745\C,0,0.765545,0.665932,-0.937438\C
 ,0,1.6424,0.0643274,0.094952\H,0,-1.65018,2.52124,-0.355962\H,0,-1.829
 44,1.39088,0.902355\H,0,-1.26598,0.809874,-1.6355\H,0,0.948626,0.22151
 2,-1.9156\H,0,1.10309,1.69507,-0.985753\H,0,1.68112,-0.176357,1.98335\
 H,0,-1.12196,-2.40644,-0.294395\N,0,-1.16208,1.79271,0.20193\O,0,-2.16

 Normal termination of Gaussian 16 at Tue Apr  8 22:13:08 2025.
