 Gaussian 16, Revision C.01,

 ----------------------------------------------------------------------
 #t hf aug-cc-pvdz symm=none int=(grid=ultrafine) guess=(read,tcheck) s
 table=(opt,rrhf)
 ----------------------------------------------------------------------
 -----
 title
 -----
 Symbolic Z-matrix:
 Charge =  0 Multiplicity = 1

 SCF Done:  E(RHF) =  -720.703127510     A.U. after   14 cycles
 Normal termination of Gaussian 16 at Tue Apr  8 20:32:12 2025.
 Gaussian 16:  ES64L-G16RevC.01  3-Jul-2019

 ----------------------------------------------------------------------
 #t hf aug-cc-pvdz iop(5/13=1,5/36=2,99/5=2) pseudo=read geom=check gue
 ss=(read,tcheck) scf=(maxcycle=1)
 ----------------------------------------------------------------------
 -----
 title
 -----
 Structure from the checkpoint file:  "ANI1ccx_1618_conf5_mol1.chk"
 Charge =  0 Multiplicity = 1

                         Standard orientation:
 ---------------------------------------------------------------------
 Center     Atomic      Atomic             Coordinates (Angstroms)
 Number     Number       Type             X           Y           Z
 ---------------------------------------------------------------------
      1          6           0       -2.331620   -0.791212   -0.281271
      2          6           0       -0.771126   -0.775785   -0.094326
      3          6           0       -2.915130    0.640457   -0.067861
      4          6           0        1.274290    0.424325   -0.660826
      5          6           0        2.305930   -0.770976   -0.667361
      6          6           0        1.614569    1.308400    0.568235
      7          6           0        0.785455    2.609890    0.458815
      8          6           0        1.374969    0.713808    1.943320
      9          1           0        1.013790   -1.912700    0.183457
     10          1           0        2.090870   -0.097825    2.171960
     11          1           0        0.336187    0.326157    1.943880
     12          1           0        1.416349    1.527040    2.700450
     13          1           0        0.962668    3.399650    1.172860
     14          1           0       -0.271565    2.337429    0.615034
     15          1           0        0.930797    3.064620   -0.531396
     16          1           0        2.650529    1.429700    0.429694
     17          1           0       -0.652650    0.744733   -1.329730
     18          1           0       -2.710761    2.414099   -1.016160
     19          1           0       -2.501221    0.975648    0.921280
     20          1           0       -3.993760    0.492432   -0.024982
     21          1           0       -2.694860   -1.160991   -1.270770
     22          1           0       -2.373630   -2.523001    0.747902
     23          1           0       -2.494730   -1.228881    1.581350
     24          1           0        1.530539    1.032740   -1.545660
     25          7           0       -2.887390   -1.605861    0.764914
     26          7           0       -0.079816    0.046747   -0.902437
     27          8           0        3.449640   -0.520350   -1.000340
     28          8           0       -0.321696   -1.481941    0.780501
     29          8           0       -2.598571    1.464179   -1.204940
     30          8           0        1.909110   -1.969450   -0.197575
 ---------------------------------------------------------------------

 SCF Done:  E(RHF) =  -723.972234425     A.U. after    2 cycles

 The electronic state is 1-A.
 Alpha  occ. eigenvalues --  -21.10971 -21.08692 -21.06303 -21.03472 -15.79270
 Alpha  occ. eigenvalues --  -15.74736 -11.56370 -11.52795 -11.50585 -11.48982
 Alpha  occ. eigenvalues --  -11.43713 -11.43110 -11.40742 -11.37158  -1.81312
 Alpha  occ. eigenvalues --   -1.77022  -1.73933  -1.63833  -1.45703  -1.37608
 Alpha  occ. eigenvalues --   -1.25237  -1.09445  -1.04553  -1.01359  -0.93239
 Alpha  occ. eigenvalues --   -0.85552  -0.84286  -0.77996  -0.74110  -0.72083
 Alpha  occ. eigenvalues --   -0.68622  -0.67815  -0.65256  -0.64137  -0.62021
 Alpha  occ. eigenvalues --   -0.60493  -0.57728  -0.55973  -0.55796  -0.54162
 Alpha  occ. eigenvalues --   -0.52532  -0.52015  -0.50395  -0.49531  -0.48343
 Alpha  occ. eigenvalues --   -0.47260  -0.45394  -0.44755  -0.43511  -0.38486
 Alpha  occ. eigenvalues --   -0.36779  -0.34282  -0.31928  -0.30373  -0.27222
 Alpha virt. eigenvalues --    0.03062   0.03814   0.04139   0.04263   0.04753
 Alpha virt. eigenvalues --    0.05143   0.05871   0.06302   0.06996   0.07353
 Alpha virt. eigenvalues --    0.07687   0.07933   0.08621   0.09042   0.10095

 Mulliken charges:
               1
     1  C   -2.650821
     2  C    7.877022
     3  C   -1.207872
     4  C   -0.598433
     5  C    5.802559
     6  C   -1.203473
     7  C   -4.852439
     8  C   -4.723094
     9  H    1.659845
    10  H    1.253446
    11  H    1.416384
    12  H    1.197277
    13  H    1.166718
    14  H    1.886188
    15  H    1.256468
    16  H    1.899743
    17  H    1.025369
    18  H    0.892562
    19  H    1.661679
    20  H    1.232127
    21  H    1.932727
    22  H    0.540942
    23  H    0.689869
    24  H    1.915115
    25  N   -2.857840
    26  N   -3.247749
    27  O   -3.454041
    28  O   -3.962510
    29  O   -2.927789
    30  O   -3.619981
 Sum of Mulliken charges =  -0.00000

 Dipole moment (field-independent basis, Debye):
    X=             -3.1817    Y=              2.8291    Z=              0.4386  Tot=              4.2801

 Test job not archived.
 1\1\GINC-SE365\SP\RHF\Aug-CC-pVDZ\C8H16N2O4\OHZDE\08-Apr-2025\0\\#t hf
  aug-cc-pvdz iop(5/13=1,5/36=2,99/5=2) pseudo=read geom=check guess=(r
 ead,tcheck) scf=(maxcycle=1)\\title\\0,1\C,0,-2.33162,-0.791211,-0.281
 271\C,0,-0.771126,-0.775784,-0.0943258\C,0,-2.91513,0.640458,-0.067860
 6\C,0,1.27429,0.424325,-0.660826\C,0,2.30593,-0.770976,-0.667361\C,0,1
 .61457,1.3084,0.568235\C,0,0.785456,2.60989,0.458815\C,0,1.37497,0.713
 808,1.94332\H,0,1.01379,-1.9127,0.183457\H,0,2.09087,-0.0978246,2.1719
 6\H,0,0.336187,0.326157,1.94388\H,0,1.41635,1.52704,2.70045\H,0,0.9626

 Normal termination of Gaussian 16 at Tue Apr  8 20:32:41 2025.
