 Gaussian 16, Revision C.01,

 ----------------------------------------------------------------------
 #t hf aug-cc-pvdz symm=none int=(grid=ultrafine) guess=(read,tcheck) s
 table=(opt,rrhf)
 ----------------------------------------------------------------------
 -----
 title
 -----
 Symbolic Z-matrix:
 Charge =  0 Multiplicity = 1

 SCF Done:  E(RHF) =  -833.410707901     A.U. after   14 cycles
 Normal termination of Gaussian 16 at Tue Apr  8 21:06:30 2025.
 Gaussian 16:  ES64L-G16RevC.01  3-Jul-2019

 ----------------------------------------------------------------------
 #t hf aug-cc-pvdz iop(5/13=1,5/36=2,99/5=2) pseudo=read geom=check gue
 ss=(read,tcheck) scf=(maxcycle=1)
 ----------------------------------------------------------------------
 -----
 title
 -----
 Structure from the checkpoint file:  "ANI1ccx_1760_conf52_mol1.chk"
 Charge =  0 Multiplicity = 1

                         Standard orientation:
 ---------------------------------------------------------------------
 Center     Atomic      Atomic             Coordinates (Angstroms)
 Number     Number       Type             X           Y           Z
 ---------------------------------------------------------------------
      1          6           0        1.756989    0.962858   -0.860793
      2          6           0       -1.905818   -1.956142    0.662803
      3          6           0       -2.045979   -1.156162   -0.649103
      4          6           0       -2.165801    1.010458    0.773641
      5          6           0       -3.476438   -1.547243   -1.129480
      6          6           0        3.164631   -0.973104    0.364137
      7          6           0        2.921260    0.545492    0.088114
      8          6           0        0.470058    0.321352   -0.429591
      9          6           0       -1.829390    0.400220   -0.631074
     10          1           0       -0.902984   -2.097951    1.020130
     11          1           0       -1.397112    2.224718    2.033620
     12          1           0       -3.839069   -1.075094   -2.114620
     13          1           0       -4.021669   -0.957941   -0.388643
     14          1           0       -3.696348   -2.575274   -1.058430
     15          1           0       -2.318699   -1.380912    1.519590
     16          1           0       -2.552817   -2.935423    0.674231
     17          1           0       -1.327908   -1.641991   -1.349910
     18          1           0       -0.593615    1.609469   -1.599200
     19          1           0        2.323201   -1.349108   -1.241900
     20          1           0        3.904119    1.045793   -0.153519
     21          1           0        2.786989    1.092412    1.049820
     22          1           0        1.953410    0.757612   -1.962180
     23          1           0        1.518408    2.864371   -0.004983
     24          1           0        2.261738    2.791402   -1.429980
     25          1           0       -2.688471    0.843938   -1.192900
     26          7           0        1.456438    2.399181   -0.925710
     27          7           0       -0.648391    0.712757   -1.129090
     28          8           0       -3.004540    0.623622    1.548540
     29          8           0        0.420988   -0.537421    0.482339
     30          8           0        3.880221   -1.152927    1.352380
     31          8           0        2.794922   -1.837098   -0.533349
     32          8           0       -1.391912    2.073078    1.081410
 ---------------------------------------------------------------------

 SCF Done:  E(RHF) =  -837.143814749     A.U. after    2 cycles

 The electronic state is 1-A.
 Alpha  occ. eigenvalues --  -21.14710 -21.12842 -21.05550 -21.05380 -21.03617
 Alpha  occ. eigenvalues --  -15.78511 -15.77972 -11.57418 -11.55040 -11.53574
 Alpha  occ. eigenvalues --  -11.49450 -11.48591 -11.42935 -11.41904 -11.37619
 Alpha  occ. eigenvalues --  -11.34447  -1.84214  -1.83733  -1.73358  -1.66034
 Alpha  occ. eigenvalues --   -1.65086  -1.47800  -1.39024  -1.21923  -1.13832
 Alpha  occ. eigenvalues --   -1.07128  -0.98011  -0.96919  -0.87256  -0.84644
 Alpha  occ. eigenvalues --   -0.80954  -0.77058  -0.76062  -0.72516  -0.70096
 Alpha  occ. eigenvalues --   -0.66417  -0.63440  -0.62994  -0.61770  -0.60511
 Alpha  occ. eigenvalues --   -0.59503  -0.57852  -0.57054  -0.53693  -0.53008
 Alpha  occ. eigenvalues --   -0.51842  -0.51256  -0.49773  -0.48983  -0.48520
 Alpha  occ. eigenvalues --   -0.46579  -0.45848  -0.45135  -0.42819  -0.42034
 Alpha  occ. eigenvalues --   -0.41548  -0.36439  -0.33904  -0.32570  -0.31660
 Alpha  occ. eigenvalues --   -0.28296  -0.27839
 Alpha virt. eigenvalues --    0.02590   0.03232   0.03350   0.03990   0.04766
 Alpha virt. eigenvalues --    0.05391   0.06122   0.06223   0.06821   0.07088
 Alpha virt. eigenvalues --    0.07778   0.08001   0.08322   0.08510   0.09555

 Mulliken charges:
               1
     1  C   -2.064389
     2  C   -4.186529
     3  C   -0.595553
     4  C    7.294241
     5  C   -4.800095
     6  C    5.688096
     7  C   -3.042734
     8  C    7.061011
     9  C   -2.697184
    10  H    1.800254
    11  H    0.867632
    12  H    1.237391
    13  H    1.365753
    14  H    1.174575
    15  H    1.504808
    16  H    1.071521
    17  H    1.816477
    18  H    0.677892
    19  H    1.120330
    20  H    1.563010
    21  H    1.316272
    22  H    1.900937
    23  H    0.601272
    24  H    0.460192
    25  H    2.023449
    26  N   -2.599962
    27  N   -3.707651
    28  O   -3.326626
    29  O   -3.685215
    30  O   -3.129102
    31  O   -3.316657
    32  O   -3.393420
 Sum of Mulliken charges =  -0.00000

 Dipole moment (field-independent basis, Debye):
    X=              0.4058    Y=              3.3976    Z=             -2.3663  Tot=              4.1603

 Test job not archived.
 1\1\GINC-SE177\SP\RHF\Aug-CC-pVDZ\C9H16N2O5\OHZDE\08-Apr-2025\0\\#t hf
  aug-cc-pvdz iop(5/13=1,5/36=2,99/5=2) pseudo=read geom=check guess=(r
 ead,tcheck) scf=(maxcycle=1)\\title\\0,1\C,0,1.75699,0.962857,-0.86079
 3\C,0,-1.90582,-1.95614,0.662803\C,0,-2.04598,-1.15616,-0.649103\C,0,-
 2.1658,1.01046,0.773641\C,0,-3.47644,-1.54724,-1.12948\C,0,3.16463,-0.
 973107,0.364137\C,0,2.92126,0.54549,0.0881137\C,0,0.470058,0.321352,-0
 .429591\C,0,-1.82939,0.400222,-0.631074\H,0,-0.902986,-2.09795,1.02013
 \H,0,-1.39711,2.22472,2.03362\H,0,-3.83907,-1.07509,-2.11462\H,0,-4.02

 Normal termination of Gaussian 16 at Tue Apr  8 21:07:15 2025.
