 Gaussian 16, Revision C.01,

 ----------------------------------------------------------------------
 #t hf aug-cc-pvdz symm=none int=(grid=ultrafine) guess=(read,tcheck) s
 table=(opt,rrhf)
 ----------------------------------------------------------------------
 -----
 title
 -----
 Symbolic Z-matrix:
 Charge =  0 Multiplicity = 1

 SCF Done:  E(RHF) =  -217.908641371     A.U. after   13 cycles
 Normal termination of Gaussian 16 at Tue Apr  8 21:16:19 2025.
 Gaussian 16:  ES64L-G16RevC.01  3-Jul-2019

 ----------------------------------------------------------------------
 #t hf aug-cc-pvdz iop(5/13=1,5/36=2,99/5=2) pseudo=read geom=check gue
 ss=(read,tcheck) scf=(maxcycle=1)
 ----------------------------------------------------------------------
 -----
 title
 -----
 Structure from the checkpoint file:  "ANI1ccx_1908_conf19_mol1.chk"
 Charge =  0 Multiplicity = 1

                         Standard orientation:
 ---------------------------------------------------------------------
 Center     Atomic      Atomic             Coordinates (Angstroms)
 Number     Number       Type             X           Y           Z
 ---------------------------------------------------------------------
      1          7           0       -2.118327    0.014655   -0.027265
      2          7           0       -1.032068   -0.097518    0.037970
      3          7           0        1.381273    0.557419   -0.000947
      4          7           0        1.769122   -0.474556   -0.009757
 ---------------------------------------------------------------------

 SCF Done:  E(RHF) =  -218.812183165     A.U. after    2 cycles

 The electronic state is 1-A.
 Alpha  occ. eigenvalues --  -15.87355 -15.86756 -15.86587 -15.86392  -1.57130
 Alpha  occ. eigenvalues --   -1.55825  -0.80889  -0.77906  -0.61748  -0.58489
 Alpha  occ. eigenvalues --   -0.58325  -0.57289  -0.56862  -0.53307
 Alpha virt. eigenvalues --    0.10317   0.11383   0.12077   0.13307   0.13809
 Alpha virt. eigenvalues --    0.13897   0.14562   0.14749   0.16215   0.19235
 Alpha virt. eigenvalues --    0.19746   0.23371   0.25789   0.29136   0.29301

 Mulliken charges:
               1
     1  N    0.458415
     2  N   -0.476395
     3  N    0.175236
     4  N   -0.157256
 Sum of Mulliken charges =  -0.00000

 Dipole moment (field-independent basis, Debye):
    X=             -0.1549    Y=              0.0098    Z=              0.0071  Tot=              0.1554

 Test job not archived.
 1\1\GINC-SE072\SP\RHF\Aug-CC-pVDZ\N4\OHZDE\08-Apr-2025\0\\#t hf aug-cc
 -pvdz iop(5/13=1,5/36=2,99/5=2) pseudo=read geom=check guess=(read,tch
 eck) scf=(maxcycle=1)\\title\\0,1\N,0,-2.11833,0.014655,-0.0272655\N,0
 ,-1.03207,-0.0975184,0.0379698\N,0,1.38127,0.557419,-0.00094719\N,0,1.
 76912,-0.474556,-0.00975715\\Version=ES64L-G16RevC.01\State=1-A\HF=-21
 8.8121832\RMSD=1.837e-01\Dipole=-0.0609423,0.0038558,0.0027877\Quadrup
 ole=-0.4785221,-0.0417176,0.5202397,0.2780189,-0.0291275,-0.0000731\PG
 =C01 [X(N4)]\\@

 Normal termination of Gaussian 16 at Tue Apr  8 21:16:21 2025.
