 Gaussian 16, Revision C.01,

 ----------------------------------------------------------------------
 #t hf aug-cc-pvdz symm=none int=(grid=ultrafine) guess=(read,tcheck) s
 table=(opt,rrhf)
 ----------------------------------------------------------------------
 -----
 title
 -----
 Symbolic Z-matrix:
 Charge =  0 Multiplicity = 1

 SCF Done:  E(RHF) =  -577.551345642     A.U. after   15 cycles
 Normal termination of Gaussian 16 at Tue Apr  8 22:15:54 2025.
 Gaussian 16:  ES64L-G16RevC.01  3-Jul-2019

 ----------------------------------------------------------------------
 #t hf aug-cc-pvdz iop(5/13=1,5/36=2,99/5=2) pseudo=read geom=check gue
 ss=(read,tcheck) scf=(maxcycle=1)
 ----------------------------------------------------------------------
 -----
 title
 -----
 Structure from the checkpoint file:  "ANI1ccx_949_conf1_mol2.chk"
 Charge =  0 Multiplicity = 1

                         Standard orientation:
 ---------------------------------------------------------------------
 Center     Atomic      Atomic             Coordinates (Angstroms)
 Number     Number       Type             X           Y           Z
 ---------------------------------------------------------------------
      1          6           0        1.375100    0.747891    0.017347
      2          6           0        1.631490   -1.411351   -0.106935
      3          6           0       -1.520450   -1.048170    0.667774
      4          6           0       -2.144390   -0.096354   -0.333183
      5          1           0       -2.429220    1.696020   -0.649914
      6          1           0       -1.362890   -2.015740    0.178859
      7          1           0       -0.063398   -0.992410    2.116160
      8          1           0       -2.249800   -1.142420    1.462830
      9          1           0        1.566641    2.690129    0.285488
     10          1           0        0.211699    2.002839    1.067020
     11          1           0        1.433170   -2.478191    0.083735
     12          7           0        0.850671    1.966559    0.301483
     13          7           0        2.459960    0.523477   -0.695390
     14          7           0        2.606780   -0.842138   -0.729214
     15          7           0        0.791101   -0.429579    0.420809
     16          7           0       -0.301195   -0.488225    1.283170
     17          8           0       -2.019770    1.196960    0.058884
     18          8           0       -2.731220   -0.449832   -1.318910
 ---------------------------------------------------------------------

 SCF Done:  E(RHF) =  -580.098197582     A.U. after    2 cycles

 The electronic state is 1-A.
 Alpha  occ. eigenvalues --  -21.14039 -21.07718 -15.81038 -15.80341 -15.77519
 Alpha  occ. eigenvalues --  -15.74013 -15.71685 -11.55280 -11.47759 -11.45537
 Alpha  occ. eigenvalues --  -11.42608  -1.84804  -1.67856  -1.66609  -1.48428
 Alpha  occ. eigenvalues --   -1.37696  -1.24468  -1.13450  -1.06532  -0.87609
 Alpha  occ. eigenvalues --   -0.83335  -0.80889  -0.75660  -0.70760  -0.68913
 Alpha  occ. eigenvalues --   -0.66175  -0.64579  -0.62035  -0.60680  -0.58090
 Alpha  occ. eigenvalues --   -0.57203  -0.53461  -0.48166  -0.46556  -0.44358
 Alpha  occ. eigenvalues --   -0.42549  -0.38426  -0.35783  -0.34948  -0.31620
 Alpha  occ. eigenvalues --   -0.28817
 Alpha virt. eigenvalues --    0.02554   0.04256   0.04769   0.04810   0.05962
 Alpha virt. eigenvalues --    0.06710   0.06975   0.08790   0.10307   0.11294
 Alpha virt. eigenvalues --    0.11527   0.12138   0.12536   0.12948   0.13611

 Mulliken charges:
               1
     1  C    3.953546
     2  C    1.480770
     3  C   -3.291969
     4  C    6.144402
     5  H    0.955189
     6  H    1.536462
     7  H    0.770831
     8  H    1.454550
     9  H    0.560568
    10  H    0.766789
    11  H    1.633160
    12  N   -2.936730
    13  N   -1.799000
    14  N   -2.001100
    15  N   -1.508119
    16  N   -1.440787
    17  O   -3.100510
    18  O   -3.178052
 Sum of Mulliken charges =   0.00000

 Dipole moment (field-independent basis, Debye):
    X=             -3.7832    Y=              0.4737    Z=              4.7280  Tot=              6.0738

 Test job not archived.
 1\1\GINC-SE393\SP\RHF\Aug-CC-pVDZ\C4H7N5O2\OHZDE\08-Apr-2025\0\\#t hf
 aug-cc-pvdz iop(5/13=1,5/36=2,99/5=2) pseudo=read geom=check guess=(re
 ad,tcheck) scf=(maxcycle=1)\\title\\0,1\C,0,1.3751,0.747892,0.017347\C
 ,0,1.63149,-1.41135,-0.106935\C,0,-1.52045,-1.04817,0.667774\C,0,-2.14
 439,-0.0963539,-0.333183\H,0,-2.42922,1.69602,-0.649914\H,0,-1.36289,-
 2.01574,0.178859\H,0,-0.063398,-0.992409,2.11616\H,0,-2.2498,-1.14242,
 1.46283\H,0,1.56664,2.69013,0.285488\H,0,0.211699,2.00284,1.06702\H,0,
 1.43317,-2.47819,0.0837352\N,0,0.850671,1.96656,0.301483\N,0,2.45996,0

 Normal termination of Gaussian 16 at Tue Apr  8 22:16:04 2025.
