 Gaussian 16, Revision C.01,

 ----------------------------------------------------------------------
 #t hf aug-cc-pvdz symm=none int=(grid=ultrafine) guess=(read,tcheck) s
 table=(opt,rrhf)
 ----------------------------------------------------------------------
 -----
 title
 -----
 Symbolic Z-matrix:
 Charge = -1 Multiplicity = 1

 SCF Done:  E(RHF) =  -278.966983975     A.U. after   11 cycles
 Normal termination of Gaussian 16 at Tue Apr  8 22:21:11 2025.
 Gaussian 16:  ES64L-G16RevC.01  3-Jul-2019

 ----------------------------------------------------------------------
 #t hf aug-cc-pvdz iop(5/13=1,5/36=2,99/5=2) pseudo=read geom=check gue
 ss=(read,tcheck) scf=(maxcycle=1)
 ----------------------------------------------------------------------
 -----
 title
 -----
 Structure from the checkpoint file:  "Anionpi_TFZ_NO3m_mol3.chk"
 Charge = -1 Multiplicity = 1

                         Standard orientation:
 ---------------------------------------------------------------------
 Center     Atomic      Atomic             Coordinates (Angstroms)
 Number     Number       Type             X           Y           Z
 ---------------------------------------------------------------------
      1          7           0       -0.012244    0.000301    0.000000
      2          8           0        0.035202    1.273946    0.000000
      3          8           0       -0.012244   -0.637105    1.103690
      4          8           0       -0.012244   -0.637105   -1.103690
 ---------------------------------------------------------------------

 SCF Done:  E(RHF) =  -280.117571265     A.U. after    2 cycles

 The electronic state is 1-A'.
 Alpha  occ. eigenvalues --  -20.85151 -20.85019 -20.85019 -15.79074  -1.79171
 Alpha  occ. eigenvalues --   -1.43457  -1.43457  -0.64202  -0.45478  -0.41835
 Alpha  occ. eigenvalues --   -0.41835  -0.14653  -0.14653  -0.10366  -0.10366
 Alpha  occ. eigenvalues --   -0.02953
 Alpha virt. eigenvalues --    0.27113   0.28704   0.28704   0.33001   0.36852
 Alpha virt. eigenvalues --    0.38586   0.40209   0.40209   0.42008   0.42008
 Alpha virt. eigenvalues --    0.44987   0.44987   0.45950   0.55890   0.57326

 Mulliken charges:
               1
     1  N    6.314675
     2  O   -2.438224
     3  O   -2.438225
     4  O   -2.438225
 Sum of Mulliken charges =  -1.00000

 Dipole moment (field-independent basis, Debye):
    X=              0.0395    Y=             -0.0010    Z=             -0.0000  Tot=              0.0395

 Test job not archived.
 1\1\GINC-SE090\SP\RHF\Aug-CC-pVDZ\N1O3(1-)\OHZDE\08-Apr-2025\0\\#t hf
 aug-cc-pvdz iop(5/13=1,5/36=2,99/5=2) pseudo=read geom=check guess=(re
 ad,tcheck) scf=(maxcycle=1)\\title\\-1,1\N,0,0.,0.,-1.94782\O,0,1.2744
 3,0.,-1.932\O,0,-0.63721,1.10369,-1.932\O,0,-0.63721,-1.10369,-1.932\\
 Version=ES64L-G16RevC.01\State=1-A'\HF=-280.1175713\RMSD=1.035e-01\Dip
 ole=-0.0000031,0.,0.0155493\Quadrupole=-1.6592716,-1.6592261,3.3184978
 ,0.,0.0000004,0.\PG=CS [SG(N1O1),X(O2)]\\@

 Normal termination of Gaussian 16 at Tue Apr  8 22:21:12 2025.
