 Gaussian 16, Revision C.01,

 ----------------------------------------------------------------------
 #t hf aug-cc-pvdz symm=none int=(grid=ultrafine) guess=(read,tcheck) s
 table=(opt,rrhf)
 ----------------------------------------------------------------------
 -----
 title
 -----
 Symbolic Z-matrix:
 Charge =  0 Multiplicity = 1

 SCF Done:  E(RHF) =  -497.147202563     A.U. after   14 cycles
 Normal termination of Gaussian 16 at Tue Apr  8 22:27:59 2025.
 Gaussian 16:  ES64L-G16RevC.01  3-Jul-2019

 ----------------------------------------------------------------------
 #t hf aug-cc-pvdz iop(5/13=1,5/36=2,99/5=2) pseudo=read geom=check gue
 ss=(read,tcheck) scf=(maxcycle=1)
 ----------------------------------------------------------------------
 -----
 title
 -----
 Structure from the checkpoint file:  "B-set_borepin_borazine_125_dimer_mol1.chk"
 Charge =  0 Multiplicity = 1

                         Standard orientation:
 ---------------------------------------------------------------------
 Center     Atomic      Atomic             Coordinates (Angstroms)
 Number     Number       Type             X           Y           Z
 ---------------------------------------------------------------------
      1          6           0       -1.631227   -1.143260    1.207413
      2          6           0       -2.297695   -1.529462    0.084853
      3          6           0       -1.324528    0.155625    1.690749
      4          1           0       -1.271750   -1.952778    1.832089
      5          6           0       -2.890007   -0.749303   -0.943321
      6          1           0       -2.392324   -2.600748   -0.050137
      7          6           0       -1.611680    1.366726    1.138207
      8          1           0       -0.772725    0.152371    2.626206
      9          6           0       -2.927515    0.605592   -1.080916
     10          1           0       -3.369167   -1.342628   -1.717157
     11          1           0       -1.248053    2.212164    1.716031
     12          5           0       -2.344288    1.671159   -0.161771
     13          1           0       -3.448430    0.944727   -1.972622
     14          1           0       -2.475482    2.819766   -0.477888
     15          5           0        3.296948   -0.000160    0.840369
     16          7           0        2.887647    1.204847    0.203802
     17          7           0        2.838322   -1.226220    0.277048
     18          1           0        3.994849    0.013525    1.811151
     19          5           0        2.035705    1.220310   -0.940679
     20          1           0        3.193126    2.080882    0.586184
     21          5           0        2.001593   -1.277867   -0.878118
     22          1           0        3.122648   -2.088415    0.704514
     23          7           0        1.628485   -0.038553   -1.467774
     24          1           0        1.686093    2.246950   -1.440812
     25          1           0        1.636990   -2.321462   -1.332454
     26          1           0        1.009172   -0.047597   -2.257554
 ---------------------------------------------------------------------

 SCF Done:  E(RHF) =  -499.453151804     A.U. after    2 cycles

 The electronic state is 1-A.
 Alpha  occ. eigenvalues --  -15.67865 -15.67715 -15.67527 -11.49320 -11.44746
 Alpha  occ. eigenvalues --  -11.42799 -11.41074 -11.38539 -11.36147  -7.61208
 Alpha  occ. eigenvalues --   -7.61126  -7.59654  -7.59171  -1.47978  -1.29765
 Alpha  occ. eigenvalues --   -1.29310  -1.29266  -1.15229  -1.09538  -0.91452
 Alpha  occ. eigenvalues --   -0.89278  -0.84405  -0.84355  -0.76391  -0.71177
 Alpha  occ. eigenvalues --   -0.69662  -0.68934  -0.61900  -0.58015  -0.57437
 Alpha  occ. eigenvalues --   -0.57404  -0.57037  -0.56263  -0.51895  -0.49842
 Alpha  occ. eigenvalues --   -0.48403  -0.47886  -0.40996  -0.40589  -0.40492
 Alpha  occ. eigenvalues --   -0.40053  -0.38678  -0.38584  -0.37120  -0.31234
 Alpha virt. eigenvalues --    0.01852   0.01947   0.02459   0.03303   0.05059
 Alpha virt. eigenvalues --    0.05131   0.05759   0.05956   0.06270   0.06410
 Alpha virt. eigenvalues --    0.07062   0.07618   0.07726   0.07937   0.08203

 Mulliken charges:
               1
     1  C   -1.426509
     2  C   -0.763127
     3  C   -0.870049
     4  H    1.540718
     5  C   -1.074687
     6  H    1.500435
     7  C   -3.803744
     8  H    1.446775
     9  C   -3.628106
    10  H    1.377075
    11  H    1.453986
    12  B    8.146537
    13  H    1.341993
    14  H   -5.191422
    15  B    7.338783
    16  N   -3.642561
    17  N   -3.626191
    18  H   -4.882666
    19  B    8.233834
    20  H    1.110717
    21  B    8.113270
    22  H    1.106517
    23  N   -4.316450
    24  H   -5.333997
    25  H   -5.279162
    26  H    1.128027
 Sum of Mulliken charges =  -0.00000

 Dipole moment (field-independent basis, Debye):
    X=              0.1136    Y=             -2.2096    Z=              0.6500  Tot=              2.3060

 Test job not archived.
 1\1\GINC-SE435\SP\RHF\Aug-CC-pVDZ\C6H13B4N3\OHZDE\08-Apr-2025\0\\#t hf
  aug-cc-pvdz iop(5/13=1,5/36=2,99/5=2) pseudo=read geom=check guess=(r
 ead,tcheck) scf=(maxcycle=1)\\title\\0,1\C,0,-1.1002,-1.1557,1.24379\C
 ,0,-1.87153,-1.52215,0.18349\C,0,-0.73895,0.13441,1.71272\H,0,-0.6909,
 -1.97601,1.822\C,0,-2.55047,-0.72416,-0.77509\H,0,-1.98729,-2.59084,0.
 04445\C,0,-1.06616,1.35478,1.20463\H,0,-0.10247,0.11476,2.59254\C,0,-2
 .58928,0.63268,-0.89154\H,0,-3.10457,-1.30369,-1.50828\H,0,-0.64323,2.
 18983,1.75662\B,0,-1.91408,1.68172,-0.01745\H,0,-3.18812,0.98737,-1.72

 Normal termination of Gaussian 16 at Tue Apr  8 22:28:20 2025.
