 Gaussian 16, Revision C.01,

 ----------------------------------------------------------------------
 #t hf aug-cc-pvdz symm=none int=(grid=ultrafine) guess=(read,tcheck) s
 table=(opt,rrhf)
 ----------------------------------------------------------------------
 -----
 title
 -----
 Symbolic Z-matrix:
 Charge =  0 Multiplicity = 1

 SCF Done:  E(RHF) =  -481.968832165     A.U. after   14 cycles
 Normal termination of Gaussian 16 at Tue Apr  8 22:26:03 2025.
 Gaussian 16:  ES64L-G16RevC.01  3-Jul-2019

 ----------------------------------------------------------------------
 #t hf aug-cc-pvdz iop(5/13=1,5/36=2,99/5=2) pseudo=read geom=check gue
 ss=(read,tcheck) scf=(maxcycle=1)
 ----------------------------------------------------------------------
 -----
 title
 -----
 Structure from the checkpoint file:  "B-set_boricacid_benzene_105_dimer_mol1.chk"
 Charge =  0 Multiplicity = 1

                         Standard orientation:
 ---------------------------------------------------------------------
 Center     Atomic      Atomic             Coordinates (Angstroms)
 Number     Number       Type             X           Y           Z
 ---------------------------------------------------------------------
      1          5           0        2.600722   -0.180994   -0.004141
      2          8           0        3.886494   -0.648498   -0.020122
      3          8           0        1.559516   -1.055217   -0.017328
      4          8           0        2.384683    1.170940    0.025217
      5          1           0        3.925518   -1.602602   -0.040261
      6          1           0        0.701381   -0.625520   -0.004562
      7          1           0        3.202924    1.663869    0.031588
      8          6           0       -2.763573   -0.752656   -0.725857
      9          6           0       -1.981526    0.185236   -1.383471
     10          6           0       -2.771201   -0.800795    0.660180
     11          1           0       -3.364547   -1.449220   -1.294133
     12          6           0       -1.205499    1.075300   -0.654787
     13          1           0       -1.971787    0.219548   -2.464189
     14          6           0       -1.996822    0.088988    1.389803
     15          1           0       -3.378040   -1.534903    1.172185
     16          6           0       -1.213207    1.027141    0.733050
     17          1           0       -0.580147    1.796535   -1.161631
     18          1           0       -1.999055    0.048420    2.470347
     19          1           0       -0.594435    1.711771    1.295716
 ---------------------------------------------------------------------

 SCF Done:  E(RHF) =  -484.111857621     A.U. after    2 cycles

 The electronic state is 1-A.
 Alpha  occ. eigenvalues --  -21.05378 -21.05217 -21.04418 -11.52034 -11.42757
 Alpha  occ. eigenvalues --  -11.42593 -11.40208 -11.40159 -11.36165  -7.64734
 Alpha  occ. eigenvalues --   -1.87470  -1.65893  -1.65581  -1.34490  -1.09390
 Alpha  occ. eigenvalues --   -1.09350  -0.86088  -0.86029  -0.77546  -0.72608
 Alpha  occ. eigenvalues --   -0.65626  -0.64033  -0.63783  -0.58497  -0.58414
 Alpha  occ. eigenvalues --   -0.56252  -0.51891  -0.51559  -0.50772  -0.44872
 Alpha  occ. eigenvalues --   -0.44838  -0.39008  -0.38745  -0.36384  -0.36018
 Alpha  occ. eigenvalues --   -0.33282  -0.33088
 Alpha virt. eigenvalues --    0.03279   0.04258   0.04849   0.04882   0.05543
 Alpha virt. eigenvalues --    0.05763   0.06659   0.06746   0.07578   0.07716
 Alpha virt. eigenvalues --    0.08614   0.09764   0.11239   0.11485   0.11709

 Mulliken charges:
               1
     1  B    8.277645
     2  O   -3.942337
     3  O   -4.269899
     4  O   -3.934579
     5  H    1.156560
     6  H    1.655226
     7  H    1.182436
     8  C   -1.552464
     9  C   -1.649724
    10  C   -1.551045
    11  H    1.516173
    12  C   -1.532738
    13  H    1.537788
    14  C   -1.647687
    15  H    1.515497
    16  C   -1.539183
    17  H    1.622763
    18  H    1.537480
    19  H    1.618088
 Sum of Mulliken charges =  -0.00000

 Dipole moment (field-independent basis, Debye):
    X=             -0.4745    Y=              0.0745    Z=             -0.0014  Tot=              0.4803

 Test job not archived.
 1\1\GINC-SE226\SP\RHF\Aug-CC-pVDZ\C6H9B1O3\OHZDE\08-Apr-2025\0\\#t hf
 aug-cc-pvdz iop(5/13=1,5/36=2,99/5=2) pseudo=read geom=check guess=(re
 ad,tcheck) scf=(maxcycle=1)\\title\\0,1\B,0,2.47525,0.1904,0.00446\O,0
 ,3.75759,0.66722,0.02093\O,0,1.42772,1.05703,0.01798\O,0,2.26904,-1.16
 305,-0.02572\H,0,3.78968,1.62157,0.04163\H,0,0.57273,0.62112,0.00482\H
 ,0,3.09084,-1.65002,-0.03224\C,0,-2.89317376,0.72266774,0.7256053\C,0,
 -2.10444376,-0.20990226,1.3828053\C,0,-2.90092376,0.77155774,-0.660404
 7\H,0,-3.49928376,1.41451774,1.2941853\C,0,-1.32185376,-1.09388226,0.6

 Normal termination of Gaussian 16 at Tue Apr  8 22:26:13 2025.
