 Gaussian 16, Revision C.01,

 ----------------------------------------------------------------------
 #t hf aug-cc-pvdz symm=none int=(grid=ultrafine) guess=(read,tcheck) s
 table=(opt,rrhf)
 ----------------------------------------------------------------------
 -----
 title
 -----
 Symbolic Z-matrix:
 Charge =  0 Multiplicity = 1

 SCF Done:  E(RHF) =  -234.163367867     A.U. after   15 cycles
 Normal termination of Gaussian 16 at Tue Apr  8 22:21:21 2025.
 Gaussian 16:  ES64L-G16RevC.01  3-Jul-2019

 ----------------------------------------------------------------------
 #t hf aug-cc-pvdz iop(5/13=1,5/36=2,99/5=2) pseudo=read geom=check gue
 ss=(read,tcheck) scf=(maxcycle=1)
 ----------------------------------------------------------------------
 -----
 title
 -----
 Structure from the checkpoint file:  "B-set_azaborine_benzene_090_dimer_mol2.chk"
 Charge =  0 Multiplicity = 1

                         Standard orientation:
 ---------------------------------------------------------------------
 Center     Atomic      Atomic             Coordinates (Angstroms)
 Number     Number       Type             X           Y           Z
 ---------------------------------------------------------------------
      1          7           0       -1.271789    0.482340   -0.000399
      2          5           0       -0.230483    1.456941    0.000101
      3          6           0       -1.046014   -0.855129    0.000017
      4          1           0       -2.239801    0.762015    0.000593
      5          6           0        1.169640    0.889107    0.000041
      6          1           0       -0.541903    2.610171    0.000610
      7          6           0        0.217509   -1.351813    0.000041
      8          1           0       -1.917305   -1.495525    0.000693
      9          6           0        1.327107   -0.467692   -0.000082
     10          1           0        2.060263    1.505334    0.000154
     11          1           0        0.365850   -2.421111    0.000349
     12          1           0        2.318382   -0.908803   -0.000203
 ---------------------------------------------------------------------

 SCF Done:  E(RHF) =  -235.275698573     A.U. after    2 cycles

 The electronic state is 1-A.
 Alpha  occ. eigenvalues --  -15.74992 -11.46556 -11.43052 -11.37742 -11.34033
 Alpha  occ. eigenvalues --   -7.59081  -1.45006  -1.19020  -1.07684  -0.86456
 Alpha  occ. eigenvalues --   -0.85007  -0.73787  -0.65171  -0.60863  -0.55543
 Alpha  occ. eigenvalues --   -0.54008  -0.53072  -0.43913  -0.41095  -0.37853
 Alpha  occ. eigenvalues --   -0.29326
 Alpha virt. eigenvalues --    0.03040   0.04296   0.04579   0.05535   0.05933
 Alpha virt. eigenvalues --    0.05957   0.07682   0.08920   0.09881   0.10110
 Alpha virt. eigenvalues --    0.12524   0.12809   0.12978   0.14645   0.14933

 Mulliken charges:
               1
     1  N   -3.822622
     2  B    6.005358
     3  C   -0.195746
     4  H    1.055711
     5  C   -2.844987
     6  H   -4.199695
     7  C   -0.608246
     8  H    1.449869
     9  C   -1.034258
    10  H    1.335070
    11  H    1.408772
    12  H    1.450774
 Sum of Mulliken charges =  -0.00000

 Dipole moment (field-independent basis, Debye):
    X=             -1.6436    Y=             -1.5376    Z=              0.0016  Tot=              2.2507

 Test job not archived.
 1\1\GINC-SE247\SP\RHF\Aug-CC-pVDZ\C4H6B1N1\OHZDE\08-Apr-2025\0\\#t hf
 aug-cc-pvdz iop(5/13=1,5/36=2,99/5=2) pseudo=read geom=check guess=(re
 ad,tcheck) scf=(maxcycle=1)\\title\\0,1\N,0,-0.98689,0.19856,0.05529\B
 ,0,-1.78972,1.37715,0.03178\C,0,-1.49918,-1.05725,0.03801\H,0,0.01841,
 0.25995,0.08478\C,0,-3.2794,1.12899,-0.0135\H,0,-1.2341,2.43446,0.0492
 3\C,0,-2.84008,-1.26583,-0.00281\H,0,-0.78916,-1.87256,0.05793\C,0,-3.
 7293,-0.16061,-0.02839\H,0,-4.01353,1.92494,-0.03496\H,0,-3.21828,-2.2
 7687,-0.01566\H,0,-4.79252,-0.37445,-0.06067\\Version=ES64L-G16RevC.01

 Normal termination of Gaussian 16 at Tue Apr  8 22:21:25 2025.
