 Gaussian 16, Revision C.01,

 ----------------------------------------------------------------------
 #t hf aug-cc-pvdz symm=none int=(grid=ultrafine) guess=(read,tcheck) s
 table=(opt,rrhf)
 ----------------------------------------------------------------------
 -----
 title
 -----
 Symbolic Z-matrix:
 Charge =  0 Multiplicity = 1

 SCF Done:  E(RHF) =  -481.927509162     A.U. after   14 cycles
 Normal termination of Gaussian 16 at Tue Apr  8 22:28:30 2025.
 Gaussian 16:  ES64L-G16RevC.01  3-Jul-2019

 ----------------------------------------------------------------------
 #t hf aug-cc-pvdz iop(5/13=1,5/36=2,99/5=2) pseudo=read geom=check gue
 ss=(read,tcheck) scf=(maxcycle=1)
 ----------------------------------------------------------------------
 -----
 title
 -----
 Structure from the checkpoint file:  "B-set_phenylboronicacid_h2o_110_dimer_mol1.chk"
 Charge =  0 Multiplicity = 1

                         Standard orientation:
 ---------------------------------------------------------------------
 Center     Atomic      Atomic             Coordinates (Angstroms)
 Number     Number       Type             X           Y           Z
 ---------------------------------------------------------------------
      1          6           0       -1.336071    1.196680   -0.000165
      2          6           0       -2.721621    1.199572    0.000745
      3          6           0       -0.617482    0.000326   -0.000665
      4          1           0       -0.796807    2.134887   -0.000465
      5          6           0       -3.415612   -0.001203    0.001145
      6          1           0       -3.262207    2.136675    0.001105
      7          6           0       -1.334763   -1.196810   -0.000225
      8          5           0        0.948958    0.001143   -0.001665
      9          6           0       -2.720312   -1.201218    0.000635
     10          1           0       -4.497592   -0.001786    0.001825
     11          1           0       -0.794486   -2.134433   -0.000635
     12          8           0        1.605879    1.200425   -0.002095
     13          8           0        1.607307   -1.197365   -0.002005
     14          1           0       -3.259876   -2.138905    0.000935
     15          1           0        2.561234    1.106383   -0.002455
     16          1           0        2.562543   -1.101467   -0.002545
     17          8           0        4.876549   -0.001181    0.002829
     18          1           0        5.445639   -0.003793    0.771479
     19          1           0        5.454039   -0.002392   -0.759551
 ---------------------------------------------------------------------

 SCF Done:  E(RHF) =  -484.074116571     A.U. after    2 cycles

 The electronic state is 1-A.
 Alpha  occ. eigenvalues --  -21.13663 -21.04536 -21.04511 -11.49907 -11.41221
 Alpha  occ. eigenvalues --  -11.40830 -11.38788 -11.38742 -11.33791  -7.64399
 Alpha  occ. eigenvalues --   -1.80814  -1.70009  -1.64601  -1.32568  -1.08507
 Alpha  occ. eigenvalues --   -1.07458  -0.86603  -0.84693  -0.75450  -0.68592
 Alpha  occ. eigenvalues --   -0.67326  -0.65568  -0.61714  -0.56395  -0.55221
 Alpha  occ. eigenvalues --   -0.54335  -0.51239  -0.50335  -0.47794  -0.46027
 Alpha  occ. eigenvalues --   -0.43433  -0.39095  -0.38311  -0.35578  -0.35193
 Alpha  occ. eigenvalues --   -0.31543  -0.31315
 Alpha virt. eigenvalues --    0.02324   0.04225   0.05026   0.05621   0.06067
 Alpha virt. eigenvalues --    0.06404   0.07158   0.07242   0.07798   0.09029
 Alpha virt. eigenvalues --    0.09315   0.10724   0.11380   0.11678   0.13291

 Mulliken charges:
               1
     1  C   -0.765366
     2  C   -1.438354
     3  C    0.119864
     4  H    2.059919
     5  C   -2.734519
     6  H    1.535505
     7  C   -0.763817
     8  B    4.543288
     9  C   -1.437435
    10  H    1.497560
    11  H    2.059685
    12  O   -4.242809
    13  O   -4.242954
    14  H    1.535545
    15  H    1.136744
    16  H    1.138244
    17  O   -2.062097
    18  H    1.030289
    19  H    1.030707
 Sum of Mulliken charges =   0.00000

 Dipole moment (field-independent basis, Debye):
    X=              3.3633    Y=             -0.0024    Z=              0.0057  Tot=              3.3633

 Test job not archived.
 1\1\GINC-SE453\SP\RHF\Aug-CC-pVDZ\C6H9B1O3\OHZDE\08-Apr-2025\0\\#t hf
 aug-cc-pvdz iop(5/13=1,5/36=2,99/5=2) pseudo=read geom=check guess=(re
 ad,tcheck) scf=(maxcycle=1)\\title\\0,1\C,0,1.25953,-1.19671,-0.0001\C
 ,0,2.64508,-1.19967,0.00081\C,0,0.541,-0.00032,-0.0006\H,0,0.72022,-2.
 13489,-0.0004\C,0,3.33913,0.00107,0.00121\H,0,3.18562,-2.1368,0.00117\
 C,0,1.25834,1.19678,-0.00016\B,0,-1.02544,-0.00106,-0.0016\C,0,2.64389
 ,1.20112,0.0007\H,0,4.42111,0.0016,0.00189\H,0,0.71811,2.13443,-0.0005
 7\O,0,-1.68242,-1.20031,-0.00203\O,0,-1.68373,1.19748,-0.00194\H,0,3.1

 Normal termination of Gaussian 16 at Tue Apr  8 22:28:39 2025.
