 Gaussian 16, Revision C.01,

 ----------------------------------------------------------------------
 #t hf aug-cc-pvdz symm=none int=(grid=ultrafine) guess=(read,tcheck) s
 table=(opt,rrhf)
 ----------------------------------------------------------------------
 -----
 title
 -----
 Symbolic Z-matrix:
 Charge =  0 Multiplicity = 1

 SCF Done:  E(RHF) =  -255.962267157     A.U. after   14 cycles
 Normal termination of Gaussian 16 at Tue Apr  8 22:23:43 2025.
 Gaussian 16:  ES64L-G16RevC.01  3-Jul-2019

 ----------------------------------------------------------------------
 #t hf aug-cc-pvdz iop(5/13=1,5/36=2,99/5=2) pseudo=read geom=check gue
 ss=(read,tcheck) scf=(maxcycle=1)
 ----------------------------------------------------------------------
 -----
 title
 -----
 Structure from the checkpoint file:  "B-set_borepin_borazine_090_dimer_mol2.chk"
 Charge =  0 Multiplicity = 1

                         Standard orientation:
 ---------------------------------------------------------------------
 Center     Atomic      Atomic             Coordinates (Angstroms)
 Number     Number       Type             X           Y           Z
 ---------------------------------------------------------------------
      1          6           0       -0.685404   -1.409326    0.003342
      2          6           0        0.676009   -1.414182    0.004412
      3          6           0       -1.598662   -0.322761   -0.007585
      4          1           0       -1.150325   -2.388306    0.017790
      5          6           0        1.596310   -0.332725   -0.006508
      6          1           0        1.134026   -2.396473    0.016926
      7          6           0       -1.341280    1.014503   -0.005797
      8          1           0       -2.640304   -0.630238   -0.003673
      9          6           0        1.348549    1.006931   -0.002303
     10          1           0        2.636144   -0.647567   -0.014854
     11          1           0       -2.233357    1.635042   -0.004299
     12          5           0        0.005427    1.725443    0.011007
     13          1           0        2.244814    1.621877   -0.009808
     14          1           0        0.008736    2.923810    0.029516
 ---------------------------------------------------------------------

 SCF Done:  E(RHF) =  -257.184314728     A.U. after    2 cycles

 The electronic state is 1-A.
 Alpha  occ. eigenvalues --  -11.49206 -11.44539 -11.42743 -11.40888 -11.38491
 Alpha  occ. eigenvalues --  -11.36069  -7.59180  -1.29801  -1.15299  -1.09596
 Alpha  occ. eigenvalues --   -0.91526  -0.89341  -0.71256  -0.69750  -0.69011
 Alpha  occ. eigenvalues --   -0.62004  -0.57146  -0.49949  -0.48515  -0.47903
 Alpha  occ. eigenvalues --   -0.41079  -0.40144  -0.37154  -0.31256
 Alpha virt. eigenvalues --    0.02906   0.04416   0.04810   0.05432   0.05578
 Alpha virt. eigenvalues --    0.05758   0.06350   0.07076   0.07336   0.08318
 Alpha virt. eigenvalues --    0.09312   0.09753   0.12433   0.12707   0.13847

 Mulliken charges:
               1
     1  C   -0.851959
     2  C   -0.859417
     3  C   -0.567236
     4  H    1.402379
     5  C   -0.582899
     6  H    1.404778
     7  C   -3.789956
     8  H    1.292910
     9  C   -3.781332
    10  H    1.290904
    11  H    1.366997
    12  B    6.759579
    13  H    1.368479
    14  H   -4.453226
 Sum of Mulliken charges =   0.00000

 Dipole moment (field-independent basis, Debye):
    X=             -0.0093    Y=             -2.4167    Z=              0.0075  Tot=              2.4167

 Test job not archived.
 1\1\GINC-SE058\SP\RHF\Aug-CC-pVDZ\C6H7B1\OHZDE\08-Apr-2025\0\\#t hf au
 g-cc-pvdz iop(5/13=1,5/36=2,99/5=2) pseudo=read geom=check guess=(read
 ,tcheck) scf=(maxcycle=1)\\title\\0,1\C,0,-1.1002,-1.1557,1.24379\C,0,
 -1.87153,-1.52215,0.18349\C,0,-0.73895,0.13441,1.71272\H,0,-0.6909,-1.
 97601,1.822\C,0,-2.55047,-0.72416,-0.77509\H,0,-1.98729,-2.59084,0.044
 45\C,0,-1.06616,1.35478,1.20463\H,0,-0.10247,0.11476,2.59254\C,0,-2.58
 928,0.63268,-0.89154\H,0,-3.10457,-1.30369,-1.50828\H,0,-0.64323,2.189
 83,1.75662\B,0,-1.91408,1.68172,-0.01745\H,0,-3.18812,0.98737,-1.72646

 Normal termination of Gaussian 16 at Tue Apr  8 22:23:47 2025.
