 Gaussian 16, Revision C.01,

 ----------------------------------------------------------------------
 #t hf aug-cc-pvdz symm=none int=(grid=ultrafine) guess=(read,tcheck) s
 table=(opt,rrhf)
 ----------------------------------------------------------------------
 -----
 title
 -----
 Symbolic Z-matrix:
 Charge =  0 Multiplicity = 1

 SCF Done:  E(RHF) =  -481.967837809     A.U. after   14 cycles
 Normal termination of Gaussian 16 at Tue Apr  8 22:26:13 2025.
 Gaussian 16:  ES64L-G16RevC.01  3-Jul-2019

 ----------------------------------------------------------------------
 #t hf aug-cc-pvdz iop(5/13=1,5/36=2,99/5=2) pseudo=read geom=check gue
 ss=(read,tcheck) scf=(maxcycle=1)
 ----------------------------------------------------------------------
 -----
 title
 -----
 Structure from the checkpoint file:  "B-set_boricacid_benzene_100_dimer_mol1.chk"
 Charge =  0 Multiplicity = 1

                         Standard orientation:
 ---------------------------------------------------------------------
 Center     Atomic      Atomic             Coordinates (Angstroms)
 Number     Number       Type             X           Y           Z
 ---------------------------------------------------------------------
      1          5           0        2.475249   -0.190401   -0.004460
      2          8           0        3.757589   -0.667221   -0.020930
      3          8           0        1.427719   -1.057031   -0.017980
      4          8           0        2.269039    1.163049    0.025720
      5          1           0        3.789679   -1.621571   -0.041630
      6          1           0        0.572729   -0.621121   -0.004820
      7          1           0        3.090839    1.650019    0.032240
      8          6           0       -2.674541   -0.739361   -0.726000
      9          6           0       -1.885811    0.193209   -1.383200
     10          6           0       -2.682291   -0.788251    0.660010
     11          1           0       -3.280651   -1.431211   -1.294580
     12          6           0       -1.103221    1.077189   -0.654130
     13          1           0       -1.876001    0.228079   -2.463900
     14          6           0       -1.901351    0.095459    1.390020
     15          1           0       -3.294361   -1.518231    1.171690
     16          6           0       -1.111051    1.028279    0.733680
     17          1           0       -0.472731    1.794159   -1.160660
     18          1           0       -1.903701    0.054279    2.470540
     19          1           0       -0.487231    1.708069    1.296640
 ---------------------------------------------------------------------

 SCF Done:  E(RHF) =  -484.112335083     A.U. after    2 cycles

 The electronic state is 1-A.
 Alpha  occ. eigenvalues --  -21.05313 -21.05129 -21.04108 -11.52077 -11.42809
 Alpha  occ. eigenvalues --  -11.42595 -11.40277 -11.40216 -11.36190  -7.64613
 Alpha  occ. eigenvalues --   -1.87374  -1.65857  -1.65459  -1.34561  -1.09450
 Alpha  occ. eigenvalues --   -1.09398  -0.86108  -0.86054  -0.77468  -0.72655
 Alpha  occ. eigenvalues --   -0.65635  -0.63995  -0.63777  -0.58521  -0.58404
 Alpha  occ. eigenvalues --   -0.56263  -0.51808  -0.51534  -0.50845  -0.44875
 Alpha  occ. eigenvalues --   -0.44843  -0.38949  -0.38715  -0.36347  -0.35964
 Alpha  occ. eigenvalues --   -0.33252  -0.32897
 Alpha virt. eigenvalues --    0.03301   0.04311   0.04883   0.04892   0.05549
 Alpha virt. eigenvalues --    0.05776   0.06651   0.06757   0.07578   0.07825
 Alpha virt. eigenvalues --    0.08634   0.09838   0.11230   0.11461   0.11742

 Mulliken charges:
               1
     1  B    8.319865
     2  O   -3.974747
     3  O   -4.341655
     4  O   -3.992209
     5  H    1.176396
     6  H    1.869320
     7  H    1.209044
     8  C   -1.575835
     9  C   -1.663728
    10  C   -1.571754
    11  H    1.517475
    12  C   -1.588050
    13  H    1.534343
    14  C   -1.662644
    15  H    1.516825
    16  C   -1.589383
    17  H    1.645471
    18  H    1.533783
    19  H    1.637480
 Sum of Mulliken charges =   0.00000

 Dipole moment (field-independent basis, Debye):
    X=             -0.4797    Y=              0.1038    Z=             -0.0007  Tot=              0.4908

 Test job not archived.
 1\1\GINC-SE099\SP\RHF\Aug-CC-pVDZ\C6H9B1O3\OHZDE\08-Apr-2025\0\\#t hf
 aug-cc-pvdz iop(5/13=1,5/36=2,99/5=2) pseudo=read geom=check guess=(re
 ad,tcheck) scf=(maxcycle=1)\\title\\0,1\B,0,2.47525,0.1904,0.00446\O,0
 ,3.75759,0.66722,0.02093\O,0,1.42772,1.05703,0.01798\O,0,2.26904,-1.16
 305,-0.02572\H,0,3.78968,1.62157,0.04163\H,0,0.57273,0.62112,0.00482\H
 ,0,3.09084,-1.65002,-0.03224\C,0,-2.67454,0.73936,0.726\C,0,-1.88581,-
 0.19321,1.3832\C,0,-2.68229,0.78825,-0.66001\H,0,-3.28065,1.43121,1.29
 458\C,0,-1.10322,-1.07719,0.65413\H,0,-1.876,-0.22808,2.4639\C,0,-1.90

 Normal termination of Gaussian 16 at Tue Apr  8 22:26:22 2025.
