 Gaussian 16, Revision C.01,

 ----------------------------------------------------------------------
 #t hf aug-cc-pvdz symm=none int=(grid=ultrafine) guess=(read,tcheck) s
 table=(opt,rrhf)
 ----------------------------------------------------------------------
 -----
 title
 -----
 Symbolic Z-matrix:
 Charge =  0 Multiplicity = 1

 SCF Done:  E(RHF) =  -502.485323923     A.U. after   11 cycles
 Normal termination of Gaussian 16 at Tue Apr  8 22:25:44 2025.
 Gaussian 16:  ES64L-G16RevC.01  3-Jul-2019

 ----------------------------------------------------------------------
 #t hf aug-cc-pvdz iop(5/13=1,5/36=2,99/5=2) pseudo=read geom=check gue
 ss=(read,tcheck) scf=(maxcycle=1)
 ----------------------------------------------------------------------
 -----
 title
 -----
 Structure from the checkpoint file:  "B-set_boricacid_boricacid_110_dimer_mol1.chk"
 Charge =  0 Multiplicity = 1

                         Standard orientation:
 ---------------------------------------------------------------------
 Center     Atomic      Atomic             Coordinates (Angstroms)
 Number     Number       Type             X           Y           Z
 ---------------------------------------------------------------------
      1          5           0        2.272188    0.026199   -0.000102
      2          8           0        3.629450   -0.122909    0.000458
      3          8           0        1.694524    1.244504   -0.000732
      4          8           0        1.504063   -1.123333   -0.000042
      5          1           0        4.088069    0.714958    0.000468
      6          1           0        0.725559    1.236511   -0.000482
      7          1           0        2.035510   -1.917630    0.000598
      8          5           0       -2.272151   -0.026157    0.000073
      9          8           0       -1.504116    1.123386    0.000413
     10          8           0       -3.629462    0.122822    0.000113
     11          8           0       -1.694496   -1.244471   -0.000297
     12          1           0       -2.035643    1.917643    0.000733
     13          1           0       -4.087871   -0.715155   -0.000097
     14          1           0       -0.725521   -1.236518   -0.000377
 ---------------------------------------------------------------------

 SCF Done:  E(RHF) =  -504.518716891     A.U. after    2 cycles

 The electronic state is 1-A.
 Alpha  occ. eigenvalues --  -21.06691 -21.06691 -21.05921 -21.05920 -21.04840
 Alpha  occ. eigenvalues --  -21.04833  -7.65794  -7.65699  -1.88478  -1.88158
 Alpha  occ. eigenvalues --   -1.67095  -1.66643  -1.66362  -1.66195  -0.78729
 Alpha  occ. eigenvalues --   -0.78266  -0.66135  -0.65258  -0.64263  -0.63671
 Alpha  occ. eigenvalues --   -0.53030  -0.52840  -0.52603  -0.51936  -0.42015
 Alpha  occ. eigenvalues --   -0.40111  -0.39463  -0.37627  -0.37339  -0.37177
 Alpha  occ. eigenvalues --   -0.36757  -0.36346
 Alpha virt. eigenvalues --    0.03027   0.03731   0.04231   0.04811   0.05516
 Alpha virt. eigenvalues --    0.06165   0.06651   0.07588   0.08379   0.08863
 Alpha virt. eigenvalues --    0.09369   0.10906   0.11623   0.13243   0.14902

 Mulliken charges:
               1
     1  B    8.056008
     2  O   -3.865932
     3  O   -4.131774
     4  O   -3.823158
     5  H    1.126833
     6  H    1.476493
     7  H    1.161513
     8  B    8.056046
     9  O   -3.823251
    10  O   -3.865769
    11  O   -4.131835
    12  H    1.161492
    13  H    1.126861
    14  H    1.476472
 Sum of Mulliken charges =  -0.00000

 Dipole moment (field-independent basis, Debye):
    X=              0.0004    Y=              0.0000    Z=              0.0010  Tot=              0.0011

 Test job not archived.
 1\1\GINC-SE015\SP\RHF\Aug-CC-pVDZ\B2H6O6\OHZDE\08-Apr-2025\0\\#t hf au
 g-cc-pvdz iop(5/13=1,5/36=2,99/5=2) pseudo=read geom=check guess=(read
 ,tcheck) scf=(maxcycle=1)\\title\\0,1\B,0,2.06504,0.02667,-0.0001\O,0,
 3.42239,-0.12163,0.00046\O,0,1.48665,1.24463,-0.00073\O,0,1.2976,-1.12
 332,-0.00004\H,0,3.88051,0.71651,0.00047\H,0,0.51769,1.23606,-0.00048\
 H,0,1.82952,-1.9173,0.0006\B,0,-2.47926686,-0.028393,0.00007514\O,0,-1
 .71191686,1.121607,0.00041514\O,0,-3.83666686,0.119777,0.00011514\O,0,
 -1.90088686,-1.246363,-0.00029486\H,0,-2.24391686,1.915547,0.00073514\

 Normal termination of Gaussian 16 at Tue Apr  8 22:25:51 2025.
