 Gaussian 16, Revision C.01,

 ----------------------------------------------------------------------
 #t hf aug-cc-pvdz symm=none int=(grid=ultrafine) guess=(read,tcheck) s
 table=(opt,rrhf)
 ----------------------------------------------------------------------
 -----
 title
 -----
 Symbolic Z-matrix:
 Charge =  0 Multiplicity = 1

 SCF Done:  E(RHF) =  -327.280617406     A.U. after   11 cycles
 Normal termination of Gaussian 16 at Tue Apr  8 22:25:40 2025.
 Gaussian 16:  ES64L-G16RevC.01  3-Jul-2019

 ----------------------------------------------------------------------
 #t hf aug-cc-pvdz iop(5/13=1,5/36=2,99/5=2) pseudo=read geom=check gue
 ss=(read,tcheck) scf=(maxcycle=1)
 ----------------------------------------------------------------------
 -----
 title
 -----
 Structure from the checkpoint file:  "B-set_boricacid_h2o_150_dimer_mol1.chk"
 Charge =  0 Multiplicity = 1

                         Standard orientation:
 ---------------------------------------------------------------------
 Center     Atomic      Atomic             Coordinates (Angstroms)
 Number     Number       Type             X           Y           Z
 ---------------------------------------------------------------------
      1          5           0       -1.154640   -0.022645   -0.000449
      2          8           0       -0.521696   -1.217709   -0.011061
      3          8           0       -0.428822    1.152234   -0.012859
      4          8           0       -2.517550    0.063054    0.026126
      5          1           0        0.441677   -1.129160   -0.047332
      6          1           0       -0.987808    1.926703   -0.019793
      7          1           0       -2.935478   -0.795904    0.026217
      8          8           0        3.694756   -0.071018   -0.076079
      9          1           0        3.149107    0.722716   -0.033690
     10          1           0        4.292196   -0.023613    0.667836
 ---------------------------------------------------------------------

 SCF Done:  E(RHF) =  -328.623598827     A.U. after    2 cycles

 The electronic state is 1-A.
 Alpha  occ. eigenvalues --  -21.10311 -21.05900 -21.05843 -21.05516  -7.65473
 Alpha  occ. eigenvalues --   -1.88074  -1.66588  -1.66344  -1.66009  -0.78079
 Alpha  occ. eigenvalues --   -0.64564  -0.64475  -0.63989  -0.52540  -0.52026
 Alpha  occ. eigenvalues --   -0.46548  -0.39984  -0.38985  -0.36847  -0.36743
 Alpha  occ. eigenvalues --   -0.35647
 Alpha virt. eigenvalues --    0.03236   0.04196   0.04882   0.05338   0.06707
 Alpha virt. eigenvalues --    0.07721   0.08377   0.09675   0.10770   0.14970
 Alpha virt. eigenvalues --    0.18498   0.20411   0.21245   0.21816   0.22427

 Mulliken charges:
               1
     1  B    7.941853
     2  O   -3.775134
     3  O   -3.634290
     4  O   -3.742199
     5  H    1.083892
     6  H    1.070781
     7  H    1.036605
     8  O   -1.789299
     9  H    0.927828
    10  H    0.879963
 Sum of Mulliken charges =  -0.00000

 Dipole moment (field-independent basis, Debye):
    X=              0.1236    Y=              0.6805    Z=              0.6517  Tot=              0.9503

 Test job not archived.
 1\1\GINC-SE043\SP\RHF\Aug-CC-pVDZ\B1H5O4\OHZDE\08-Apr-2025\0\\#t hf au
 g-cc-pvdz iop(5/13=1,5/36=2,99/5=2) pseudo=read geom=check guess=(read
 ,tcheck) scf=(maxcycle=1)\\title\\0,1\B,0,-0.76791,-0.02465,0.00325\O,
 0,-0.10569,-1.20379,0.00191\O,0,-0.07109,1.16772,0.00192\O,0,-2.13276,
 0.02751,0.00942\H,0,0.85565,-1.09157,-0.01991\H,0,-0.64878,1.92822,-0.
 01325\H,0,-2.5294,-0.84146,0.0031\O,0,4.08179786,0.04622405,0.00026357
 \H,0,3.51622786,0.82628405,0.03461357\H,0,4.66668786,0.10789405,0.7530
 5357\\Version=ES64L-G16RevC.01\State=1-A\HF=-328.6235988\RMSD=1.065e-0

 Normal termination of Gaussian 16 at Tue Apr  8 22:25:44 2025.
