 Gaussian 16, Revision C.01,

 ----------------------------------------------------------------------
 #t hf aug-cc-pvdz symm=none int=(grid=ultrafine) guess=(read,tcheck) s
 table=(opt,rrhf)
 ----------------------------------------------------------------------
 -----
 title
 -----
 Symbolic Z-matrix:
 Charge =  0 Multiplicity = 1

 SCF Done:  E(RHF) =  -497.147209169     A.U. after   14 cycles
 Normal termination of Gaussian 16 at Tue Apr  8 22:27:42 2025.
 Gaussian 16:  ES64L-G16RevC.01  3-Jul-2019

 ----------------------------------------------------------------------
 #t hf aug-cc-pvdz iop(5/13=1,5/36=2,99/5=2) pseudo=read geom=check gue
 ss=(read,tcheck) scf=(maxcycle=1)
 ----------------------------------------------------------------------
 -----
 title
 -----
 Structure from the checkpoint file:  "B-set_borepin_borazine_150_dimer_mol1.chk"
 Charge =  0 Multiplicity = 1

                         Standard orientation:
 ---------------------------------------------------------------------
 Center     Atomic      Atomic             Coordinates (Angstroms)
 Number     Number       Type             X           Y           Z
 ---------------------------------------------------------------------
      1          6           0       -2.109593   -1.136121    1.179144
      2          6           0       -2.723396   -1.534167    0.030982
      3          6           0       -1.830071    0.167902    1.665119
      4          1           0       -1.775355   -1.939055    1.825940
      5          6           0       -3.271979   -0.764825   -1.029109
      6          1           0       -2.807622   -2.606898   -0.099349
      7          6           0       -2.096889    1.373292    1.090343
      8          1           0       -1.320864    0.174517    2.624411
      9          6           0       -3.308628    0.588752   -1.179335
     10          1           0       -3.713521   -1.366386   -1.818802
     11          1           0       -1.762951    2.224889    1.676977
     12          5           0       -2.771526    1.664148   -0.243676
     13          1           0       -3.790275    0.918488   -2.096284
     14          1           0       -2.892924    2.809611   -0.574758
     15          5           0        3.747569    0.015688    0.945405
     16          7           0        3.362527    1.213784    0.281255
     17          7           0        3.319583   -1.216810    0.372108
     18          1           0        4.401070    0.040154    1.946408
     19          5           0        2.562833    1.216410   -0.900423
     20          1           0        3.647040    2.094162    0.669788
     21          5           0        2.535832   -1.281312   -0.819011
     22          1           0        3.587818   -2.074321    0.818957
     23          7           0        2.184702   -0.048378   -1.434954
     24          1           0        2.231993    2.237495   -1.424141
     25          1           0        2.196153   -2.330074   -1.280707
     26          1           0        1.601554   -0.066416   -2.251653
 ---------------------------------------------------------------------

 SCF Done:  E(RHF) =  -499.455191222     A.U. after    2 cycles

 The electronic state is 1-A.
 Alpha  occ. eigenvalues --  -15.67916 -15.67803 -15.67691 -11.49194 -11.44591
 Alpha  occ. eigenvalues --  -11.42752 -11.40980 -11.38518 -11.36108  -7.61261
 Alpha  occ. eigenvalues --   -7.61200  -7.59745  -7.59141  -1.48120  -1.29767
 Alpha  occ. eigenvalues --   -1.29388  -1.29357  -1.15245  -1.09548  -0.91463
 Alpha  occ. eigenvalues --   -0.89284  -0.84477  -0.84425  -0.76499  -0.71189
 Alpha  occ. eigenvalues --   -0.69677  -0.68944  -0.61931  -0.58103  -0.57539
 Alpha  occ. eigenvalues --   -0.57475  -0.57070  -0.56365  -0.51985  -0.49872
 Alpha  occ. eigenvalues --   -0.48436  -0.47919  -0.41016  -0.40689  -0.40567
 Alpha  occ. eigenvalues --   -0.40075  -0.38709  -0.38684  -0.37107  -0.31215
 Alpha virt. eigenvalues --    0.01733   0.01809   0.02199   0.03356   0.04916
 Alpha virt. eigenvalues --    0.04954   0.05568   0.05911   0.06269   0.06368
 Alpha virt. eigenvalues --    0.07018   0.07318   0.07689   0.07902   0.07977

 Mulliken charges:
               1
     1  C   -1.231870
     2  C   -0.822643
     3  C   -0.727438
     4  H    1.500194
     5  C   -0.815819
     6  H    1.471611
     7  C   -3.828880
     8  H    1.448725
     9  C   -3.779098
    10  H    1.335968
    11  H    1.414579
    12  B    7.679979
    13  H    1.356282
    14  H   -4.889944
    15  B    6.936904
    16  N   -3.564304
    17  N   -3.561471
    18  H   -4.606428
    19  B    7.471043
    20  H    1.138721
    21  B    7.447654
    22  H    1.132045
    23  N   -3.891448
    24  H   -4.866386
    25  H   -4.894069
    26  H    1.146092
 Sum of Mulliken charges =  -0.00000

 Dipole moment (field-independent basis, Debye):
    X=              0.1387    Y=             -2.2230    Z=              0.6635  Tot=              2.3241

 Test job not archived.
 1\1\GINC-SE082\SP\RHF\Aug-CC-pVDZ\C6H13B4N3\OHZDE\08-Apr-2025\0\\#t hf
  aug-cc-pvdz iop(5/13=1,5/36=2,99/5=2) pseudo=read geom=check guess=(r
 ead,tcheck) scf=(maxcycle=1)\\title\\0,1\C,0,-1.1002,-1.1557,1.24379\C
 ,0,-1.87153,-1.52215,0.18349\C,0,-0.73895,0.13441,1.71272\H,0,-0.6909,
 -1.97601,1.822\C,0,-2.55047,-0.72416,-0.77509\H,0,-1.98729,-2.59084,0.
 04445\C,0,-1.06616,1.35478,1.20463\H,0,-0.10247,0.11476,2.59254\C,0,-2
 .58928,0.63268,-0.89154\H,0,-3.10457,-1.30369,-1.50828\H,0,-0.64323,2.
 18983,1.75662\B,0,-1.91408,1.68172,-0.01745\H,0,-3.18812,0.98737,-1.72

 Normal termination of Gaussian 16 at Tue Apr  8 22:28:02 2025.
