 Gaussian 16, Revision C.01,

 ----------------------------------------------------------------------
 #t hf aug-cc-pvdz symm=none int=(grid=ultrafine) guess=(read,tcheck) s
 table=(opt,rrhf)
 ----------------------------------------------------------------------
 -----
 title
 -----
 Symbolic Z-matrix:
 Charge =  0 Multiplicity = 1

 SCF Done:  E(RHF) =  -502.479421568     A.U. after   11 cycles
 Normal termination of Gaussian 16 at Tue Apr  8 22:25:41 2025.
 Gaussian 16:  ES64L-G16RevC.01  3-Jul-2019

 ----------------------------------------------------------------------
 #t hf aug-cc-pvdz iop(5/13=1,5/36=2,99/5=2) pseudo=read geom=check gue
 ss=(read,tcheck) scf=(maxcycle=1)
 ----------------------------------------------------------------------
 -----
 title
 -----
 Structure from the checkpoint file:  "B-set_boricacid_boricacid_125_dimer_mol1.chk"
 Charge =  0 Multiplicity = 1

                         Standard orientation:
 ---------------------------------------------------------------------
 Center     Atomic      Atomic             Coordinates (Angstroms)
 Number     Number       Type             X           Y           Z
 ---------------------------------------------------------------------
      1          5           0        2.582907    0.025632   -0.000106
      2          8           0        3.940069   -0.124373    0.000454
      3          8           0        2.006047    1.244317   -0.000736
      4          8           0        1.814023   -1.123394   -0.000046
      5          1           0        4.399241    0.713191    0.000464
      6          1           0        1.037077    1.236964   -0.000486
      7          1           0        2.344946   -1.918041    0.000594
      8          5           0       -2.582869   -0.025589    0.000077
      9          8           0       -1.814075    1.123446    0.000417
     10          8           0       -3.940082    0.124285    0.000117
     11          8           0       -2.006019   -1.244285   -0.000293
     12          1           0       -2.345078    1.918054    0.000737
     13          1           0       -4.399044   -0.713389   -0.000093
     14          1           0       -1.037039   -1.236971   -0.000373
 ---------------------------------------------------------------------

 SCF Done:  E(RHF) =  -504.514612942     A.U. after    2 cycles

 The electronic state is 1-A.
 Alpha  occ. eigenvalues --  -21.06204 -21.06195 -21.05919 -21.05917 -21.05440
 Alpha  occ. eigenvalues --  -21.05438  -7.65688  -7.65676  -1.88274  -1.88146
 Alpha  occ. eigenvalues --   -1.66745  -1.66708  -1.66278  -1.66087  -0.78442
 Alpha  occ. eigenvalues --   -0.78405  -0.65293  -0.64680  -0.64429  -0.64361
 Alpha  occ. eigenvalues --   -0.52697  -0.52679  -0.52406  -0.52048  -0.40794
 Alpha  occ. eigenvalues --   -0.40201  -0.39283  -0.38279  -0.37073  -0.37046
 Alpha  occ. eigenvalues --   -0.36922  -0.36794
 Alpha virt. eigenvalues --    0.03082   0.03706   0.04297   0.04779   0.05429
 Alpha virt. eigenvalues --    0.06034   0.06496   0.07596   0.07884   0.08829
 Alpha virt. eigenvalues --    0.09307   0.10959   0.11605   0.13065   0.14752

 Mulliken charges:
               1
     1  B    8.066866
     2  O   -3.836199
     3  O   -4.038792
     4  O   -3.743209
     5  H    1.131919
     6  H    1.293388
     7  H    1.126035
     8  B    8.066886
     9  O   -3.743371
    10  O   -3.836010
    11  O   -4.038868
    12  H    1.126017
    13  H    1.131983
    14  H    1.293355
 Sum of Mulliken charges =   0.00000

 Dipole moment (field-independent basis, Debye):
    X=              0.0004    Y=              0.0000    Z=              0.0009  Tot=              0.0009

 Test job not archived.
 1\1\GINC-SE094\SP\RHF\Aug-CC-pVDZ\B2H6O6\OHZDE\08-Apr-2025\0\\#t hf au
 g-cc-pvdz iop(5/13=1,5/36=2,99/5=2) pseudo=read geom=check guess=(read
 ,tcheck) scf=(maxcycle=1)\\title\\0,1\B,0,2.06504,0.02667,-0.0001\O,0,
 3.42239,-0.12163,0.00046\O,0,1.48665,1.24463,-0.00073\O,0,1.2976,-1.12
 332,-0.00004\H,0,3.88051,0.71651,0.00047\H,0,0.51769,1.23606,-0.00048\
 H,0,1.82952,-1.9173,0.0006\B,0,-3.10066714,-0.0310375,0.00008286\O,0,-
 2.33331714,1.1189625,0.00042286\O,0,-4.45806714,0.1171325,0.00012286\O
 ,0,-2.52228714,-1.2490075,-0.00028714\H,0,-2.86531714,1.9129025,0.0007

 Normal termination of Gaussian 16 at Tue Apr  8 22:25:45 2025.
