 Gaussian 16, Revision C.01,

 ----------------------------------------------------------------------
 #t hf aug-cc-pvdz symm=none int=(grid=ultrafine) guess=(read,tcheck) s
 table=(opt,rrhf)
 ----------------------------------------------------------------------
 -----
 title
 -----
 Symbolic Z-matrix:
 Charge =  0 Multiplicity = 1

 SCF Done:  E(RHF) =  -327.287557208     A.U. after   11 cycles
 Normal termination of Gaussian 16 at Tue Apr  8 22:25:18 2025.
 Gaussian 16:  ES64L-G16RevC.01  3-Jul-2019

 ----------------------------------------------------------------------
 #t hf aug-cc-pvdz iop(5/13=1,5/36=2,99/5=2) pseudo=read geom=check gue
 ss=(read,tcheck) scf=(maxcycle=1)
 ----------------------------------------------------------------------
 -----
 title
 -----
 Structure from the checkpoint file:  "B-set_boricacid_h2o_100_dimer_mol1.chk"
 Charge =  0 Multiplicity = 1

                         Standard orientation:
 ---------------------------------------------------------------------
 Center     Atomic      Atomic             Coordinates (Angstroms)
 Number     Number       Type             X           Y           Z
 ---------------------------------------------------------------------
      1          5           0       -0.767910   -0.024651    0.003249
      2          8           0       -0.105689   -1.203790    0.001909
      3          8           0       -0.071092    1.167720    0.001919
      4          8           0       -2.132761    0.027507    0.009419
      5          1           0        0.855651   -1.091568   -0.019911
      6          1           0       -0.648784    1.928219   -0.013251
      7          1           0       -2.529399   -0.841464    0.003099
      8          8           0        2.461910   -0.064516   -0.087931
      9          1           0        1.896338    0.715543   -0.053581
     10          1           0        3.046800   -0.002845    0.664859
 ---------------------------------------------------------------------

 SCF Done:  E(RHF) =  -328.630236752     A.U. after    2 cycles

 The electronic state is 1-A.
 Alpha  occ. eigenvalues --  -21.10306 -21.06615 -21.05647 -21.03646  -7.65254
 Alpha  occ. eigenvalues --   -1.88008  -1.67849  -1.66745  -1.65541  -0.78042
 Alpha  occ. eigenvalues --   -0.67454  -0.64562  -0.62485  -0.53017  -0.52375
 Alpha  occ. eigenvalues --   -0.46737  -0.40981  -0.39292  -0.37416  -0.35986
 Alpha  occ. eigenvalues --   -0.34407
 Alpha virt. eigenvalues --    0.03325   0.04451   0.04924   0.05471   0.07473
 Alpha virt. eigenvalues --    0.07842   0.08701   0.10012   0.10349   0.15112
 Alpha virt. eigenvalues --    0.18995   0.20706   0.21540   0.21705   0.22740

 Mulliken charges:
               1
     1  B    7.722644
     2  O   -3.850755
     3  O   -3.618202
     4  O   -3.765007
     5  H    1.502536
     6  H    1.091571
     7  H    0.961062
     8  O   -1.986966
     9  H    1.070356
    10  H    0.872761
 Sum of Mulliken charges =   0.00000

 Dipole moment (field-independent basis, Debye):
    X=              0.3540    Y=              0.7865    Z=              0.6447  Tot=              1.0769

 Test job not archived.
 1\1\GINC-SE338\SP\RHF\Aug-CC-pVDZ\B1H5O4\OHZDE\08-Apr-2025\0\\#t hf au
 g-cc-pvdz iop(5/13=1,5/36=2,99/5=2) pseudo=read geom=check guess=(read
 ,tcheck) scf=(maxcycle=1)\\title\\0,1\B,0,-0.76791,-0.02465,0.00325\O,
 0,-0.10569,-1.20379,0.00191\O,0,-0.07109,1.16772,0.00192\O,0,-2.13276,
 0.02751,0.00942\H,0,0.85565,-1.09157,-0.01991\H,0,-0.64878,1.92822,-0.
 01325\H,0,-2.5294,-0.84146,0.0031\O,0,2.46191,-0.06452,-0.08793\H,0,1.
 89634,0.71554,-0.05358\H,0,3.0468,-0.00285,0.66486\\Version=ES64L-G16R
 evC.01\State=1-A\HF=-328.6302368\RMSD=1.088e-01\Dipole=0.1392775,0.309

 Normal termination of Gaussian 16 at Tue Apr  8 22:25:21 2025.
