 Gaussian 16, Revision C.01,

 ----------------------------------------------------------------------
 #t hf aug-cc-pvdz symm=none int=(grid=ultrafine) guess=(read,tcheck) s
 table=(opt,rrhf)
 ----------------------------------------------------------------------
 -----
 title
 -----
 Symbolic Z-matrix:
 Charge =  0 Multiplicity = 1

 SCF Done:  E(RHF) =  -463.630115143     A.U. after   14 cycles
 Normal termination of Gaussian 16 at Tue Apr  8 22:26:17 2025.
 Gaussian 16:  ES64L-G16RevC.01  3-Jul-2019

 ----------------------------------------------------------------------
 #t hf aug-cc-pvdz iop(5/13=1,5/36=2,99/5=2) pseudo=read geom=check gue
 ss=(read,tcheck) scf=(maxcycle=1)
 ----------------------------------------------------------------------
 -----
 title
 -----
 Structure from the checkpoint file:  "B-set_borabenzene_pyridine_150_dimer_mol1.chk"
 Charge =  0 Multiplicity = 1

                         Standard orientation:
 ---------------------------------------------------------------------
 Center     Atomic      Atomic             Coordinates (Angstroms)
 Number     Number       Type             X           Y           Z
 ---------------------------------------------------------------------
      1          6           0       -1.899649    1.234663    0.364072
      2          6           0       -3.287219    1.163903    0.350052
      3          6           0       -3.967530   -0.000026   -0.000078
      4          6           0       -3.287121   -1.163937   -0.350038
      5          6           0       -1.899491   -1.234707   -0.364178
      6          1           0       -5.049800   -0.000045   -0.000148
      7          1           0       -1.454728    2.174542    0.680842
      8          1           0       -3.874668    2.033734    0.625782
      9          1           0       -3.874551   -2.033656   -0.626148
     10          1           0       -1.454921   -2.174498   -0.681678
     11          5           0       -1.157900   -0.000008   -0.000008
     12          6           0        1.847384   -1.092100    0.383707
     13          6           0        3.223264   -1.127051    0.387057
     14          6           0        3.928745    0.000009   -0.000153
     15          6           0        3.223166    1.127129   -0.387073
     16          6           0        1.847306    1.092100   -0.383403
     17          7           0        1.168435   -0.000010    0.000157
     18          1           0        5.009285    0.000008   -0.000263
     19          1           0        1.240114   -1.927050    0.697057
     20          1           0        3.728494   -2.027261    0.701957
     21          1           0        3.728297    2.027409   -0.701933
     22          1           0        1.239787    1.927030   -0.696323
 ---------------------------------------------------------------------

 SCF Done:  E(RHF) =  -465.823756062     A.U. after    2 cycles

 The electronic state is 1-A.
 Alpha  occ. eigenvalues --  -15.79087 -11.52542 -11.48593 -11.47034 -11.43926
 Alpha  occ. eigenvalues --  -11.43412 -11.40999 -11.38898 -11.35382 -11.34297
 Alpha  occ. eigenvalues --  -11.31582  -7.62575  -1.48838  -1.26945  -1.22264
 Alpha  occ. eigenvalues --   -1.15108  -1.05931  -0.98721  -0.92227  -0.92198
 Alpha  occ. eigenvalues --   -0.79916  -0.77738  -0.74774  -0.68469  -0.66232
 Alpha  occ. eigenvalues --   -0.63618  -0.62680  -0.60168  -0.57836  -0.55904
 Alpha  occ. eigenvalues --   -0.54613  -0.50359  -0.49689  -0.46204  -0.44831
 Alpha  occ. eigenvalues --   -0.40377  -0.40254  -0.37791  -0.37364  -0.30057
 Alpha  occ. eigenvalues --   -0.25169
 Alpha virt. eigenvalues --    0.02163   0.04285   0.04483   0.05097   0.05270
 Alpha virt. eigenvalues --    0.06162   0.06450   0.06957   0.07148   0.07652
 Alpha virt. eigenvalues --    0.08175   0.08647   0.09244   0.09387   0.09985

 Mulliken charges:
               1
     1  C   -4.282931
     2  C   -1.046850
     3  C   -0.669621
     4  C   -1.046396
     5  C   -4.282998
     6  H    1.507415
     7  H    1.589403
     8  H    1.506719
     9  H    1.506785
    10  H    1.588939
    11  B    2.989549
    12  C   -1.303380
    13  C   -0.933098
    14  C   -0.125670
    15  C   -0.933471
    16  C   -1.302724
    17  N   -3.001573
    18  H    1.582124
    19  H    1.904295
    20  H    1.424557
    21  H    1.424538
    22  H    1.904390
 Sum of Mulliken charges =   0.00000

 Dipole moment (field-independent basis, Debye):
    X=              6.6145    Y=              0.0004    Z=             -0.0005  Tot=              6.6145

 Test job not archived.
 1\1\GINC-SE086\SP\RHF\Aug-CC-pVDZ\C10H10B1N1\OHZDE\08-Apr-2025\0\\#t h
 f aug-cc-pvdz iop(5/13=1,5/36=2,99/5=2) pseudo=read geom=check guess=(
 read,tcheck) scf=(maxcycle=1)\\title\\0,1\C,0,1.50247,-1.23466,0.3641\
 C,0,2.89004,-1.1639,0.35008\C,0,3.57035,0.00003,-0.00005\C,0,2.88994,1
 .16394,-0.35001\C,0,1.50231,1.23471,-0.36415\H,0,4.65262,0.00005,-0.00
 012\H,0,1.05755,-2.17454,0.68087\H,0,3.47749,-2.03373,0.62581\H,0,3.47
 737,2.03366,-0.62612\H,0,1.05774,2.1745,-0.68165\B,0,0.76072,0.00001,0
 .00002\C,0,-2.244565,1.0921,0.383735\C,0,-3.620445,1.12705,0.387085\C,

 Normal termination of Gaussian 16 at Tue Apr  8 22:26:32 2025.
