 Gaussian 16, Revision C.01,

 ----------------------------------------------------------------------
 #t hf aug-cc-pvdz symm=none int=(grid=ultrafine) guess=(read,tcheck) s
 table=(opt,rrhf)
 ----------------------------------------------------------------------
 -----
 title
 -----
 Symbolic Z-matrix:
 Charge =  0 Multiplicity = 1

 SCF Done:  E(RHF) =  -368.295095899     A.U. after   11 cycles
 Normal termination of Gaussian 16 at Tue Apr  8 22:28:07 2025.
 Gaussian 16:  ES64L-G16RevC.01  3-Jul-2019

 ----------------------------------------------------------------------
 #t hf aug-cc-pvdz iop(5/13=1,5/36=2,99/5=2) pseudo=read geom=check gue
 ss=(read,tcheck) scf=(maxcycle=1)
 ----------------------------------------------------------------------
 -----
 title
 -----
 Structure from the checkpoint file:  "B-set_trimethylborate_trimethylborate_090_dimer_mol2.chk"
 Charge =  0 Multiplicity = 1

                         Standard orientation:
 ---------------------------------------------------------------------
 Center     Atomic      Atomic             Coordinates (Angstroms)
 Number     Number       Type             X           Y           Z
 ---------------------------------------------------------------------
      1          5           0       -0.000033   -0.000046   -0.027705
      2          8           0       -1.361457    0.035174   -0.031288
      3          8           0        0.650324   -1.196579   -0.031901
      4          8           0        0.711174    1.161400   -0.030956
      5          6           0       -2.117255   -1.159377    0.027671
      6          6           0        2.062678   -1.253863    0.027704
      7          6           0        0.054578    2.413177    0.027341
      8          1           0       -2.050451   -1.601597    1.022140
      9          1           0       -3.153291   -0.900988   -0.181167
     10          1           0       -1.771483   -1.884712   -0.708961
     11          1           0        2.357394   -2.279346   -0.184913
     12          1           0        2.518279   -0.588620   -0.705921
     13          1           0        2.411490   -0.978621    1.023489
     14          1           0        0.797406    3.181589   -0.176202
     15          1           0       -0.742827    2.478292   -0.713088
     16          1           0       -0.366695    2.574652    1.020009
 ---------------------------------------------------------------------

 SCF Done:  E(RHF) =  -369.915067876     A.U. after    2 cycles

 The electronic state is 1-A.
 Alpha  occ. eigenvalues --  -21.01516 -21.01476 -21.01475 -11.39938 -11.39937
 Alpha  occ. eigenvalues --  -11.39784  -7.64137  -1.89784  -1.69656  -1.69656
 Alpha  occ. eigenvalues --   -1.02386  -0.97857  -0.97856  -0.68828  -0.64247
 Alpha  occ. eigenvalues --   -0.64241  -0.63040  -0.59612  -0.59611  -0.58343
 Alpha  occ. eigenvalues --   -0.52161  -0.52156  -0.47894  -0.45706  -0.34045
 Alpha  occ. eigenvalues --   -0.34041  -0.32583  -0.32574
 Alpha virt. eigenvalues --    0.03585   0.04431   0.04431   0.05503   0.06681
 Alpha virt. eigenvalues --    0.06681   0.07293   0.07295   0.07447   0.07896
 Alpha virt. eigenvalues --    0.09798   0.10149   0.10156   0.13403   0.14794

 Mulliken charges:
               1
     1  B    9.753668
     2  O   -4.734932
     3  O   -4.737062
     4  O   -4.737512
     5  C   -2.643279
     6  C   -2.642247
     7  C   -2.642123
     8  H    1.381389
     9  H    1.345836
    10  H    1.400633
    11  H    1.345421
    12  H    1.401323
    13  H    1.381442
    14  H    1.345714
    15  H    1.400335
    16  H    1.381392
 Sum of Mulliken charges =  -0.00000

 Dipole moment (field-independent basis, Debye):
    X=              0.0004    Y=             -0.0003    Z=              0.0591  Tot=              0.0591

 Test job not archived.
 1\1\GINC-SE102\SP\RHF\Aug-CC-pVDZ\C3H9B1O3\OHZDE\08-Apr-2025\0\\#t hf
 aug-cc-pvdz iop(5/13=1,5/36=2,99/5=2) pseudo=read geom=check guess=(re
 ad,tcheck) scf=(maxcycle=1)\\title\\0,1\B,0,1.60824,0.00191,-0.00082\O
 ,0,1.60915,1.34156,-0.2459\O,0,1.61322,-0.88027,-1.03832\O,0,1.61338,-
 0.45565,1.28191\C,0,1.5482,1.83586,-1.57014\C,0,1.55638,-2.2744,-0.804
 33\C,0,1.55431,0.44388,2.37224\H,0,0.55368,1.67784,-1.98841\H,0,1.7551
 ,2.90326,-1.53016\H,0,2.28521,1.34988,-2.20962\H,0,1.76915,-2.77301,-1
 .74762\H,0,2.29118,-2.58234,-0.06031\H,0,0.5614,-2.5611,-0.46252\H,0,1

 Normal termination of Gaussian 16 at Tue Apr  8 22:28:12 2025.
