 Gaussian 16, Revision C.01,

 ----------------------------------------------------------------------
 #t hf aug-cc-pvdz symm=none int=(grid=ultrafine) guess=(read,tcheck) s
 table=(opt,rrhf)
 ----------------------------------------------------------------------
 -----
 title
 -----
 Symbolic Z-matrix:
 Charge =  0 Multiplicity = 1

 SCF Done:  E(RHF) =  -447.406297781     A.U. after   11 cycles
 Normal termination of Gaussian 16 at Tue Apr  8 22:22:15 2025.
 Gaussian 16:  ES64L-G16RevC.01  3-Jul-2019

 ----------------------------------------------------------------------
 #t hf aug-cc-pvdz iop(5/13=1,5/36=2,99/5=2) pseudo=read geom=check gue
 ss=(read,tcheck) scf=(maxcycle=1)
 ----------------------------------------------------------------------
 -----
 title
 -----
 Structure from the checkpoint file:  "B-set_b2f4_b2f4_090_dimer_mol3.chk"
 Charge =  0 Multiplicity = 1

                         Standard orientation:
 ---------------------------------------------------------------------
 Center     Atomic      Atomic             Coordinates (Angstroms)
 Number     Number       Type             X           Y           Z
 ---------------------------------------------------------------------
      1          5           0       -0.858112   -0.010857   -0.006082
      2          5           0        0.866606    0.005773   -0.011600
      3          9           0       -1.562034    0.960008   -0.572733
      4          9           0       -1.544420   -0.968718    0.575773
      5          9           0        1.539306    0.973819    0.575444
      6          9           0        1.562429   -0.962285   -0.568660
 ---------------------------------------------------------------------

 SCF Done:  E(RHF) =  -448.952830603     A.U. after    2 cycles

 The electronic state is 1-A.
 Alpha  occ. eigenvalues --  -29.27787 -29.27712 -29.27677 -29.27537  -7.71754
 Alpha  occ. eigenvalues --   -7.71433  -1.20522  -1.08350  -0.78119  -0.75170
 Alpha  occ. eigenvalues --   -0.66434  -0.53176  -0.51467  -0.49249  -0.47413
 Alpha  occ. eigenvalues --   -0.46383  -0.45597  -0.38073  -0.37194  -0.36769
 Alpha  occ. eigenvalues --   -0.35366  -0.33668  -0.20630
 Alpha virt. eigenvalues --    0.02677   0.03470   0.04293   0.07489   0.09160
 Alpha virt. eigenvalues --    0.09503   0.09887   0.12042   0.13780   0.14016
 Alpha virt. eigenvalues --    0.14845   0.17675   0.19348   0.21124   0.23198

 Mulliken charges:
               1
     1  B    0.337232
     2  B    0.372805
     3  F   -0.249004
     4  F   -0.130779
     5  F   -0.157569
     6  F   -0.172686
 Sum of Mulliken charges =   0.00000

 Dipole moment (field-independent basis, Debye):
    X=             -0.0505    Y=             -0.0558    Z=              0.0984  Tot=              0.1239

 Test job not archived.
 1\1\GINC-SE226\SP\RHF\Aug-CC-pVDZ\B2F4\OHZDE\08-Apr-2025\0\\#t hf aug-
 cc-pvdz iop(5/13=1,5/36=2,99/5=2) pseudo=read geom=check guess=(read,t
 check) scf=(maxcycle=1)\\title\\0,1\B,0,-1.49397,-0.78141,-0.71312\B,0
 ,-2.06981,0.44791,0.3509\F,0,-0.52241,-0.54418,-1.58431\F,0,-2.00536,-
 1.99198,-0.7217\F,0,-2.62042,1.549,-0.11674\F,0,-2.01046,0.30983,1.658
 2\\Version=ES64L-G16RevC.01\State=1-A\HF=-448.9528306\RMSD=4.621e-01\D
 ipole=-0.0335278,-0.0329955,-0.0127999\Quadrupole=-2.0348526,1.2688977
 ,0.765955,-0.0487338,-1.3160581,-0.7217739\PG=C01 [X(B2F4)]\\@

 Normal termination of Gaussian 16 at Tue Apr  8 22:22:17 2025.
