 Gaussian 16, Revision C.01,

 ----------------------------------------------------------------------
 #t hf aug-cc-pvdz symm=none int=(grid=ultrafine) guess=(read,tcheck) s
 table=(opt,rrhf)
 ----------------------------------------------------------------------
 -----
 title
 -----
 Symbolic Z-matrix:
 Charge =  0 Multiplicity = 1

 SCF Done:  E(RHF) =  -481.959765906     A.U. after   14 cycles
 Normal termination of Gaussian 16 at Tue Apr  8 22:24:59 2025.
 Gaussian 16:  ES64L-G16RevC.01  3-Jul-2019

 ----------------------------------------------------------------------
 #t hf aug-cc-pvdz iop(5/13=1,5/36=2,99/5=2) pseudo=read geom=check gue
 ss=(read,tcheck) scf=(maxcycle=1)
 ----------------------------------------------------------------------
 -----
 title
 -----
 Structure from the checkpoint file:  "B-set_boricacid_benzene_090_dimer_mol1.chk"
 Charge =  0 Multiplicity = 1

                         Standard orientation:
 ---------------------------------------------------------------------
 Center     Atomic      Atomic             Coordinates (Angstroms)
 Number     Number       Type             X           Y           Z
 ---------------------------------------------------------------------
      1          5           0        2.223527   -0.212495   -0.005291
      2          8           0        3.496846   -0.712860   -0.023099
      3          8           0        1.160184   -1.059633   -0.019715
      4          8           0        2.042330    1.144478    0.027132
      5          1           0        3.511319   -1.667605   -0.045330
      6          1           0        0.313386   -0.608049   -0.005475
      7          1           0        2.872975    1.616196    0.034054
      8          6           0       -2.499241   -0.706664   -0.726414
      9          6           0       -1.693721    0.212247   -1.382488
     10          6           0       -2.507305   -0.757616    0.659520
     11          1           0       -3.118249   -1.386308   -1.295818
     12          6           0       -0.894650    1.080477   -0.652368
     13          1           0       -1.683727    0.248656   -2.463135
     14          6           0       -1.709889    0.110372    1.390580
     15          1           0       -3.132519   -1.476999    1.170317
     16          6           0       -0.902794    1.029503    0.735366
     17          1           0       -0.251257    1.786503   -1.158043
     18          1           0       -1.712541    0.067517    2.471034
     19          1           0       -0.266303    1.696771    1.299123
 ---------------------------------------------------------------------

 SCF Done:  E(RHF) =  -484.108790451     A.U. after    2 cycles

 The electronic state is 1-A.
 Alpha  occ. eigenvalues --  -21.05135 -21.04934 -21.03271 -11.52207 -11.43016
 Alpha  occ. eigenvalues --  -11.42535 -11.40428 -11.40242 -11.36228  -7.64345
 Alpha  occ. eigenvalues --   -1.87230  -1.65893  -1.65207  -1.34777  -1.09596
 Alpha  occ. eigenvalues --   -1.09507  -0.86139  -0.86109  -0.77412  -0.72837
 Alpha  occ. eigenvalues --   -0.65646  -0.64170  -0.63990  -0.58569  -0.58349
 Alpha  occ. eigenvalues --   -0.56232  -0.51703  -0.51449  -0.50808  -0.44866
 Alpha  occ. eigenvalues --   -0.44810  -0.39022  -0.38472  -0.36294  -0.36162
 Alpha  occ. eigenvalues --   -0.32825  -0.32107
 Alpha virt. eigenvalues --    0.03342   0.04403   0.04894   0.04950   0.05563
 Alpha virt. eigenvalues --    0.05801   0.06618   0.06774   0.07568   0.07918
 Alpha virt. eigenvalues --    0.08684   0.09947   0.11188   0.11441   0.11801

 Mulliken charges:
               1
     1  B    8.434228
     2  O   -4.036921
     3  O   -4.477567
     4  O   -4.179189
     5  H    1.199066
     6  H    2.558628
     7  H    1.248192
     8  C   -1.605055
     9  C   -1.713856
    10  C   -1.590815
    11  H    1.520790
    12  C   -1.785434
    13  H    1.526201
    14  C   -1.723092
    15  H    1.520260
    16  C   -1.779915
    17  H    1.685750
    18  H    1.524792
    19  H    1.673937
 Sum of Mulliken charges =  -0.00000

 Dipole moment (field-independent basis, Debye):
    X=             -0.4323    Y=              0.1474    Z=              0.0006  Tot=              0.4567

 Test job not archived.
 1\1\GINC-SE110\SP\RHF\Aug-CC-pVDZ\C6H9B1O3\OHZDE\08-Apr-2025\0\\#t hf
 aug-cc-pvdz iop(5/13=1,5/36=2,99/5=2) pseudo=read geom=check guess=(re
 ad,tcheck) scf=(maxcycle=1)\\title\\0,1\B,0,2.47525,0.1904,0.00446\O,0
 ,3.75759,0.66722,0.02093\O,0,1.42772,1.05703,0.01798\O,0,2.26904,-1.16
 305,-0.02572\H,0,3.78968,1.62157,0.04163\H,0,0.57273,0.62112,0.00482\H
 ,0,3.09084,-1.65002,-0.03224\C,0,-2.23727249,0.77274452,0.72678939\C,0
 ,-1.44854249,-0.15982548,1.38398939\C,0,-2.24502249,0.82163452,-0.6592
 2061\H,0,-2.84338249,1.46459452,1.29536939\C,0,-0.66595249,-1.04380548

 Normal termination of Gaussian 16 at Tue Apr  8 22:25:09 2025.
