 Gaussian 16, Revision C.01,

 ----------------------------------------------------------------------
 #t hf aug-cc-pvdz symm=none int=(grid=ultrafine) guess=(read,tcheck) s
 table=(opt,rrhf)
 ----------------------------------------------------------------------
 -----
 title
 -----
 Symbolic Z-matrix:
 Charge =  0 Multiplicity = 1

 SCF Done:  E(RHF) =  -360.427147780     A.U. after   15 cycles

 1\1\GINC-SE366\Stability\RHF\Aug-CC-pVDZ\C8H14B2\OHZDE\08-Apr-2025\0\\
 #t hf aug-cc-pvdz symm=none int=(grid=ultrafine) guess=(read,tcheck) s
 table=(opt,rrhf)\\title\\0,1\B,0,-1.44421,-0.34378,-1.38976\C,0,-1.353
 82,1.11975,-0.80607\C,0,-2.20691,-1.16484,-0.27513\H,0,-1.05979,-0.732
 25,-2.44825\C,0,-1.96773,1.08262,0.37927\H,0,-0.92918,2.01911,-1.22576
 \C,0,-2.47978,-0.29789,0.7014\H,0,-2.48296,-2.20807,-0.24206\H,0,-2.10
 422,1.91644,1.05668\H,0,-2.99941,-0.51278,1.627\B,0,1.12271691,1.05935
 569,0.85262431\C,0,0.87587691,-0.41824431,1.31497431\C,0,1.95767691,1.

 Normal termination of Gaussian 16 at Tue Apr  8 22:28:52 2025.
 Gaussian 16:  ES64L-G16RevC.01  3-Jul-2019

 ----------------------------------------------------------------------
 #t hf aug-cc-pvdz iop(5/13=1,5/36=2,99/5=2) pseudo=read geom=check gue
 ss=(read,tcheck) scf=(maxcycle=1)
 ----------------------------------------------------------------------
 -----
 title
 -----
 Structure from the checkpoint file:  "B-set_borole_borolane_095_dimer_mol1.chk"
 Charge =  0 Multiplicity = 1

                         Standard orientation:
 ---------------------------------------------------------------------
 Center     Atomic      Atomic             Coordinates (Angstroms)
 Number     Number       Type             X           Y           Z
 ---------------------------------------------------------------------
      1          5           0       -1.328357   -0.353379   -1.395917
      2          6           0       -1.236904    1.115379   -0.825680
      3          6           0       -2.115223   -1.157516   -0.285756
      4          1           0       -0.929446   -0.755410   -2.443930
      5          6           0       -1.870453    1.094777    0.349687
      6          1           0       -0.798887    2.007342   -1.247402
      7          6           0       -2.397769   -0.278677    0.677302
      8          1           0       -2.399373   -2.198361   -0.246672
      9          1           0       -2.011970    1.936450    1.016267
     10          1           0       -2.934083   -0.480360    1.596335
     11          5           0        1.211552    1.054369    0.874170
     12          6           0        0.946392   -0.416618    1.347338
     13          6           0        2.067885    0.982693   -0.443998
     14          1           0        0.884821    2.050885    1.447163
     15          1           0        1.675701   -0.598667    2.151333
     16          1           0       -0.031339   -0.634505    1.776065
     17          6           0        1.308340   -1.269953    0.123834
     18          6           0        2.435590   -0.507359   -0.581766
     19          1           0        1.412923    1.287956   -1.269020
     20          1           0        2.921640    1.660345   -0.485394
     21          1           0        0.439414   -1.332071   -0.544565
     22          1           0        1.577842   -2.298144    0.365839
     23          1           0        2.573686   -0.827606   -1.614317
     24          1           0        3.375948   -0.699145   -0.058727
 ---------------------------------------------------------------------

 SCF Done:  E(RHF) =  -362.245819471     A.U. after    2 cycles

 The electronic state is 1-A.
 Alpha  occ. eigenvalues --  -11.47717 -11.42112 -11.41148 -11.38101 -11.37483
 Alpha  occ. eigenvalues --  -11.35490 -11.33092 -11.32629  -7.61756  -7.58357
 Alpha  occ. eigenvalues --   -1.31199  -1.28194  -1.04228  -1.03342  -0.97762
 Alpha  occ. eigenvalues --   -0.93092  -0.80650  -0.73817  -0.73411  -0.70395
 Alpha  occ. eigenvalues --   -0.68968  -0.63819  -0.63454  -0.56966  -0.54913
 Alpha  occ. eigenvalues --   -0.50948  -0.47408  -0.46260  -0.45206  -0.44148
 Alpha  occ. eigenvalues --   -0.43612  -0.42782  -0.41502  -0.40384  -0.37395
 Alpha  occ. eigenvalues --   -0.30927
 Alpha virt. eigenvalues --    0.03225   0.03724   0.04255   0.04373   0.04512
 Alpha virt. eigenvalues --    0.05061   0.05478   0.05646   0.06158   0.06871
 Alpha virt. eigenvalues --    0.07369   0.07438   0.07859   0.08316   0.08710

 Mulliken charges:
               1
     1  B    8.698400
     2  C   -3.020800
     3  C   -3.382504
     4  H   -5.276621
     5  C   -1.837440
     6  H    1.650485
     7  C   -1.696677
     8  H    1.436831
     9  H    1.626602
    10  H    1.547813
    11  B   10.010405
    12  C   -4.282983
    13  C   -4.215798
    14  H   -6.405749
    15  H    1.399761
    16  H    2.042554
    17  C   -4.319478
    18  C   -3.324190
    19  H    1.807175
    20  H    1.416112
    21  H    2.131578
    22  H    1.324519
    23  H    1.355649
    24  H    1.314356
 Sum of Mulliken charges =   0.00000

 Dipole moment (field-independent basis, Debye):
    X=             -0.5266    Y=             -0.1152    Z=              1.0227  Tot=              1.1561

 Test job not archived.
 1\1\GINC-SE366\SP\RHF\Aug-CC-pVDZ\C8H14B2\OHZDE\08-Apr-2025\0\\#t hf a
 ug-cc-pvdz iop(5/13=1,5/36=2,99/5=2) pseudo=read geom=check guess=(rea
 d,tcheck) scf=(maxcycle=1)\\title\\0,1\B,0,-1.44421,-0.34378,-1.38976\
 C,0,-1.35382,1.11975,-0.80607\C,0,-2.20691,-1.16484,-0.27513\H,0,-1.05
 979,-0.73225,-2.44825\C,0,-1.96773,1.08262,0.37927\H,0,-0.92918,2.0191
 1,-1.22576\C,0,-2.47978,-0.29789,0.7014\H,0,-2.48296,-2.20807,-0.24206
 \H,0,-2.10422,1.91644,1.05668\H,0,-2.99941,-0.51278,1.627\B,0,1.122716
 91,1.05935569,0.85262431\C,0,0.87587691,-0.41824431,1.31497431\C,0,1.9

 Normal termination of Gaussian 16 at Tue Apr  8 22:29:05 2025.
