 Gaussian 16, Revision C.01,

 ----------------------------------------------------------------------
 #t hf aug-cc-pvdz symm=none int=(grid=ultrafine) guess=(read,tcheck) s
 table=(opt,rrhf)
 ----------------------------------------------------------------------
 -----
 title
 -----
 Symbolic Z-matrix:
 Charge =  0 Multiplicity = 1

 SCF Done:  E(RHF) =  -503.172368416     A.U. after   12 cycles
 Normal termination of Gaussian 16 at Tue Apr  8 22:23:25 2025.
 Gaussian 16:  ES64L-G16RevC.01  3-Jul-2019

 ----------------------------------------------------------------------
 #t hf aug-cc-pvdz iop(5/13=1,5/36=2,99/5=2) pseudo=read geom=check gue
 ss=(read,tcheck) scf=(maxcycle=1)
 ----------------------------------------------------------------------
 -----
 title
 -----
 Structure from the checkpoint file:  "B-set_borane_dms_100_dimer_mol1.chk"
 Charge =  0 Multiplicity = 1

                         Standard orientation:
 ---------------------------------------------------------------------
 Center     Atomic      Atomic             Coordinates (Angstroms)
 Number     Number       Type             X           Y           Z
 ---------------------------------------------------------------------
      1          5           0       -1.779209   -0.002933    0.306240
      2          1           0       -1.550189   -0.002201    1.494500
      3          1           0       -2.283165   -1.015939   -0.114480
      4          1           0       -2.286402    1.008210   -0.115090
      5         16           0       -0.023749   -0.000100   -0.530290
      6          6           0        0.803858    1.377603    0.266010
      7          1           0        1.854277    1.394839   -0.013690
      8          1           0        0.313401    2.282657   -0.082310
      9          1           0        0.683783    1.293327    1.343970
     10          6           0        0.808693   -1.374866    0.266060
     11          1           0        0.321781   -2.281712   -0.082570
     12          1           0        1.859254   -1.388111   -0.013310
     13          1           0        0.687979   -1.291223    1.343990
 ---------------------------------------------------------------------

 SCF Done:  E(RHF) =  -504.001462816     A.U. after    2 cycles

 The electronic state is 1-A.
 Alpha  occ. eigenvalues --  -75.72733 -13.18949 -13.17755 -13.13536 -11.41905
 Alpha  occ. eigenvalues --  -11.41633  -8.07191  -7.53386  -1.30086  -1.05987
 Alpha  occ. eigenvalues --   -0.96191  -0.81387  -0.63454  -0.62431  -0.60941
 Alpha  occ. eigenvalues --   -0.59576  -0.48788  -0.45246  -0.41306  -0.38015
 Alpha  occ. eigenvalues --   -0.28990
 Alpha virt. eigenvalues --    0.02122   0.02912   0.03479   0.04951   0.06391
 Alpha virt. eigenvalues --    0.06466   0.07987   0.08387   0.09445   0.09600
 Alpha virt. eigenvalues --    0.12122   0.12208   0.12610   0.13307   0.14166

 Mulliken charges:
               1
     1  B    7.607866
     2  H   -1.700578
     3  H   -2.541544
     4  H   -2.540979
     5  S   -0.064785
     6  C   -4.671090
     7  H    1.400661
     8  H    1.421719
     9  H    1.468813
    10  C   -4.671124
    11  H    1.421899
    12  H    1.400600
    13  H    1.468542
 Sum of Mulliken charges =   0.00000

 Dipole moment (field-independent basis, Debye):
    X=              3.8353    Y=              0.0061    Z=             -1.5145  Tot=              4.1235

 Test job not archived.
 1\1\GINC-SE110\SP\RHF\Aug-CC-pVDZ\C2H9B1S1\OHZDE\08-Apr-2025\0\\#t hf
 aug-cc-pvdz iop(5/13=1,5/36=2,99/5=2) pseudo=read geom=check guess=(re
 ad,tcheck) scf=(maxcycle=1)\\title\\0,1\B,0,1.77921,0.00284,0.30624\H,
 0,1.55019,0.00212,1.4945\H,0,2.28322,1.01582,-0.11448\H,0,2.28635,-1.0
 0833,-0.11509\S,0,0.02375,0.0001,-0.53029\C,0,-0.80393,-1.37756,0.2660
 1\H,0,-1.85435,-1.39474,-0.01369\H,0,-0.31352,-2.28264,-0.08231\H,0,-0
 .68385,-1.29329,1.34397\C,0,-0.80862,1.37491,0.26606\H,0,-0.32166,2.28
 173,-0.08257\H,0,-1.85918,1.38821,-0.01331\H,0,-0.68791,1.29126,1.3439

 Normal termination of Gaussian 16 at Tue Apr  8 22:23:28 2025.
