 Gaussian 16, Revision C.01,

 ----------------------------------------------------------------------
 #t hf aug-cc-pvdz symm=none int=(grid=ultrafine) guess=(read,tcheck) s
 table=(opt,rrhf)
 ----------------------------------------------------------------------
 -----
 title
 -----
 Symbolic Z-matrix:
 Charge =  0 Multiplicity = 1

 SCF Done:  E(RHF) =  -502.458899117     A.U. after   11 cycles
 Normal termination of Gaussian 16 at Tue Apr  8 22:25:15 2025.
 Gaussian 16:  ES64L-G16RevC.01  3-Jul-2019

 ----------------------------------------------------------------------
 #t hf aug-cc-pvdz iop(5/13=1,5/36=2,99/5=2) pseudo=read geom=check gue
 ss=(read,tcheck) scf=(maxcycle=1)
 ----------------------------------------------------------------------
 -----
 title
 -----
 Structure from the checkpoint file:  "B-set_boricacid_boricacid_090_dimer_mol1.chk"
 Charge =  0 Multiplicity = 1

                         Standard orientation:
 ---------------------------------------------------------------------
 Center     Atomic      Atomic             Coordinates (Angstroms)
 Number     Number       Type             X           Y           Z
 ---------------------------------------------------------------------
      1          5           0        1.857885    0.027254   -0.000097
      2          8           0        3.215351   -0.119977    0.000463
      3          8           0        1.278535    1.244758   -0.000727
      4          8           0        1.091351   -1.123341   -0.000037
      5          1           0        3.672810    0.718524    0.000473
      6          1           0        0.309582    1.235424   -0.000477
      7          1           0        1.623897   -1.916901    0.000603
      8          5           0       -1.857847   -0.027211    0.000068
      9          8           0       -1.091403    1.123393    0.000408
     10          8           0       -3.215363    0.119889    0.000108
     11          8           0       -1.278507   -1.244725   -0.000302
     12          1           0       -1.624029    1.916914    0.000728
     13          1           0       -3.672612   -0.718722   -0.000102
     14          1           0       -0.309544   -1.235432   -0.000382
 ---------------------------------------------------------------------

 SCF Done:  E(RHF) =  -504.504533987     A.U. after    2 cycles

 The electronic state is 1-A.
 Alpha  occ. eigenvalues --  -21.07775 -21.07768 -21.05648 -21.05647 -21.01236
 Alpha  occ. eigenvalues --  -21.01210  -7.65786  -7.65667  -1.90329  -1.88022
 Alpha  occ. eigenvalues --   -1.71811  -1.68799  -1.64486  -1.63690  -0.82091
 Alpha  occ. eigenvalues --   -0.78303  -0.71525  -0.69973  -0.63415  -0.62343
 Alpha  occ. eigenvalues --   -0.54259  -0.54065  -0.51950  -0.50020  -0.45077
 Alpha  occ. eigenvalues --   -0.40209  -0.39676  -0.38375  -0.38205  -0.35717
 Alpha  occ. eigenvalues --   -0.33916  -0.30805
 Alpha virt. eigenvalues --    0.02963   0.03780   0.04051   0.04823   0.05484
 Alpha virt. eigenvalues --    0.06384   0.06866   0.07662   0.08586   0.09287
 Alpha virt. eigenvalues --    0.09428   0.10591   0.11724   0.13214   0.15059

 Mulliken charges:
               1
     1  B    7.692673
     2  O   -3.999950
     3  O   -4.246474
     4  O   -4.174078
     5  H    1.014093
     6  H    2.519821
     7  H    1.193825
     8  B    7.692589
     9  O   -4.174005
    10  O   -3.999834
    11  O   -4.246456
    12  H    1.193837
    13  H    1.014044
    14  H    2.519915
 Sum of Mulliken charges =  -0.00000

 Dipole moment (field-independent basis, Debye):
    X=              0.0007    Y=              0.0001    Z=              0.0013  Tot=              0.0015

 Test job not archived.
 1\1\GINC-SE329\SP\RHF\Aug-CC-pVDZ\B2H6O6\OHZDE\08-Apr-2025\0\\#t hf au
 g-cc-pvdz iop(5/13=1,5/36=2,99/5=2) pseudo=read geom=check guess=(read
 ,tcheck) scf=(maxcycle=1)\\title\\0,1\B,0,2.06504,0.02667,-0.0001\O,0,
 3.42239,-0.12163,0.00046\O,0,1.48665,1.24463,-0.00073\O,0,1.2976,-1.12
 332,-0.00004\H,0,3.88051,0.71651,0.00047\H,0,0.51769,1.23606,-0.00048\
 H,0,1.82952,-1.9173,0.0006\B,0,-1.65073314,-0.024867,0.00006486\O,0,-0
 .88338314,1.125133,0.00040486\O,0,-3.00813314,0.123303,0.00010486\O,0,
 -1.07235314,-1.242837,-0.00030514\H,0,-1.41538314,1.919073,0.00072486\

 Normal termination of Gaussian 16 at Tue Apr  8 22:25:20 2025.
