 Gaussian 16, Revision C.01,

 ----------------------------------------------------------------------
 #t hf aug-cc-pvdz symm=none int=(grid=ultrafine) guess=(read,tcheck) s
 table=(opt,rrhf)
 ----------------------------------------------------------------------
 -----
 title
 -----
 Symbolic Z-matrix:
 Charge =  0 Multiplicity = 1

 SCF Done:  E(RHF) =  -181.408537193     A.U. after   12 cycles
 Normal termination of Gaussian 16 at Tue Apr  8 22:26:28 2025.
 Gaussian 16:  ES64L-G16RevC.01  3-Jul-2019

 ----------------------------------------------------------------------
 #t hf aug-cc-pvdz iop(5/13=1,5/36=2,99/5=2) pseudo=read geom=check gue
 ss=(read,tcheck) scf=(maxcycle=1)
 ----------------------------------------------------------------------
 -----
 title
 -----
 Structure from the checkpoint file:  "B-set_borole_borolane_090_dimer_mol3.chk"
 Charge =  0 Multiplicity = 1

                         Standard orientation:
 ---------------------------------------------------------------------
 Center     Atomic      Atomic             Coordinates (Angstroms)
 Number     Number       Type             X           Y           Z
 ---------------------------------------------------------------------
      1          5           0        0.005170    1.372288   -0.033192
      2          6           0       -1.256023    0.454963    0.127765
      3          6           0        1.268281    0.436345   -0.100808
      4          1           0        0.014629    2.567290   -0.032996
      5          1           0       -1.506201    0.491060    1.199002
      6          1           0       -2.161063    0.753415   -0.400505
      7          6           0       -0.742922   -0.946260   -0.232029
      8          6           0        0.722029   -0.968537    0.219122
      9          1           0        1.638826    0.471628   -1.132445
     10          1           0        2.111141    0.741389    0.520770
     11          1           0       -0.788663   -1.080434   -1.320860
     12          1           0       -1.331965   -1.756727    0.197560
     13          1           0        1.290404   -1.772872   -0.247555
     14          1           0        0.758853   -1.135253    1.298693
 ---------------------------------------------------------------------

 SCF Done:  E(RHF) =  -182.343876016     A.U. after    2 cycles

 The electronic state is 1-A.
 Alpha  occ. eigenvalues --  -11.41240 -11.37524 -11.33169 -11.32168  -7.58744
 Alpha  occ. eigenvalues --   -1.29019  -1.03848  -0.97882  -0.80611  -0.70665
 Alpha  occ. eigenvalues --   -0.64074  -0.63439  -0.56594  -0.50766  -0.45559
 Alpha  occ. eigenvalues --   -0.44092  -0.43004  -0.40880  -0.37767
 Alpha virt. eigenvalues --    0.03615   0.04300   0.04402   0.04436   0.06406
 Alpha virt. eigenvalues --    0.06528   0.06992   0.07197   0.07393   0.08763
 Alpha virt. eigenvalues --    0.09707   0.11045   0.12874   0.13560   0.14138

 Mulliken charges:
               1
     1  B    7.253504
     2  C   -3.739960
     3  C   -3.821294
     4  H   -4.785813
     5  H    1.457788
     6  H    1.505804
     7  C   -2.925109
     8  C   -3.098580
     9  H    1.573989
    10  H    1.534371
    11  H    1.236409
    12  H    1.278014
    13  H    1.274581
    14  H    1.256296
 Sum of Mulliken charges =   0.00000

 Dipole moment (field-independent basis, Debye):
    X=             -0.0046    Y=             -0.5452    Z=             -0.0079  Tot=              0.5453

 Test job not archived.
 1\1\GINC-SE364\SP\RHF\Aug-CC-pVDZ\C4H9B1\OHZDE\08-Apr-2025\0\\#t hf au
 g-cc-pvdz iop(5/13=1,5/36=2,99/5=2) pseudo=read geom=check guess=(read
 ,tcheck) scf=(maxcycle=1)\\title\\0,1\B,0,1.30377,1.04969,0.87592\C,0,
 1.05693,-0.42791,1.33827\C,0,2.13873,0.99762,-0.4568\H,0,0.97945,2.037
 94,1.46439\H,0,1.80068,-0.61278,2.12827\H,0,0.08798,-0.65725,1.78074\C
 ,0,1.40471,-1.26614,0.1003\C,0,2.51471,-0.48824,-0.61586\H,0,1.46809,1
 .30645,-1.26778\H,0,2.98684,1.68186,-0.50526\H,0,0.52534,-1.32781,-0.5
 5434\H,0,1.68548,-2.29474,0.32729\H,0,2.63803,-0.79699,-1.65377\H,0,3.

 Normal termination of Gaussian 16 at Tue Apr  8 22:26:32 2025.
