 Gaussian 16, Revision C.01,

 ----------------------------------------------------------------------
 #t hf aug-cc-pvdz symm=none int=(grid=ultrafine) guess=(read,tcheck) s
 table=(opt,rrhf)
 ----------------------------------------------------------------------
 -----
 title
 -----
 Symbolic Z-matrix:
 Charge =  0 Multiplicity = 1

 SCF Done:  E(RHF) =  -463.678063821     A.U. after   16 cycles
 Normal termination of Gaussian 16 at Tue Apr  8 22:26:26 2025.
 Gaussian 16:  ES64L-G16RevC.01  3-Jul-2019

 ----------------------------------------------------------------------
 #t hf aug-cc-pvdz iop(5/13=1,5/36=2,99/5=2) pseudo=read geom=check gue
 ss=(read,tcheck) scf=(maxcycle=1)
 ----------------------------------------------------------------------
 -----
 title
 -----
 Structure from the checkpoint file:  "B-set_borabenzene_pyridine_110_dimer_mol1.chk"
 Charge =  0 Multiplicity = 1

                         Standard orientation:
 ---------------------------------------------------------------------
 Center     Atomic      Atomic             Coordinates (Angstroms)
 Number     Number       Type             X           Y           Z
 ---------------------------------------------------------------------
      1          6           0       -1.581907    1.234661    0.364095
      2          6           0       -2.969477    1.163901    0.350075
      3          6           0       -3.649786   -0.000029   -0.000055
      4          6           0       -2.969376   -1.163939   -0.350015
      5          6           0       -1.581746   -1.234709   -0.364155
      6          1           0       -4.732056   -0.000049   -0.000125
      7          1           0       -1.136987    2.174541    0.680865
      8          1           0       -3.556927    2.033731    0.625805
      9          1           0       -3.556806   -2.033659   -0.626125
     10          1           0       -1.137176   -2.174499   -0.681655
     11          5           0       -0.840156   -0.000009    0.000015
     12          6           0        1.544773   -1.092099    0.383686
     13          6           0        2.920653   -1.127049    0.387036
     14          6           0        3.626133    0.000011   -0.000174
     15          6           0        2.920552    1.127131   -0.387094
     16          6           0        1.544692    1.092101   -0.383424
     17          7           0        0.865823   -0.000009    0.000136
     18          1           0        4.706673    0.000012   -0.000284
     19          1           0        0.937503   -1.927049    0.697036
     20          1           0        3.425883   -2.027259    0.701936
     21          1           0        3.425682    2.027411   -0.701954
     22          1           0        0.937172    1.927031   -0.696344
 ---------------------------------------------------------------------

 SCF Done:  E(RHF) =  -465.885779035     A.U. after    2 cycles

 The electronic state is 1-A.
 Alpha  occ. eigenvalues --  -15.82207 -11.54638 -11.50868 -11.48991 -11.45597
 Alpha  occ. eigenvalues --  -11.42926 -11.42301 -11.37399 -11.33735 -11.32082
 Alpha  occ. eigenvalues --  -11.29756  -7.56730  -1.53628  -1.27728  -1.23226
 Alpha  occ. eigenvalues --   -1.17044  -1.04389  -0.99525  -0.94491  -0.93785
 Alpha  occ. eigenvalues --   -0.80862  -0.78730  -0.74665  -0.69617  -0.66181
 Alpha  occ. eigenvalues --   -0.65777  -0.64436  -0.62043  -0.60690  -0.54837
 Alpha  occ. eigenvalues --   -0.53292  -0.51691  -0.48179  -0.47480  -0.43801
 Alpha  occ. eigenvalues --   -0.42354  -0.39286  -0.38878  -0.35733  -0.28652
 Alpha  occ. eigenvalues --   -0.23327
 Alpha virt. eigenvalues --    0.01744   0.03939   0.04128   0.05446   0.05508
 Alpha virt. eigenvalues --    0.05603   0.05818   0.07163   0.07347   0.07441
 Alpha virt. eigenvalues --    0.07664   0.08247   0.08631   0.09226   0.09984

 Mulliken charges:
               1
     1  C   -4.461060
     2  C   -1.000141
     3  C   -0.775873
     4  C   -0.999614
     5  C   -4.461700
     6  H    1.546919
     7  H    1.664099
     8  H    1.437093
     9  H    1.437118
    10  H    1.663714
    11  B    4.298116
    12  C   -0.623283
    13  C   -1.353328
    14  C   -0.129851
    15  C   -1.353904
    16  C   -0.621132
    17  N   -4.707725
    18  H    1.609753
    19  H    2.027561
    20  H    1.387799
    21  H    1.387736
    22  H    2.027701
 Sum of Mulliken charges =   0.00000

 Dipole moment (field-independent basis, Debye):
    X=              8.3559    Y=              0.0005    Z=             -0.0004  Tot=              8.3559

 Test job not archived.
 1\1\GINC-SE071\SP\RHF\Aug-CC-pVDZ\C10H10B1N1\OHZDE\08-Apr-2025\0\\#t h
 f aug-cc-pvdz iop(5/13=1,5/36=2,99/5=2) pseudo=read geom=check guess=(
 read,tcheck) scf=(maxcycle=1)\\title\\0,1\C,0,1.50247,-1.23466,0.3641\
 C,0,2.89004,-1.1639,0.35008\C,0,3.57035,0.00003,-0.00005\C,0,2.88994,1
 .16394,-0.35001\C,0,1.50231,1.23471,-0.36415\H,0,4.65262,0.00005,-0.00
 012\H,0,1.05755,-2.17454,0.68087\H,0,3.47749,-2.03373,0.62581\H,0,3.47
 737,2.03366,-0.62612\H,0,1.05774,2.1745,-0.68165\B,0,0.76072,0.00001,0
 .00002\C,0,-1.624209,1.0921,0.383691\C,0,-3.000089,1.12705,0.387041\C,

 Normal termination of Gaussian 16 at Tue Apr  8 22:26:41 2025.
