 Gaussian 16, Revision C.01,

 ----------------------------------------------------------------------
 #t hf aug-cc-pvdz symm=none int=(grid=ultrafine) guess=(read,tcheck) s
 table=(opt,rrhf)
 ----------------------------------------------------------------------
 -----
 title
 -----
 Symbolic Z-matrix:
 Charge =  0 Multiplicity = 1

 SCF Done:  E(RHF) =  -360.418895057     A.U. after   15 cycles

 1\1\GINC-SE362\Stability\RHF\Aug-CC-pVDZ\C8H14B2\OHZDE\08-Apr-2025\0\\
 #t hf aug-cc-pvdz symm=none int=(grid=ultrafine) guess=(read,tcheck) s
 table=(opt,rrhf)\\title\\0,1\B,0,-1.44421,-0.34378,-1.38976\C,0,-1.353
 82,1.11975,-0.80607\C,0,-2.20691,-1.16484,-0.27513\H,0,-1.05979,-0.732
 25,-2.44825\C,0,-1.96773,1.08262,0.37927\H,0,-0.92918,2.01911,-1.22576
 \C,0,-2.47978,-0.29789,0.7014\H,0,-2.48296,-2.20807,-0.24206\H,0,-2.10
 422,1.91644,1.05668\H,0,-2.99941,-0.51278,1.627\B,0,0.94166383,1.06902
 139,0.82932863\C,0,0.69482383,-0.40857861,1.29167863\C,0,1.77662383,1.

 Normal termination of Gaussian 16 at Tue Apr  8 22:28:52 2025.
 Gaussian 16:  ES64L-G16RevC.01  3-Jul-2019

 ----------------------------------------------------------------------
 #t hf aug-cc-pvdz iop(5/13=1,5/36=2,99/5=2) pseudo=read geom=check gue
 ss=(read,tcheck) scf=(maxcycle=1)
 ----------------------------------------------------------------------
 -----
 title
 -----
 Structure from the checkpoint file:  "B-set_borole_borolane_090_dimer_mol1.chk"
 Charge =  0 Multiplicity = 1

                         Standard orientation:
 ---------------------------------------------------------------------
 Center     Atomic      Atomic             Coordinates (Angstroms)
 Number     Number       Type             X           Y           Z
 ---------------------------------------------------------------------
      1          5           0       -1.208343   -0.365071   -1.402098
      2          6           0       -1.115325    1.109618   -0.847640
      3          6           0       -2.024285   -1.148969   -0.298471
      4          1           0       -0.792154   -0.783125   -2.437041
      5          6           0       -1.772370    1.108638    0.314938
      6          1           0       -0.661117    1.992634   -1.271060
      7          6           0       -2.318230   -0.256184    0.648208
      8          1           0       -2.318338   -2.186787   -0.252727
      9          1           0       -1.919729    1.959475    0.968491
     10          1           0       -2.874544   -0.442152    1.558625
     11          5           0        1.118166    1.060030    0.871489
     12          6           0        0.830634   -0.402810    1.356693
     13          6           0        1.999978    0.965106   -0.428283
     14          1           0        0.788873    2.066155    1.425923
     15          1           0        1.542110   -0.581407    2.177270
     16          1           0       -0.157348   -0.607103    1.768272
     17          6           0        1.209385   -1.273918    0.150929
     18          6           0        2.357188   -0.529603   -0.540922
     19          1           0        1.364338    1.266012   -1.269853
     20          1           0        2.860340    1.634850   -0.460590
     21          1           0        0.353462   -1.336627   -0.533988
     22          1           0        1.464912   -2.301393    0.410499
     23          1           0        2.513037   -0.863455   -1.566614
     24          1           0        3.285187   -0.723137    0.003126
 ---------------------------------------------------------------------

 SCF Done:  E(RHF) =  -362.248826834     A.U. after    2 cycles

 The electronic state is 1-A.
 Alpha  occ. eigenvalues --  -11.47844 -11.42411 -11.41188 -11.38400 -11.37589
 Alpha  occ. eigenvalues --  -11.35550 -11.33138 -11.32781  -7.61887  -7.58244
 Alpha  occ. eigenvalues --   -1.31818  -1.27814  -1.04672  -1.03266  -0.97903
 Alpha  occ. eigenvalues --   -0.93314  -0.80794  -0.74004  -0.73620  -0.70441
 Alpha  occ. eigenvalues --   -0.69110  -0.63869  -0.63629  -0.57306  -0.54876
 Alpha  occ. eigenvalues --   -0.51201  -0.47349  -0.46260  -0.45234  -0.44176
 Alpha  occ. eigenvalues --   -0.43369  -0.42827  -0.41432  -0.40307  -0.37415
 Alpha  occ. eigenvalues --   -0.30889
 Alpha virt. eigenvalues --    0.03369   0.03828   0.04278   0.04393   0.04596
 Alpha virt. eigenvalues --    0.05077   0.05510   0.05710   0.06159   0.06889
 Alpha virt. eigenvalues --    0.07444   0.07487   0.07883   0.08339   0.08694

 Mulliken charges:
               1
     1  B    8.931507
     2  C   -2.923220
     3  C   -3.420512
     4  H   -5.454863
     5  C   -2.108679
     6  H    1.622418
     7  C   -1.715425
     8  H    1.465044
     9  H    1.632209
    10  H    1.565850
    11  B   10.572069
    12  C   -4.271161
    13  C   -4.285118
    14  H   -6.656876
    15  H    1.401923
    16  H    2.043485
    17  C   -4.393955
    18  C   -3.315123
    19  H    1.828234
    20  H    1.398189
    21  H    2.092791
    22  H    1.347218
    23  H    1.352940
    24  H    1.291056
 Sum of Mulliken charges =  -0.00000

 Dipole moment (field-independent basis, Debye):
    X=             -0.4801    Y=             -0.1648    Z=              1.0138  Tot=              1.1337

 Test job not archived.
 1\1\GINC-SE362\SP\RHF\Aug-CC-pVDZ\C8H14B2\OHZDE\08-Apr-2025\0\\#t hf a
 ug-cc-pvdz iop(5/13=1,5/36=2,99/5=2) pseudo=read geom=check guess=(rea
 d,tcheck) scf=(maxcycle=1)\\title\\0,1\B,0,-1.44421,-0.34378,-1.38976\
 C,0,-1.35382,1.11975,-0.80607\C,0,-2.20691,-1.16484,-0.27513\H,0,-1.05
 979,-0.73225,-2.44825\C,0,-1.96773,1.08262,0.37927\H,0,-0.92918,2.0191
 1,-1.22576\C,0,-2.47978,-0.29789,0.7014\H,0,-2.48296,-2.20807,-0.24206
 \H,0,-2.10422,1.91644,1.05668\H,0,-2.99941,-0.51278,1.627\B,0,0.941663
 83,1.06902139,0.82932863\C,0,0.69482383,-0.40857861,1.29167863\C,0,1.7

 Normal termination of Gaussian 16 at Tue Apr  8 22:29:06 2025.
