 Gaussian 16, Revision C.01,

 ----------------------------------------------------------------------
 #t hf aug-cc-pvdz symm=none int=(grid=ultrafine) guess=(read,tcheck) s
 table=(opt,rrhf)
 ----------------------------------------------------------------------
 -----
 title
 -----
 Symbolic Z-matrix:
 Charge =  0 Multiplicity = 1

 SCF Done:  E(RHF) =  -26.3720794922     A.U. after    9 cycles
 Normal termination of Gaussian 16 at Tue Apr  8 22:22:35 2025.
 Gaussian 16:  ES64L-G16RevC.01  3-Jul-2019

 ----------------------------------------------------------------------
 #t hf aug-cc-pvdz iop(5/13=1,5/36=2,99/5=2) pseudo=read geom=check gue
 ss=(read,tcheck) scf=(maxcycle=1)
 ----------------------------------------------------------------------
 -----
 title
 -----
 Structure from the checkpoint file:  "B-set_borane_dms_090_dimer_mol2.chk"
 Charge =  0 Multiplicity = 1

                         Standard orientation:
 ---------------------------------------------------------------------
 Center     Atomic      Atomic             Coordinates (Angstroms)
 Number     Number       Type             X           Y           Z
 ---------------------------------------------------------------------
      1          5           0        0.001326   -0.000002   -0.106908
      2          1           0        1.177135   -0.000144    0.179249
      3          1           0       -0.592012   -1.011999    0.177647
      4          1           0       -0.591755    1.012154    0.177644
 ---------------------------------------------------------------------

 SCF Done:  E(RHF) =  -26.5187305286     A.U. after    2 cycles

 The electronic state is 1-A.
 Alpha  occ. eigenvalues --   -7.62709  -0.86098  -0.47022  -0.46822
 Alpha virt. eigenvalues --    0.02053   0.04328   0.04342   0.04908   0.09540
 Alpha virt. eigenvalues --    0.11408   0.11416   0.15380   0.24149   0.24193
 Alpha virt. eigenvalues --    0.25148   0.25265   0.25299   0.36376   0.36737

 Mulliken charges:
               1
     1  B    4.113512
     2  H   -1.374431
     3  H   -1.369544
     4  H   -1.369537
 Sum of Mulliken charges =  -0.00000

 Dipole moment (field-independent basis, Debye):
    X=              0.0044    Y=             -0.0000    Z=             -0.7467  Tot=              0.7467

 Test job not archived.
 1\1\GINC-SE015\SP\RHF\Aug-CC-pVDZ\B1H3\OHZDE\08-Apr-2025\0\\#t hf aug-
 cc-pvdz iop(5/13=1,5/36=2,99/5=2) pseudo=read geom=check guess=(read,t
 check) scf=(maxcycle=1)\\title\\0,1\B,0,1.77921,0.00284,0.30624\H,0,1.
 55019,0.00212,1.4945\H,0,2.28322,1.01582,-0.11448\H,0,2.28635,-1.00833
 ,-0.11509\\Version=ES64L-G16RevC.01\State=1-A\HF=-26.5187305\RMSD=4.44
 9e-02\Dipole=-0.2678453,-0.0003714,-0.1206479\Quadrupole=1.3038006,-0.
 8871177,-0.4166829,0.0030889,0.9944652,0.0013881\PG=C01 [X(B1H3)]\\@

 Normal termination of Gaussian 16 at Tue Apr  8 22:22:38 2025.
