 Gaussian 16, Revision C.01,

 ----------------------------------------------------------------------
 #t hf aug-cc-pvdz symm=none int=(grid=ultrafine) guess=(read,tcheck) s
 table=(opt,rrhf)
 ----------------------------------------------------------------------
 -----
 title
 -----
 Symbolic Z-matrix:
 Charge =  0 Multiplicity = 1

 SCF Done:  E(RHF) =  -497.137880096     A.U. after   14 cycles
 Normal termination of Gaussian 16 at Tue Apr  8 22:27:46 2025.
 Gaussian 16:  ES64L-G16RevC.01  3-Jul-2019

 ----------------------------------------------------------------------
 #t hf aug-cc-pvdz iop(5/13=1,5/36=2,99/5=2) pseudo=read geom=check gue
 ss=(read,tcheck) scf=(maxcycle=1)
 ----------------------------------------------------------------------
 -----
 title
 -----
 Structure from the checkpoint file:  "B-set_borepin_borazine_095_dimer_mol1.chk"
 Charge =  0 Multiplicity = 1

                         Standard orientation:
 ---------------------------------------------------------------------
 Center     Atomic      Atomic             Coordinates (Angstroms)
 Number     Number       Type             X           Y           Z
 ---------------------------------------------------------------------
      1          6           0       -0.981366   -1.159261    1.250745
      2          6           0       -1.785260   -1.520188    0.212979
      3          6           0       -0.602975    0.128349    1.712979
      4          1           0       -0.556789   -1.982548    1.813502
      5          6           0       -2.490896   -0.717258   -0.721902
      6          1           0       -1.907770   -2.588111    0.073827
      7          6           0       -0.942407    1.351255    1.219205
      8          1           0        0.059739    0.104127    2.573095
      9          6           0       -2.529900    0.640070   -0.832461
     10          1           0       -3.068299   -1.292917   -1.440004
     11          1           0       -0.500964    2.183374    1.761033
     12          5           0       -1.826052    1.684458    0.024432
     13          1           0       -3.152818    0.999083   -1.647684
     14          1           0       -1.982312    2.839430   -0.254964
     15          5           0        2.802015   -0.032526    0.576399
     16          7           0        2.330957    1.186835    0.014216
     17          7           0        2.263829   -1.244572    0.054679
     18          1           0        3.614245   -0.041752    1.453820
     19          5           0        1.344806    1.229571   -1.016105
     20          1           0        2.690975    2.053403    0.369768
     21          5           0        1.290708   -1.268892   -0.989177
     22          1           0        2.588960   -2.116483    0.430192
     23          7           0        0.861725   -0.016360   -1.508734
     24          1           0        0.947782    2.267729   -1.453081
     25          1           0        0.861285   -2.301223   -1.411475
     26          1           0        0.149818   -0.006293   -2.216174
 ---------------------------------------------------------------------

 SCF Done:  E(RHF) =  -499.455199809     A.U. after    2 cycles

 The electronic state is 1-A.
 Alpha  occ. eigenvalues --  -15.67677 -15.67361 -15.67017 -11.49587 -11.44923
 Alpha  occ. eigenvalues --  -11.42976 -11.41217 -11.38531 -11.36267  -7.61121
 Alpha  occ. eigenvalues --   -7.61005  -7.59481  -7.59209  -1.47735  -1.29730
 Alpha  occ. eigenvalues --   -1.29299  -1.29165  -1.15240  -1.09627  -0.91517
 Alpha  occ. eigenvalues --   -0.89381  -0.84391  -0.84253  -0.76219  -0.71231
 Alpha  occ. eigenvalues --   -0.69678  -0.68986  -0.61836  -0.57972  -0.57375
 Alpha  occ. eigenvalues --   -0.57258  -0.56960  -0.56012  -0.52896  -0.49772
 Alpha  occ. eigenvalues --   -0.48304  -0.47103  -0.41004  -0.40441  -0.40341
 Alpha  occ. eigenvalues --   -0.40008  -0.39287  -0.38714  -0.36834  -0.31077
 Alpha virt. eigenvalues --    0.01999   0.02131   0.02760   0.03276   0.05283
 Alpha virt. eigenvalues --    0.05388   0.05872   0.06010   0.06225   0.06516
 Alpha virt. eigenvalues --    0.07112   0.07532   0.07752   0.07984   0.08386

 Mulliken charges:
               1
     1  C   -1.123261
     2  C   -1.174603
     3  C   -1.228536
     4  H    1.556740
     5  C   -1.427988
     6  H    1.554227
     7  C   -3.867158
     8  H    1.528255
     9  C   -3.707307
    10  H    1.400789
    11  H    1.459487
    12  B    8.548985
    13  H    1.353430
    14  H   -5.542401
    15  B    7.847498
    16  N   -3.733353
    17  N   -3.828588
    18  H   -5.253338
    19  B    9.583257
    20  H    0.922834
    21  B    9.395469
    22  H    0.990767
    23  N   -4.486629
    24  H   -5.941822
    25  H   -6.008596
    26  H    1.181843
 Sum of Mulliken charges =   0.00000

 Dipole moment (field-independent basis, Debye):
    X=              0.2014    Y=             -2.1943    Z=              0.6396  Tot=              2.2944

 Test job not archived.
 1\1\GINC-SE365\SP\RHF\Aug-CC-pVDZ\C6H13B4N3\OHZDE\08-Apr-2025\0\\#t hf
  aug-cc-pvdz iop(5/13=1,5/36=2,99/5=2) pseudo=read geom=check guess=(r
 ead,tcheck) scf=(maxcycle=1)\\title\\0,1\C,0,-1.1002,-1.1557,1.24379\C
 ,0,-1.87153,-1.52215,0.18349\C,0,-0.73895,0.13441,1.71272\H,0,-0.6909,
 -1.97601,1.822\C,0,-2.55047,-0.72416,-0.77509\H,0,-1.98729,-2.59084,0.
 04445\C,0,-1.06616,1.35478,1.20463\H,0,-0.10247,0.11476,2.59254\C,0,-2
 .58928,0.63268,-0.89154\H,0,-3.10457,-1.30369,-1.50828\H,0,-0.64323,2.
 18983,1.75662\B,0,-1.91408,1.68172,-0.01745\H,0,-3.18812,0.98737,-1.72

 Normal termination of Gaussian 16 at Tue Apr  8 22:28:06 2025.
