 Gaussian 16, Revision C.01,

 ----------------------------------------------------------------------
 #t hf aug-cc-pvdz symm=none int=(grid=ultrafine) guess=(read,tcheck) s
 table=(opt,rrhf)
 ----------------------------------------------------------------------
 -----
 title
 -----
 Symbolic Z-matrix:
 Charge =  0 Multiplicity = 1

 SCF Done:  E(RHF) =  -103.273734542     A.U. after   11 cycles
 Normal termination of Gaussian 16 at Tue Apr  8 22:26:15 2025.
 Gaussian 16:  ES64L-G16RevC.01  3-Jul-2019

 ----------------------------------------------------------------------
 #t hf aug-cc-pvdz iop(5/13=1,5/36=2,99/5=2) pseudo=read geom=check gue
 ss=(read,tcheck) scf=(maxcycle=1)
 ----------------------------------------------------------------------
 -----
 title
 -----
 Structure from the checkpoint file:  "B-set_borirane_methane_090_dimer_mol2.chk"
 Charge =  0 Multiplicity = 1

                         Standard orientation:
 ---------------------------------------------------------------------
 Center     Atomic      Atomic             Coordinates (Angstroms)
 Number     Number       Type             X           Y           Z
 ---------------------------------------------------------------------
      1          5           0       -0.000159    0.963996   -0.008169
      2          6           0        0.772311   -0.351964    0.001225
      3          6           0       -0.772189   -0.352221    0.001208
      4          1           0       -0.000427    2.145231    0.011486
      5          1           0        1.273612   -0.676574    0.905796
      6          1           0        1.270485   -0.693049   -0.898486
      7          1           0       -1.273308   -0.676856    0.905877
      8          1           0       -1.270296   -0.693622   -0.898423
 ---------------------------------------------------------------------

 SCF Done:  E(RHF) =  -103.794819428     A.U. after    2 cycles

 The electronic state is 1-A.
 Alpha  occ. eigenvalues --  -11.36216 -11.33092  -7.62057  -1.22170  -0.85411
 Alpha  occ. eigenvalues --   -0.71789  -0.62514  -0.60796  -0.49444  -0.38479
 Alpha  occ. eigenvalues --   -0.34763
 Alpha virt. eigenvalues --    0.03532   0.03843   0.04032   0.04052   0.07049
 Alpha virt. eigenvalues --    0.07588   0.08249   0.10610   0.12727   0.13504
 Alpha virt. eigenvalues --    0.14218   0.14221   0.15673   0.17231   0.17982

 Mulliken charges:
               1
     1  B    3.997730
     2  C   -3.300950
     3  C   -3.301085
     4  H   -2.812023
     5  H    1.350837
     6  H    1.357360
     7  H    1.350852
     8  H    1.357279
 Sum of Mulliken charges =  -0.00000

 Dipole moment (field-independent basis, Debye):
    X=              0.0000    Y=             -0.2362    Z=             -0.0161  Tot=              0.2367

 Test job not archived.
 1\1\GINC-SE092\SP\RHF\Aug-CC-pVDZ\C2H5B1\OHZDE\08-Apr-2025\0\\#t hf au
 g-cc-pvdz iop(5/13=1,5/36=2,99/5=2) pseudo=read geom=check guess=(read
 ,tcheck) scf=(maxcycle=1)\\title\\0,1\B,0,0.70593,0.00043,0.93795\C,0,
 1.19139,0.77206,-0.28576\C,0,1.19085,-0.77244,-0.28519\H,0,0.29663,0.0
 0091,2.04618\H,0,2.15232,1.27299,-0.26115\H,0,0.47638,1.27018,-0.92968
 \H,0,2.15148,-1.27393,-0.26004\H,0,0.47563,-1.2706,-0.92885\\Version=E
 S64L-G16RevC.01\State=1-A\HF=-103.7948194\RMSD=1.472e-01\Dipole=0.0277
 396,-0.0000486,-0.0889139\Quadrupole=1.6941542,-0.6279015,-1.0662527,-

 Normal termination of Gaussian 16 at Tue Apr  8 22:26:17 2025.
