 Gaussian 16, Revision C.01,

 ----------------------------------------------------------------------
 #t hf aug-cc-pvdz symm=none int=(grid=ultrafine) guess=(read,tcheck) s
 table=(opt,rrhf)
 ----------------------------------------------------------------------
 -----
 title
 -----
 Symbolic Z-matrix:
 Charge =  0 Multiplicity = 1

 SCF Done:  E(RHF) =  -481.928950635     A.U. after   14 cycles
 Normal termination of Gaussian 16 at Tue Apr  8 22:28:22 2025.
 Gaussian 16:  ES64L-G16RevC.01  3-Jul-2019

 ----------------------------------------------------------------------
 #t hf aug-cc-pvdz iop(5/13=1,5/36=2,99/5=2) pseudo=read geom=check gue
 ss=(read,tcheck) scf=(maxcycle=1)
 ----------------------------------------------------------------------
 -----
 title
 -----
 Structure from the checkpoint file:  "B-set_phenylboronicacid_h2o_100_dimer_mol1.chk"
 Charge =  0 Multiplicity = 1

                         Standard orientation:
 ---------------------------------------------------------------------
 Center     Atomic      Atomic             Coordinates (Angstroms)
 Number     Number       Type             X           Y           Z
 ---------------------------------------------------------------------
      1          6           0       -1.259530    1.196709   -0.000100
      2          6           0       -2.645080    1.199668    0.000810
      3          6           0       -0.540999    0.000320   -0.000600
      4          1           0       -0.720220    2.134889   -0.000400
      5          6           0       -3.339129   -0.001072    0.001210
      6          1           0       -3.185620    2.136798    0.001170
      7          6           0       -1.258339   -1.196781   -0.000160
      8          5           0        1.025441    0.001060   -0.001600
      9          6           0       -2.643889   -1.201122    0.000700
     10          1           0       -4.421109   -0.001603    0.001890
     11          1           0       -0.718108   -2.134431   -0.000570
     12          8           0        1.682420    1.200311   -0.002030
     13          8           0        1.683731   -1.197479   -0.001940
     14          1           0       -3.183498   -2.138782    0.001000
     15          1           0        2.637770    1.106221   -0.002390
     16          1           0        2.638971   -1.101629   -0.002480
     17          8           0        4.387061   -0.001188    0.002410
     18          1           0        4.956151   -0.003827    0.771060
     19          1           0        4.964551   -0.002427   -0.759970
 ---------------------------------------------------------------------

 SCF Done:  E(RHF) =  -484.075144817     A.U. after    2 cycles

 The electronic state is 1-A.
 Alpha  occ. eigenvalues --  -21.15022 -21.03489 -21.03461 -11.49660 -11.40936
 Alpha  occ. eigenvalues --  -11.40545 -11.38542 -11.38454 -11.33500  -7.63724
 Alpha  occ. eigenvalues --   -1.79984  -1.72076  -1.63919  -1.32273  -1.08199
 Alpha  occ. eigenvalues --   -1.07182  -0.86246  -0.84403  -0.75138  -0.68862
 Alpha  occ. eigenvalues --   -0.68277  -0.65234  -0.61722  -0.56122  -0.55624
 Alpha  occ. eigenvalues --   -0.54041  -0.53475  -0.49920  -0.45869  -0.45510
 Alpha  occ. eigenvalues --   -0.43133  -0.40960  -0.37344  -0.34875  -0.34445
 Alpha  occ. eigenvalues --   -0.31222  -0.31052
 Alpha virt. eigenvalues --    0.02033   0.04367   0.04887   0.05677   0.06151
 Alpha virt. eigenvalues --    0.06477   0.07215   0.07234   0.07914   0.08912
 Alpha virt. eigenvalues --    0.09308   0.10348   0.10930   0.11929   0.13489

 Mulliken charges:
               1
     1  C   -0.984658
     2  C   -1.320834
     3  C    0.309349
     4  H    2.036989
     5  C   -2.811577
     6  H    1.544006
     7  C   -0.982987
     8  B    4.517721
     9  C   -1.319248
    10  H    1.493956
    11  H    2.037077
    12  O   -4.298290
    13  O   -4.298140
    14  H    1.544093
    15  H    1.434135
    16  H    1.438415
    17  O   -2.556562
    18  H    1.107617
    19  H    1.108939
 Sum of Mulliken charges =   0.00000

 Dipole moment (field-independent basis, Debye):
    X=              3.8955    Y=             -0.0026    Z=              0.0061  Tot=              3.8955

 Test job not archived.
 1\1\GINC-SE368\SP\RHF\Aug-CC-pVDZ\C6H9B1O3\OHZDE\08-Apr-2025\0\\#t hf
 aug-cc-pvdz iop(5/13=1,5/36=2,99/5=2) pseudo=read geom=check guess=(re
 ad,tcheck) scf=(maxcycle=1)\\title\\0,1\C,0,1.25953,-1.19671,-0.0001\C
 ,0,2.64508,-1.19967,0.00081\C,0,0.541,-0.00032,-0.0006\H,0,0.72022,-2.
 13489,-0.0004\C,0,3.33913,0.00107,0.00121\H,0,3.18562,-2.1368,0.00117\
 C,0,1.25834,1.19678,-0.00016\B,0,-1.02544,-0.00106,-0.0016\C,0,2.64389
 ,1.20112,0.0007\H,0,4.42111,0.0016,0.00189\H,0,0.71811,2.13443,-0.0005
 7\O,0,-1.68242,-1.20031,-0.00203\O,0,-1.68373,1.19748,-0.00194\H,0,3.1

 Normal termination of Gaussian 16 at Tue Apr  8 22:28:30 2025.
