 Gaussian 16, Revision C.01,

 ----------------------------------------------------------------------
 #t hf aug-cc-pvdz symm=none int=(grid=ultrafine) guess=(read,tcheck) s
 table=(opt,rrhf)
 ----------------------------------------------------------------------
 -----
 title
 -----
 Symbolic Z-matrix:
 Charge =  0 Multiplicity = 1

 SCF Done:  E(RHF) =  -143.473651730     A.U. after   11 cycles
 Normal termination of Gaussian 16 at Tue Apr  8 22:26:21 2025.
 Gaussian 16:  ES64L-G16RevC.01  3-Jul-2019

 ----------------------------------------------------------------------
 #t hf aug-cc-pvdz iop(5/13=1,5/36=2,99/5=2) pseudo=read geom=check gue
 ss=(read,tcheck) scf=(maxcycle=1)
 ----------------------------------------------------------------------
 -----
 title
 -----
 Structure from the checkpoint file:  "B-set_borirane_methane_125_dimer_mol1.chk"
 Charge =  0 Multiplicity = 1

                         Standard orientation:
 ---------------------------------------------------------------------
 Center     Atomic      Atomic             Coordinates (Angstroms)
 Number     Number       Type             X           Y           Z
 ---------------------------------------------------------------------
      1          5           0       -0.985023   -0.000418    0.932985
      2          6           0       -1.454738   -0.772072   -0.296839
      3          6           0       -1.454223    0.772428   -0.296286
      4          1           0       -0.589971   -0.000877    2.046374
      5          1           0       -2.415899   -1.273013   -0.284549
      6          1           0       -0.731522   -1.270194   -0.931527
      7          1           0       -2.415102    1.273907   -0.283467
      8          1           0       -0.730812    1.270586   -0.930726
      9          6           0        2.925685   -0.000046   -0.072308
     10          1           0        2.532563   -0.890903    0.414173
     11          1           0        4.010415   -0.000343    0.002441
     12          1           0        2.632086    0.000334   -1.119740
     13          1           0        2.533016    0.890737    0.414692
 ---------------------------------------------------------------------

 SCF Done:  E(RHF) =  -144.228624390     A.U. after    2 cycles

 The electronic state is 1-A.
 Alpha  occ. eigenvalues --  -11.36164 -11.35922 -11.33147  -7.62090  -1.22134
 Alpha  occ. eigenvalues --   -1.03303  -0.85367  -0.71775  -0.62472  -0.60721
 Alpha  occ. eigenvalues --   -0.54020  -0.54001  -0.53866  -0.49397  -0.38419
 Alpha  occ. eigenvalues --   -0.34700
 Alpha virt. eigenvalues --    0.03114   0.03712   0.03933   0.04100   0.06402
 Alpha virt. eigenvalues --    0.07036   0.07602   0.07833   0.08366   0.09218
 Alpha virt. eigenvalues --    0.09281   0.11128   0.12679   0.13311   0.14385

 Mulliken charges:
               1
     1  B    4.236075
     2  C   -3.510311
     3  C   -3.510513
     4  H   -2.976539
     5  H    1.374542
     6  H    1.495097
     7  H    1.374583
     8  H    1.495021
     9  C   -5.069964
    10  H    1.279669
    11  H    1.273590
    12  H    1.259115
    13  H    1.279636
 Sum of Mulliken charges =   0.00000

 Dipole moment (field-independent basis, Debye):
    X=              0.0039    Y=              0.0001    Z=             -0.2282  Tot=              0.2282

 Test job not archived.
 1\1\GINC-SE332\SP\RHF\Aug-CC-pVDZ\C3H9B1\OHZDE\08-Apr-2025\0\\#t hf au
 g-cc-pvdz iop(5/13=1,5/36=2,99/5=2) pseudo=read geom=check guess=(read
 ,tcheck) scf=(maxcycle=1)\\title\\0,1\B,0,0.70593,0.00043,0.93795\C,0,
 1.19139,0.77206,-0.28576\C,0,1.19085,-0.77244,-0.28519\H,0,0.29663,0.0
 0091,2.04618\H,0,2.15232,1.27299,-0.26115\H,0,0.47638,1.27018,-0.92968
 \H,0,2.15148,-1.27393,-0.26004\H,0,0.47563,-1.2706,-0.92885\C,0,-3.191
 56156,0.000087,-0.11742163\H,0,-2.80470156,0.890947,0.37404837\H,0,-4.
 27716156,0.000397,-0.05659162\H,0,-2.88455156,-0.000313,-1.16100162\H,

 Normal termination of Gaussian 16 at Tue Apr  8 22:26:23 2025.
