 Gaussian 16, Revision C.01,

 ----------------------------------------------------------------------
 #t hf aug-cc-pvdz symm=none int=(grid=ultrafine) guess=(read,tcheck) s
 table=(opt,rrhf)
 ----------------------------------------------------------------------
 -----
 title
 -----
 Symbolic Z-matrix:
 Charge =  0 Multiplicity = 1

 SCF Done:  E(RHF) =  -497.146892016     A.U. after   13 cycles
 Normal termination of Gaussian 16 at Tue Apr  8 22:26:42 2025.
 Gaussian 16:  ES64L-G16RevC.01  3-Jul-2019

 ----------------------------------------------------------------------
 #t hf aug-cc-pvdz iop(5/13=1,5/36=2,99/5=2) pseudo=read geom=check gue
 ss=(read,tcheck) scf=(maxcycle=1)
 ----------------------------------------------------------------------
 -----
 title
 -----
 Structure from the checkpoint file:  "B-set_borepin_borazine_200_dimer_mol1.chk"
 Charge =  0 Multiplicity = 1

                         Standard orientation:
 ---------------------------------------------------------------------
 Center     Atomic      Atomic             Coordinates (Angstroms)
 Number     Number       Type             X           Y           Z
 ---------------------------------------------------------------------
      1          6           0       -3.013777   -1.128786    1.142431
      2          6           0       -3.579140   -1.539828   -0.025850
      3          6           0       -2.759316    0.180767    1.627302
      4          1           0       -2.702710   -1.924397    1.809516
      5          6           0       -4.087559   -0.782464   -1.114212
      6          1           0       -3.653745   -2.614046   -0.149628
      7          6           0       -3.007535    1.379758    1.031203
      8          1           0       -2.289275    0.198241    2.606247
      9          6           0       -4.123527    0.569533   -1.278202
     10          1           0       -4.494457   -1.393031   -1.915518
     11          1           0       -2.700956    2.238051    1.622991
     12          5           0       -3.628934    1.655644   -0.331547
     13          1           0       -4.569086    0.888896   -2.216813
     14          1           0       -3.741450    2.797539   -0.677746
     15          5           0        4.692399    0.033847    1.051065
     16          7           0        4.329690    1.224223    0.360969
     17          7           0        4.292834   -1.205618    0.472304
     18          1           0        5.304861    0.070177    2.077340
     19          5           0        3.578340    1.212719   -0.851971
     20          1           0        4.594765    2.109297    0.752567
     21          5           0        3.558064   -1.284262   -0.748810
     22          1           0        4.546242   -2.057892    0.937451
     23          7           0        3.227154   -0.058468   -1.389693
     24          1           0        3.264828    2.227594   -1.397946
     25          1           0        3.241495   -2.338611   -1.214190
     26          1           0        2.677523   -0.086404   -2.229043
 ---------------------------------------------------------------------

 SCF Done:  E(RHF) =  -499.457040485     A.U. after    2 cycles

 The electronic state is 1-A.
 Alpha  occ. eigenvalues --  -15.67965 -15.67883 -15.67838 -11.49180 -11.44532
 Alpha  occ. eigenvalues --  -11.42726 -11.40881 -11.38471 -11.36054  -7.61317
 Alpha  occ. eigenvalues --   -7.61299  -7.59843  -7.59149  -1.48245  -1.29778
 Alpha  occ. eigenvalues --   -1.29516  -1.29414  -1.15266  -1.09564  -0.91488
 Alpha  occ. eigenvalues --   -0.89304  -0.84565  -0.84497  -0.76608  -0.71218
 Alpha  occ. eigenvalues --   -0.69709  -0.68973  -0.61965  -0.58206  -0.57648
 Alpha  occ. eigenvalues --   -0.57555  -0.57108  -0.56467  -0.52118  -0.49907
 Alpha  occ. eigenvalues --   -0.48473  -0.47894  -0.41044  -0.40797  -0.40646
 Alpha  occ. eigenvalues --   -0.40106  -0.38845  -0.38754  -0.37120  -0.31225
 Alpha virt. eigenvalues --    0.01618   0.01674   0.01942   0.03426   0.04528
 Alpha virt. eigenvalues --    0.04831   0.05094   0.05755   0.05913   0.06342
 Alpha virt. eigenvalues --    0.06428   0.07142   0.07494   0.07708   0.07820

 Mulliken charges:
               1
     1  C   -0.930509
     2  C   -0.900594
     3  C   -0.697191
     4  H    1.420116
     5  C   -0.580766
     6  H    1.420768
     7  C   -3.791193
     8  H    1.321627
     9  C   -3.845813
    10  H    1.303177
    11  H    1.372226
    12  B    7.133617
    13  H    1.379460
    14  H   -4.590571
    15  B    6.736732
    16  N   -3.421487
    17  N   -3.391400
    18  H   -4.512915
    19  B    7.030829
    20  H    1.127226
    21  B    6.983336
    22  H    1.133668
    23  N   -3.462664
    24  H   -4.680708
    25  H   -4.648309
    26  H    1.091337
 Sum of Mulliken charges =  -0.00000

 Dipole moment (field-independent basis, Debye):
    X=              0.1790    Y=             -2.2490    Z=              0.6816  Tot=              2.3568

 Test job not archived.
 1\1\GINC-SE460\SP\RHF\Aug-CC-pVDZ\C6H13B4N3\OHZDE\08-Apr-2025\0\\#t hf
  aug-cc-pvdz iop(5/13=1,5/36=2,99/5=2) pseudo=read geom=check guess=(r
 ead,tcheck) scf=(maxcycle=1)\\title\\0,1\C,0,-1.1002,-1.1557,1.24379\C
 ,0,-1.87153,-1.52215,0.18349\C,0,-0.73895,0.13441,1.71272\H,0,-0.6909,
 -1.97601,1.822\C,0,-2.55047,-0.72416,-0.77509\H,0,-1.98729,-2.59084,0.
 04445\C,0,-1.06616,1.35478,1.20463\H,0,-0.10247,0.11476,2.59254\C,0,-2
 .58928,0.63268,-0.89154\H,0,-3.10457,-1.30369,-1.50828\H,0,-0.64323,2.
 18983,1.75662\B,0,-1.91408,1.68172,-0.01745\H,0,-3.18812,0.98737,-1.72

 Normal termination of Gaussian 16 at Tue Apr  8 22:26:59 2025.
