 Gaussian 16, Revision C.01,

 ----------------------------------------------------------------------
 #t hf aug-cc-pvdz symm=none int=(grid=ultrafine) guess=(read,tcheck) s
 table=(opt,rrhf)
 ----------------------------------------------------------------------
 -----
 title
 -----
 Symbolic Z-matrix:
 Charge =  0 Multiplicity = 1

 SCF Done:  E(RHF) =  -497.144530287     A.U. after   14 cycles
 Normal termination of Gaussian 16 at Tue Apr  8 22:28:22 2025.
 Gaussian 16:  ES64L-G16RevC.01  3-Jul-2019

 ----------------------------------------------------------------------
 #t hf aug-cc-pvdz iop(5/13=1,5/36=2,99/5=2) pseudo=read geom=check gue
 ss=(read,tcheck) scf=(maxcycle=1)
 ----------------------------------------------------------------------
 -----
 title
 -----
 Structure from the checkpoint file:  "B-set_borepin_borazine_105_dimer_mol1.chk"
 Charge =  0 Multiplicity = 1

                         Standard orientation:
 ---------------------------------------------------------------------
 Center     Atomic      Atomic             Coordinates (Angstroms)
 Number     Number       Type             X           Y           Z
 ---------------------------------------------------------------------
      1          6           0       -1.213652   -1.152577    1.236289
      2          6           0       -1.957200   -1.523918    0.157997
      3          6           0       -0.866941    0.139729    1.710120
      4          1           0       -0.817468   -1.970237    1.827249
      5          6           0       -2.613277   -0.730319   -0.819953
      6          1           0       -2.067281   -2.593272    0.019454
      7          6           0       -1.183630    1.357834    1.190068
      8          1           0       -0.252868    0.124132    2.605803
      9          6           0       -2.651831    0.626069   -0.941634
     10          1           0       -3.147510   -1.313271   -1.565078
     11          1           0       -0.776452    2.195469    1.749929
     12          5           0       -2.001034    1.679217   -0.054079
     13          1           0       -3.230078    0.976922   -1.792539
     14          1           0       -2.146440    2.831622   -0.349473
     15          5           0        2.959349   -0.019389    0.692100
     16          7           0        2.515048    1.194122    0.096472
     17          7           0        2.456071   -1.237254    0.149507
     18          1           0        3.721683   -0.019191    1.613250
     19          5           0        1.587403    1.225641   -0.987209
     20          1           0        2.851115    2.064624    0.465601
     21          5           0        1.542471   -1.272817   -0.946514
     22          1           0        2.763556   -2.105208    0.548328
     23          7           0        1.137675   -0.025665   -1.497473
     24          1           0        1.210843    2.259108   -1.452502
     25          1           0        1.141511   -2.309828   -1.385018
     26          1           0        0.466075   -0.023459   -2.243350
 ---------------------------------------------------------------------

 SCF Done:  E(RHF) =  -499.453230371     A.U. after    2 cycles

 The electronic state is 1-A.
 Alpha  occ. eigenvalues --  -15.67785 -15.67551 -15.67261 -11.49528 -11.44887
 Alpha  occ. eigenvalues --  -11.42911 -11.41190 -11.38537 -11.36226  -7.61159
 Alpha  occ. eigenvalues --   -7.61056  -7.59557  -7.59197  -1.47822  -1.29749
 Alpha  occ. eigenvalues --   -1.29275  -1.29162  -1.15216  -1.09550  -0.91462
 Alpha  occ. eigenvalues --   -0.89298  -0.84354  -0.84273  -0.76269  -0.71184
 Alpha  occ. eigenvalues --   -0.69656  -0.68943  -0.61851  -0.57951  -0.57348
 Alpha  occ. eigenvalues --   -0.57316  -0.56996  -0.56128  -0.52171  -0.49798
 Alpha  occ. eigenvalues --   -0.48344  -0.47615  -0.40974  -0.40485  -0.40399
 Alpha  occ. eigenvalues --   -0.40021  -0.38904  -0.38533  -0.37119  -0.31222
 Alpha virt. eigenvalues --    0.01953   0.02075   0.02666   0.03272   0.05195
 Alpha virt. eigenvalues --    0.05308   0.05872   0.05972   0.06231   0.06473
 Alpha virt. eigenvalues --    0.07092   0.07626   0.07736   0.07972   0.08354

 Mulliken charges:
               1
     1  C   -1.150088
     2  C   -1.042472
     3  C   -1.225062
     4  H    1.600259
     5  C   -1.324967
     6  H    1.519548
     7  C   -3.728040
     8  H    1.439447
     9  C   -3.661882
    10  H    1.403781
    11  H    1.489578
    12  B    8.385633
    13  H    1.366534
    14  H   -5.397857
    15  B    7.756775
    16  N   -3.780752
    17  N   -3.730547
    18  H   -5.126143
    19  B    9.132477
    20  H    1.010942
    21  B    8.874558
    22  H    1.074011
    23  N   -4.569705
    24  H   -5.766510
    25  H   -5.700209
    26  H    1.150691
 Sum of Mulliken charges =   0.00000

 Dipole moment (field-independent basis, Debye):
    X=              0.1567    Y=             -2.1996    Z=              0.6263  Tot=              2.2924

 Test job not archived.
 1\1\GINC-SE250\SP\RHF\Aug-CC-pVDZ\C6H13B4N3\OHZDE\08-Apr-2025\0\\#t hf
  aug-cc-pvdz iop(5/13=1,5/36=2,99/5=2) pseudo=read geom=check guess=(r
 ead,tcheck) scf=(maxcycle=1)\\title\\0,1\C,0,-1.1002,-1.1557,1.24379\C
 ,0,-1.87153,-1.52215,0.18349\C,0,-0.73895,0.13441,1.71272\H,0,-0.6909,
 -1.97601,1.822\C,0,-2.55047,-0.72416,-0.77509\H,0,-1.98729,-2.59084,0.
 04445\C,0,-1.06616,1.35478,1.20463\H,0,-0.10247,0.11476,2.59254\C,0,-2
 .58928,0.63268,-0.89154\H,0,-3.10457,-1.30369,-1.50828\H,0,-0.64323,2.
 18983,1.75662\B,0,-1.91408,1.68172,-0.01745\H,0,-3.18812,0.98737,-1.72

 Normal termination of Gaussian 16 at Tue Apr  8 22:28:46 2025.
