 Gaussian 16, Revision C.01,

 ----------------------------------------------------------------------
 #t hf aug-cc-pvdz symm=none int=(grid=ultrafine) guess=(read,tcheck) s
 table=(opt,rrhf)
 ----------------------------------------------------------------------
 -----
 title
 -----
 Symbolic Z-matrix:
 Charge =  0 Multiplicity = 1

 SCF Done:  E(RHF) =  -360.437425574     A.U. after   15 cycles

 1\1\GINC-SE048\Stability\RHF\Aug-CC-pVDZ\C8H14B2\OHZDE\08-Apr-2025\0\\
 #t hf aug-cc-pvdz symm=none int=(grid=ultrafine) guess=(read,tcheck) s
 table=(opt,rrhf)\\title\\0,1\B,0,-1.44421,-0.34378,-1.38976\C,0,-1.353
 82,1.11975,-0.80607\C,0,-2.20691,-1.16484,-0.27513\H,0,-1.05979,-0.732
 25,-2.44825\C,0,-1.96773,1.08262,0.37927\H,0,-0.92918,2.01911,-1.22576
 \C,0,-2.47978,-0.29789,0.7014\H,0,-2.48296,-2.20807,-0.24206\H,0,-2.10
 422,1.91644,1.05668\H,0,-2.99941,-0.51278,1.627\B,0,3.11430086,0.95303
 307,1.10887686\C,0,2.86746086,-0.52456693,1.57122686\C,0,3.94926086,0.

 Normal termination of Gaussian 16 at Tue Apr  8 22:29:56 2025.
 Gaussian 16:  ES64L-G16RevC.01  3-Jul-2019

 ----------------------------------------------------------------------
 #t hf aug-cc-pvdz iop(5/13=1,5/36=2,99/5=2) pseudo=read geom=check gue
 ss=(read,tcheck) scf=(maxcycle=1)
 ----------------------------------------------------------------------
 -----
 title
 -----
 Structure from the checkpoint file:  "B-set_borole_borolane_150_dimer_mol1.chk"
 Charge =  0 Multiplicity = 1

                         Standard orientation:
 ---------------------------------------------------------------------
 Center     Atomic      Atomic             Coordinates (Angstroms)
 Number     Number       Type             X           Y           Z
 ---------------------------------------------------------------------
      1          5           0       -2.497298   -0.302024   -1.343569
      2          6           0       -2.409493    1.132619   -0.691744
      3          6           0       -3.146456   -1.204817   -0.220266
      4          1           0       -2.182295   -0.622809   -2.446727
      5          6           0       -2.929987    1.014031    0.532314
      6          1           0       -2.046892    2.066547   -1.093747
      7          6           0       -3.371778   -0.398354    0.818251
      8          1           0       -3.385787   -2.257596   -0.221910
      9          1           0       -3.041084    1.807338    1.261074
     10          1           0       -3.812398   -0.677937    1.767259
     11          5           0        2.194352    1.029800    0.874449
     12          6           0        2.030627   -0.477051    1.275191
     13          6           0        2.926780    1.074671   -0.517509
     14          1           0        1.884377    1.974994    1.536750
     15          1           0        2.837815   -0.674668    1.996880
     16          1           0        1.105938   -0.762848    1.775701
     17          6           0        2.309806   -1.239030   -0.027727
     18          6           0        3.336761   -0.386918   -0.782302
     19          1           0        2.186904    1.399681   -1.258978
     20          1           0        3.746499    1.790379   -0.592651
     21          1           0        1.385614   -1.299137   -0.617562
     22          1           0        2.639679   -2.267036    0.123142
     23          1           0        3.390576   -0.638509   -1.841357
     24          1           0        4.328234   -0.568194   -0.359520
 ---------------------------------------------------------------------

 SCF Done:  E(RHF) =  -362.235707533     A.U. after    2 cycles

 The electronic state is 1-A.
 Alpha  occ. eigenvalues --  -11.46752 -11.41301 -11.40439 -11.37442 -11.36726
 Alpha  occ. eigenvalues --  -11.34731 -11.33018 -11.32228  -7.61325  -7.58617
 Alpha  occ. eigenvalues --   -1.30409  -1.28798  -1.03656  -1.03386  -0.97708
 Alpha  occ. eigenvalues --   -0.92677  -0.80437  -0.73478  -0.72916  -0.70481
 Alpha  occ. eigenvalues --   -0.68686  -0.63882  -0.63250  -0.56395  -0.54935
 Alpha  occ. eigenvalues --   -0.50582  -0.47390  -0.45890  -0.45371  -0.44007
 Alpha  occ. eigenvalues --   -0.43923  -0.42831  -0.41368  -0.40696  -0.37576
 Alpha  occ. eigenvalues --   -0.30396
 Alpha virt. eigenvalues --    0.02628   0.03458   0.04016   0.04132   0.04254
 Alpha virt. eigenvalues --    0.04877   0.05314   0.05765   0.06042   0.06541
 Alpha virt. eigenvalues --    0.06912   0.07202   0.07590   0.08184   0.08675

 Mulliken charges:
               1
     1  B    7.510698
     2  C   -3.057118
     3  C   -2.790131
     4  H   -4.432939
     5  C   -1.311338
     6  H    1.472961
     7  C   -1.607436
     8  H    1.387402
     9  H    1.484441
    10  H    1.443178
    11  B    7.709918
    12  C   -4.063176
    13  C   -4.043343
    14  H   -5.229827
    15  H    1.423688
    16  H    1.817983
    17  C   -3.298130
    18  C   -3.259544
    19  H    1.789415
    20  H    1.490534
    21  H    1.620380
    22  H    1.273621
    23  H    1.325555
    24  H    1.343209
 Sum of Mulliken charges =  -0.00000

 Dipole moment (field-independent basis, Debye):
    X=             -0.3984    Y=             -0.0504    Z=              1.0384  Tot=              1.1133

 Test job not archived.
 1\1\GINC-SE048\SP\RHF\Aug-CC-pVDZ\C8H14B2\OHZDE\08-Apr-2025\0\\#t hf a
 ug-cc-pvdz iop(5/13=1,5/36=2,99/5=2) pseudo=read geom=check guess=(rea
 d,tcheck) scf=(maxcycle=1)\\title\\0,1\B,0,-1.44421,-0.34378,-1.38976\
 C,0,-1.35382,1.11975,-0.80607\C,0,-2.20691,-1.16484,-0.27513\H,0,-1.05
 979,-0.73225,-2.44825\C,0,-1.96773,1.08262,0.37927\H,0,-0.92918,2.0191
 1,-1.22576\C,0,-2.47978,-0.29789,0.7014\H,0,-2.48296,-2.20807,-0.24206
 \H,0,-2.10422,1.91644,1.05668\H,0,-2.99941,-0.51278,1.627\B,0,3.114300
 86,0.95303307,1.10887686\C,0,2.86746086,-0.52456693,1.57122686\C,0,3.9

 Normal termination of Gaussian 16 at Tue Apr  8 22:30:10 2025.
