 Gaussian 16, Revision C.01,

 ----------------------------------------------------------------------
 #t hf aug-cc-pvdz symm=none int=(grid=ultrafine) guess=(read,tcheck) s
 table=(opt,rrhf)
 ----------------------------------------------------------------------
 -----
 title
 -----
 Symbolic Z-matrix:
 Charge =  0 Multiplicity = 1

 SCF Done:  E(RHF) =  -497.142090670     A.U. after   14 cycles
 Normal termination of Gaussian 16 at Tue Apr  8 22:28:06 2025.
 Gaussian 16:  ES64L-G16RevC.01  3-Jul-2019

 ----------------------------------------------------------------------
 #t hf aug-cc-pvdz iop(5/13=1,5/36=2,99/5=2) pseudo=read geom=check gue
 ss=(read,tcheck) scf=(maxcycle=1)
 ----------------------------------------------------------------------
 -----
 title
 -----
 Structure from the checkpoint file:  "B-set_borepin_borazine_100_dimer_mol1.chk"
 Charge =  0 Multiplicity = 1

                         Standard orientation:
 ---------------------------------------------------------------------
 Center     Atomic      Atomic             Coordinates (Angstroms)
 Number     Number       Type             X           Y           Z
 ---------------------------------------------------------------------
      1          6           0       -1.100200   -1.155703    1.243790
      2          6           0       -1.871529   -1.522153    0.183490
      3          6           0       -0.738951    0.134408    1.712720
      4          1           0       -0.690899   -1.976012    1.822000
      5          6           0       -2.550470   -0.724164   -0.775090
      6          1           0       -1.987288   -2.590843    0.044450
      7          6           0       -1.066162    1.354777    1.204630
      8          1           0       -0.102471    0.114758    2.592540
      9          6           0       -2.589281    0.632676   -0.891540
     10          1           0       -3.104570   -1.303694   -1.508280
     11          1           0       -0.643233    2.189828    1.756620
     12          5           0       -1.914082    1.681717   -0.017450
     13          1           0       -3.188122    0.987366   -1.726460
     14          1           0       -2.064523    2.835337   -0.305490
     15          5           0        2.879619   -0.025589    0.638940
     16          7           0        2.422918    1.190680    0.058510
     17          7           0        2.360270   -1.240730    0.105460
     18          1           0        3.664989   -0.029819    1.540520
     19          5           0        1.468248    1.227470   -1.001270
     20          1           0        2.770008    2.059341    0.421730
     21          5           0        1.419190   -1.271010   -0.967220
     22          1           0        2.675941   -2.110549    0.493680
     23          7           0        1.003179   -0.021321   -1.503890
     24          1           0        1.082187    2.263149   -1.453680
     25          1           0        1.005131   -2.305831   -1.398670
     26          1           0        0.312949   -0.015421   -2.232540
 ---------------------------------------------------------------------

 SCF Done:  E(RHF) =  -499.454091921     A.U. after    2 cycles

 The electronic state is 1-A.
 Alpha  occ. eigenvalues --  -15.67741 -15.67471 -15.67152 -11.49562 -11.44908
 Alpha  occ. eigenvalues --  -11.42946 -11.41207 -11.38534 -11.36245  -7.61141
 Alpha  occ. eigenvalues --   -7.61030  -7.59523  -7.59199  -1.47777  -1.29736
 Alpha  occ. eigenvalues --   -1.29279  -1.29156  -1.15222  -1.09576  -0.91481
 Alpha  occ. eigenvalues --   -0.89326  -0.84360  -0.84260  -0.76240  -0.71200
 Alpha  occ. eigenvalues --   -0.69663  -0.68958  -0.61841  -0.57952  -0.57349
 Alpha  occ. eigenvalues --   -0.57284  -0.56981  -0.56076  -0.52448  -0.49785
 Alpha  occ. eigenvalues --   -0.48325  -0.47410  -0.40980  -0.40459  -0.40369
 Alpha  occ. eigenvalues --   -0.40013  -0.39064  -0.38587  -0.37035  -0.31176
 Alpha virt. eigenvalues --    0.01976   0.02104   0.02714   0.03272   0.05238
 Alpha virt. eigenvalues --    0.05350   0.05876   0.05990   0.06222   0.06494
 Alpha virt. eigenvalues --    0.07101   0.07584   0.07748   0.07978   0.08375

 Mulliken charges:
               1
     1  C   -1.117321
     2  C   -1.110639
     3  C   -1.243608
     4  H    1.591209
     5  C   -1.379839
     6  H    1.534193
     7  C   -3.779652
     8  H    1.478658
     9  C   -3.690003
    10  H    1.404254
    11  H    1.482725
    12  B    8.455710
    13  H    1.364425
    14  H   -5.462272
    15  B    7.807966
    16  N   -3.778954
    17  N   -3.780442
    18  H   -5.180530
    19  B    9.350551
    20  H    0.973671
    21  B    9.106405
    22  H    1.043859
    23  N   -4.547377
    24  H   -5.851049
    25  H   -5.836639
    26  H    1.164700
 Sum of Mulliken charges =  -0.00000

 Dipole moment (field-independent basis, Debye):
    X=              0.1770    Y=             -2.1970    Z=              0.6279  Tot=              2.2918

 Test job not archived.
 1\1\GINC-SE398\SP\RHF\Aug-CC-pVDZ\C6H13B4N3\OHZDE\08-Apr-2025\0\\#t hf
  aug-cc-pvdz iop(5/13=1,5/36=2,99/5=2) pseudo=read geom=check guess=(r
 ead,tcheck) scf=(maxcycle=1)\\title\\0,1\C,0,-1.1002,-1.1557,1.24379\C
 ,0,-1.87153,-1.52215,0.18349\C,0,-0.73895,0.13441,1.71272\H,0,-0.6909,
 -1.97601,1.822\C,0,-2.55047,-0.72416,-0.77509\H,0,-1.98729,-2.59084,0.
 04445\C,0,-1.06616,1.35478,1.20463\H,0,-0.10247,0.11476,2.59254\C,0,-2
 .58928,0.63268,-0.89154\H,0,-3.10457,-1.30369,-1.50828\H,0,-0.64323,2.
 18983,1.75662\B,0,-1.91408,1.68172,-0.01745\H,0,-3.18812,0.98737,-1.72

 Normal termination of Gaussian 16 at Tue Apr  8 22:28:29 2025.
