 Gaussian 16, Revision C.01,

 ----------------------------------------------------------------------
 #t hf aug-cc-pvdz symm=none int=(grid=ultrafine) guess=(read,tcheck) s
 table=(opt,rrhf)
 ----------------------------------------------------------------------
 -----
 title
 -----
 Symbolic Z-matrix:
 Charge =  0 Multiplicity = 1

 SCF Done:  E(RHF) =  -481.919511502     A.U. after   14 cycles
 Normal termination of Gaussian 16 at Tue Apr  8 22:28:26 2025.
 Gaussian 16:  ES64L-G16RevC.01  3-Jul-2019

 ----------------------------------------------------------------------
 #t hf aug-cc-pvdz iop(5/13=1,5/36=2,99/5=2) pseudo=read geom=check gue
 ss=(read,tcheck) scf=(maxcycle=1)
 ----------------------------------------------------------------------
 -----
 title
 -----
 Structure from the checkpoint file:  "B-set_phenylboronicacid_h2o_150_dimer_mol1.chk"
 Charge =  0 Multiplicity = 1

                         Standard orientation:
 ---------------------------------------------------------------------
 Center     Atomic      Atomic             Coordinates (Angstroms)
 Number     Number       Type             X           Y           Z
 ---------------------------------------------------------------------
      1          6           0       -1.642169    1.196579    0.000094
      2          6           0       -3.027719    1.199276    0.001442
      3          6           0       -0.923412    0.000325   -0.000635
      4          1           0       -1.103037    2.134861   -0.000376
      5          6           0       -3.721541   -0.001596    0.002060
      6          1           0       -3.568437    2.136303    0.001974
      7          6           0       -1.640524   -1.196911    0.000030
      8          5           0        0.643028    0.001363   -0.002131
      9          6           0       -3.026073   -1.201514    0.001329
     10          1           0       -4.803520   -0.002332    0.003082
     11          1           0       -1.100116   -2.134458   -0.000552
     12          8           0        1.299780    1.200738   -0.002767
     13          8           0        1.301545   -1.197052   -0.002680
     14          1           0       -3.565505   -2.139276    0.001798
     15          1           0        2.255147    1.106829   -0.003429
     16          1           0        2.256767   -1.101021   -0.003522
     17          8           0        6.834501   -0.001050    0.002342
     18          1           0        7.403835   -0.003582    0.770812
     19          1           0        7.411751   -0.002179   -0.760220
 ---------------------------------------------------------------------

 SCF Done:  E(RHF) =  -484.068903654     A.U. after    2 cycles

 The electronic state is 1-A.
 Alpha  occ. eigenvalues --  -21.11239 -21.05804 -21.05784 -11.50220 -11.41647
 Alpha  occ. eigenvalues --  -11.41228 -11.39170 -11.39159 -11.34234  -7.65349
 Alpha  occ. eigenvalues --   -1.81941  -1.67370  -1.65726  -1.32991  -1.08966
 Alpha  occ. eigenvalues --   -1.07867  -0.87162  -0.85127  -0.76226  -0.69099
 Alpha  occ. eigenvalues --   -0.66600  -0.65037  -0.62152  -0.56807  -0.56060
 Alpha  occ. eigenvalues --   -0.54809  -0.50999  -0.49427  -0.47477  -0.46803
 Alpha  occ. eigenvalues --   -0.43909  -0.39167  -0.36583  -0.36483  -0.36329
 Alpha  occ. eigenvalues --   -0.32019  -0.31706
 Alpha virt. eigenvalues --    0.02822   0.03899   0.05329   0.05400   0.05706
 Alpha virt. eigenvalues --    0.06272   0.06293   0.06715   0.07622   0.08462
 Alpha virt. eigenvalues --    0.08486   0.11195   0.11277   0.11443   0.12982

 Mulliken charges:
               1
     1  C   -0.451721
     2  C   -1.544157
     3  C   -0.369492
     4  H    2.071212
     5  C   -2.683953
     6  H    1.524397
     7  C   -0.451549
     8  B    4.460206
     9  C   -1.543945
    10  H    1.501436
    11  H    2.071147
    12  O   -4.038375
    13  O   -4.038904
    14  H    1.524390
    15  H    0.982701
    16  H    0.982385
    17  O   -1.789551
    18  H    0.896880
    19  H    0.896895
 Sum of Mulliken charges =   0.00000

 Dipole moment (field-independent basis, Debye):
    X=              2.5268    Y=             -0.0019    Z=              0.0044  Tot=              2.5268

 Test job not archived.
 1\1\GINC-SE070\SP\RHF\Aug-CC-pVDZ\C6H9B1O3\OHZDE\08-Apr-2025\0\\#t hf
 aug-cc-pvdz iop(5/13=1,5/36=2,99/5=2) pseudo=read geom=check guess=(re
 ad,tcheck) scf=(maxcycle=1)\\title\\0,1\C,0,1.25953,-1.19671,-0.0001\C
 ,0,2.64508,-1.19967,0.00081\C,0,0.541,-0.00032,-0.0006\H,0,0.72022,-2.
 13489,-0.0004\C,0,3.33913,0.00107,0.00121\H,0,3.18562,-2.1368,0.00117\
 C,0,1.25834,1.19678,-0.00016\B,0,-1.02544,-0.00106,-0.0016\C,0,2.64389
 ,1.20112,0.0007\H,0,4.42111,0.0016,0.00189\H,0,0.71811,2.13443,-0.0005
 7\O,0,-1.68242,-1.20031,-0.00203\O,0,-1.68373,1.19748,-0.00194\H,0,3.1

 Normal termination of Gaussian 16 at Tue Apr  8 22:28:34 2025.
