 Gaussian 16, Revision C.01,

 ----------------------------------------------------------------------
 #t hf aug-cc-pvdz symm=none int=(grid=ultrafine) guess=(read,tcheck) s
 table=(opt,rrhf)
 ----------------------------------------------------------------------
 -----
 title
 -----
 Symbolic Z-matrix:
 Charge =  0 Multiplicity = 1

 SCF Done:  E(RHF) =  -219.228272252     A.U. after   12 cycles
 Normal termination of Gaussian 16 at Tue Apr  8 22:27:36 2025.
 Gaussian 16:  ES64L-G16RevC.01  3-Jul-2019

 ----------------------------------------------------------------------
 #t hf aug-cc-pvdz iop(5/13=1,5/36=2,99/5=2) pseudo=read geom=check gue
 ss=(read,tcheck) scf=(maxcycle=1)
 ----------------------------------------------------------------------
 -----
 title
 -----
 Structure from the checkpoint file:  "B-set_borole_methane_125_dimer_mol1.chk"
 Charge =  0 Multiplicity = 1

                         Standard orientation:
 ---------------------------------------------------------------------
 Center     Atomic      Atomic             Coordinates (Angstroms)
 Number     Number       Type             X           Y           Z
 ---------------------------------------------------------------------
      1          5           0       -0.344498   -0.153002    1.216658
      2          6           0       -0.949376   -1.269792    0.276874
      3          6           0       -0.693886    1.206037    0.491911
      4          1           0        0.201957   -0.301012    2.264954
      5          6           0       -1.546612   -0.621950   -0.724824
      6          1           0       -0.944632   -2.345089    0.374092
      7          6           0       -1.391375    0.873830   -0.595416
      8          1           0       -0.469120    2.224974    0.769219
      9          1           0       -2.087434   -1.070780   -1.549203
     10          1           0       -1.812628    1.556741   -1.323103
     11          6           0        3.432000   -0.042699   -0.331546
     12          1           0        4.379681   -0.525776   -0.558870
     13          1           0        3.420781    0.962058   -0.746265
     14          1           0        2.618690   -0.621379   -0.765419
     15          1           0        3.310692    0.012718    0.749306
 ---------------------------------------------------------------------

 SCF Done:  E(RHF) =  -220.326601772     A.U. after    2 cycles

 The electronic state is 1-A.
 Alpha  occ. eigenvalues --  -11.46502 -11.40153 -11.36482 -11.35400 -11.34580
 Alpha  occ. eigenvalues --   -7.61122  -1.30258  -1.03269  -1.02675  -0.92474
 Alpha  occ. eigenvalues --   -0.73336  -0.72760  -0.68506  -0.54844  -0.53458
 Alpha  occ. eigenvalues --   -0.53415  -0.53248  -0.47236  -0.45719  -0.43776
 Alpha  occ. eigenvalues --   -0.41203  -0.30277
 Alpha virt. eigenvalues --    0.02825   0.03241   0.04416   0.04570   0.04903
 Alpha virt. eigenvalues --    0.05765   0.06213   0.06842   0.07486   0.08361
 Alpha virt. eigenvalues --    0.08744   0.08783   0.11892   0.12595   0.13940

 Mulliken charges:
               1
     1  B    7.733347
     2  C   -2.970411
     3  C   -2.998984
     4  H   -4.441108
     5  C   -1.444242
     6  H    1.371351
     7  C   -1.382496
     8  H    1.384948
     9  H    1.394288
    10  H    1.399887
    11  C   -5.170179
    12  H    1.231096
    13  H    1.243019
    14  H    1.293377
    15  H    1.356107
 Sum of Mulliken charges =   0.00000

 Dipole moment (field-independent basis, Debye):
    X=             -0.7150    Y=              0.1940    Z=             -1.2580  Tot=              1.4599

 Test job not archived.
 1\1\GINC-SE093\SP\RHF\Aug-CC-pVDZ\C5H9B1\OHZDE\08-Apr-2025\0\\#t hf au
 g-cc-pvdz iop(5/13=1,5/36=2,99/5=2) pseudo=read geom=check guess=(read
 ,tcheck) scf=(maxcycle=1)\\title\\0,1\B,0,0.06513,-0.1638,-1.2018\C,0,
 0.7417,-1.2672,-0.29568\C,0,0.44816,1.2043,-0.51194\H,0,-0.54783,-0.32
 544,-2.21056\C,0,1.39732,-0.60567,0.65948\H,0,0.74116,-2.34325,-0.3843
 \C,0,1.21913,0.88749,0.52939\H,0,0.19554,2.2188,-0.78143\H,0,1.99577,-
 1.0427,1.44967\H,0,1.68073,1.58021,1.22251\C,0,-3.60186525,-0.076213,0
 .5916645\H,0,-4.52766525,-0.566263,0.8847245\H,0,-3.57321525,0.931947,

 Normal termination of Gaussian 16 at Tue Apr  8 22:27:40 2025.
