 Gaussian 16, Revision C.01,

 ----------------------------------------------------------------------
 #t hf aug-cc-pvdz symm=none int=(grid=ultrafine) guess=(read,tcheck) s
 table=(opt,rrhf)
 ----------------------------------------------------------------------
 -----
 title
 -----
 Symbolic Z-matrix:
 Charge =  0 Multiplicity = 1

 SCF Done:  E(RHF) =  -464.889524343     A.U. after   15 cycles
 Normal termination of Gaussian 16 at Tue Apr  8 22:26:27 2025.
 Gaussian 16:  ES64L-G16RevC.01  3-Jul-2019

 ----------------------------------------------------------------------
 #t hf aug-cc-pvdz iop(5/13=1,5/36=2,99/5=2) pseudo=read geom=check gue
 ss=(read,tcheck) scf=(maxcycle=1)
 ----------------------------------------------------------------------
 -----
 title
 -----
 Structure from the checkpoint file:  "B-set_azaborine_benzene_095_dimer_mol1.chk"
 Charge =  0 Multiplicity = 1

                         Standard orientation:
 ---------------------------------------------------------------------
 Center     Atomic      Atomic             Coordinates (Angstroms)
 Number     Number       Type             X           Y           Z
 ---------------------------------------------------------------------
      1          7           0        0.869817    0.198251   -0.055164
      2          5           0        1.671992    1.377297   -0.032195
      3          6           0        1.382831   -1.057268   -0.038178
      4          1           0       -0.135537    0.259069   -0.084016
      5          6           0        3.161841    1.129984    0.012143
      6          1           0        1.115761    2.434291   -0.049318
      7          6           0        2.723874   -1.265085    0.001793
      8          1           0        0.673261   -1.872981   -0.057626
      9          6           0        3.612483   -0.159360    0.026780
     10          1           0        3.895533    1.926351    0.033116
     11          1           0        3.102657   -2.275910    0.014428
     12          1           0        4.675844   -0.372595    0.058388
     13          6           0       -2.181943   -0.169373    1.392221
     14          6           0       -2.241424    1.104529    0.845826
     15          6           0       -2.157521   -1.280200    0.561263
     16          1           0       -2.149028   -0.296047    2.465363
     17          6           0       -2.275784    1.267795   -0.531767
     18          1           0       -2.252244    1.970500    1.492750
     19          6           0       -2.191701   -1.117285   -0.816409
     20          1           0       -2.111036   -2.272883    0.987839
     21          6           0       -2.250642    0.156828   -1.362925
     22          1           0       -2.313599    2.260763   -0.957398
     23          1           0       -2.171102   -1.982590   -1.464610
     24          1           0       -2.271268    0.284399   -2.436275
 ---------------------------------------------------------------------

 SCF Done:  E(RHF) =  -467.137239725     A.U. after    2 cycles

 The electronic state is 1-A.
 Alpha  occ. eigenvalues --  -15.72987 -11.53069 -11.46193 -11.43870 -11.43645
 Alpha  occ. eigenvalues --  -11.42420 -11.41474 -11.41302 -11.37281 -11.36843
 Alpha  occ. eigenvalues --  -11.33289  -7.57965  -1.43632  -1.35533  -1.17928
 Alpha  occ. eigenvalues --   -1.10644  -1.10595  -1.06630  -0.87160  -0.87136
 Alpha  occ. eigenvalues --   -0.85435  -0.83891  -0.73856  -0.72690  -0.66567
 Alpha  occ. eigenvalues --   -0.64214  -0.59947  -0.59522  -0.59465  -0.57181
 Alpha  occ. eigenvalues --   -0.54490  -0.53295  -0.51865  -0.51274  -0.45806
 Alpha  occ. eigenvalues --   -0.45789  -0.42841  -0.39954  -0.37089  -0.34752
 Alpha  occ. eigenvalues --   -0.34341  -0.28237
 Alpha virt. eigenvalues --    0.03162   0.04348   0.04537   0.04567   0.05321
 Alpha virt. eigenvalues --    0.05876   0.05898   0.06655   0.06751   0.06795
 Alpha virt. eigenvalues --    0.07077   0.07913   0.09525   0.09644   0.10314

 Mulliken charges:
               1
     1  N   -3.620114
     2  B    6.316455
     3  C   -0.055362
     4  H    1.840000
     5  C   -3.481678
     6  H   -4.327915
     7  C   -1.022554
     8  H    2.097481
     9  C   -1.051420
    10  H    1.329940
    11  H    1.452005
    12  H    1.477216
    13  C   -1.914707
    14  C   -1.755598
    15  C   -1.661445
    16  H    1.629943
    17  C   -1.743545
    18  H    1.633031
    19  C   -1.726876
    20  H    1.620380
    21  C   -1.947485
    22  H    1.639945
    23  H    1.629821
    24  H    1.642482
 Sum of Mulliken charges =  -0.00000

 Dipole moment (field-independent basis, Debye):
    X=             -2.2073    Y=             -1.7309    Z=              0.0065  Tot=              2.8051

 Test job not archived.
 1\1\GINC-SE343\SP\RHF\Aug-CC-pVDZ\C10H12B1N1\OHZDE\08-Apr-2025\0\\#t h
 f aug-cc-pvdz iop(5/13=1,5/36=2,99/5=2) pseudo=read geom=check guess=(
 read,tcheck) scf=(maxcycle=1)\\title\\0,1\N,0,-0.98689,0.19856,0.05529
 \B,0,-1.78972,1.37715,0.03178\C,0,-1.49918,-1.05725,0.03801\H,0,0.0184
 1,0.25995,0.08478\C,0,-3.2794,1.12899,-0.0135\H,0,-1.2341,2.43446,0.04
 923\C,0,-2.84008,-1.26583,-0.00281\H,0,-0.78916,-1.87256,0.05793\C,0,-
 3.7293,-0.16061,-0.02839\H,0,-4.01353,1.92494,-0.03496\H,0,-3.21828,-2
 .27687,-0.01566\H,0,-4.79252,-0.37445,-0.06067\C,0,2.06599879,-0.16736

 Normal termination of Gaussian 16 at Tue Apr  8 22:26:45 2025.
