 Gaussian 16, Revision C.01,

 ----------------------------------------------------------------------
 #t hf aug-cc-pvdz symm=none int=(grid=ultrafine) guess=(read,tcheck) s
 table=(opt,rrhf)
 ----------------------------------------------------------------------
 -----
 title
 -----
 Symbolic Z-matrix:
 Charge =  0 Multiplicity = 1

 SCF Done:  E(RHF) =  -241.184518497     A.U. after   11 cycles
 Normal termination of Gaussian 16 at Tue Apr  8 22:23:22 2025.
 Gaussian 16:  ES64L-G16RevC.01  3-Jul-2019

 ----------------------------------------------------------------------
 #t hf aug-cc-pvdz iop(5/13=1,5/36=2,99/5=2) pseudo=read geom=check gue
 ss=(read,tcheck) scf=(maxcycle=1)
 ----------------------------------------------------------------------
 -----
 title
 -----
 Structure from the checkpoint file:  "B-set_borepin_borazine_090_dimer_mol3.chk"
 Charge =  0 Multiplicity = 1

                         Standard orientation:
 ---------------------------------------------------------------------
 Center     Atomic      Atomic             Coordinates (Angstroms)
 Number     Number       Type             X           Y           Z
 ---------------------------------------------------------------------
      1          5           0        1.361071   -0.481579    0.001178
      2          7           0        1.069741    0.911200   -0.007772
      3          7           0        0.255873   -1.381255    0.004640
      4          1           0        2.487375   -0.882886    0.008999
      5          5           0       -0.263503    1.419245    0.007493
      6          1           0        1.831830    1.564022   -0.004136
      7          5           0       -1.100109   -0.935748   -0.000624
      8          1           0        0.438470   -2.367965    0.001458
      9          7           0       -1.323985    0.468742   -0.010213
     10          1           0       -0.480455    2.593537    0.025431
     11          1           0       -2.007463   -1.713660   -0.003697
     12          1           0       -2.268452    0.806555    0.025124
 ---------------------------------------------------------------------

 SCF Done:  E(RHF) =  -242.275978173     A.U. after    2 cycles

 The electronic state is 1-A.
 Alpha  occ. eigenvalues --  -15.68023 -15.67948 -15.67942  -7.61404  -7.61364
 Alpha  occ. eigenvalues --   -7.59920  -1.48333  -1.29617  -1.29470  -0.84652
 Alpha  occ. eigenvalues --   -0.84563  -0.76692  -0.58294  -0.57734  -0.57624
 Alpha  occ. eigenvalues --   -0.56548  -0.52209  -0.40891  -0.40711  -0.38955
 Alpha  occ. eigenvalues --   -0.38808
 Alpha virt. eigenvalues --    0.01636   0.01638   0.02350   0.04027   0.07419
 Alpha virt. eigenvalues --    0.07428   0.07612   0.08644   0.09267   0.09277
 Alpha virt. eigenvalues --    0.09899   0.09901   0.10531   0.11923   0.11927

 Mulliken charges:
               1
     1  B    6.684718
     2  N   -3.275388
     3  N   -3.281996
     4  H   -4.535611
     5  B    6.690838
     6  H    1.127580
     7  B    6.687480
     8  H    1.125224
     9  N   -3.279524
    10  H   -4.539089
    11  H   -4.534635
    12  H    1.130403
 Sum of Mulliken charges =   0.00000

 Dipole moment (field-independent basis, Debye):
    X=             -0.0196    Y=              0.0249    Z=              0.0478  Tot=              0.0573

 Test job not archived.
 1\1\GINC-SE221\SP\RHF\Aug-CC-pVDZ\B3H6N3\OHZDE\08-Apr-2025\0\\#t hf au
 g-cc-pvdz iop(5/13=1,5/36=2,99/5=2) pseudo=read geom=check guess=(read
 ,tcheck) scf=(maxcycle=1)\\title\\0,1\B,0,2.87962,-0.02559,0.63894\N,0
 ,2.42292,1.19068,0.05851\N,0,2.36027,-1.24073,0.10546\H,0,3.66499,-0.0
 2982,1.54052\B,0,1.46825,1.22747,-1.00127\H,0,2.77001,2.05934,0.42173\
 B,0,1.41919,-1.27101,-0.96722\H,0,2.67594,-2.11055,0.49368\N,0,1.00318
 ,-0.02132,-1.50389\H,0,1.08219,2.26315,-1.45368\H,0,1.00513,-2.30583,-
 1.39867\H,0,0.31295,-0.01542,-2.23254\\Version=ES64L-G16RevC.01\State=

 Normal termination of Gaussian 16 at Tue Apr  8 22:23:26 2025.
