 Gaussian 16, Revision C.01,

 ----------------------------------------------------------------------
 #t hf aug-cc-pvdz symm=none int=(grid=ultrafine) guess=(read,tcheck) s
 table=(opt,rrhf)
 ----------------------------------------------------------------------
 -----
 title
 -----
 Symbolic Z-matrix:
 Charge =  0 Multiplicity = 1

 SCF Done:  E(RHF) =  -327.278116654     A.U. after   12 cycles
 Normal termination of Gaussian 16 at Tue Apr  8 22:25:18 2025.
 Gaussian 16:  ES64L-G16RevC.01  3-Jul-2019

 ----------------------------------------------------------------------
 #t hf aug-cc-pvdz iop(5/13=1,5/36=2,99/5=2) pseudo=read geom=check gue
 ss=(read,tcheck) scf=(maxcycle=1)
 ----------------------------------------------------------------------
 -----
 title
 -----
 Structure from the checkpoint file:  "B-set_boricacid_h2o_090_dimer_mol1.chk"
 Charge =  0 Multiplicity = 1

                         Standard orientation:
 ---------------------------------------------------------------------
 Center     Atomic      Atomic             Coordinates (Angstroms)
 Number     Number       Type             X           Y           Z
 ---------------------------------------------------------------------
      1          5           0       -0.690605   -0.025312    0.004758
      2          8           0       -0.018275   -1.198718    0.005969
      3          8           0       -0.004058    1.173002    0.006170
      4          8           0       -2.055866    0.015116    0.005613
      5          1           0        0.942142   -1.078239   -0.012103
      6          1           0       -0.588199    1.928510   -0.011232
      7          1           0       -2.444996   -0.857230   -0.002273
      8          8           0        2.216065   -0.062350   -0.092743
      9          1           0        1.643683    0.712819   -0.060578
     10          1           0        2.797467    0.004301    0.662321
 ---------------------------------------------------------------------

 SCF Done:  E(RHF) =  -328.624028022     A.U. after    2 cycles

 The electronic state is 1-A.
 Alpha  occ. eigenvalues --  -21.09548 -21.07055 -21.05515 -21.02167  -7.65148
 Alpha  occ. eigenvalues --   -1.88346  -1.69254  -1.67337  -1.64570  -0.78317
 Alpha  occ. eigenvalues --   -0.70397  -0.65496  -0.61295  -0.53887  -0.52390
 Alpha  occ. eigenvalues --   -0.45665  -0.41748  -0.39109  -0.37881  -0.35417
 Alpha  occ. eigenvalues --   -0.32646
 Alpha virt. eigenvalues --    0.03268   0.04532   0.04927   0.05493   0.07560
 Alpha virt. eigenvalues --    0.07875   0.08643   0.10069   0.10319   0.14989
 Alpha virt. eigenvalues --    0.18883   0.20675   0.21397   0.21756   0.22877

 Mulliken charges:
               1
     1  B    7.539486
     2  O   -3.864663
     3  O   -3.719820
     4  O   -3.716597
     5  H    1.788083
     6  H    1.074416
     7  H    0.917906
     8  O   -2.066985
     9  H    1.203467
    10  H    0.844706
 Sum of Mulliken charges =   0.00000

 Dipole moment (field-independent basis, Debye):
    X=              0.4877    Y=              0.8553    Z=              0.6439  Tot=              1.1764

 Test job not archived.
 1\1\GINC-SE362\SP\RHF\Aug-CC-pVDZ\B1H5O4\OHZDE\08-Apr-2025\0\\#t hf au
 g-cc-pvdz iop(5/13=1,5/36=2,99/5=2) pseudo=read geom=check guess=(read
 ,tcheck) scf=(maxcycle=1)\\title\\0,1\B,0,-0.76791,-0.02465,0.00325\O,
 0,-0.10569,-1.20379,0.00191\O,0,-0.07109,1.16772,0.00192\O,0,-2.13276,
 0.02751,0.00942\H,0,0.85565,-1.09157,-0.01991\H,0,-0.64878,1.92822,-0.
 01325\H,0,-2.5294,-0.84146,0.0031\O,0,2.13793243,-0.08666881,-0.105568
 71\H,0,1.57236243,0.69339119,-0.07121871\H,0,2.72282243,-0.02499881,0.
 64722129\\Version=ES64L-G16RevC.01\State=1-A\HF=-328.624028\RMSD=1.107

 Normal termination of Gaussian 16 at Tue Apr  8 22:25:21 2025.
