 Gaussian 16, Revision C.01,

 ----------------------------------------------------------------------
 #t hf aug-cc-pvdz symm=none int=(grid=ultrafine) guess=(read,tcheck) s
 table=(opt,rrhf)
 ----------------------------------------------------------------------
 -----
 title
 -----
 Symbolic Z-matrix:
 Charge =  0 Multiplicity = 1

 SCF Done:  E(RHF) =  -736.592404733     A.U. after   11 cycles
 Normal termination of Gaussian 16 at Tue Apr  8 22:39:23 2025.
 Gaussian 16:  ES64L-G16RevC.01  3-Jul-2019

 ----------------------------------------------------------------------
 #t hf aug-cc-pvdz iop(5/13=1,5/36=2,99/5=2) pseudo=read geom=check gue
 ss=(read,tcheck) scf=(maxcycle=1)
 ----------------------------------------------------------------------
 -----
 title
 -----
 Structure from the checkpoint file:  "B-set_trimethylborate_trimethylborate_105_dimer_mol1.chk"
 Charge =  0 Multiplicity = 1

                         Standard orientation:
 ---------------------------------------------------------------------
 Center     Atomic      Atomic             Coordinates (Angstroms)
 Number     Number       Type             X           Y           Z
 ---------------------------------------------------------------------
      1          5           0        1.686156   -0.001417    0.000625
      2          8           0        1.687565   -1.340914    0.246538
      3          8           0        1.690971    0.881410    1.037575
      4          8           0        1.690962    0.455347   -1.282390
      5          6           0        1.626968   -1.834411    1.571094
      6          6           0        1.633614    2.275374    0.802725
      7          6           0        1.632056   -0.444882   -2.372152
      8          1           0        0.632450   -1.676476    1.989402
      9          1           0        1.834234   -2.901763    1.531750
     10          1           0        2.363896   -1.347777    2.210171
     11          1           0        1.846340    2.774645    1.745676
     12          1           0        2.368205    2.583107    0.058413
     13          1           0        0.638488    2.561516    0.460873
     14          1           0        1.837064    0.123466   -3.276934
     15          1           0        2.371226   -1.239713   -2.271149
     16          1           0        0.638770   -0.888893   -2.444080
     17          5           0       -1.686096    0.001235   -0.000627
     18          8           0       -1.690431   -0.880513   -1.038517
     19          8           0       -1.690411   -0.456659    1.282009
     20          8           0       -1.688315    1.341002   -0.245240
     21          6           0       -1.632615   -2.274687   -0.804678
     22          6           0       -1.631375    0.442981    2.372382
     23          6           0       -1.628948    1.835979   -1.569286
     24          1           0       -2.369256   -2.583642   -0.062915
     25          1           0       -1.842100   -2.773248   -1.748719
     26          1           0       -0.638308   -2.560337   -0.460026
     27          1           0       -1.837263   -0.125698    3.276764
     28          1           0       -0.637689    0.886031    2.444910
     29          1           0       -2.369865    1.238391    2.271307
     30          1           0       -0.634481    1.679614   -1.988365
     31          1           0       -2.365557    1.349125   -2.208553
     32          1           0       -1.837374    2.903052   -1.528822
 ---------------------------------------------------------------------

 SCF Done:  E(RHF) =  -739.839385108     A.U. after    2 cycles

 The electronic state is 1-A.
 Alpha  occ. eigenvalues --  -21.01526 -21.01488 -21.01460 -21.01459 -21.01441
 Alpha  occ. eigenvalues --  -21.01440 -11.40029 -11.40023 -11.40022 -11.39836
 Alpha  occ. eigenvalues --  -11.39833 -11.39791  -7.64174  -7.64139  -1.90748
 Alpha  occ. eigenvalues --   -1.89726  -1.69898  -1.69897  -1.69551  -1.69550
 Alpha  occ. eigenvalues --   -1.02539  -1.02436  -0.97995  -0.97990  -0.97377
 Alpha  occ. eigenvalues --   -0.97375  -0.69204  -0.68592  -0.64298  -0.64294
 Alpha  occ. eigenvalues --   -0.64047  -0.64038  -0.64033  -0.61800  -0.59725
 Alpha  occ. eigenvalues --   -0.59723  -0.59054  -0.59052  -0.58282  -0.58187
 Alpha  occ. eigenvalues --   -0.52069  -0.52066  -0.51962  -0.51960  -0.48498
 Alpha  occ. eigenvalues --   -0.47639  -0.46225  -0.45713  -0.34134  -0.34126
 Alpha  occ. eigenvalues --   -0.33944  -0.33942  -0.32853  -0.32847  -0.32333
 Alpha  occ. eigenvalues --   -0.32324
 Alpha virt. eigenvalues --    0.03602   0.04161   0.04162   0.04415   0.05285
 Alpha virt. eigenvalues --    0.05286   0.05638   0.06236   0.06237   0.06674
 Alpha virt. eigenvalues --    0.07171   0.07462   0.07671   0.07674   0.08174

 Mulliken charges:
               1
     1  B   16.100384
     2  O   -6.067985
     3  O   -6.057779
     4  O   -6.072299
     5  C   -3.932271
     6  C   -3.933333
     7  C   -3.932898
     8  H    1.694406
     9  H    1.294191
    10  H    1.645362
    11  H    1.293141
    12  H    1.645398
    13  H    1.690236
    14  H    1.294364
    15  H    1.643742
    16  H    1.695505
    17  B   16.098242
    18  O   -6.060008
    19  O   -6.071625
    20  O   -6.064219
    21  C   -3.933446
    22  C   -3.933791
    23  C   -3.931255
    24  H    1.644998
    25  H    1.293436
    26  H    1.691879
    27  H    1.294223
    28  H    1.694629
    29  H    1.644477
    30  H    1.692589
    31  H    1.645703
    32  H    1.294005
 Sum of Mulliken charges =   0.00000

 Dipole moment (field-independent basis, Debye):
    X=             -0.0007    Y=              0.0009    Z=             -0.0001  Tot=              0.0012

 Test job not archived.
 1\1\GINC-SE109\SP\RHF\Aug-CC-pVDZ\C6H18B2O6\OHZDE\08-Apr-2025\0\\#t hf
  aug-cc-pvdz iop(5/13=1,5/36=2,99/5=2) pseudo=read geom=check guess=(r
 ead,tcheck) scf=(maxcycle=1)\\title\\0,1\B,0,1.60824,0.00191,-0.00082\
 O,0,1.60915,1.34156,-0.2459\O,0,1.61322,-0.88027,-1.03832\O,0,1.61338,
 -0.45565,1.28191\C,0,1.5482,1.83586,-1.57014\C,0,1.55638,-2.2744,-0.80
 433\C,0,1.55431,0.44388,2.37224\H,0,0.55368,1.67784,-1.98841\H,0,1.755
 1,2.90326,-1.53016\H,0,2.28521,1.34988,-2.20962\H,0,1.76915,-2.77301,-
 1.74762\H,0,2.29118,-2.58234,-0.06031\H,0,0.5614,-2.5611,-0.46252\H,0,

 Normal termination of Gaussian 16 at Tue Apr  8 22:40:03 2025.
