 Gaussian 16, Revision C.01,

 ----------------------------------------------------------------------
 #t hf aug-cc-pvdz symm=none int=(grid=ultrafine) guess=(read,tcheck) s
 table=(opt,rrhf)
 ----------------------------------------------------------------------
 -----
 title
 -----
 Symbolic Z-matrix:
 Charge =  0 Multiplicity = 1

 SCF Done:  E(RHF) =  -481.904854747     A.U. after   14 cycles
 Normal termination of Gaussian 16 at Tue Apr  8 22:28:35 2025.
 Gaussian 16:  ES64L-G16RevC.01  3-Jul-2019

 ----------------------------------------------------------------------
 #t hf aug-cc-pvdz iop(5/13=1,5/36=2,99/5=2) pseudo=read geom=check gue
 ss=(read,tcheck) scf=(maxcycle=1)
 ----------------------------------------------------------------------
 -----
 title
 -----
 Structure from the checkpoint file:  "B-set_phenylboronicacid_h2o_090_dimer_mol1.chk"
 Charge =  0 Multiplicity = 1

                         Standard orientation:
 ---------------------------------------------------------------------
 Center     Atomic      Atomic             Coordinates (Angstroms)
 Number     Number       Type             X           Y           Z
 ---------------------------------------------------------------------
      1          6           0       -1.182981    1.196739   -0.000034
      2          6           0       -2.568531    1.199775    0.000876
      3          6           0       -0.464517    0.000309   -0.000534
      4          1           0       -0.643619    2.134889   -0.000334
      5          6           0       -3.262647   -0.000927    0.001276
      6          1           0       -3.109019    2.136935    0.001236
      7          6           0       -1.181923   -1.196751   -0.000094
      8          5           0        1.101923    0.000963   -0.001534
      9          6           0       -2.567473   -1.201015    0.000766
     10          1           0       -4.344627   -0.001397    0.001956
     11          1           0       -0.641744   -2.134431   -0.000504
     12          8           0        1.758969    1.200177   -0.001964
     13          8           0        1.760147   -1.197613   -0.001874
     14          1           0       -3.107134   -2.138645    0.001066
     15          1           0        2.714314    1.106034   -0.002324
     16          1           0        2.715393   -1.101816   -0.002414
     17          8           0        3.897573   -0.001173    0.001991
     18          1           0        4.466663   -0.003844    0.770641
     19          1           0        4.475063   -0.002445   -0.760389
 ---------------------------------------------------------------------

 SCF Done:  E(RHF) =  -484.054670103     A.U. after    2 cycles

 The electronic state is 1-A.
 Alpha  occ. eigenvalues --  -21.16520 -21.01479 -21.01430 -11.49243 -11.40499
 Alpha  occ. eigenvalues --  -11.40111 -11.38131 -11.38016 -11.33026  -7.62599
 Alpha  occ. eigenvalues --   -1.80845  -1.74287  -1.63129  -1.31804  -1.07721
 Alpha  occ. eigenvalues --   -1.06747  -0.85953  -0.83968  -0.75738  -0.71435
 Alpha  occ. eigenvalues --   -0.68032  -0.66930  -0.62655  -0.58419  -0.55736
 Alpha  occ. eigenvalues --   -0.53748  -0.52925  -0.49312  -0.44771  -0.43139
 Alpha  occ. eigenvalues --   -0.42484  -0.42339  -0.34866  -0.33622  -0.33440
 Alpha  occ. eigenvalues --   -0.30734  -0.30636
 Alpha virt. eigenvalues --    0.01676   0.04564   0.04642   0.05661   0.06264
 Alpha virt. eigenvalues --    0.06581   0.07092   0.07324   0.08085   0.08340
 Alpha virt. eigenvalues --    0.08970   0.10053   0.10587   0.12305   0.13790

 Mulliken charges:
               1
     1  C   -1.079046
     2  C   -1.269110
     3  C    0.403003
     4  H    2.057591
     5  C   -2.886242
     6  H    1.550223
     7  C   -1.078736
     8  B    4.581606
     9  C   -1.266999
    10  H    1.491408
    11  H    2.057922
    12  O   -4.695863
    13  O   -4.695841
    14  H    1.550319
    15  H    1.959444
    16  H    1.966464
    17  O   -2.807011
    18  H    1.079204
    19  H    1.081664
 Sum of Mulliken charges =  -0.00000

 Dipole moment (field-independent basis, Debye):
    X=              4.3958    Y=             -0.0033    Z=              0.0065  Tot=              4.3958

 Test job not archived.
 1\1\GINC-SE343\SP\RHF\Aug-CC-pVDZ\C6H9B1O3\OHZDE\08-Apr-2025\0\\#t hf
 aug-cc-pvdz iop(5/13=1,5/36=2,99/5=2) pseudo=read geom=check guess=(re
 ad,tcheck) scf=(maxcycle=1)\\title\\0,1\C,0,1.25953,-1.19671,-0.0001\C
 ,0,2.64508,-1.19967,0.00081\C,0,0.541,-0.00032,-0.0006\H,0,0.72022,-2.
 13489,-0.0004\C,0,3.33913,0.00107,0.00121\H,0,3.18562,-2.1368,0.00117\
 C,0,1.25834,1.19678,-0.00016\B,0,-1.02544,-0.00106,-0.0016\C,0,2.64389
 ,1.20112,0.0007\H,0,4.42111,0.0016,0.00189\H,0,0.71811,2.13443,-0.0005
 7\O,0,-1.68242,-1.20031,-0.00203\O,0,-1.68373,1.19748,-0.00194\H,0,3.1

 Normal termination of Gaussian 16 at Tue Apr  8 22:28:44 2025.
