 Gaussian 16, Revision C.01,

 ----------------------------------------------------------------------
 #t hf aug-cc-pvdz symm=none int=(grid=ultrafine) guess=(read,tcheck) s
 table=(opt,rrhf)
 ----------------------------------------------------------------------
 -----
 title
 -----
 Symbolic Z-matrix:
 Charge =  0 Multiplicity = 1

 SCF Done:  E(RHF) =  -464.895448977     A.U. after   15 cycles
 Normal termination of Gaussian 16 at Tue Apr  8 22:24:55 2025.
 Gaussian 16:  ES64L-G16RevC.01  3-Jul-2019

 ----------------------------------------------------------------------
 #t hf aug-cc-pvdz iop(5/13=1,5/36=2,99/5=2) pseudo=read geom=check gue
 ss=(read,tcheck) scf=(maxcycle=1)
 ----------------------------------------------------------------------
 -----
 title
 -----
 Structure from the checkpoint file:  "B-set_azaborine_benzene_110_dimer_mol1.chk"
 Charge =  0 Multiplicity = 1

                         Standard orientation:
 ---------------------------------------------------------------------
 Center     Atomic      Atomic             Coordinates (Angstroms)
 Number     Number       Type             X           Y           Z
 ---------------------------------------------------------------------
      1          7           0        1.220980    0.199052   -0.055398
      2          5           0        2.024859    1.376909   -0.031015
      3          6           0        1.732108   -1.057225   -0.037649
      4          1           0        0.215767    0.261359   -0.085915
      5          6           0        3.514265    1.127391    0.015778
      6          1           0        1.470220    2.434726   -0.048987
      7          6           0        3.072775   -1.267028    0.004534
      8          1           0        1.021367   -1.871887   -0.058332
      9          6           0        3.962975   -0.162619    0.031072
     10          1           0        4.249097    1.922671    0.038025
     11          1           0        3.450041   -2.278412    0.017727
     12          1           0        5.025966   -0.377429    0.064431
     13          6           0       -2.535280   -0.168325    1.390277
     14          6           0       -2.591970    1.105701    0.843874
     15          6           0       -2.511121   -1.279131    0.559284
     16          1           0       -2.504334   -0.295120    2.463464
     17          6           0       -2.623802    1.269111   -0.533763
     18          1           0       -2.602584    1.971643    1.490840
     19          6           0       -2.542773   -1.116072   -0.818432
     20          1           0       -2.466812   -2.271910    0.985867
     21          6           0       -2.598923    0.158164   -1.364955
     22          1           0       -2.659442    2.262162   -0.959387
     23          1           0       -2.522378   -1.981362   -1.466659
     24          1           0       -2.617578    0.285838   -2.438329
 ---------------------------------------------------------------------

 SCF Done:  E(RHF) =  -467.135316489     A.U. after    2 cycles

 The electronic state is 1-A.
 Alpha  occ. eigenvalues --  -15.73886 -11.52682 -11.46173 -11.43391 -11.43320
 Alpha  occ. eigenvalues --  -11.42645 -11.41091 -11.40901 -11.37132 -11.36842
 Alpha  occ. eigenvalues --  -11.33525  -7.58333  -1.44021  -1.35068  -1.18265
 Alpha  occ. eigenvalues --   -1.10123  -1.10099  -1.06973  -0.86752  -0.86747
 Alpha  occ. eigenvalues --   -0.85716  -0.84218  -0.73388  -0.72861  -0.66303
 Alpha  occ. eigenvalues --   -0.64392  -0.60134  -0.59154  -0.59139  -0.56901
 Alpha  occ. eigenvalues --   -0.54804  -0.53348  -0.52218  -0.51343  -0.45536
 Alpha  occ. eigenvalues --   -0.45528  -0.43201  -0.40346  -0.37139  -0.34180
 Alpha  occ. eigenvalues --   -0.34110  -0.28625
 Alpha virt. eigenvalues --    0.03033   0.04314   0.04395   0.04545   0.05183
 Alpha virt. eigenvalues --    0.05774   0.05956   0.06536   0.06606   0.06680
 Alpha virt. eigenvalues --    0.07091   0.07969   0.09370   0.09796   0.10082

 Mulliken charges:
               1
     1  N   -3.799206
     2  B    6.481193
     3  C   -0.014953
     4  H    1.025779
     5  C   -3.439765
     6  H   -4.326249
     7  C   -0.755278
     8  H    1.728651
     9  C   -0.984511
    10  H    1.352769
    11  H    1.473733
    12  H    1.478913
    13  C   -1.654920
    14  C   -1.638315
    15  C   -1.596727
    16  H    1.607642
    17  C   -1.712109
    18  H    1.602797
    19  C   -1.714742
    20  H    1.606286
    21  C   -1.577476
    22  H    1.613474
    23  H    1.621513
    24  H    1.621501
 Sum of Mulliken charges =  -0.00000

 Dipole moment (field-independent basis, Debye):
    X=             -2.0030    Y=             -1.7443    Z=             -0.0069  Tot=              2.6561

 Test job not archived.
 1\1\GINC-SE366\SP\RHF\Aug-CC-pVDZ\C10H12B1N1\OHZDE\08-Apr-2025\0\\#t h
 f aug-cc-pvdz iop(5/13=1,5/36=2,99/5=2) pseudo=read geom=check guess=(
 read,tcheck) scf=(maxcycle=1)\\title\\0,1\N,0,-0.98689,0.19856,0.05529
 \B,0,-1.78972,1.37715,0.03178\C,0,-1.49918,-1.05725,0.03801\H,0,0.0184
 1,0.25995,0.08478\C,0,-3.2794,1.12899,-0.0135\H,0,-1.2341,2.43446,0.04
 923\C,0,-2.84008,-1.26583,-0.00281\H,0,-0.78916,-1.87256,0.05793\C,0,-
 3.7293,-0.16061,-0.02839\H,0,-4.01353,1.92494,-0.03496\H,0,-3.21828,-2
 .27687,-0.01566\H,0,-4.79252,-0.37445,-0.06067\C,0,2.76755242,-0.17217

 Normal termination of Gaussian 16 at Tue Apr  8 22:25:10 2025.
