 Gaussian 16, Revision C.01,

 ----------------------------------------------------------------------
 #t hf aug-cc-pvdz symm=none int=(grid=ultrafine) guess=(read,tcheck) s
 table=(opt,rrhf)
 ----------------------------------------------------------------------
 -----
 title
 -----
 Symbolic Z-matrix:
 Charge =  0 Multiplicity = 1

 SCF Done:  E(RHF) =  -736.590221273     A.U. after   11 cycles
 Normal termination of Gaussian 16 at Tue Apr  8 22:39:44 2025.
 Gaussian 16:  ES64L-G16RevC.01  3-Jul-2019

 ----------------------------------------------------------------------
 #t hf aug-cc-pvdz iop(5/13=1,5/36=2,99/5=2) pseudo=read geom=check gue
 ss=(read,tcheck) scf=(maxcycle=1)
 ----------------------------------------------------------------------
 -----
 title
 -----
 Structure from the checkpoint file:  "B-set_trimethylborate_trimethylborate_100_dimer_mol1.chk"
 Charge =  0 Multiplicity = 1

                         Standard orientation:
 ---------------------------------------------------------------------
 Center     Atomic      Atomic             Coordinates (Angstroms)
 Number     Number       Type             X           Y           Z
 ---------------------------------------------------------------------
      1          5           0        1.608240   -0.001910    0.000820
      2          8           0        1.609150   -1.341325    0.247185
      3          8           0        1.613220    0.881264    1.037474
      4          8           0        1.613380    0.454419   -1.282348
      5          6           0        1.548201   -1.834354    1.571899
      6          6           0        1.556380    2.275169    0.802147
      7          6           0        1.554309   -0.446156   -2.371815
      8          1           0        0.553681   -1.675933    1.990017
      9          1           0        1.755101   -2.901792    1.532942
     10          1           0        2.285211   -1.347761    2.210912
     11          1           0        1.769151    2.774684    1.744958
     12          1           0        2.291180    2.582396    0.057832
     13          1           0        0.561400    2.561541    0.460062
     14          1           0        1.759639    0.121816   -3.276760
     15          1           0        2.293189   -1.241209   -2.270442
     16          1           0        0.560879   -0.889845   -2.443729
     17          5           0       -1.608180    0.001728   -0.000822
     18          8           0       -1.612680   -0.880367   -1.038416
     19          8           0       -1.612830   -0.455732    1.281967
     20          8           0       -1.609900    1.341414   -0.245887
     21          6           0       -1.555380   -2.274483   -0.804099
     22          6           0       -1.553629    0.444254    2.372045
     23          6           0       -1.550181    1.835924   -1.570092
     24          1           0       -2.292230   -2.582932   -0.062333
     25          1           0       -1.764911   -2.773289   -1.748001
     26          1           0       -0.561220   -2.560363   -0.459215
     27          1           0       -1.759839   -0.124049    3.276590
     28          1           0       -0.559799    0.886984    2.444560
     29          1           0       -2.291829    1.239887    2.270602
     30          1           0       -0.555711    1.679072   -1.988982
     31          1           0       -2.286871    1.349111   -2.209295
     32          1           0       -1.758241    2.903083   -1.530015
 ---------------------------------------------------------------------

 SCF Done:  E(RHF) =  -739.840502842     A.U. after    2 cycles

 The electronic state is 1-A.
 Alpha  occ. eigenvalues --  -21.01502 -21.01470 -21.01434 -21.01433 -21.01420
 Alpha  occ. eigenvalues --  -21.01419 -11.40078 -11.40066 -11.40065 -11.39757
 Alpha  occ. eigenvalues --  -11.39753 -11.39688  -7.64192  -7.64125  -1.90967
 Alpha  occ. eigenvalues --   -1.89654  -1.69968  -1.69967  -1.69618  -1.69617
 Alpha  occ. eigenvalues --   -1.02541  -1.02509  -0.97996  -0.97991  -0.97346
 Alpha  occ. eigenvalues --   -0.97345  -0.69327  -0.68527  -0.64431  -0.64347
 Alpha  occ. eigenvalues --   -0.64344  -0.64056  -0.64051  -0.61413  -0.59827
 Alpha  occ. eigenvalues --   -0.59824  -0.58888  -0.58887  -0.58302  -0.58139
 Alpha  occ. eigenvalues --   -0.52061  -0.52057  -0.51924  -0.51921  -0.48751
 Alpha  occ. eigenvalues --   -0.47627  -0.46343  -0.45573  -0.34134  -0.34126
 Alpha  occ. eigenvalues --   -0.33998  -0.33996  -0.32947  -0.32941  -0.32171
 Alpha  occ. eigenvalues --   -0.32162
 Alpha virt. eigenvalues --    0.03589   0.04176   0.04177   0.04437   0.05300
 Alpha virt. eigenvalues --    0.05300   0.05614   0.06244   0.06245   0.06633
 Alpha virt. eigenvalues --    0.07138   0.07502   0.07701   0.07704   0.08197

 Mulliken charges:
               1
     1  B   16.521486
     2  O   -6.163388
     3  O   -6.155000
     4  O   -6.168399
     5  C   -3.981663
     6  C   -3.982221
     7  C   -3.982346
     8  H    1.707589
     9  H    1.291248
    10  H    1.640359
    11  H    1.290340
    12  H    1.640102
    13  H    1.703309
    14  H    1.291408
    15  H    1.638526
    16  H    1.708849
    17  B   16.519064
    18  O   -6.156841
    19  O   -6.167408
    20  O   -6.160347
    21  C   -3.982589
    22  C   -3.983103
    23  C   -3.980461
    24  H    1.639825
    25  H    1.290705
    26  H    1.704929
    27  H    1.291566
    28  H    1.707723
    29  H    1.639227
    30  H    1.705470
    31  H    1.640853
    32  H    1.291187
 Sum of Mulliken charges =   0.00000

 Dipole moment (field-independent basis, Debye):
    X=             -0.0008    Y=              0.0010    Z=             -0.0001  Tot=              0.0013

 Test job not archived.
 1\1\GINC-SE041\SP\RHF\Aug-CC-pVDZ\C6H18B2O6\OHZDE\08-Apr-2025\0\\#t hf
  aug-cc-pvdz iop(5/13=1,5/36=2,99/5=2) pseudo=read geom=check guess=(r
 ead,tcheck) scf=(maxcycle=1)\\title\\0,1\B,0,1.60824,0.00191,-0.00082\
 O,0,1.60915,1.34156,-0.2459\O,0,1.61322,-0.88027,-1.03832\O,0,1.61338,
 -0.45565,1.28191\C,0,1.5482,1.83586,-1.57014\C,0,1.55638,-2.2744,-0.80
 433\C,0,1.55431,0.44388,2.37224\H,0,0.55368,1.67784,-1.98841\H,0,1.755
 1,2.90326,-1.53016\H,0,2.28521,1.34988,-2.20962\H,0,1.76915,-2.77301,-
 1.74762\H,0,2.29118,-2.58234,-0.06031\H,0,0.5614,-2.5611,-0.46252\H,0,

 Normal termination of Gaussian 16 at Tue Apr  8 22:40:26 2025.
