 Gaussian 16, Revision C.01,

 ----------------------------------------------------------------------
 #t hf aug-cc-pvdz symm=none int=(grid=ultrafine) guess=(read,tcheck) s
 table=(opt,rrhf)
 ----------------------------------------------------------------------
 -----
 title
 -----
 Symbolic Z-matrix:
 Charge =  0 Multiplicity = 1

 SCF Done:  E(RHF) =  -360.436262867     A.U. after   15 cycles

 1\1\GINC-SE099\Stability\RHF\Aug-CC-pVDZ\C8H14B2\OHZDE\08-Apr-2025\0\\
 #t hf aug-cc-pvdz symm=none int=(grid=ultrafine) guess=(read,tcheck) s
 table=(opt,rrhf)\\title\\0,1\B,0,-1.44421,-0.34378,-1.38976\C,0,-1.353
 82,1.11975,-0.80607\C,0,-2.20691,-1.16484,-0.27513\H,0,-1.05979,-0.732
 25,-2.44825\C,0,-1.96773,1.08262,0.37927\H,0,-0.92918,2.01911,-1.22576
 \C,0,-2.47978,-0.29789,0.7014\H,0,-2.48296,-2.20807,-0.24206\H,0,-2.10
 422,1.91644,1.05668\H,0,-2.99941,-0.51278,1.627\B,0,1.66587617,1.03035
 861,0.92251137\C,0,1.41903617,-0.44724139,1.38486137\C,0,2.50083617,0.

 Normal termination of Gaussian 16 at Tue Apr  8 22:29:41 2025.
 Gaussian 16:  ES64L-G16RevC.01  3-Jul-2019

 ----------------------------------------------------------------------
 #t hf aug-cc-pvdz iop(5/13=1,5/36=2,99/5=2) pseudo=read geom=check gue
 ss=(read,tcheck) scf=(maxcycle=1)
 ----------------------------------------------------------------------
 -----
 title
 -----
 Structure from the checkpoint file:  "B-set_borole_borolane_110_dimer_mol1.chk"
 Charge =  0 Multiplicity = 1

                         Standard orientation:
 ---------------------------------------------------------------------
 Center     Atomic      Atomic             Coordinates (Angstroms)
 Number     Number       Type             X           Y           Z
 ---------------------------------------------------------------------
      1          5           0       -1.666827   -0.329207   -1.378132
      2          6           0       -1.577698    1.125636   -0.772926
      3          6           0       -2.392078   -1.176755   -0.258345
      4          1           0       -1.305078   -0.696147   -2.452181
      5          6           0       -2.160992    1.062410    0.426685
      6          1           0       -1.173659    2.036413   -1.188311
      7          6           0       -2.649619   -0.328839    0.738843
      8          1           0       -2.655790   -2.223445   -0.235500
      9          1           0       -2.289408    1.883579    1.120918
     10          1           0       -3.143296   -0.564527    1.673542
     11          5           0        1.485545    1.042573    0.877587
     12          6           0        1.266634   -0.445005    1.321647
     13          6           0        2.287052    1.021502   -0.476353
     14          1           0        1.165434    2.017449    1.490174
     15          1           0        2.032100   -0.634168    2.089579
     16          1           0        0.311747   -0.692430    1.784479
     17          6           0        1.592130   -1.259135    0.061729
     18          6           0        2.675099   -0.457237   -0.669197
     19          1           0        1.592783    1.335769   -1.265054
     20          1           0        3.126139    1.716005   -0.534843
     21          1           0        0.697212   -1.320188   -0.571550
     22          1           0        1.889772   -2.288018    0.264665
     23          1           0        2.775496   -0.747766   -1.714810
     24          1           0        3.639801   -0.644814   -0.190879
 ---------------------------------------------------------------------

 SCF Done:  E(RHF) =  -362.236636546     A.U. after    2 cycles

 The electronic state is 1-A.
 Alpha  occ. eigenvalues --  -11.47298 -11.41645 -11.40872 -11.37634 -11.37175
 Alpha  occ. eigenvalues --  -11.35135 -11.32997 -11.32494  -7.61512  -7.58540
 Alpha  occ. eigenvalues --   -1.30580  -1.28601  -1.03678  -1.03473  -0.97626
 Alpha  occ. eigenvalues --   -0.92834  -0.80424  -0.73623  -0.73113  -0.70350
 Alpha  occ. eigenvalues --   -0.68814  -0.63774  -0.63221  -0.56433  -0.55015
 Alpha  occ. eigenvalues --   -0.50578  -0.47481  -0.46163  -0.45214  -0.44094
 Alpha  occ. eigenvalues --   -0.43856  -0.42742  -0.41500  -0.40511  -0.37409
 Alpha  occ. eigenvalues --   -0.30760
 Alpha virt. eigenvalues --    0.02855   0.03588   0.04185   0.04305   0.04397
 Alpha virt. eigenvalues --    0.05010   0.05402   0.05624   0.06136   0.06796
 Alpha virt. eigenvalues --    0.07212   0.07331   0.07779   0.08335   0.08747

 Mulliken charges:
               1
     1  B    8.228846
     2  C   -3.227234
     3  C   -3.155389
     4  H   -4.941313
     5  C   -1.283640
     6  H    1.595692
     7  C   -1.738536
     8  H    1.423917
     9  H    1.592196
    10  H    1.508950
    11  B    8.980032
    12  C   -4.295802
    13  C   -4.127622
    14  H   -5.995390
    15  H    1.386576
    16  H    2.030543
    17  C   -4.000005
    18  C   -3.315788
    19  H    1.853234
    20  H    1.453051
    21  H    2.024498
    22  H    1.262664
    23  H    1.370287
    24  H    1.370234
 Sum of Mulliken charges =   0.00000

 Dipole moment (field-independent basis, Debye):
    X=             -0.5364    Y=             -0.0514    Z=              1.0439  Tot=              1.1748

 Test job not archived.
 1\1\GINC-SE099\SP\RHF\Aug-CC-pVDZ\C8H14B2\OHZDE\08-Apr-2025\0\\#t hf a
 ug-cc-pvdz iop(5/13=1,5/36=2,99/5=2) pseudo=read geom=check guess=(rea
 d,tcheck) scf=(maxcycle=1)\\title\\0,1\B,0,-1.44421,-0.34378,-1.38976\
 C,0,-1.35382,1.11975,-0.80607\C,0,-2.20691,-1.16484,-0.27513\H,0,-1.05
 979,-0.73225,-2.44825\C,0,-1.96773,1.08262,0.37927\H,0,-0.92918,2.0191
 1,-1.22576\C,0,-2.47978,-0.29789,0.7014\H,0,-2.48296,-2.20807,-0.24206
 \H,0,-2.10422,1.91644,1.05668\H,0,-2.99941,-0.51278,1.627\B,0,1.665876
 17,1.03035861,0.92251137\C,0,1.41903617,-0.44724139,1.38486137\C,0,2.5

 Normal termination of Gaussian 16 at Tue Apr  8 22:29:57 2025.
