 Gaussian 16, Revision C.01,

 ----------------------------------------------------------------------
 #t hf aug-cc-pvdz symm=none int=(grid=ultrafine) guess=(read,tcheck) s
 table=(opt,rrhf)
 ----------------------------------------------------------------------
 -----
 title
 -----
 Symbolic Z-matrix:
 Charge =  0 Multiplicity = 1

 SCF Done:  E(RHF) =  -481.923584396     A.U. after   14 cycles
 Normal termination of Gaussian 16 at Tue Apr  8 22:28:35 2025.
 Gaussian 16:  ES64L-G16RevC.01  3-Jul-2019

 ----------------------------------------------------------------------
 #t hf aug-cc-pvdz iop(5/13=1,5/36=2,99/5=2) pseudo=read geom=check gue
 ss=(read,tcheck) scf=(maxcycle=1)
 ----------------------------------------------------------------------
 -----
 title
 -----
 Structure from the checkpoint file:  "B-set_phenylboronicacid_h2o_095_dimer_mol1.chk"
 Charge =  0 Multiplicity = 1

                         Standard orientation:
 ---------------------------------------------------------------------
 Center     Atomic      Atomic             Coordinates (Angstroms)
 Number     Number       Type             X           Y           Z
 ---------------------------------------------------------------------
      1          6           0       -1.221256    1.196724   -0.000067
      2          6           0       -2.606806    1.199721    0.000843
      3          6           0       -0.502758    0.000315   -0.000567
      4          1           0       -0.681922    2.134890   -0.000367
      5          6           0       -3.300888   -0.001001    0.001243
      6          1           0       -3.147322    2.136865    0.001203
      7          6           0       -1.220129   -1.196766   -0.000127
      8          5           0        1.063682    0.001014   -0.001567
      9          6           0       -2.605680   -1.201070    0.000733
     10          1           0       -4.382868   -0.001503    0.001923
     11          1           0       -0.679924   -2.134430   -0.000537
     12          8           0        1.720694    1.200246   -0.001997
     13          8           0        1.721940   -1.197544   -0.001907
     14          1           0       -3.145314   -2.138715    0.001033
     15          1           0        2.676041    1.106131   -0.002357
     16          1           0        2.677183   -1.101719   -0.002447
     17          8           0        4.142317   -0.001184    0.002201
     18          1           0        4.711407   -0.003839    0.770851
     19          1           0        4.719807   -0.002439   -0.760179
 ---------------------------------------------------------------------

 SCF Done:  E(RHF) =  -484.070287418     A.U. after    2 cycles

 The electronic state is 1-A.
 Alpha  occ. eigenvalues --  -21.15815 -21.02640 -21.02605 -11.49473 -11.40736
 Alpha  occ. eigenvalues --  -11.40345 -11.38359 -11.38253 -11.33287  -7.63222
 Alpha  occ. eigenvalues --   -1.79676  -1.73527  -1.63499  -1.32059  -1.07981
 Alpha  occ. eigenvalues --   -1.06984  -0.86058  -0.84201  -0.75224  -0.69979
 Alpha  occ. eigenvalues --   -0.68117  -0.65509  -0.62024  -0.57124  -0.55936
 Alpha  occ. eigenvalues --   -0.53874  -0.53388  -0.49638  -0.45162  -0.44355
 Alpha  occ. eigenvalues --   -0.42973  -0.42022  -0.36360  -0.34338  -0.33960
 Alpha  occ. eigenvalues --   -0.30996  -0.30863
 Alpha virt. eigenvalues --    0.01861   0.04459   0.04781   0.05686   0.06204
 Alpha virt. eigenvalues --    0.06525   0.07157   0.07275   0.07995   0.08689
 Alpha virt. eigenvalues --    0.09182   0.10185   0.10720   0.12102   0.13628

 Mulliken charges:
               1
     1  C   -1.058633
     2  C   -1.281570
     3  C    0.376742
     4  H    2.041948
     5  C   -2.858102
     6  H    1.547444
     7  C   -1.057156
     8  B    4.510038
     9  C   -1.279572
    10  H    1.492288
    11  H    2.042181
    12  O   -4.444396
    13  O   -4.444012
    14  H    1.547542
    15  H    1.688839
    16  H    1.693940
    17  O   -2.727269
    18  H    1.104001
    19  H    1.105746
 Sum of Mulliken charges =  -0.00000

 Dipole moment (field-independent basis, Debye):
    X=              4.1763    Y=             -0.0029    Z=              0.0063  Tot=              4.1763

 Test job not archived.
 1\1\GINC-SE339\SP\RHF\Aug-CC-pVDZ\C6H9B1O3\OHZDE\08-Apr-2025\0\\#t hf
 aug-cc-pvdz iop(5/13=1,5/36=2,99/5=2) pseudo=read geom=check guess=(re
 ad,tcheck) scf=(maxcycle=1)\\title\\0,1\C,0,1.25953,-1.19671,-0.0001\C
 ,0,2.64508,-1.19967,0.00081\C,0,0.541,-0.00032,-0.0006\H,0,0.72022,-2.
 13489,-0.0004\C,0,3.33913,0.00107,0.00121\H,0,3.18562,-2.1368,0.00117\
 C,0,1.25834,1.19678,-0.00016\B,0,-1.02544,-0.00106,-0.0016\C,0,2.64389
 ,1.20112,0.0007\H,0,4.42111,0.0016,0.00189\H,0,0.71811,2.13443,-0.0005
 7\O,0,-1.68242,-1.20031,-0.00203\O,0,-1.68373,1.19748,-0.00194\H,0,3.1

 Normal termination of Gaussian 16 at Tue Apr  8 22:28:44 2025.
