 Gaussian 16, Revision C.01,

 ----------------------------------------------------------------------
 #t hf aug-cc-pvdz symm=none int=(grid=ultrafine) guess=(read,tcheck) s
 table=(opt,rrhf)
 ----------------------------------------------------------------------
 -----
 title
 -----
 Symbolic Z-matrix:
 Charge =  0 Multiplicity = 1

 SCF Done:  E(RHF) =  -2334.96754630     A.U. after   12 cycles

 1\1\GINC-SE090\Stability\RHF\Aug-CC-pVDZ\B4Cl4F4\OHZDE\08-Apr-2025\0\\
 #t hf aug-cc-pvdz symm=none int=(grid=ultrafine) guess=(read,tcheck) s
 table=(opt,rrhf)\\title\\0,1\B,0,-1.57438,-0.71073,0.17185\B,0,-1.4340
 6,0.93593,-0.18667\Cl,0,-2.09565,-1.82193,-1.067\Cl,0,-1.25402,-1.2836
 8,1.78589\Cl,0,-2.80515,1.98794,0.03394\Cl,0,0.06371,1.62548,-0.79315\
 B,0,2.18498758,-0.67899292,-0.67457433\B,0,2.56424758,0.29046708,0.704
 77567\F,0,1.29507758,-1.65034292,-0.60478433\F,0,2.77138758,-0.4858829
 2,-1.83549433\F,0,2.04484758,0.03472708,1.88694567\F,0,3.38053758,1.31

 Normal termination of Gaussian 16 at Tue Apr  8 22:22:23 2025.
 Gaussian 16:  ES64L-G16RevC.01  3-Jul-2019

 ----------------------------------------------------------------------
 #t hf aug-cc-pvdz iop(5/13=1,5/36=2,99/5=2) pseudo=read geom=check gue
 ss=(read,tcheck) scf=(maxcycle=1)
 ----------------------------------------------------------------------
 -----
 title
 -----
 Structure from the checkpoint file:  "B-set_b2f4_b2cl4_095_dimer_mol1.chk"
 Charge =  0 Multiplicity = 1

                         Standard orientation:
 ---------------------------------------------------------------------
 Center     Atomic      Atomic             Coordinates (Angstroms)
 Number     Number       Type             X           Y           Z
 ---------------------------------------------------------------------
      1          5           0       -1.508012   -0.696779    0.171357
      2          5           0       -1.345410    0.947744   -0.187557
      3         17           0       -2.043112   -1.801305   -1.067566
      4         17           0       -1.196612   -1.273448    1.785826
      5         17           0       -2.702488    2.018058    0.031643
      6         17           0        0.161922    1.617019   -0.793061
      7          5           0        2.252111   -0.715566   -0.672097
      8          5           0        2.643208    0.249176    0.707256
      9          9           0        1.349241   -1.674911   -0.602714
     10          9           0        2.841955   -0.530680   -1.832610
     11          9           0        2.119504    0.000776    1.889093
     12          9           0        3.473237    1.266104    0.617218
 ---------------------------------------------------------------------

 SCF Done:  E(RHF) =  -2337.67864244     A.U. after    2 cycles

 The electronic state is 1-A.
 Alpha  occ. eigenvalues --  -99.93442 -99.92546 -99.91691 -99.91656 -29.27581
 Alpha  occ. eigenvalues --  -29.27188 -29.27166 -29.27059 -10.50786 -10.49839
 Alpha  occ. eigenvalues --  -10.49082 -10.48875  -9.70790  -9.70407  -9.70173
 Alpha  occ. eigenvalues --   -9.69783  -9.69385  -9.69202  -9.69050  -9.68866
 Alpha  occ. eigenvalues --   -9.68522  -9.68509  -9.68431  -9.68370  -7.73185
 Alpha  occ. eigenvalues --   -7.71791  -7.71310  -7.70831  -1.43766  -1.40753
 Alpha  occ. eigenvalues --   -1.32765  -1.31509  -1.20738  -1.07847  -0.91423
 Alpha  occ. eigenvalues --   -0.79554  -0.78792  -0.73253  -0.67688  -0.66242
 Alpha  occ. eigenvalues --   -0.66026  -0.65458  -0.60222  -0.59370  -0.58844
 Alpha  occ. eigenvalues --   -0.55881  -0.55029  -0.53815  -0.52413  -0.52082
 Alpha  occ. eigenvalues --   -0.51463  -0.49681  -0.48217  -0.45543  -0.44220
 Alpha  occ. eigenvalues --   -0.43790  -0.38897  -0.37169  -0.36422  -0.34981
 Alpha  occ. eigenvalues --   -0.31848  -0.21876
 Alpha virt. eigenvalues --    0.01428   0.01780   0.02315   0.02836   0.03087
 Alpha virt. eigenvalues --    0.04414   0.05026   0.06785   0.07279   0.07987
 Alpha virt. eigenvalues --    0.08314   0.09076   0.09634   0.09818   0.10159

 Mulliken charges:
               1
     1  B    2.968505
     2  B    2.223181
     3  Cl  -1.416310
     4  Cl  -1.339995
     5  Cl  -1.381482
     6  Cl  -1.065063
     7  B   -0.308130
     8  B    0.156006
     9  F    0.023574
    10  F   -0.023913
    11  F    0.110227
    12  F    0.053399
 Sum of Mulliken charges =  -0.00000

 Dipole moment (field-independent basis, Debye):
    X=             -0.0136    Y=              0.0435    Z=             -0.0999  Tot=              0.1099

 Test job not archived.
 1\1\GINC-SE090\SP\RHF\Aug-CC-pVDZ\B4Cl4F4\OHZDE\08-Apr-2025\0\\#t hf a
 ug-cc-pvdz iop(5/13=1,5/36=2,99/5=2) pseudo=read geom=check guess=(rea
 d,tcheck) scf=(maxcycle=1)\\title\\0,1\B,0,-1.57438,-0.71073,0.17185\B
 ,0,-1.43406,0.93593,-0.18667\Cl,0,-2.09565,-1.82193,-1.067\Cl,0,-1.254
 02,-1.28368,1.78589\Cl,0,-2.80515,1.98794,0.03394\Cl,0,0.06371,1.62548
 ,-0.79315\B,0,2.18498758,-0.67899292,-0.67457433\B,0,2.56424758,0.2904
 6708,0.70477567\F,0,1.29507758,-1.65034292,-0.60478433\F,0,2.77138758,
 -0.48588292,-1.83549433\F,0,2.04484758,0.03472708,1.88694567\F,0,3.380

 Normal termination of Gaussian 16 at Tue Apr  8 22:22:34 2025.
