 Gaussian 16, Revision C.01,

 ----------------------------------------------------------------------
 #t hf aug-cc-pvdz symm=none int=(grid=ultrafine) guess=(read,tcheck) s
 table=(opt,rrhf)
 ----------------------------------------------------------------------
 -----
 title
 -----
 Symbolic Z-matrix:
 Charge =  0 Multiplicity = 1

 SCF Done:  E(RHF) =  -736.593303733     A.U. after   11 cycles
 Normal termination of Gaussian 16 at Tue Apr  8 22:37:28 2025.
 Gaussian 16:  ES64L-G16RevC.01  3-Jul-2019

 ----------------------------------------------------------------------
 #t hf aug-cc-pvdz iop(5/13=1,5/36=2,99/5=2) pseudo=read geom=check gue
 ss=(read,tcheck) scf=(maxcycle=1)
 ----------------------------------------------------------------------
 -----
 title
 -----
 Structure from the checkpoint file:  "B-set_trimethylborate_trimethylborate_125_dimer_mol1.chk"
 Charge =  0 Multiplicity = 1

                         Standard orientation:
 ---------------------------------------------------------------------
 Center     Atomic      Atomic             Coordinates (Angstroms)
 Number     Number       Type             X           Y           Z
 ---------------------------------------------------------------------
      1          5           0        1.997818   -0.000735    0.000354
      2          8           0        1.999905   -1.340343    0.245656
      3          8           0        2.002407    0.881621    1.037706
      4          8           0        2.002171    0.456616   -1.282454
      5          6           0        1.939786   -1.834472    1.569998
      6          6           0        1.944348    2.275665    0.803502
      7          6           0        1.943489   -0.443144   -2.372615
      8          1           0        0.945271   -1.677199    1.988561
      9          1           0        2.147549   -2.901709    1.530129
     10          1           0        2.676602   -1.347781    2.209161
     11          1           0        2.157012    2.774607    1.746641
     12          1           0        2.678656    2.584084    0.059195
     13          1           0        0.949023    2.561492    0.461964
     14          1           0        2.148062    0.125714   -3.277175
     15          1           0        2.683053   -1.237671   -2.272110
     16          1           0        0.950400   -0.887591   -2.444562
     17          5           0       -1.997757    0.000553   -0.000356
     18          8           0       -2.001868   -0.880723   -1.038648
     19          8           0       -2.001620   -0.457927    1.282072
     20          8           0       -2.000655    1.340430   -0.244358
     21          6           0       -1.943349   -2.274977   -0.805454
     22          6           0       -1.942807    0.441243    2.372843
     23          6           0       -1.941766    1.836039   -1.568189
     24          1           0       -2.679707   -2.584618   -0.063697
     25          1           0       -2.152774   -2.773206   -1.749684
     26          1           0       -0.948844   -2.560314   -0.461116
     27          1           0       -2.148260   -0.127946    3.277004
     28          1           0       -0.949317    0.884730    2.445391
     29          1           0       -2.681692    1.236350    2.272268
     30          1           0       -0.947303    1.680335   -1.987523
     31          1           0       -2.678263    1.349128   -2.207542
     32          1           0       -2.150689    2.902995   -1.527200
 ---------------------------------------------------------------------

 SCF Done:  E(RHF) =  -739.832142378     A.U. after    2 cycles

 The electronic state is 1-A.
 Alpha  occ. eigenvalues --  -21.01533 -21.01519 -21.01479 -21.01478 -21.01473
 Alpha  occ. eigenvalues --  -21.01473 -11.40016 -11.40012 -11.39975 -11.39973
 Alpha  occ. eigenvalues --  -11.39943 -11.39942  -7.64216  -7.64161  -1.90166
 Alpha  occ. eigenvalues --   -1.90012  -1.69789  -1.69788  -1.69496  -1.69495
 Alpha  occ. eigenvalues --   -1.02595  -1.02307  -0.97975  -0.97972  -0.97523
 Alpha  occ. eigenvalues --   -0.97521  -0.68922  -0.68841  -0.64245  -0.64240
 Alpha  occ. eigenvalues --   -0.64098  -0.64092  -0.63355  -0.62569  -0.59583
 Alpha  occ. eigenvalues --   -0.59581  -0.59352  -0.59351  -0.58296  -0.58295
 Alpha  occ. eigenvalues --   -0.52085  -0.52082  -0.52077  -0.52075  -0.48067
 Alpha  occ. eigenvalues --   -0.47778  -0.45826  -0.45675  -0.34095  -0.34090
 Alpha  occ. eigenvalues --   -0.33937  -0.33933  -0.32632  -0.32626  -0.32550
 Alpha  occ. eigenvalues --   -0.32541
 Alpha virt. eigenvalues --    0.03592   0.04093   0.04094   0.04337   0.05217
 Alpha virt. eigenvalues --    0.05219   0.05740   0.06213   0.06214   0.06764
 Alpha virt. eigenvalues --    0.07070   0.07392   0.07555   0.07559   0.08103

 Mulliken charges:
               1
     1  B   14.550658
     2  O   -5.720271
     3  O   -5.708629
     4  O   -5.718863
     5  C   -3.751759
     6  C   -3.753545
     7  C   -3.752114
     8  H    1.669405
     9  H    1.333249
    10  H    1.617057
    11  H    1.332071
    12  H    1.617474
    13  H    1.666008
    14  H    1.333313
    15  H    1.615647
    16  H    1.670433
    17  B   14.549962
    18  O   -5.710311
    19  O   -5.720461
    20  O   -5.716028
    21  C   -3.753025
    22  C   -3.753152
    23  C   -3.751098
    24  H    1.617077
    25  H    1.332422
    26  H    1.667312
    27  H    1.332771
    28  H    1.669952
    29  H    1.616464
    30  H    1.668080
    31  H    1.616911
    32  H    1.332989
 Sum of Mulliken charges =   0.00000

 Dipole moment (field-independent basis, Debye):
    X=             -0.0007    Y=              0.0006    Z=             -0.0000  Tot=              0.0009

 Test job not archived.
 1\1\GINC-SE093\SP\RHF\Aug-CC-pVDZ\C6H18B2O6\OHZDE\08-Apr-2025\0\\#t hf
  aug-cc-pvdz iop(5/13=1,5/36=2,99/5=2) pseudo=read geom=check guess=(r
 ead,tcheck) scf=(maxcycle=1)\\title\\0,1\B,0,1.60824,0.00191,-0.00082\
 O,0,1.60915,1.34156,-0.2459\O,0,1.61322,-0.88027,-1.03832\O,0,1.61338,
 -0.45565,1.28191\C,0,1.5482,1.83586,-1.57014\C,0,1.55638,-2.2744,-0.80
 433\C,0,1.55431,0.44388,2.37224\H,0,0.55368,1.67784,-1.98841\H,0,1.755
 1,2.90326,-1.53016\H,0,2.28521,1.34988,-2.20962\H,0,1.76915,-2.77301,-
 1.74762\H,0,2.29118,-2.58234,-0.06031\H,0,0.5614,-2.5611,-0.46252\H,0,

 Normal termination of Gaussian 16 at Tue Apr  8 22:38:05 2025.
