 Gaussian 16, Revision C.01,

 ----------------------------------------------------------------------
 #t hf aug-cc-pvdz symm=none int=(grid=ultrafine) guess=(read,tcheck) s
 table=(opt,rrhf)
 ----------------------------------------------------------------------
 -----
 title
 -----
 Symbolic Z-matrix:
 Charge =  0 Multiplicity = 1

 SCF Done:  E(RHF) =  -52.8166886486     A.U. after    9 cycles
 Normal termination of Gaussian 16 at Tue Apr  8 22:22:13 2025.
 Gaussian 16:  ES64L-G16RevC.01  3-Jul-2019

 ----------------------------------------------------------------------
 #t hf aug-cc-pvdz iop(5/13=1,5/36=2,99/5=2) pseudo=read geom=check gue
 ss=(read,tcheck) scf=(maxcycle=1)
 ----------------------------------------------------------------------
 -----
 title
 -----
 Structure from the checkpoint file:  "B-set_b2h6_b2h6_090_dimer_mol2.chk"
 Charge =  0 Multiplicity = 1

                         Standard orientation:
 ---------------------------------------------------------------------
 Center     Atomic      Atomic             Coordinates (Angstroms)
 Number     Number       Type             X           Y           Z
 ---------------------------------------------------------------------
      1          1           0        1.438608    1.047872    0.000272
      2          5           0        0.875376    0.000495   -0.000002
      3          1           0       -0.000016   -0.024266    0.980265
      4          5           0       -0.875374    0.000499    0.000010
      5          1           0        1.472579   -1.026976   -0.000551
      6          1           0        0.000002   -0.022489   -0.979701
      7          1           0       -1.472582   -1.026977   -0.000601
      8          1           0       -1.438602    1.047866    0.000275
 ---------------------------------------------------------------------

 SCF Done:  E(RHF) =  -53.1657518736     A.U. after    2 cycles

 The electronic state is 1-A.
 Alpha  occ. eigenvalues --   -7.62556  -7.61772  -1.14659  -0.73970  -0.56625
 Alpha  occ. eigenvalues --   -0.53044  -0.48971  -0.44955
 Alpha virt. eigenvalues --    0.01793   0.02167   0.02799   0.04028   0.07345
 Alpha virt. eigenvalues --    0.08441   0.08815   0.10814   0.10860   0.11569
 Alpha virt. eigenvalues --    0.12322   0.14346   0.15139   0.15428   0.17802

 Mulliken charges:
               1
     1  H   -2.514002
     2  B    6.929270
     3  H   -1.949642
     4  B    6.929418
     5  H   -2.465281
     6  H   -1.950444
     7  H   -2.465296
     8  H   -2.514023
 Sum of Mulliken charges =   0.00000

 Dipole moment (field-independent basis, Debye):
    X=              0.0000    Y=             -0.0329    Z=             -0.0003  Tot=              0.0329

 Test job not archived.
 1\1\GINC-SE249\SP\RHF\Aug-CC-pVDZ\B2H6\OHZDE\08-Apr-2025\0\\#t hf aug-
 cc-pvdz iop(5/13=1,5/36=2,99/5=2) pseudo=read geom=check guess=(read,t
 check) scf=(maxcycle=1)\\title\\0,1\H,0,1.19652,1.43889,0.84281\B,0,1.
 86822,0.87536,0.03939\H,0,2.63596,0.00008,0.64956\B,0,1.86807,-0.87539
 ,0.03992\H,0,2.52704,1.47227,-0.74928\H,0,1.13139,-0.00014,-0.60652\H,
 0,2.52674,-1.47289,-0.74844\H,0,1.19627,-1.43832,0.84366\\Version=ES64
 L-G16RevC.01\State=1-A\HF=-53.1657519\RMSD=5.046e-01\Dipole=0.0082176,
 0.0000113,-0.0099916\Quadrupole=0.9978125,-1.4017208,0.4039084,0.00023

 Normal termination of Gaussian 16 at Tue Apr  8 22:22:15 2025.
