 Gaussian 16, Revision C.01,

 ----------------------------------------------------------------------
 #t hf aug-cc-pvdz symm=none int=(grid=ultrafine) guess=(read,tcheck) s
 table=(opt,rrhf)
 ----------------------------------------------------------------------
 -----
 title
 -----
 Symbolic Z-matrix:
 Charge =  0 Multiplicity = 1

 SCF Done:  E(RHF) =  -502.479758846     A.U. after   11 cycles
 Normal termination of Gaussian 16 at Tue Apr  8 22:25:13 2025.
 Gaussian 16:  ES64L-G16RevC.01  3-Jul-2019

 ----------------------------------------------------------------------
 #t hf aug-cc-pvdz iop(5/13=1,5/36=2,99/5=2) pseudo=read geom=check gue
 ss=(read,tcheck) scf=(maxcycle=1)
 ----------------------------------------------------------------------
 -----
 title
 -----
 Structure from the checkpoint file:  "B-set_boricacid_boricacid_095_dimer_mol1.chk"
 Charge =  0 Multiplicity = 1

                         Standard orientation:
 ---------------------------------------------------------------------
 Center     Atomic      Atomic             Coordinates (Angstroms)
 Number     Number       Type             X           Y           Z
 ---------------------------------------------------------------------
      1          5           0        1.961462    0.026948   -0.000098
      2          8           0        3.318867   -0.120855    0.000462
      3          8           0        1.382627    1.244696   -0.000728
      4          8           0        1.194443   -1.123323   -0.000038
      5          1           0        3.776680    0.717452    0.000472
      6          1           0        0.413670    1.235772   -0.000478
      7          1           0        1.726654   -1.917108    0.000602
      8          5           0       -1.961425   -0.026906    0.000069
      9          8           0       -1.194495    1.123375    0.000409
     10          8           0       -3.318879    0.120768    0.000109
     11          8           0       -1.382599   -1.244664   -0.000301
     12          1           0       -1.726786    1.917120    0.000729
     13          1           0       -3.776482   -0.717650   -0.000101
     14          1           0       -0.413632   -1.235779   -0.000381
 ---------------------------------------------------------------------

 SCF Done:  E(RHF) =  -504.518694343     A.U. after    2 cycles

 The electronic state is 1-A.
 Alpha  occ. eigenvalues --  -21.07478 -21.07477 -21.05780 -21.05779 -21.02770
 Alpha  occ. eigenvalues --  -21.02751  -7.65776  -7.65751  -1.89246  -1.88140
 Alpha  occ. eigenvalues --   -1.69612  -1.67972  -1.65118  -1.64973  -0.80438
 Alpha  occ. eigenvalues --   -0.78004  -0.69336  -0.68012  -0.63673  -0.62520
 Alpha  occ. eigenvalues --   -0.54198  -0.53506  -0.52171  -0.50748  -0.44578
 Alpha  occ. eigenvalues --   -0.39852  -0.39183  -0.38774  -0.37973  -0.36187
 Alpha  occ. eigenvalues --   -0.34870  -0.33336
 Alpha virt. eigenvalues --    0.02948   0.03761   0.04109   0.04832   0.05511
 Alpha virt. eigenvalues --    0.06310   0.06807   0.07608   0.08540   0.09131
 Alpha virt. eigenvalues --    0.09425   0.10688   0.11675   0.13245   0.15032

 Mulliken charges:
               1
     1  B    7.885005
     2  O   -3.954954
     3  O   -4.220647
     4  O   -4.055314
     5  H    1.043738
     6  H    2.104166
     7  H    1.197902
     8  B    7.884998
     9  O   -4.055273
    10  O   -3.954826
    11  O   -4.220656
    12  H    1.197906
    13  H    1.043709
    14  H    2.104246
 Sum of Mulliken charges =  -0.00000

 Dipole moment (field-independent basis, Debye):
    X=              0.0006    Y=              0.0001    Z=              0.0012  Tot=              0.0013

 Test job not archived.
 1\1\GINC-SE453\SP\RHF\Aug-CC-pVDZ\B2H6O6\OHZDE\08-Apr-2025\0\\#t hf au
 g-cc-pvdz iop(5/13=1,5/36=2,99/5=2) pseudo=read geom=check guess=(read
 ,tcheck) scf=(maxcycle=1)\\title\\0,1\B,0,2.06504,0.02667,-0.0001\O,0,
 3.42239,-0.12163,0.00046\O,0,1.48665,1.24463,-0.00073\O,0,1.2976,-1.12
 332,-0.00004\H,0,3.88051,0.71651,0.00047\H,0,0.51769,1.23606,-0.00048\
 H,0,1.82952,-1.9173,0.0006\B,0,-1.85786657,-0.0257485,0.00006743\O,0,-
 1.09051657,1.1242515,0.00040743\O,0,-3.21526657,0.1224215,0.00010743\O
 ,0,-1.27948657,-1.2437185,-0.00030257\H,0,-1.62251657,1.9181915,0.0007

 Normal termination of Gaussian 16 at Tue Apr  8 22:25:17 2025.
