 Gaussian 16, Revision C.01,

 ----------------------------------------------------------------------
 #t hf aug-cc-pvdz symm=none int=(grid=ultrafine) guess=(read,tcheck) s
 table=(opt,rrhf)
 ----------------------------------------------------------------------
 -----
 title
 -----
 Symbolic Z-matrix:
 Charge =  0 Multiplicity = 1

 SCF Done:  E(RHF) =  -502.486284456     A.U. after   11 cycles
 Normal termination of Gaussian 16 at Tue Apr  8 22:25:13 2025.
 Gaussian 16:  ES64L-G16RevC.01  3-Jul-2019

 ----------------------------------------------------------------------
 #t hf aug-cc-pvdz iop(5/13=1,5/36=2,99/5=2) pseudo=read geom=check gue
 ss=(read,tcheck) scf=(maxcycle=1)
 ----------------------------------------------------------------------
 -----
 title
 -----
 Structure from the checkpoint file:  "B-set_boricacid_boricacid_100_dimer_mol1.chk"
 Charge =  0 Multiplicity = 1

                         Standard orientation:
 ---------------------------------------------------------------------
 Center     Atomic      Atomic             Coordinates (Angstroms)
 Number     Number       Type             X           Y           Z
 ---------------------------------------------------------------------
      1          5           0        2.065039    0.026673   -0.000100
      2          8           0        3.422389   -0.121626    0.000460
      3          8           0        1.486648    1.244633   -0.000730
      4          8           0        1.297600   -1.123318   -0.000040
      5          1           0        3.880508    0.716515    0.000470
      6          1           0        0.517688    1.236062   -0.000480
      7          1           0        1.829521   -1.917297    0.000600
      8          5           0       -2.065001   -0.026631    0.000070
      9          8           0       -1.297652    1.123370    0.000410
     10          8           0       -3.422401    0.121538    0.000110
     11          8           0       -1.486620   -1.244600   -0.000300
     12          1           0       -1.829653    1.917310    0.000730
     13          1           0       -3.880310   -0.716712   -0.000100
     14          1           0       -0.517650   -1.236069   -0.000380
 ---------------------------------------------------------------------

 SCF Done:  E(RHF) =  -504.520604675     A.U. after    2 cycles

 The electronic state is 1-A.
 Alpha  occ. eigenvalues --  -21.07187 -21.07185 -21.05859 -21.05858 -21.03769
 Alpha  occ. eigenvalues --  -21.03756  -7.65823  -7.65732  -1.88787  -1.88186
 Alpha  occ. eigenvalues --   -1.68318  -1.67344  -1.65737  -1.65587  -0.79503
 Alpha  occ. eigenvalues --   -0.78026  -0.67783  -0.66643  -0.63913  -0.62842
 Alpha  occ. eigenvalues --   -0.53844  -0.53169  -0.52372  -0.51348  -0.43700
 Alpha  occ. eigenvalues --   -0.39978  -0.39147  -0.38468  -0.37694  -0.36473
 Alpha  occ. eigenvalues --   -0.35551  -0.35132
 Alpha virt. eigenvalues --    0.02961   0.03745   0.04158   0.04830   0.05524
 Alpha virt. eigenvalues --    0.06252   0.06753   0.07585   0.08521   0.08999
 Alpha virt. eigenvalues --    0.09410   0.10780   0.11647   0.13261   0.14990

 Mulliken charges:
               1
     1  B    7.996589
     2  O   -3.919073
     3  O   -4.190135
     4  O   -3.955883
     5  H    1.077734
     6  H    1.793313
     7  H    1.197388
     8  B    7.996614
     9  O   -3.955901
    10  O   -3.918929
    11  O   -4.190164
    12  H    1.197378
    13  H    1.077724
    14  H    1.793344
 Sum of Mulliken charges =   0.00000

 Dipole moment (field-independent basis, Debye):
    X=              0.0005    Y=              0.0000    Z=              0.0011  Tot=              0.0012

 Test job not archived.
 1\1\GINC-SE080\SP\RHF\Aug-CC-pVDZ\B2H6O6\OHZDE\08-Apr-2025\0\\#t hf au
 g-cc-pvdz iop(5/13=1,5/36=2,99/5=2) pseudo=read geom=check guess=(read
 ,tcheck) scf=(maxcycle=1)\\title\\0,1\B,0,2.06504,0.02667,-0.0001\O,0,
 3.42239,-0.12163,0.00046\O,0,1.48665,1.24463,-0.00073\O,0,1.2976,-1.12
 332,-0.00004\H,0,3.88051,0.71651,0.00047\H,0,0.51769,1.23606,-0.00048\
 H,0,1.82952,-1.9173,0.0006\B,0,-2.065,-0.02663,0.00007\O,0,-1.29765,1.
 12337,0.00041\O,0,-3.4224,0.12154,0.00011\O,0,-1.48662,-1.2446,-0.0003
 \H,0,-1.82965,1.91731,0.00073\H,0,-3.88031,-0.71671,-0.0001\H,0,-0.517

 Normal termination of Gaussian 16 at Tue Apr  8 22:25:17 2025.
