 Gaussian 16, Revision C.01,

 ----------------------------------------------------------------------
 #t hf aug-cc-pvdz symm=none int=(grid=ultrafine) guess=(read,tcheck) s
 table=(opt,rrhf)
 ----------------------------------------------------------------------
 -----
 title
 -----
 Symbolic Z-matrix:
 Charge =  0 Multiplicity = 1

 SCF Done:  E(RHF) =  -3775.12175326     A.U. after   11 cycles
 Normal termination of Gaussian 16 at Tue Apr  8 22:22:04 2025.
 Gaussian 16:  ES64L-G16RevC.01  3-Jul-2019

 ----------------------------------------------------------------------
 #t hf aug-cc-pvdz iop(5/13=1,5/36=2,99/5=2) pseudo=read geom=check gue
 ss=(read,tcheck) scf=(maxcycle=1)
 ----------------------------------------------------------------------
 -----
 title
 -----
 Structure from the checkpoint file:  "B-set_b2cl4_b2cl4_150_dimer_mol1.chk"
 Charge =  0 Multiplicity = 1

                         Standard orientation:
 ---------------------------------------------------------------------
 Center     Atomic      Atomic             Coordinates (Angstroms)
 Number     Number       Type             X           Y           Z
 ---------------------------------------------------------------------
      1          5           0        3.133680    0.833613    0.150301
      2          5           0        3.133812   -0.833577   -0.150339
      3         17           0        2.261497    1.506482    1.506831
      4         17           0        4.055571    1.893604   -0.885249
      5         17           0        4.056051   -1.893346    0.885131
      6         17           0        2.261515   -1.506688   -1.506669
      7          5           0       -3.133770    0.833578   -0.150341
      8          5           0       -3.133818   -0.833592    0.150349
      9         17           0       -2.261313    1.506428   -1.506701
     10         17           0       -4.055889    1.893577    0.884999
     11         17           0       -2.261625   -1.506522    1.506849
     12         17           0       -4.055779   -1.893543   -0.885181
 ---------------------------------------------------------------------

 SCF Done:  E(RHF) =  -3777.46160941     A.U. after    2 cycles

 The electronic state is 1-A.
 Alpha  occ. eigenvalues --  -99.91734 -99.91734 -99.91733 -99.91732 -99.91708
 Alpha  occ. eigenvalues --  -99.91706 -99.91703 -99.91703 -10.49148 -10.49146
 Alpha  occ. eigenvalues --  -10.49141 -10.49140 -10.48940 -10.48939 -10.48935
 Alpha  occ. eigenvalues --  -10.48931  -9.69123  -9.69108  -9.69093  -9.69092
 Alpha  occ. eigenvalues --   -9.68902  -9.68888  -9.68885  -9.68874  -9.68641
 Alpha  occ. eigenvalues --   -9.68630  -9.68604  -9.68555  -9.68537  -9.68534
 Alpha  occ. eigenvalues --   -9.68486  -9.68462  -9.68434  -9.68430  -9.68396
 Alpha  occ. eigenvalues --   -9.68342  -9.68309  -9.68294  -9.68293  -9.68264
 Alpha  occ. eigenvalues --   -7.72418  -7.72389  -7.71317  -7.71317  -1.43064
 Alpha  occ. eigenvalues --   -1.42976  -1.40329  -1.40272  -1.31564  -1.31535
 Alpha  occ. eigenvalues --   -1.31475  -1.31338  -0.90766  -0.90751  -0.78013
 Alpha  occ. eigenvalues --   -0.78007  -0.66515  -0.66417  -0.66243  -0.66242
 Alpha  occ. eigenvalues --   -0.64185  -0.64124  -0.58979  -0.58941  -0.58840
 Alpha  occ. eigenvalues --   -0.58786  -0.57708  -0.57595  -0.54662  -0.54573
 Alpha  occ. eigenvalues --   -0.53445  -0.53291  -0.52250  -0.52197  -0.51666
 Alpha  occ. eigenvalues --   -0.51650  -0.43744  -0.43692
 Alpha virt. eigenvalues --    0.01256   0.01384   0.01817   0.02055   0.02503
 Alpha virt. eigenvalues --    0.03067   0.03667   0.04269   0.04712   0.05152
 Alpha virt. eigenvalues --    0.05279   0.07922   0.08041   0.09363   0.09409

 Mulliken charges:
               1
     1  B    2.503879
     2  B    2.503821
     3  Cl  -1.254873
     4  Cl  -1.249005
     5  Cl  -1.248951
     6  Cl  -1.254871
     7  B    2.503900
     8  B    2.503821
     9  Cl  -1.254852
    10  Cl  -1.248994
    11  Cl  -1.254879
    12  Cl  -1.248996
 Sum of Mulliken charges =  -0.00000

 Dipole moment (field-independent basis, Debye):
    X=             -0.0001    Y=              0.0000    Z=             -0.0001  Tot=              0.0002

 Test job not archived.
 1\1\GINC-SE435\SP\RHF\Aug-CC-pVDZ\B4Cl8\OHZDE\08-Apr-2025\0\\#t hf aug
 -cc-pvdz iop(5/13=1,5/36=2,99/5=2) pseudo=read geom=check guess=(read,
 tcheck) scf=(maxcycle=1)\\title\\0,1\B,0,2.08355,-0.83363,-0.1503\B,0,
 2.0837,0.83356,0.15034\Cl,0,1.21136,-1.50649,-1.50683\Cl,0,3.00543,-1.
 89363,0.88525\Cl,0,3.00595,1.89332,-0.88513\Cl,0,1.21141,1.50668,1.506
 67\B,0,-4.1839,-0.83352917,0.15034167\B,0,-4.18393,0.83364083,-0.15034
 833\Cl,0,-3.31145,-1.50638917,1.50670167\Cl,0,-5.10603,-1.89351917,-0.
 88499833\Cl,0,-3.31173,1.50656083,-1.50684833\Cl,0,-5.10588,1.89360083

 Normal termination of Gaussian 16 at Tue Apr  8 22:22:15 2025.
