 Gaussian 16, Revision C.01,

 ----------------------------------------------------------------------
 #t hf aug-cc-pvdz symm=none int=(grid=ultrafine) guess=(read,tcheck) s
 table=(opt,rrhf)
 ----------------------------------------------------------------------
 -----
 title
 -----
 Symbolic Z-matrix:
 Charge =  0 Multiplicity = 1

 SCF Done:  E(RHF) =  -894.816196769     A.U. after   12 cycles
 Normal termination of Gaussian 16 at Tue Apr  8 22:22:54 2025.
 Gaussian 16:  ES64L-G16RevC.01  3-Jul-2019

 ----------------------------------------------------------------------
 #t hf aug-cc-pvdz iop(5/13=1,5/36=2,99/5=2) pseudo=read geom=check gue
 ss=(read,tcheck) scf=(maxcycle=1)
 ----------------------------------------------------------------------
 -----
 title
 -----
 Structure from the checkpoint file:  "B-set_b2f4_b2f4_090_dimer_mol1.chk"
 Charge =  0 Multiplicity = 1

                         Standard orientation:
 ---------------------------------------------------------------------
 Center     Atomic      Atomic             Coordinates (Angstroms)
 Number     Number       Type             X           Y           Z
 ---------------------------------------------------------------------
      1          5           0        1.744601   -0.601131    0.489913
      2          5           0        1.469291    1.010046   -0.074431
      3          9           0        0.741522   -1.339284    0.930712
      4          9           0        2.939945   -1.141225    0.504323
      5          9           0        0.363467    1.656400    0.250703
      6          9           0        2.337632    1.643532   -0.825551
      7          5           0       -1.269903   -0.801704   -0.735442
      8          5           0       -1.914682    0.396459    0.324569
      9          9           0       -0.284934   -0.522754   -1.578769
     10          9           0       -1.739162   -2.028803   -0.768585
     11          9           0       -2.490445    1.482900   -0.147026
     12          9           0       -1.884306    0.247194    1.631634
 ---------------------------------------------------------------------

 SCF Done:  E(RHF) =  -897.896045302     A.U. after    2 cycles

 The electronic state is 1-A.
 Alpha  occ. eigenvalues --  -29.29176 -29.29103 -29.28920 -29.28402 -29.28287
 Alpha  occ. eigenvalues --  -29.27613 -29.26894 -29.26781  -7.72816  -7.72399
 Alpha  occ. eigenvalues --   -7.71775  -7.70880  -1.22396  -1.20498  -1.09388
 Alpha  occ. eigenvalues --   -1.08639  -0.82240  -0.78673  -0.75727  -0.74917
 Alpha  occ. eigenvalues --   -0.67742  -0.66747  -0.58113  -0.54847  -0.53682
 Alpha  occ. eigenvalues --   -0.53172  -0.50756  -0.49474  -0.48058  -0.47846
 Alpha  occ. eigenvalues --   -0.46645  -0.46451  -0.45632  -0.45318  -0.39891
 Alpha  occ. eigenvalues --   -0.39001  -0.38640  -0.37640  -0.37378  -0.36856
 Alpha  occ. eigenvalues --   -0.35846  -0.35216  -0.33706  -0.33347  -0.23257
 Alpha  occ. eigenvalues --   -0.20346
 Alpha virt. eigenvalues --    0.01650   0.02609   0.03380   0.04170   0.05204
 Alpha virt. eigenvalues --    0.06908   0.07542   0.08063   0.08932   0.09632
 Alpha virt. eigenvalues --    0.10140   0.10222   0.10738   0.10891   0.11900

 Mulliken charges:
               1
     1  B    0.716660
     2  B   -0.083498
     3  F   -0.767674
     4  F    0.262697
     5  F    0.030960
     6  F   -0.151911
     7  B    0.196535
     8  B   -0.047510
     9  F    0.045282
    10  F   -0.184876
    11  F   -0.002090
    12  F   -0.014575
 Sum of Mulliken charges =  -0.00000

 Dipole moment (field-independent basis, Debye):
    X=              0.7401    Y=             -0.1321    Z=             -0.0274  Tot=              0.7523

 Test job not archived.
 1\1\GINC-SE058\SP\RHF\Aug-CC-pVDZ\B4F8\OHZDE\08-Apr-2025\0\\#t hf aug-
 cc-pvdz iop(5/13=1,5/36=2,99/5=2) pseudo=read geom=check guess=(read,t
 check) scf=(maxcycle=1)\\title\\0,1\B,0,1.91416,-0.63907,0.46973\B,0,1
 .67914,0.97528,-0.10369\F,0,0.89841,-1.33833,0.94368\F,0,3.09043,-1.21
 961,0.45886\F,0,0.60477,1.6621,0.24321\F,0,2.54863,1.57167,-0.88331\B,
 0,-1.13633717,-0.7476955,-0.6755325\B,0,-1.71217717,0.4816245,0.388487
 5\F,0,-0.16477717,-0.5104655,-1.5467225\F,0,-1.64772717,-1.9582655,-0.
 6841125\F,0,-2.26278717,1.5827145,-0.0791525\F,0,-1.65282717,0.3435445

 Normal termination of Gaussian 16 at Tue Apr  8 22:23:03 2025.
