 Gaussian 16, Revision C.01,

 ----------------------------------------------------------------------
 #t hf aug-cc-pvdz symm=none int=(grid=ultrafine) guess=(read,tcheck) s
 table=(opt,rrhf)
 ----------------------------------------------------------------------
 -----
 title
 -----
 Symbolic Z-matrix:
 Charge =  0 Multiplicity = 1

 SCF Done:  E(RHF) =  -2334.96902028     A.U. after   12 cycles

 1\1\GINC-SE179\Stability\RHF\Aug-CC-pVDZ\B4Cl4F4\OHZDE\08-Apr-2025\0\\
 #t hf aug-cc-pvdz symm=none int=(grid=ultrafine) guess=(read,tcheck) s
 table=(opt,rrhf)\\title\\0,1\B,0,-1.57438,-0.71073,0.17185\B,0,-1.4340
 6,0.93593,-0.18667\Cl,0,-2.09565,-1.82193,-1.067\Cl,0,-1.25402,-1.2836
 8,1.78589\Cl,0,-2.80515,1.98794,0.03394\Cl,0,0.06371,1.62548,-0.79315\
 B,0,2.38973,-0.6957,-0.67329\B,0,2.76899,0.27376,0.70606\F,0,1.49982,-
 1.66705,-0.6035\F,0,2.97613,-0.50259,-1.83421\F,0,2.24959,0.01802,1.88
 823\F,0,3.58528,1.30172,0.61569\\Version=ES64L-G16RevC.01\HF=-2334.969

 Normal termination of Gaussian 16 at Tue Apr  8 22:22:24 2025.
 Gaussian 16:  ES64L-G16RevC.01  3-Jul-2019

 ----------------------------------------------------------------------
 #t hf aug-cc-pvdz iop(5/13=1,5/36=2,99/5=2) pseudo=read geom=check gue
 ss=(read,tcheck) scf=(maxcycle=1)
 ----------------------------------------------------------------------
 -----
 title
 -----
 Structure from the checkpoint file:  "B-set_b2f4_b2cl4_100_dimer_mol1.chk"
 Charge =  0 Multiplicity = 1

                         Standard orientation:
 ---------------------------------------------------------------------
 Center     Atomic      Atomic             Coordinates (Angstroms)
 Number     Number       Type             X           Y           Z
 ---------------------------------------------------------------------
      1          5           0       -1.574379   -0.710731    0.171848
      2          5           0       -1.434060    0.935929   -0.186672
      3         17           0       -2.095648   -1.821932   -1.067002
      4         17           0       -1.254018   -1.283681    1.785888
      5         17           0       -2.805151    1.987938    0.033938
      6         17           0        0.063709    1.625480   -0.793152
      7          5           0        2.389731   -0.695698   -0.673292
      8          5           0        2.768990    0.273763    0.706058
      9          9           0        1.499822   -1.667048   -0.603502
     10          9           0        2.976131   -0.502587   -1.834212
     11          9           0        2.249591    0.018022    1.888228
     12          9           0        3.585280    1.301723    0.615688
 ---------------------------------------------------------------------

 SCF Done:  E(RHF) =  -2337.67899985     A.U. after    2 cycles

 The electronic state is 1-A.
 Alpha  occ. eigenvalues --  -99.93203 -99.92440 -99.91765 -99.91735 -29.27570
 Alpha  occ. eigenvalues --  -29.27284 -29.27259 -29.27162 -10.50532 -10.49735
 Alpha  occ. eigenvalues --  -10.49154 -10.48952  -9.70529  -9.70121  -9.69905
 Alpha  occ. eigenvalues --   -9.69676  -9.69281  -9.69144  -9.69074  -9.68936
 Alpha  occ. eigenvalues --   -9.68588  -9.68575  -9.68501  -9.68427  -7.73081
 Alpha  occ. eigenvalues --   -7.71765  -7.71419  -7.70967  -1.43652  -1.40713
 Alpha  occ. eigenvalues --   -1.32536  -1.31537  -1.20734  -1.07858  -0.91298
 Alpha  occ. eigenvalues --   -0.79532  -0.78655  -0.73229  -0.67391  -0.66148
 Alpha  occ. eigenvalues --   -0.65952  -0.65480  -0.59947  -0.59154  -0.58605
 Alpha  occ. eigenvalues --   -0.55622  -0.54834  -0.53730  -0.52495  -0.52144
 Alpha  occ. eigenvalues --   -0.51873  -0.49793  -0.48264  -0.45592  -0.44165
 Alpha  occ. eigenvalues --   -0.43825  -0.38961  -0.37128  -0.36432  -0.34946
 Alpha  occ. eigenvalues --   -0.31871  -0.21938
 Alpha virt. eigenvalues --    0.01466   0.01863   0.02407   0.02885   0.03053
 Alpha virt. eigenvalues --    0.04477   0.05013   0.06571   0.07090   0.07812
 Alpha virt. eigenvalues --    0.08337   0.09115   0.09701   0.09802   0.10108

 Mulliken charges:
               1
     1  B    3.009600
     2  B    2.190092
     3  Cl  -1.409998
     4  Cl  -1.335982
     5  Cl  -1.368715
     6  Cl  -1.094586
     7  B   -0.398791
     8  B    0.029346
     9  F    0.054384
    10  F    0.048380
    11  F    0.178373
    12  F    0.097896
 Sum of Mulliken charges =  -0.00000

 Dipole moment (field-independent basis, Debye):
    X=             -0.1185    Y=              0.0204    Z=             -0.0616  Tot=              0.1351

 Test job not archived.
 1\1\GINC-SE179\SP\RHF\Aug-CC-pVDZ\B4Cl4F4\OHZDE\08-Apr-2025\0\\#t hf a
 ug-cc-pvdz iop(5/13=1,5/36=2,99/5=2) pseudo=read geom=check guess=(rea
 d,tcheck) scf=(maxcycle=1)\\title\\0,1\B,0,-1.57438,-0.71073,0.17185\B
 ,0,-1.43406,0.93593,-0.18667\Cl,0,-2.09565,-1.82193,-1.067\Cl,0,-1.254
 02,-1.28368,1.78589\Cl,0,-2.80515,1.98794,0.03394\Cl,0,0.06371,1.62548
 ,-0.79315\B,0,2.38973,-0.6957,-0.67329\B,0,2.76899,0.27376,0.70606\F,0
 ,1.49982,-1.66705,-0.6035\F,0,2.97613,-0.50259,-1.83421\F,0,2.24959,0.
 01802,1.88823\F,0,3.58528,1.30172,0.61569\\Version=ES64L-G16RevC.01\St

 Normal termination of Gaussian 16 at Tue Apr  8 22:22:35 2025.
