 Gaussian 16, Revision C.01,

 ----------------------------------------------------------------------
 #t hf aug-cc-pvdz symm=none int=(grid=ultrafine) guess=(read,tcheck) s
 table=(opt,rrhf)
 ----------------------------------------------------------------------
 -----
 title
 -----
 Symbolic Z-matrix:
 Charge =  0 Multiplicity = 1

 SCF Done:  E(RHF) =  -463.659882535     A.U. after   15 cycles
 Normal termination of Gaussian 16 at Tue Apr  8 22:26:35 2025.
 Gaussian 16:  ES64L-G16RevC.01  3-Jul-2019

 ----------------------------------------------------------------------
 #t hf aug-cc-pvdz iop(5/13=1,5/36=2,99/5=2) pseudo=read geom=check gue
 ss=(read,tcheck) scf=(maxcycle=1)
 ----------------------------------------------------------------------
 -----
 title
 -----
 Structure from the checkpoint file:  "B-set_borabenzene_pyridine_125_dimer_mol1.chk"
 Charge =  0 Multiplicity = 1

                         Standard orientation:
 ---------------------------------------------------------------------
 Center     Atomic      Atomic             Coordinates (Angstroms)
 Number     Number       Type             X           Y           Z
 ---------------------------------------------------------------------
      1          6           0       -1.701060    1.234662    0.364086
      2          6           0       -3.088630    1.163902    0.350066
      3          6           0       -3.768940   -0.000028   -0.000064
      4          6           0       -3.088530   -1.163938   -0.350024
      5          6           0       -1.700901   -1.234708   -0.364164
      6          1           0       -4.851210   -0.000047   -0.000134
      7          1           0       -1.256140    2.174542    0.680856
      8          1           0       -3.676080    2.033732    0.625796
      9          1           0       -3.675961   -2.033658   -0.626134
     10          1           0       -1.256331   -2.174498   -0.681664
     11          5           0       -0.959310   -0.000009    0.000006
     12          6           0        1.658252   -1.092099    0.383694
     13          6           0        3.034132   -1.127050    0.387044
     14          6           0        3.739612    0.000010   -0.000166
     15          6           0        3.034033    1.127130   -0.387086
     16          6           0        1.658173    1.092101   -0.383416
     17          7           0        0.979302   -0.000009    0.000144
     18          1           0        4.820152    0.000010   -0.000276
     19          1           0        1.050982   -1.927049    0.697044
     20          1           0        3.539362   -2.027260    0.701944
     21          1           0        3.539163    2.027410   -0.701946
     22          1           0        1.050653    1.927031   -0.696336
 ---------------------------------------------------------------------

 SCF Done:  E(RHF) =  -465.866141369     A.U. after    2 cycles

 The electronic state is 1-A.
 Alpha  occ. eigenvalues --  -15.81305 -11.53918 -11.50070 -11.48385 -11.45038
 Alpha  occ. eigenvalues --  -11.42751 -11.42224 -11.37885 -11.34285 -11.32868
 Alpha  occ. eigenvalues --  -11.30402  -7.59416  -1.51361  -1.26705  -1.23376
 Alpha  occ. eigenvalues --   -1.16363  -1.04880  -0.98517  -0.93611  -0.93488
 Alpha  occ. eigenvalues --   -0.79596  -0.79051  -0.74446  -0.69366  -0.65784
 Alpha  occ. eigenvalues --   -0.64977  -0.63871  -0.61836  -0.59548  -0.55077
 Alpha  occ. eigenvalues --   -0.53613  -0.51371  -0.48647  -0.47058  -0.43864
 Alpha  occ. eigenvalues --   -0.41879  -0.39949  -0.38393  -0.36522  -0.29093
 Alpha  occ. eigenvalues --   -0.24017
 Alpha virt. eigenvalues --    0.01865   0.04037   0.04235   0.05377   0.05384
 Alpha virt. eigenvalues --    0.05919   0.06029   0.07163   0.07298   0.07577
 Alpha virt. eigenvalues --    0.07657   0.08568   0.08619   0.09308   0.10025

 Mulliken charges:
               1
     1  C   -4.279214
     2  C   -1.141152
     3  C   -0.753332
     4  C   -1.140561
     5  C   -4.279526
     6  H    1.527321
     7  H    1.607843
     8  H    1.463863
     9  H    1.463902
    10  H    1.607389
    11  B    3.830941
    12  C   -1.034133
    13  C   -1.186727
    14  C   -0.115264
    15  C   -1.187203
    16  C   -1.032579
    17  N   -3.740986
    18  H    1.601791
    19  H    1.996341
    20  H    1.397432
    21  H    1.397395
    22  H    1.996461
 Sum of Mulliken charges =   0.00000

 Dipole moment (field-independent basis, Debye):
    X=              7.9025    Y=              0.0004    Z=             -0.0004  Tot=              7.9025

 Test job not archived.
 1\1\GINC-SE073\SP\RHF\Aug-CC-pVDZ\C10H10B1N1\OHZDE\08-Apr-2025\0\\#t h
 f aug-cc-pvdz iop(5/13=1,5/36=2,99/5=2) pseudo=read geom=check guess=(
 read,tcheck) scf=(maxcycle=1)\\title\\0,1\C,0,1.50247,-1.23466,0.3641\
 C,0,2.89004,-1.1639,0.35008\C,0,3.57035,0.00003,-0.00005\C,0,2.88994,1
 .16394,-0.35001\C,0,1.50231,1.23471,-0.36415\H,0,4.65262,0.00005,-0.00
 012\H,0,1.05755,-2.17454,0.68087\H,0,3.47749,-2.03373,0.62581\H,0,3.47
 737,2.03366,-0.62612\H,0,1.05774,2.1745,-0.68165\B,0,0.76072,0.00001,0
 .00002\C,0,-1.8568425,1.0921,0.3837075\C,0,-3.2327225,1.12705,0.387057

 Normal termination of Gaussian 16 at Tue Apr  8 22:26:50 2025.
