 Gaussian 16, Revision C.01,

 ----------------------------------------------------------------------
 #t hf aug-cc-pvdz symm=none int=(grid=ultrafine) guess=(read,tcheck) s
 table=(opt,rrhf)
 ----------------------------------------------------------------------
 -----
 title
 -----
 Symbolic Z-matrix:
 Charge =  0 Multiplicity = 1

 SCF Done:  E(RHF) =  -251.237453702     A.U. after   11 cycles
 Normal termination of Gaussian 16 at Tue Apr  8 22:23:36 2025.
 Gaussian 16:  ES64L-G16RevC.01  3-Jul-2019

 ----------------------------------------------------------------------
 #t hf aug-cc-pvdz iop(5/13=1,5/36=2,99/5=2) pseudo=read geom=check gue
 ss=(read,tcheck) scf=(maxcycle=1)
 ----------------------------------------------------------------------
 -----
 title
 -----
 Structure from the checkpoint file:  "B-set_boricacid_benzene_090_dimer_mol2.chk"
 Charge =  0 Multiplicity = 1

                         Standard orientation:
 ---------------------------------------------------------------------
 Center     Atomic      Atomic             Coordinates (Angstroms)
 Number     Number       Type             X           Y           Z
 ---------------------------------------------------------------------
      1          5           0       -0.006289   -0.005286    0.000021
      2          8           0        0.386402    1.305369    0.000014
      3          8           0       -1.329377   -0.318317   -0.000053
      4          8           0        0.949332   -0.986127   -0.000012
      5          1           0       -0.355749    1.906580    0.000005
      6          1           0       -1.497055   -1.263348    0.000314
      7          1           0        1.833383   -0.624198   -0.000022
 ---------------------------------------------------------------------

 SCF Done:  E(RHF) =  -252.256072235     A.U. after    2 cycles

 The electronic state is 1-A.
 Alpha  occ. eigenvalues --  -21.05890 -21.05793 -21.05762  -7.65480  -1.88184
 Alpha  occ. eigenvalues --   -1.66615  -1.66184  -0.78247  -0.64712  -0.64462
 Alpha  occ. eigenvalues --   -0.52570  -0.52125  -0.39772  -0.39206  -0.36944
 Alpha  occ. eigenvalues --   -0.36763
 Alpha virt. eigenvalues --    0.03236   0.04951   0.05009   0.05328   0.07888
 Alpha virt. eigenvalues --    0.08521   0.08552   0.15206   0.21164   0.21308
 Alpha virt. eigenvalues --    0.22351   0.22353   0.22614   0.22764   0.23942

 Mulliken charges:
               1
     1  B    7.870955
     2  O   -3.653471
     3  O   -3.683568
     4  O   -3.644476
     5  H    1.040389
     6  H    1.029179
     7  H    1.040992
 Sum of Mulliken charges =  -0.00000

 Dipole moment (field-independent basis, Debye):
    X=             -0.0450    Y=             -0.0108    Z=              0.0004  Tot=              0.0463

 Test job not archived.
 1\1\GINC-SE220\SP\RHF\Aug-CC-pVDZ\B1H3O3\OHZDE\08-Apr-2025\0\\#t hf au
 g-cc-pvdz iop(5/13=1,5/36=2,99/5=2) pseudo=read geom=check guess=(read
 ,tcheck) scf=(maxcycle=1)\\title\\0,1\B,0,2.47525,0.1904,0.00446\O,0,3
 .75759,0.66722,0.02093\O,0,1.42772,1.05703,0.01798\O,0,2.26904,-1.1630
 5,-0.02572\H,0,3.78968,1.62157,0.04163\H,0,0.57273,0.62112,0.00482\H,0
 ,3.09084,-1.65002,-0.03224\\Version=ES64L-G16RevC.01\State=1-A\HF=-252
 .2560722\RMSD=1.381e-01\Dipole=-0.0140515,0.0115698,0.000328\Quadrupol
 e=0.7677183,0.5433554,-1.3110737,-0.0250345,0.0086134,0.0399027\PG=C01

 Normal termination of Gaussian 16 at Tue Apr  8 22:23:38 2025.
