 Gaussian 16, Revision C.01,

 ----------------------------------------------------------------------
 #t hf aug-cc-pvdz symm=none int=(grid=ultrafine) guess=(read,tcheck) s
 table=(opt,rrhf)
 ----------------------------------------------------------------------
 -----
 title
 -----
 Symbolic Z-matrix:
 Charge =  0 Multiplicity = 1

 SCF Done:  E(RHF) =  -2334.96447055     A.U. after   12 cycles

 1\1\GINC-SE458\Stability\RHF\Aug-CC-pVDZ\B4Cl4F4\OHZDE\08-Apr-2025\0\\
 #t hf aug-cc-pvdz symm=none int=(grid=ultrafine) guess=(read,tcheck) s
 table=(opt,rrhf)\\title\\0,1\B,0,-1.57438,-0.71073,0.17185\B,0,-1.4340
 6,0.93593,-0.18667\Cl,0,-2.09565,-1.82193,-1.067\Cl,0,-1.25402,-1.2836
 8,1.78589\Cl,0,-2.80515,1.98794,0.03394\Cl,0,0.06371,1.62548,-0.79315\
 B,0,1.98024517,-0.66228583,-0.67585867\B,0,2.35950517,0.30717417,0.703
 49133\F,0,1.09033517,-1.63363583,-0.60606867\F,0,2.56664517,-0.4691758
 3,-1.83677867\F,0,1.84010517,0.05143417,1.88566133\F,0,3.17579517,1.33

 Normal termination of Gaussian 16 at Tue Apr  8 22:22:00 2025.
 Gaussian 16:  ES64L-G16RevC.01  3-Jul-2019

 ----------------------------------------------------------------------
 #t hf aug-cc-pvdz iop(5/13=1,5/36=2,99/5=2) pseudo=read geom=check gue
 ss=(read,tcheck) scf=(maxcycle=1)
 ----------------------------------------------------------------------
 -----
 title
 -----
 Structure from the checkpoint file:  "B-set_b2f4_b2cl4_090_dimer_mol1.chk"
 Charge =  0 Multiplicity = 1

                         Standard orientation:
 ---------------------------------------------------------------------
 Center     Atomic      Atomic             Coordinates (Angstroms)
 Number     Number       Type             X           Y           Z
 ---------------------------------------------------------------------
      1          5           0       -1.444337   -0.678913    0.170789
      2          5           0       -1.252821    0.962389   -0.188606
      3         17           0       -1.997377   -1.774470   -1.068218
      4         17           0       -1.144556   -1.260256    1.785781
      5         17           0       -2.591293    2.056226    0.028872
      6         17           0        0.266498    1.605108   -0.792918
      7          5           0        2.111566   -0.740425   -0.670691
      8          5           0        2.518060    0.217929    0.708663
      9          9           0        1.192085   -1.683898   -0.601806
     10          9           0        2.705645   -0.566293   -1.830708
     11          9           0        1.988986   -0.020848    1.890090
     12          9           0        3.365732    1.220234    0.619029
 ---------------------------------------------------------------------

 SCF Done:  E(RHF) =  -2337.67710521     A.U. after    2 cycles

 The electronic state is 1-A.
 Alpha  occ. eigenvalues --  -99.93703 -99.92666 -99.91563 -99.91531 -29.27603
 Alpha  occ. eigenvalues --  -29.27072 -29.27050 -29.26930 -10.51075 -10.49956
 Alpha  occ. eigenvalues --  -10.48964 -10.48752  -9.71087  -9.70733  -9.70475
 Alpha  occ. eigenvalues --   -9.69903  -9.69504  -9.69319  -9.68933  -9.68748
 Alpha  occ. eigenvalues --   -9.68408  -9.68399  -9.68311  -9.68269  -7.73310
 Alpha  occ. eigenvalues --   -7.71804  -7.71189  -7.70670  -1.43922  -1.40781
 Alpha  occ. eigenvalues --   -1.33048  -1.31473  -1.20788  -1.07854  -0.91602
 Alpha  occ. eigenvalues --   -0.79635  -0.78987  -0.73310  -0.68116  -0.66445
 Alpha  occ. eigenvalues --   -0.66072  -0.65424  -0.60590  -0.59751  -0.59117
 Alpha  occ. eigenvalues --   -0.56196  -0.55272  -0.53937  -0.52306  -0.52052
 Alpha  occ. eigenvalues --   -0.50844  -0.49497  -0.48108  -0.45474  -0.44265
 Alpha  occ. eigenvalues --   -0.43745  -0.38809  -0.37233  -0.36420  -0.35032
 Alpha  occ. eigenvalues --   -0.31824  -0.21791
 Alpha virt. eigenvalues --    0.01371   0.01676   0.02221   0.02768   0.03130
 Alpha virt. eigenvalues --    0.04338   0.05045   0.07003   0.07474   0.08137
 Alpha virt. eigenvalues --    0.08303   0.08998   0.09551   0.09836   0.10208

 Mulliken charges:
               1
     1  B    2.870719
     2  B    2.310387
     3  Cl  -1.419657
     4  Cl  -1.340143
     5  Cl  -1.395664
     6  Cl  -1.032700
     7  B   -0.140616
     8  B    0.292008
     9  F   -0.036845
    10  F   -0.095579
    11  F   -0.018661
    12  F    0.006752
 Sum of Mulliken charges =  -0.00000

 Dipole moment (field-independent basis, Debye):
    X=              0.1518    Y=              0.0607    Z=             -0.1440  Tot=              0.2179

 Test job not archived.
 1\1\GINC-SE458\SP\RHF\Aug-CC-pVDZ\B4Cl4F4\OHZDE\08-Apr-2025\0\\#t hf a
 ug-cc-pvdz iop(5/13=1,5/36=2,99/5=2) pseudo=read geom=check guess=(rea
 d,tcheck) scf=(maxcycle=1)\\title\\0,1\B,0,-1.57438,-0.71073,0.17185\B
 ,0,-1.43406,0.93593,-0.18667\Cl,0,-2.09565,-1.82193,-1.067\Cl,0,-1.254
 02,-1.28368,1.78589\Cl,0,-2.80515,1.98794,0.03394\Cl,0,0.06371,1.62548
 ,-0.79315\B,0,1.98024517,-0.66228583,-0.67585867\B,0,2.35950517,0.3071
 7417,0.70349133\F,0,1.09033517,-1.63363583,-0.60606867\F,0,2.56664517,
 -0.46917583,-1.83677867\F,0,1.84010517,0.05143417,1.88566133\F,0,3.175

 Normal termination of Gaussian 16 at Tue Apr  8 22:22:10 2025.
