 Gaussian 16, Revision C.01,

 ----------------------------------------------------------------------
 #t hf aug-cc-pvdz symm=none int=(grid=ultrafine) guess=(read,tcheck) s
 table=(opt,rrhf)
 ----------------------------------------------------------------------
 -----
 title
 -----
 Symbolic Z-matrix:
 Charge =  0 Multiplicity = 1

 SCF Done:  E(RHF) =  -447.407157522     A.U. after   11 cycles
 Normal termination of Gaussian 16 at Tue Apr  8 22:21:14 2025.
 Gaussian 16:  ES64L-G16RevC.01  3-Jul-2019

 ----------------------------------------------------------------------
 #t hf aug-cc-pvdz iop(5/13=1,5/36=2,99/5=2) pseudo=read geom=check gue
 ss=(read,tcheck) scf=(maxcycle=1)
 ----------------------------------------------------------------------
 -----
 title
 -----
 Structure from the checkpoint file:  "B-set_b2f4_b2cl4_090_dimer_mol3.chk"
 Charge =  0 Multiplicity = 1

                         Standard orientation:
 ---------------------------------------------------------------------
 Center     Atomic      Atomic             Coordinates (Angstroms)
 Number     Number       Type             X           Y           Z
 ---------------------------------------------------------------------
      1          5           0        0.863202   -0.002403    0.001080
      2          5           0       -0.864886   -0.000650   -0.001494
      3          9           0        1.548806    1.123722    0.047142
      4          9           0        1.551748   -1.121531   -0.047381
      5          9           0       -1.549818    1.122515   -0.047021
      6          9           0       -1.549801   -1.123009    0.047489
 ---------------------------------------------------------------------

 SCF Done:  E(RHF) =  -448.956343351     A.U. after    2 cycles

 The electronic state is 1-A.
 Alpha  occ. eigenvalues --  -29.27626 -29.27586 -29.27499 -29.27471  -7.71743
 Alpha  occ. eigenvalues --   -7.71310  -1.20880  -1.07856  -0.79580  -0.73235
 Alpha  occ. eigenvalues --   -0.66211  -0.54664  -0.52698  -0.49983  -0.48193
 Alpha  occ. eigenvalues --   -0.45649  -0.43920  -0.39087  -0.37110  -0.36505
 Alpha  occ. eigenvalues --   -0.34907  -0.31941  -0.22000
 Alpha virt. eigenvalues --    0.01645   0.03509   0.05107   0.05772   0.08751
 Alpha virt. eigenvalues --    0.09184   0.09961   0.12150   0.12327   0.14281
 Alpha virt. eigenvalues --    0.15151   0.18376   0.20664   0.20912   0.22596

 Mulliken charges:
               1
     1  B   -0.210264
     2  B   -0.192105
     3  F    0.073996
     4  F    0.115404
     5  F    0.107264
     6  F    0.105703
 Sum of Mulliken charges =  -0.00000

 Dipole moment (field-independent basis, Debye):
    X=              0.0094    Y=             -0.0192    Z=              0.0006  Tot=              0.0214

 Test job not archived.
 1\1\GINC-SE073\SP\RHF\Aug-CC-pVDZ\B2F4\OHZDE\08-Apr-2025\0\\#t hf aug-
 cc-pvdz iop(5/13=1,5/36=2,99/5=2) pseudo=read geom=check guess=(read,t
 check) scf=(maxcycle=1)\\title\\0,1\B,0,2.38973,-0.6957,-0.67329\B,0,2
 .76899,0.27376,0.70606\F,0,1.49982,-1.66705,-0.6035\F,0,2.97613,-0.502
 59,-1.83421\F,0,2.24959,0.01802,1.88823\F,0,3.58528,1.30172,0.61569\\V
 ersion=ES64L-G16RevC.01\State=1-A\HF=-448.9563434\RMSD=4.251e-01\Dipol
 e=0.0037454,0.0021948,-0.0072196\Quadrupole=-1.233442,-0.4747593,1.708
 2013,4.1273372,-2.3580193,-0.1674602\PG=C01 [X(B2F4)]\\@

 Normal termination of Gaussian 16 at Tue Apr  8 22:21:15 2025.
