 Gaussian 16, Revision C.01,

 ----------------------------------------------------------------------
 #t hf aug-cc-pvdz symm=none int=(grid=ultrafine) guess=(read,tcheck) s
 table=(opt,rrhf)
 ----------------------------------------------------------------------
 -----
 title
 -----
 Symbolic Z-matrix:
 Charge =  0 Multiplicity = 1

 SCF Done:  E(RHF) =  -502.486882469     A.U. after   11 cycles
 Normal termination of Gaussian 16 at Tue Apr  8 22:25:13 2025.
 Gaussian 16:  ES64L-G16RevC.01  3-Jul-2019

 ----------------------------------------------------------------------
 #t hf aug-cc-pvdz iop(5/13=1,5/36=2,99/5=2) pseudo=read geom=check gue
 ss=(read,tcheck) scf=(maxcycle=1)
 ----------------------------------------------------------------------
 -----
 title
 -----
 Structure from the checkpoint file:  "B-set_boricacid_boricacid_105_dimer_mol1.chk"
 Charge =  0 Multiplicity = 1

                         Standard orientation:
 ---------------------------------------------------------------------
 Center     Atomic      Atomic             Coordinates (Angstroms)
 Number     Number       Type             X           Y           Z
 ---------------------------------------------------------------------
      1          5           0        2.168614    0.026425   -0.000101
      2          8           0        3.525917   -0.122305    0.000459
      3          8           0        1.590610    1.244568   -0.000731
      4          8           0        1.400810   -1.123322   -0.000041
      5          1           0        3.984303    0.715689    0.000469
      6          1           0        0.621647    1.236305   -0.000481
      7          1           0        1.932478   -1.917470    0.000599
      8          5           0       -2.168576   -0.026382    0.000072
      9          8           0       -1.400862    1.123374    0.000412
     10          8           0       -3.525929    0.122218    0.000112
     11          8           0       -1.590582   -1.244536   -0.000298
     12          1           0       -1.932610    1.917483    0.000732
     13          1           0       -3.984105   -0.715887   -0.000098
     14          1           0       -0.621610   -1.236313   -0.000378
 ---------------------------------------------------------------------

 SCF Done:  E(RHF) =  -504.520029399     A.U. after    2 cycles

 The electronic state is 1-A.
 Alpha  occ. eigenvalues --  -21.06918 -21.06916 -21.05902 -21.05901 -21.04416
 Alpha  occ. eigenvalues --  -21.04408  -7.65822  -7.65714  -1.88585  -1.88181
 Alpha  occ. eigenvalues --   -1.67557  -1.66900  -1.66170  -1.65940  -0.79000
 Alpha  occ. eigenvalues --   -0.78145  -0.66776  -0.65778  -0.64120  -0.63257
 Alpha  occ. eigenvalues --   -0.53406  -0.52964  -0.52515  -0.51734  -0.42787
 Alpha  occ. eigenvalues --   -0.40062  -0.39366  -0.37972  -0.37493  -0.36647
 Alpha  occ. eigenvalues --   -0.36363  -0.36024
 Alpha virt. eigenvalues --    0.02992   0.03736   0.04198   0.04822   0.05526
 Alpha virt. eigenvalues --    0.06206   0.06701   0.07582   0.08479   0.08906
 Alpha virt. eigenvalues --    0.09390   0.10854   0.11632   0.13262   0.14946

 Mulliken charges:
               1
     1  B    8.042036
     2  O   -3.889255
     3  O   -4.159995
     4  O   -3.880915
     5  H    1.106785
     6  H    1.598861
     7  H    1.182447
     8  B    8.042073
     9  O   -3.880975
    10  O   -3.889100
    11  O   -4.160043
    12  H    1.182428
    13  H    1.106795
    14  H    1.598858
 Sum of Mulliken charges =   0.00000

 Dipole moment (field-independent basis, Debye):
    X=              0.0005    Y=              0.0000    Z=              0.0010  Tot=              0.0011

 Test job not archived.
 1\1\GINC-SE094\SP\RHF\Aug-CC-pVDZ\B2H6O6\OHZDE\08-Apr-2025\0\\#t hf au
 g-cc-pvdz iop(5/13=1,5/36=2,99/5=2) pseudo=read geom=check guess=(read
 ,tcheck) scf=(maxcycle=1)\\title\\0,1\B,0,2.06504,0.02667,-0.0001\O,0,
 3.42239,-0.12163,0.00046\O,0,1.48665,1.24463,-0.00073\O,0,1.2976,-1.12
 332,-0.00004\H,0,3.88051,0.71651,0.00047\H,0,0.51769,1.23606,-0.00048\
 H,0,1.82952,-1.9173,0.0006\B,0,-2.27213343,-0.0275115,0.00007257\O,0,-
 1.50478343,1.1224885,0.00041257\O,0,-3.62953343,0.1206585,0.00011257\O
 ,0,-1.69375343,-1.2454815,-0.00029743\H,0,-2.03678343,1.9164285,0.0007

 Normal termination of Gaussian 16 at Tue Apr  8 22:25:17 2025.
