 Gaussian 16, Revision C.01,

 ----------------------------------------------------------------------
 #t hf aug-cc-pvdz symm=none int=(grid=ultrafine) guess=(read,tcheck) s
 table=(opt,rrhf)
 ----------------------------------------------------------------------
 -----
 title
 -----
 Symbolic Z-matrix:
 Charge =  0 Multiplicity = 1

 SCF Done:  E(RHF) =  -503.167042617     A.U. after   12 cycles
 Normal termination of Gaussian 16 at Tue Apr  8 22:23:28 2025.
 Gaussian 16:  ES64L-G16RevC.01  3-Jul-2019

 ----------------------------------------------------------------------
 #t hf aug-cc-pvdz iop(5/13=1,5/36=2,99/5=2) pseudo=read geom=check gue
 ss=(read,tcheck) scf=(maxcycle=1)
 ----------------------------------------------------------------------
 -----
 title
 -----
 Structure from the checkpoint file:  "B-set_borane_dms_095_dimer_mol1.chk"
 Charge =  0 Multiplicity = 1

                         Standard orientation:
 ---------------------------------------------------------------------
 Center     Atomic      Atomic             Coordinates (Angstroms)
 Number     Number       Type             X           Y           Z
 ---------------------------------------------------------------------
      1          5           0        0.012960    1.699852    0.319884
      2          1           0        0.011319    1.437806    1.501300
      3          1           0       -0.995243    2.224710   -0.086577
      4          1           0        1.028850    2.209193   -0.087194
      5         16           0        0.000358    0.055009   -0.520992
      6          6           0        1.370162   -0.807210    0.251865
      7          1           0        1.377718   -1.849540   -0.057004
      8          1           0        2.279798   -0.315648   -0.082693
      9          1           0        1.286776   -0.716449    1.332757
     10          6           0       -1.382234   -0.786522    0.251913
     11          1           0       -2.284453   -0.281694   -0.082966
     12          1           0       -1.405158   -1.828720   -0.056628
     13          1           0       -1.297701   -0.696678    1.332785
 ---------------------------------------------------------------------

 SCF Done:  E(RHF) =  -503.994088766     A.U. after    2 cycles

 The electronic state is 1-A.
 Alpha  occ. eigenvalues --  -75.72777 -13.20060 -13.18127 -13.14117 -11.41905
 Alpha  occ. eigenvalues --  -11.41626  -8.07371  -7.52614  -1.31104  -1.06058
 Alpha  occ. eigenvalues --   -0.97308  -0.80879  -0.63590  -0.62271  -0.61096
 Alpha  occ. eigenvalues --   -0.59572  -0.49251  -0.45857  -0.41147  -0.37653
 Alpha  occ. eigenvalues --   -0.29007
 Alpha virt. eigenvalues --    0.02143   0.02913   0.03426   0.04954   0.06424
 Alpha virt. eigenvalues --    0.06535   0.08001   0.08409   0.09516   0.09612
 Alpha virt. eigenvalues --    0.12172   0.12277   0.12650   0.13397   0.14176

 Mulliken charges:
               1
     1  B    8.402983
     2  H   -1.917862
     3  H   -2.755592
     4  H   -2.755045
     5  S   -0.199758
     6  C   -4.650013
     7  H    1.397719
     8  H    1.405629
     9  H    1.459413
    10  C   -4.650089
    11  H    1.405856
    12  H    1.397669
    13  H    1.459091
 Sum of Mulliken charges =   0.00000

 Dipole moment (field-independent basis, Debye):
    X=             -0.0280    Y=             -3.6334    Z=             -1.5631  Tot=              3.9555

 Test job not archived.
 1\1\GINC-SE015\SP\RHF\Aug-CC-pVDZ\C2H9B1S1\OHZDE\08-Apr-2025\0\\#t hf
 aug-cc-pvdz iop(5/13=1,5/36=2,99/5=2) pseudo=read geom=check guess=(re
 ad,tcheck) scf=(maxcycle=1)\\title\\0,1\B,0,1.77921,0.00284,0.30624\H,
 0,1.55019,0.00212,1.4945\H,0,2.28322,1.01582,-0.11448\H,0,2.28635,-1.0
 0833,-0.11509\S,0,0.111523,0.000237,-0.4884635\C,0,-0.716157,-1.377423
 ,0.3078365\H,0,-1.766577,-1.394603,0.0281365\H,0,-0.225747,-2.282503,-
 0.0404835\H,0,-0.596077,-1.293153,1.3857965\C,0,-0.720847,1.375047,0.3
 078865\H,0,-0.233887,2.281867,-0.0407435\H,0,-1.771407,1.388347,0.0285

 Normal termination of Gaussian 16 at Tue Apr  8 22:23:34 2025.
