 Gaussian 16, Revision C.01,

 ----------------------------------------------------------------------
 #t hf aug-cc-pvdz symm=none int=(grid=ultrafine) guess=(read,tcheck) s
 table=(opt,rrhf)
 ----------------------------------------------------------------------
 -----
 title
 -----
 Symbolic Z-matrix:
 Charge =  0 Multiplicity = 1

 SCF Done:  E(RHF) =  -497.130786069     A.U. after   15 cycles
 Normal termination of Gaussian 16 at Tue Apr  8 22:29:03 2025.
 Gaussian 16:  ES64L-G16RevC.01  3-Jul-2019

 ----------------------------------------------------------------------
 #t hf aug-cc-pvdz iop(5/13=1,5/36=2,99/5=2) pseudo=read geom=check gue
 ss=(read,tcheck) scf=(maxcycle=1)
 ----------------------------------------------------------------------
 -----
 title
 -----
 Structure from the checkpoint file:  "B-set_borepin_borazine_090_dimer_mol1.chk"
 Charge =  0 Multiplicity = 1

                         Standard orientation:
 ---------------------------------------------------------------------
 Center     Atomic      Atomic             Coordinates (Angstroms)
 Number     Number       Type             X           Y           Z
 ---------------------------------------------------------------------
      1          6           0       -0.855986   -1.163327    1.256358
      2          6           0       -1.698033   -1.517987    0.247079
      3          6           0       -0.457346    0.121423    1.709441
      4          1           0       -0.413668   -1.989969    1.800214
      5          6           0       -2.434780   -0.709475   -0.658534
      6          1           0       -1.828607   -2.585017    0.108413
      7          6           0       -0.810915    1.347176    1.232948
      8          1           0        0.236054    0.092021    2.544850
      9          6           0       -2.473830    0.648375   -0.762457
     10          1           0       -3.039515   -1.280736   -1.357395
     11          1           0       -0.347699    2.175955    1.761557
     12          5           0       -1.736342    1.687470    0.072292
     13          1           0       -3.124862    1.012280   -1.553175
     14          1           0       -1.899281    2.843948   -0.196868
     15          5           0        2.726422   -0.040318    0.502534
     16          7           0        2.238824    1.182520   -0.037559
     17          7           0        2.166155   -1.248832   -0.003911
     18          1           0        3.569911   -0.055205    1.349869
     19          5           0        1.216081    1.231992   -1.031255
     20          1           0        2.614013    2.046699    0.307982
     21          5           0        1.155749   -1.266398   -1.011860
     22          1           0        2.502161   -2.123093    0.356250
     23          7           0        0.711839   -0.010671   -1.510757
     24          1           0        0.806483    2.272937   -1.449600
     25          1           0        0.708300   -2.295887   -1.422214
     26          1           0       -0.025225    0.004117   -2.191860
 ---------------------------------------------------------------------

 SCF Done:  E(RHF) =  -499.456116534     A.U. after    2 cycles

 The electronic state is 1-A.
 Alpha  occ. eigenvalues --  -15.67586 -15.67212 -15.66853 -11.49614 -11.44939
 Alpha  occ. eigenvalues --  -11.43002 -11.41232 -11.38536 -11.36309  -7.61100
 Alpha  occ. eigenvalues --   -7.60987  -7.59437  -7.59240  -1.47704  -1.29768
 Alpha  occ. eigenvalues --   -1.29344  -1.29175  -1.15278  -1.09723  -0.91581
 Alpha  occ. eigenvalues --   -0.89483  -0.84462  -0.84254  -0.76214  -0.71283
 Alpha  occ. eigenvalues --   -0.69706  -0.69035  -0.61838  -0.58026  -0.57446
 Alpha  occ. eigenvalues --   -0.57250  -0.56926  -0.55933  -0.53559  -0.49757
 Alpha  occ. eigenvalues --   -0.48283  -0.46679  -0.41059  -0.40456  -0.40318
 Alpha  occ. eigenvalues --   -0.40021  -0.39552  -0.38914  -0.36465  -0.30891
 Alpha virt. eigenvalues --    0.02022   0.02156   0.02805   0.03281   0.05331
 Alpha virt. eigenvalues --    0.05423   0.05860   0.06031   0.06244   0.06542
 Alpha virt. eigenvalues --    0.07125   0.07467   0.07747   0.07991   0.08391

 Mulliken charges:
               1
     1  C   -1.164182
     2  C   -1.240184
     3  C   -1.198115
     4  H    1.495867
     5  C   -1.475903
     6  H    1.578804
     7  C   -3.988293
     8  H    1.572785
     9  C   -3.706548
    10  H    1.392436
    11  H    1.420924
    12  B    8.681249
    13  H    1.332591
    14  H   -5.648897
    15  B    7.885387
    16  N   -3.631342
    17  N   -3.851252
    18  H   -5.353508
    19  B    9.873396
    20  H    0.852975
    21  B    9.780142
    22  H    0.912656
    23  N   -4.417014
    24  H   -6.069947
    25  H   -6.233933
    26  H    1.199905
 Sum of Mulliken charges =   0.00000

 Dipole moment (field-independent basis, Debye):
    X=              0.2364    Y=             -2.1907    Z=              0.6630  Tot=              2.3010

 Test job not archived.
 1\1\GINC-SE179\SP\RHF\Aug-CC-pVDZ\C6H13B4N3\OHZDE\08-Apr-2025\0\\#t hf
  aug-cc-pvdz iop(5/13=1,5/36=2,99/5=2) pseudo=read geom=check guess=(r
 ead,tcheck) scf=(maxcycle=1)\\title\\0,1\C,0,-1.1002,-1.1557,1.24379\C
 ,0,-1.87153,-1.52215,0.18349\C,0,-0.73895,0.13441,1.71272\H,0,-0.6909,
 -1.97601,1.822\C,0,-2.55047,-0.72416,-0.77509\H,0,-1.98729,-2.59084,0.
 04445\C,0,-1.06616,1.35478,1.20463\H,0,-0.10247,0.11476,2.59254\C,0,-2
 .58928,0.63268,-0.89154\H,0,-3.10457,-1.30369,-1.50828\H,0,-0.64323,2.
 18983,1.75662\B,0,-1.91408,1.68172,-0.01745\H,0,-3.18812,0.98737,-1.72

 Normal termination of Gaussian 16 at Tue Apr  8 22:29:29 2025.
