 Gaussian 16, Revision C.01,

 ----------------------------------------------------------------------
 #t hf aug-cc-pvdz symm=none int=(grid=ultrafine) guess=(read,tcheck) s
 table=(opt,rrhf)
 ----------------------------------------------------------------------
 -----
 title
 -----
 Symbolic Z-matrix:
 Charge =  0 Multiplicity = 1

 SCF Done:  E(RHF) =  -503.155029050     A.U. after   12 cycles
 Normal termination of Gaussian 16 at Tue Apr  8 22:22:46 2025.
 Gaussian 16:  ES64L-G16RevC.01  3-Jul-2019

 ----------------------------------------------------------------------
 #t hf aug-cc-pvdz iop(5/13=1,5/36=2,99/5=2) pseudo=read geom=check gue
 ss=(read,tcheck) scf=(maxcycle=1)
 ----------------------------------------------------------------------
 -----
 title
 -----
 Structure from the checkpoint file:  "B-set_borane_dms_090_dimer_mol1.chk"
 Charge =  0 Multiplicity = 1

                         Standard orientation:
 ---------------------------------------------------------------------
 Center     Atomic      Atomic             Coordinates (Angstroms)
 Number     Number       Type             X           Y           Z
 ---------------------------------------------------------------------
      1          5           0        0.001903    1.620394    0.333639
      2          1           0        0.001913    1.322429    1.506511
      3          1           0       -1.009650    2.150898   -0.056855
      4          1           0        1.014501    2.148453   -0.057481
      5         16           0        0.000040    0.087102   -0.510143
      6          6           0        1.375351   -0.789444    0.236370
      7          1           0        1.389639   -1.821797   -0.104147
      8          1           0        2.281808   -0.282053   -0.082830
      9          1           0        1.291346   -0.732234    1.319509
     10          6           0       -1.377121   -0.786507    0.236417
     11          1           0       -2.282567   -0.277524   -0.083116
     12          1           0       -1.393314   -1.818935   -0.103775
     13          1           0       -1.293206   -0.729131    1.319546
 ---------------------------------------------------------------------

 SCF Done:  E(RHF) =  -503.976636722     A.U. after    2 cycles

 The electronic state is 1-A.
 Alpha  occ. eigenvalues --  -75.72659 -13.21567 -13.18348 -13.14640 -11.41825
 Alpha  occ. eigenvalues --  -11.41540  -8.07443  -7.51973  -1.32256  -1.06085
 Alpha  occ. eigenvalues --   -0.98329  -0.80278  -0.63727  -0.62037  -0.61251
 Alpha  occ. eigenvalues --   -0.59509  -0.49774  -0.46581  -0.41011  -0.37264
 Alpha  occ. eigenvalues --   -0.28893
 Alpha virt. eigenvalues --    0.02187   0.02918   0.03371   0.04939   0.06471
 Alpha virt. eigenvalues --    0.06614   0.08020   0.08431   0.09584   0.09615
 Alpha virt. eigenvalues --    0.12210   0.12350   0.12697   0.13477   0.14119

 Mulliken charges:
               1
     1  B    9.120559
     2  H   -2.119236
     3  H   -2.952956
     4  H   -2.952445
     5  S   -0.297918
     6  C   -4.624637
     7  H    1.388529
     8  H    1.389056
     9  H    1.448179
    10  C   -4.624771
    11  H    1.389325
    12  H    1.388490
    13  H    1.447825
 Sum of Mulliken charges =   0.00000

 Dipole moment (field-independent basis, Debye):
    X=             -0.0042    Y=             -3.3583    Z=             -1.5958  Tot=              3.7182

 Test job not archived.
 1\1\GINC-SE126\SP\RHF\Aug-CC-pVDZ\C2H9B1S1\OHZDE\08-Apr-2025\0\\#t hf
 aug-cc-pvdz iop(5/13=1,5/36=2,99/5=2) pseudo=read geom=check guess=(re
 ad,tcheck) scf=(maxcycle=1)\\title\\0,1\B,0,1.77921,0.00284,0.30624\H,
 0,1.55019,0.00212,1.4945\H,0,2.28322,1.01582,-0.11448\H,0,2.28635,-1.0
 0833,-0.11509\S,0,0.199296,0.000374,-0.446637\C,0,-0.628384,-1.377286,
 0.349663\H,0,-1.678804,-1.394466,0.069963\H,0,-0.137974,-2.282366,0.00
 1343\H,0,-0.508304,-1.293016,1.427623\C,0,-0.633074,1.375184,0.349713\
 H,0,-0.146114,2.282004,0.001083\H,0,-1.683634,1.388484,0.070343\H,0,-0

 Normal termination of Gaussian 16 at Tue Apr  8 22:22:50 2025.
