 Gaussian 16, Revision C.01,

 ----------------------------------------------------------------------
 #t hf aug-cc-pvdz symm=none int=(grid=ultrafine) guess=(read,tcheck) s
 table=(opt,rrhf)
 ----------------------------------------------------------------------
 -----
 title
 -----
 Symbolic Z-matrix:
 Charge =  0 Multiplicity = 1

 SCF Done:  E(RHF) =  -219.228009755     A.U. after   12 cycles
 Normal termination of Gaussian 16 at Tue Apr  8 22:27:31 2025.
 Gaussian 16:  ES64L-G16RevC.01  3-Jul-2019

 ----------------------------------------------------------------------
 #t hf aug-cc-pvdz iop(5/13=1,5/36=2,99/5=2) pseudo=read geom=check gue
 ss=(read,tcheck) scf=(maxcycle=1)
 ----------------------------------------------------------------------
 -----
 title
 -----
 Structure from the checkpoint file:  "B-set_borole_methane_200_dimer_mol1.chk"
 Charge =  0 Multiplicity = 1

                         Standard orientation:
 ---------------------------------------------------------------------
 Center     Atomic      Atomic             Coordinates (Angstroms)
 Number     Number       Type             X           Y           Z
 ---------------------------------------------------------------------
      1          5           0       -1.027345   -0.144306    1.216541
      2          6           0       -1.562432   -1.273204    0.249296
      3          6           0       -1.340988    1.206251    0.460274
      4          1           0       -0.547278   -0.279814    2.298491
      5          6           0       -2.100145   -0.637979   -0.793367
      6          1           0       -1.555223   -2.347665    0.355216
      7          6           0       -1.965446    0.859995   -0.666353
      8          1           0       -1.142448    2.229111    0.743103
      9          1           0       -2.583991   -1.097552   -1.646727
     10          1           0       -2.345190    1.533833   -1.424699
     11          6           0        5.512339   -0.024523   -0.191224
     12          1           0        6.476376   -0.501189   -0.354199
     13          1           0        5.519363    0.976975   -0.613844
     14          1           0        4.732848   -0.613341   -0.671095
     15          1           0        5.322308    0.037934    0.879297
 ---------------------------------------------------------------------

 SCF Done:  E(RHF) =  -220.325633271     A.U. after    2 cycles

 The electronic state is 1-A.
 Alpha  occ. eigenvalues --  -11.46478 -11.40096 -11.36424 -11.35365 -11.34447
 Alpha  occ. eigenvalues --   -7.61081  -1.30253  -1.03264  -1.02776  -0.92471
 Alpha  occ. eigenvalues --   -0.73346  -0.72769  -0.68517  -0.54854  -0.53555
 Alpha  occ. eigenvalues --   -0.53497  -0.53283  -0.47258  -0.45685  -0.43791
 Alpha  occ. eigenvalues --   -0.41222  -0.30263
 Alpha virt. eigenvalues --    0.02665   0.03163   0.03905   0.04298   0.04557
 Alpha virt. eigenvalues --    0.05821   0.06301   0.06602   0.07081   0.07757
 Alpha virt. eigenvalues --    0.08111   0.08737   0.10191   0.12431   0.13992

 Mulliken charges:
               1
     1  B    7.177886
     2  C   -2.850480
     3  C   -2.816238
     4  H   -4.178043
     5  C   -1.345046
     6  H    1.353378
     7  C   -1.388807
     8  H    1.349382
     9  H    1.350956
    10  H    1.350385
    11  C   -4.761548
    12  H    1.224409
    13  H    1.178424
    14  H    1.179165
    15  H    1.176176
 Sum of Mulliken charges =   0.00000

 Dipole moment (field-independent basis, Debye):
    X=             -0.6517    Y=              0.1686    Z=             -1.2761  Tot=              1.4428

 Test job not archived.
 1\1\GINC-SE250\SP\RHF\Aug-CC-pVDZ\C5H9B1\OHZDE\08-Apr-2025\0\\#t hf au
 g-cc-pvdz iop(5/13=1,5/36=2,99/5=2) pseudo=read geom=check guess=(read
 ,tcheck) scf=(maxcycle=1)\\title\\0,1\B,0,0.06513,-0.1638,-1.2018\C,0,
 0.7417,-1.2672,-0.29568\C,0,0.44816,1.2043,-0.51194\H,0,-0.54783,-0.32
 544,-2.21056\C,0,1.39732,-0.60567,0.65948\H,0,0.74116,-2.34325,-0.3843
 \C,0,1.21913,0.88749,0.52939\H,0,0.19554,2.2188,-0.78143\H,0,1.99577,-
 1.0427,1.44967\H,0,1.68073,1.58021,1.22251\C,0,-6.239451,-0.130702,1.0
 37568\H,0,-7.165251,-0.620752,1.330628\H,0,-6.210801,0.877458,1.443088

 Normal termination of Gaussian 16 at Tue Apr  8 22:27:35 2025.
