 Gaussian 16, Revision C.01,

 ----------------------------------------------------------------------
 #t hf aug-cc-pvdz symm=none int=(grid=ultrafine) guess=(read,tcheck) s
 table=(opt,rrhf)
 ----------------------------------------------------------------------
 -----
 title
 -----
 Symbolic Z-matrix:
 Charge =  0 Multiplicity = 1

 SCF Done:  E(RHF) =  -736.593399662     A.U. after   11 cycles
 Normal termination of Gaussian 16 at Tue Apr  8 22:38:49 2025.
 Gaussian 16:  ES64L-G16RevC.01  3-Jul-2019

 ----------------------------------------------------------------------
 #t hf aug-cc-pvdz iop(5/13=1,5/36=2,99/5=2) pseudo=read geom=check gue
 ss=(read,tcheck) scf=(maxcycle=1)
 ----------------------------------------------------------------------
 -----
 title
 -----
 Structure from the checkpoint file:  "B-set_trimethylborate_trimethylborate_110_dimer_mol1.chk"
 Charge =  0 Multiplicity = 1

                         Standard orientation:
 ---------------------------------------------------------------------
 Center     Atomic      Atomic             Coordinates (Angstroms)
 Number     Number       Type             X           Y           Z
 ---------------------------------------------------------------------
      1          5           0        1.764071   -0.001137    0.000514
      2          8           0        1.765762   -1.340679    0.246177
      3          8           0        1.768793    0.881498    1.037629
      4          8           0        1.768689    0.455867   -1.282416
      5          6           0        1.705363   -1.834436    1.570645
      6          6           0        1.711145    2.275494    0.803044
      7          6           0        1.709876   -0.444169   -2.372342
      8          1           0        0.710847   -1.676774    1.989058
      9          1           0        1.912835   -2.901740    1.531085
     10          1           0        2.442245   -1.347776    2.209756
     11          1           0        1.923845    2.774631    1.746071
     12          1           0        2.445619    2.583510    0.058733
     13          1           0        0.715936    2.561505    0.461321
     14          1           0        1.914704    0.124388   -3.277033
     15          1           0        2.449210   -1.238874   -2.271544
     16          1           0        0.716672   -0.888361   -2.444277
     17          5           0       -1.764011    0.000955   -0.000516
     18          8           0       -1.768254   -0.880600   -1.038571
     19          8           0       -1.768139   -0.457179    1.282035
     20          8           0       -1.766512    1.340767   -0.244878
     21          6           0       -1.710146   -2.274807   -0.804996
     22          6           0       -1.709195    0.442268    2.372571
     23          6           0       -1.707344    1.836003   -1.568837
     24          1           0       -2.446669   -2.584045   -0.063234
     25          1           0       -1.919606   -2.773232   -1.749114
     26          1           0       -0.715757   -2.560326   -0.460474
     27          1           0       -1.914902   -0.126621    3.276863
     28          1           0       -0.715590    0.885500    2.445106
     29          1           0       -2.447849    1.237552    2.271702
     30          1           0       -0.712878    1.679911   -1.988021
     31          1           0       -2.443906    1.349124   -2.208138
     32          1           0       -1.915975    2.903028   -1.528157
 ---------------------------------------------------------------------

 SCF Done:  E(RHF) =  -739.837333352     A.U. after    2 cycles

 The electronic state is 1-A.
 Alpha  occ. eigenvalues --  -21.01537 -21.01499 -21.01473 -21.01472 -21.01454
 Alpha  occ. eigenvalues --  -21.01454 -11.40000 -11.39986 -11.39986 -11.39896
 Alpha  occ. eigenvalues --  -11.39893 -11.39877  -7.64164  -7.64163  -1.90544
 Alpha  occ. eigenvalues --   -1.89811  -1.69855  -1.69854  -1.69504  -1.69504
 Alpha  occ. eigenvalues --   -1.02558  -1.02368  -0.97992  -0.97988  -0.97411
 Alpha  occ. eigenvalues --   -0.97409  -0.69104  -0.68663  -0.64270  -0.64266
 Alpha  occ. eigenvalues --   -0.64042  -0.64037  -0.63771  -0.62089  -0.59656
 Alpha  occ. eigenvalues --   -0.59654  -0.59171  -0.59169  -0.58273  -0.58225
 Alpha  occ. eigenvalues --   -0.52073  -0.52070  -0.51998  -0.51995  -0.48326
 Alpha  occ. eigenvalues --   -0.47666  -0.46100  -0.45747  -0.34128  -0.34122
 Alpha  occ. eigenvalues --   -0.33922  -0.33919  -0.32770  -0.32765  -0.32438
 Alpha  occ. eigenvalues --   -0.32429
 Alpha virt. eigenvalues --    0.03603   0.04145   0.04146   0.04395   0.05270
 Alpha virt. eigenvalues --    0.05271   0.05652   0.06229   0.06230   0.06678
 Alpha virt. eigenvalues --    0.07189   0.07426   0.07640   0.07643   0.08153

 Mulliken charges:
               1
     1  B   15.667189
     2  O   -5.970424
     3  O   -5.958949
     4  O   -5.973643
     5  C   -3.883134
     6  C   -3.884593
     7  C   -3.883641
     8  H    1.685452
     9  H    1.300227
    10  H    1.645155
    11  H    1.299099
    12  H    1.645395
    13  H    1.681448
    14  H    1.300404
    15  H    1.643680
    16  H    1.686468
    17  B   15.665404
    18  O   -5.961343
    19  O   -5.973351
    20  O   -5.966189
    21  C   -3.884470
    22  C   -3.884645
    23  C   -3.882263
    24  H    1.644943
    25  H    1.299336
    26  H    1.683046
    27  H    1.299993
    28  H    1.685795
    29  H    1.644439
    30  H    1.683880
    31  H    1.645341
    32  H    1.299951
 Sum of Mulliken charges =  -0.00000

 Dipole moment (field-independent basis, Debye):
    X=             -0.0007    Y=              0.0008    Z=             -0.0001  Tot=              0.0011

 Test job not archived.
 1\1\GINC-SE043\SP\RHF\Aug-CC-pVDZ\C6H18B2O6\OHZDE\08-Apr-2025\0\\#t hf
  aug-cc-pvdz iop(5/13=1,5/36=2,99/5=2) pseudo=read geom=check guess=(r
 ead,tcheck) scf=(maxcycle=1)\\title\\0,1\B,0,1.60824,0.00191,-0.00082\
 O,0,1.60915,1.34156,-0.2459\O,0,1.61322,-0.88027,-1.03832\O,0,1.61338,
 -0.45565,1.28191\C,0,1.5482,1.83586,-1.57014\C,0,1.55638,-2.2744,-0.80
 433\C,0,1.55431,0.44388,2.37224\H,0,0.55368,1.67784,-1.98841\H,0,1.755
 1,2.90326,-1.53016\H,0,2.28521,1.34988,-2.20962\H,0,1.76915,-2.77301,-
 1.74762\H,0,2.29118,-2.58234,-0.06031\H,0,0.5614,-2.5611,-0.46252\H,0,

 Normal termination of Gaussian 16 at Tue Apr  8 22:39:28 2025.
