 Gaussian 16, Revision C.01,

 ----------------------------------------------------------------------
 #t hf aug-cc-pvdz symm=none int=(grid=ultrafine) guess=(read,tcheck) s
 table=(opt,rrhf)
 ----------------------------------------------------------------------
 -----
 title
 -----
 Symbolic Z-matrix:
 Charge =  0 Multiplicity = 1

 SCF Done:  E(RHF) =  -219.227242885     A.U. after   12 cycles
 Normal termination of Gaussian 16 at Tue Apr  8 22:27:36 2025.
 Gaussian 16:  ES64L-G16RevC.01  3-Jul-2019

 ----------------------------------------------------------------------
 #t hf aug-cc-pvdz iop(5/13=1,5/36=2,99/5=2) pseudo=read geom=check gue
 ss=(read,tcheck) scf=(maxcycle=1)
 ----------------------------------------------------------------------
 -----
 title
 -----
 Structure from the checkpoint file:  "B-set_borole_methane_105_dimer_mol1.chk"
 Charge =  0 Multiplicity = 1

                         Standard orientation:
 ---------------------------------------------------------------------
 Center     Atomic      Atomic             Coordinates (Angstroms)
 Number     Number       Type             X           Y           Z
 ---------------------------------------------------------------------
      1          5           0       -0.126080   -0.160767    1.206841
      2          6           0       -0.783515   -1.267863    0.291194
      3          6           0       -0.500469    1.204864    0.507413
      4          1           0        0.469318   -0.318665    2.226652
      5          6           0       -1.423854   -0.610083   -0.676836
      6          1           0       -0.781670   -2.343723    0.382079
      7          6           0       -1.251994    0.883819   -0.546756
      8          1           0       -0.255383    2.220599    0.779200
      9          1           0       -2.007021   -1.050362   -1.476591
     10          1           0       -1.703076    1.573855   -1.249412
     11          6           0        2.866516   -0.054067   -0.415105
     12          1           0        3.798676   -0.542208   -0.690666
     13          1           0        2.842368    0.953174   -0.823195
     14          1           0        2.029134   -0.624647   -0.812368
     15          1           0        2.797955   -0.004210    0.670639
 ---------------------------------------------------------------------

 SCF Done:  E(RHF) =  -220.328094971     A.U. after    2 cycles

 The electronic state is 1-A.
 Alpha  occ. eigenvalues --  -11.46490 -11.40135 -11.36480 -11.35541 -11.34636
 Alpha  occ. eigenvalues --   -7.61077  -1.30213  -1.03260  -1.02793  -0.92441
 Alpha  occ. eigenvalues --   -0.73301  -0.72754  -0.68486  -0.54809  -0.53616
 Alpha  occ. eigenvalues --   -0.53473  -0.53408  -0.47170  -0.45570  -0.43722
 Alpha  occ. eigenvalues --   -0.41169  -0.30302
 Alpha virt. eigenvalues --    0.03020   0.03295   0.04462   0.04660   0.05148
 Alpha virt. eigenvalues --    0.05731   0.06091   0.06858   0.07465   0.08531
 Alpha virt. eigenvalues --    0.08815   0.08974   0.11769   0.12839   0.14008

 Mulliken charges:
               1
     1  B    8.500336
     2  C   -3.195186
     3  C   -3.248748
     4  H   -4.688901
     5  C   -1.451842
     6  H    1.316069
     7  C   -1.383914
     8  H    1.387877
     9  H    1.403772
    10  H    1.403507
    11  C   -5.336733
    12  H    1.190601
    13  H    1.242553
    14  H    1.415229
    15  H    1.445378
 Sum of Mulliken charges =  -0.00000

 Dipole moment (field-independent basis, Debye):
    X=             -0.7116    Y=              0.2125    Z=             -1.2492  Tot=              1.4533

 Test job not archived.
 1\1\GINC-SE044\SP\RHF\Aug-CC-pVDZ\C5H9B1\OHZDE\08-Apr-2025\0\\#t hf au
 g-cc-pvdz iop(5/13=1,5/36=2,99/5=2) pseudo=read geom=check guess=(read
 ,tcheck) scf=(maxcycle=1)\\title\\0,1\B,0,0.06513,-0.1638,-1.2018\C,0,
 0.7417,-1.2672,-0.29568\C,0,0.44816,1.2043,-0.51194\H,0,-0.54783,-0.32
 544,-2.21056\C,0,1.39732,-0.60567,0.65948\H,0,0.74116,-2.34325,-0.3843
 \C,0,1.21913,0.88749,0.52939\H,0,0.19554,2.2188,-0.78143\H,0,1.99577,-
 1.0427,1.44967\H,0,1.68073,1.58021,1.22251\C,0,-2.89850905,-0.0616826,
 0.4727569\H,0,-3.82430905,-0.5517326,0.7658169\H,0,-2.86985905,0.94647

 Normal termination of Gaussian 16 at Tue Apr  8 22:27:40 2025.
