 Gaussian 16, Revision C.01,

 ----------------------------------------------------------------------
 #t hf aug-cc-pvdz symm=none int=(grid=ultrafine) guess=(read,tcheck) s
 table=(opt,rrhf)
 ----------------------------------------------------------------------
 -----
 title
 -----
 Symbolic Z-matrix:
 Charge =  0 Multiplicity = 1

 SCF Done:  E(RHF) =  -463.681860936     A.U. after   15 cycles
 Normal termination of Gaussian 16 at Tue Apr  8 22:25:15 2025.
 Gaussian 16:  ES64L-G16RevC.01  3-Jul-2019

 ----------------------------------------------------------------------
 #t hf aug-cc-pvdz iop(5/13=1,5/36=2,99/5=2) pseudo=read geom=check gue
 ss=(read,tcheck) scf=(maxcycle=1)
 ----------------------------------------------------------------------
 -----
 title
 -----
 Structure from the checkpoint file:  "B-set_borabenzene_pyridine_100_dimer_mol1.chk"
 Charge =  0 Multiplicity = 1

                         Standard orientation:
 ---------------------------------------------------------------------
 Center     Atomic      Atomic             Coordinates (Angstroms)
 Number     Number       Type             X           Y           Z
 ---------------------------------------------------------------------
      1          6           0       -1.502471    1.234661    0.364100
      2          6           0       -2.890041    1.163900    0.350080
      3          6           0       -3.570351   -0.000030   -0.000050
      4          6           0       -2.889940   -1.163940   -0.350010
      5          6           0       -1.502310   -1.234709   -0.364150
      6          1           0       -4.652621   -0.000050   -0.000120
      7          1           0       -1.057551    2.174541    0.680870
      8          1           0       -3.477491    2.033730    0.625810
      9          1           0       -3.477370   -2.033660   -0.626120
     10          1           0       -1.057740   -2.174499   -0.681650
     11          5           0       -0.760721   -0.000009    0.000020
     12          6           0        1.469120   -1.092098    0.383680
     13          6           0        2.845000   -1.127048    0.387030
     14          6           0        3.550479    0.000012   -0.000180
     15          6           0        2.844899    1.127132   -0.387100
     16          6           0        1.469039    1.092102   -0.383430
     17          7           0        0.790169   -0.000009    0.000130
     18          1           0        4.631019    0.000013   -0.000290
     19          1           0        0.861850   -1.927049    0.697030
     20          1           0        3.350230   -2.027258    0.701930
     21          1           0        3.350029    2.027412   -0.701960
     22          1           0        0.861519    1.927031   -0.696350
 ---------------------------------------------------------------------

 SCF Done:  E(RHF) =  -465.888348965     A.U. after    2 cycles

 The electronic state is 1-A.
 Alpha  occ. eigenvalues --  -15.82081 -11.54969 -11.51160 -11.49156 -11.45811
 Alpha  occ. eigenvalues --  -11.43155 -11.42191 -11.37222 -11.33524 -11.31698
 Alpha  occ. eigenvalues --  -11.29446  -7.55230  -1.55629  -1.28785  -1.22906
 Alpha  occ. eigenvalues --   -1.17399  -1.04232  -1.00764  -0.95068  -0.93715
 Alpha  occ. eigenvalues --   -0.81658  -0.78708  -0.74924  -0.69642  -0.66575
 Alpha  occ. eigenvalues --   -0.66319  -0.64639  -0.61985  -0.61532  -0.54824
 Alpha  occ. eigenvalues --   -0.53461  -0.51569  -0.48063  -0.47662  -0.44228
 Alpha  occ. eigenvalues --   -0.42269  -0.39127  -0.38898  -0.35216  -0.28512
 Alpha  occ. eigenvalues --   -0.22898
 Alpha virt. eigenvalues --    0.01730   0.03925   0.04105   0.05347   0.05499
 Alpha virt. eigenvalues --    0.05546   0.05733   0.07104   0.07342   0.07427
 Alpha virt. eigenvalues --    0.07670   0.08120   0.08657   0.09151   0.09921

 Mulliken charges:
               1
     1  C   -4.748486
     2  C   -0.709753
     3  C   -0.844314
     4  C   -0.709346
     5  C   -4.749415
     6  H    1.560715
     7  H    1.678892
     8  H    1.431260
     9  H    1.431286
    10  H    1.678578
    11  B    4.166669
    12  C   -0.200855
    13  C   -1.430135
    14  C   -0.170949
    15  C   -1.430814
    16  C   -0.198394
    17  N   -5.192977
    18  H    1.610666
    19  H    2.021744
    20  H    1.391899
    21  H    1.391810
    22  H    2.021919
 Sum of Mulliken charges =  -0.00000

 Dipole moment (field-independent basis, Debye):
    X=              8.4013    Y=              0.0005    Z=             -0.0004  Tot=              8.4013

 Test job not archived.
 1\1\GINC-SE340\SP\RHF\Aug-CC-pVDZ\C10H10B1N1\OHZDE\08-Apr-2025\0\\#t h
 f aug-cc-pvdz iop(5/13=1,5/36=2,99/5=2) pseudo=read geom=check guess=(
 read,tcheck) scf=(maxcycle=1)\\title\\0,1\C,0,1.50247,-1.23466,0.3641\
 C,0,2.89004,-1.1639,0.35008\C,0,3.57035,0.00003,-0.00005\C,0,2.88994,1
 .16394,-0.35001\C,0,1.50231,1.23471,-0.36415\H,0,4.65262,0.00005,-0.00
 012\H,0,1.05755,-2.17454,0.68087\H,0,3.47749,-2.03373,0.62581\H,0,3.47
 737,2.03366,-0.62612\H,0,1.05774,2.1745,-0.68165\B,0,0.76072,0.00001,0
 .00002\C,0,-1.46912,1.0921,0.38368\C,0,-2.845,1.12705,0.38703\C,0,-3.5

 Normal termination of Gaussian 16 at Tue Apr  8 22:25:28 2025.
