 Gaussian 16, Revision C.01,

 ----------------------------------------------------------------------
 #t hf aug-cc-pvdz symm=none int=(grid=ultrafine) guess=(read,tcheck) s
 table=(opt,rrhf)
 ----------------------------------------------------------------------
 -----
 title
 -----
 Symbolic Z-matrix:
 Charge =  0 Multiplicity = 1

 SCF Done:  E(RHF) =  -143.470361305     A.U. after   12 cycles
 Normal termination of Gaussian 16 at Tue Apr  8 22:26:23 2025.
 Gaussian 16:  ES64L-G16RevC.01  3-Jul-2019

 ----------------------------------------------------------------------
 #t hf aug-cc-pvdz iop(5/13=1,5/36=2,99/5=2) pseudo=read geom=check gue
 ss=(read,tcheck) scf=(maxcycle=1)
 ----------------------------------------------------------------------
 -----
 title
 -----
 Structure from the checkpoint file:  "B-set_borirane_methane_095_dimer_mol1.chk"
 Charge =  0 Multiplicity = 1

                         Standard orientation:
 ---------------------------------------------------------------------
 Center     Atomic      Atomic             Coordinates (Angstroms)
 Number     Number       Type             X           Y           Z
 ---------------------------------------------------------------------
      1          5           0       -0.648651   -0.000431    0.939119
      2          6           0       -1.139160   -0.772057   -0.282579
      3          6           0       -1.138613    0.772443   -0.282008
      4          1           0       -0.234781   -0.000914    2.045650
      5          1           0       -2.099982   -1.272984   -0.254004
      6          1           0       -0.426816   -1.270178   -0.929445
      7          1           0       -2.099129    1.273936   -0.252893
      8          1           0       -0.426054    1.270602   -0.928614
      9          6           0        2.219130   -0.000063   -0.098947
     10          1           0        1.834299   -0.890923    0.394113
     11          1           0        3.304972   -0.000377   -0.042598
     12          1           0        1.907816    0.000340   -1.141252
     13          1           0        1.834787    0.890717    0.394655
 ---------------------------------------------------------------------

 SCF Done:  E(RHF) =  -144.230597979     A.U. after    2 cycles

 The electronic state is 1-A.
 Alpha  occ. eigenvalues --  -11.36448 -11.36026 -11.33121  -7.62021  -1.22053
 Alpha  occ. eigenvalues --   -1.03947  -0.85326  -0.71902  -0.62499  -0.60560
 Alpha  occ. eigenvalues --   -0.54823  -0.54402  -0.54296  -0.49105  -0.38285
 Alpha  occ. eigenvalues --   -0.34558
 Alpha virt. eigenvalues --    0.03405   0.03780   0.03982   0.04245   0.06606
 Alpha virt. eigenvalues --    0.07269   0.07594   0.07823   0.08783   0.09308
 Alpha virt. eigenvalues --    0.09580   0.11422   0.12896   0.13814   0.14078

 Mulliken charges:
               1
     1  B    4.696091
     2  C   -3.603742
     3  C   -3.604029
     4  H   -3.193547
     5  H    1.325222
     6  H    1.554870
     7  H    1.325278
     8  H    1.554937
     9  C   -5.242827
    10  H    1.312773
    11  H    1.189600
    12  H    1.372693
    13  H    1.312680
 Sum of Mulliken charges =  -0.00000

 Dipole moment (field-independent basis, Debye):
    X=              0.1746    Y=              0.0002    Z=             -0.2619  Tot=              0.3148

 Test job not archived.
 1\1\GINC-SE110\SP\RHF\Aug-CC-pVDZ\C3H9B1\OHZDE\08-Apr-2025\0\\#t hf au
 g-cc-pvdz iop(5/13=1,5/36=2,99/5=2) pseudo=read geom=check guess=(read
 ,tcheck) scf=(maxcycle=1)\\title\\0,1\B,0,0.70593,0.00043,0.93795\C,0,
 1.19139,0.77206,-0.28576\C,0,1.19085,-0.77244,-0.28519\H,0,0.29663,0.0
 0091,2.04618\H,0,2.15232,1.27299,-0.26115\H,0,0.47638,1.27018,-0.92968
 \H,0,2.15148,-1.27393,-0.26004\H,0,0.47563,-1.2706,-0.92885\C,0,-2.166
 11169,0.0000546,-0.08827167\H,0,-1.77925169,0.8909146,0.40319833\H,0,-
 3.25171169,0.0003646,-0.02744167\H,0,-1.85910169,-0.0003454,-1.1318516

 Normal termination of Gaussian 16 at Tue Apr  8 22:26:26 2025.
