 Gaussian 16, Revision C.01,

 ----------------------------------------------------------------------
 #t hf aug-cc-pvdz symm=none int=(grid=ultrafine) guess=(read,tcheck) s
 table=(opt,rrhf)
 ----------------------------------------------------------------------
 -----
 title
 -----
 Symbolic Z-matrix:
 Charge =  0 Multiplicity = 1

 SCF Done:  E(RHF) =  -447.406925031     A.U. after   11 cycles
 Normal termination of Gaussian 16 at Tue Apr  8 22:22:14 2025.
 Gaussian 16:  ES64L-G16RevC.01  3-Jul-2019

 ----------------------------------------------------------------------
 #t hf aug-cc-pvdz iop(5/13=1,5/36=2,99/5=2) pseudo=read geom=check gue
 ss=(read,tcheck) scf=(maxcycle=1)
 ----------------------------------------------------------------------
 -----
 title
 -----
 Structure from the checkpoint file:  "B-set_b2f4_b2f4_090_dimer_mol2.chk"
 Charge =  0 Multiplicity = 1

                         Standard orientation:
 ---------------------------------------------------------------------
 Center     Atomic      Atomic             Coordinates (Angstroms)
 Number     Number       Type             X           Y           Z
 ---------------------------------------------------------------------
      1          5           0       -0.864438   -0.010464   -0.001270
      2          5           0        0.864771   -0.010014   -0.003706
      3          9           0       -1.536909    1.112508   -0.180312
      4          9           0       -1.562143   -1.106676    0.178408
      5          9           0        1.536924    1.112567    0.181645
      6          9           0        1.561943   -1.107023   -0.176977
 ---------------------------------------------------------------------

 SCF Done:  E(RHF) =  -448.955511517     A.U. after    2 cycles

 The electronic state is 1-A.
 Alpha  occ. eigenvalues --  -29.27664 -29.27630 -29.27474 -29.27454  -7.71732
 Alpha  occ. eigenvalues --   -7.71319  -1.20816  -1.07900  -0.79486  -0.73473
 Alpha  occ. eigenvalues --   -0.66208  -0.54522  -0.52416  -0.50162  -0.48036
 Alpha  occ. eigenvalues --   -0.45852  -0.44134  -0.38888  -0.37251  -0.36313
 Alpha  occ. eigenvalues --   -0.35172  -0.32097  -0.21723
 Alpha virt. eigenvalues --    0.01745   0.03511   0.05027   0.06016   0.08749
 Alpha virt. eigenvalues --    0.09210   0.09962   0.12389   0.12418   0.14347
 Alpha virt. eigenvalues --    0.14828   0.18234   0.20708   0.20719   0.22591

 Mulliken charges:
               1
     1  B   -0.118824
     2  B   -0.113113
     3  F   -0.012443
     4  F    0.127035
     5  F   -0.008686
     6  F    0.126031
 Sum of Mulliken charges =  -0.00000

 Dipole moment (field-independent basis, Debye):
    X=             -0.0028    Y=             -0.0523    Z=              0.0191  Tot=              0.0557

 Test job not archived.
 1\1\GINC-SE094\SP\RHF\Aug-CC-pVDZ\B2F4\OHZDE\08-Apr-2025\0\\#t hf aug-
 cc-pvdz iop(5/13=1,5/36=2,99/5=2) pseudo=read geom=check guess=(read,t
 check) scf=(maxcycle=1)\\title\\0,1\B,0,1.91416,-0.63907,0.46973\B,0,1
 .67914,0.97528,-0.10369\F,0,0.89841,-1.33833,0.94368\F,0,3.09043,-1.21
 961,0.45886\F,0,0.60477,1.6621,0.24321\F,0,2.54863,1.57167,-0.88331\\V
 ersion=ES64L-G16RevC.01\State=1-A\HF=-448.9555115\RMSD=4.297e-01\Dipol
 e=0.0218522,0.0017869,-0.0005632\Quadrupole=3.1343999,0.0619243,-3.196
 3242,-0.6997884,-2.8937493,-1.8885132\PG=C01 [X(B2F4)]\\@

 Normal termination of Gaussian 16 at Tue Apr  8 22:22:16 2025.
