 Gaussian 16, Revision C.01,

 ----------------------------------------------------------------------
 #t hf aug-cc-pvdz symm=none int=(grid=ultrafine) guess=(read,tcheck) s
 table=(opt,rrhf)
 ----------------------------------------------------------------------
 -----
 title
 -----
 Symbolic Z-matrix:
 Charge =  0 Multiplicity = 1

 SCF Done:  E(RHF) =  -481.917982770     A.U. after   14 cycles
 Normal termination of Gaussian 16 at Tue Apr  8 22:28:23 2025.
 Gaussian 16:  ES64L-G16RevC.01  3-Jul-2019

 ----------------------------------------------------------------------
 #t hf aug-cc-pvdz iop(5/13=1,5/36=2,99/5=2) pseudo=read geom=check gue
 ss=(read,tcheck) scf=(maxcycle=1)
 ----------------------------------------------------------------------
 -----
 title
 -----
 Structure from the checkpoint file:  "B-set_phenylboronicacid_h2o_200_dimer_mol1.chk"
 Charge =  0 Multiplicity = 1

                         Standard orientation:
 ---------------------------------------------------------------------
 Center     Atomic      Atomic             Coordinates (Angstroms)
 Number     Number       Type             X           Y           Z
 ---------------------------------------------------------------------
      1          6           0       -2.024697    1.196491    0.000250
      2          6           0       -3.410248    1.199053    0.001846
      3          6           0       -1.305825    0.000307   -0.000608
      4          1           0       -1.485657    2.134825   -0.000315
      5          6           0       -4.103953   -0.001886    0.002588
      6          1           0       -3.951056    2.136028    0.002476
      7          6           0       -2.022821   -1.196999    0.000186
      8          5           0        0.260614    0.001496   -0.002383
      9          6           0       -3.408369   -1.201736    0.001732
     10          1           0       -5.185932   -0.002726    0.003804
     11          1           0       -1.482322   -2.134494   -0.000494
     12          8           0        0.917250    1.200935   -0.003137
     13          8           0        0.919248   -1.196855   -0.003051
     14          1           0       -3.947710   -2.139551    0.002297
     15          1           0        1.872627    1.107119   -0.003970
     16          1           0        1.874460   -1.100731   -0.004064
     17          8           0        9.281942   -0.000842    0.002002
     18          1           0        9.851413   -0.003320    0.770370
     19          1           0        9.859055   -0.001915   -0.760664
 ---------------------------------------------------------------------

 SCF Done:  E(RHF) =  -484.067570071     A.U. after    2 cycles

 The electronic state is 1-A.
 Alpha  occ. eigenvalues --  -21.10556 -21.06155 -21.06135 -11.50339 -11.41793
 Alpha  occ. eigenvalues --  -11.41351 -11.39312 -11.39305 -11.34386  -7.65637
 Alpha  occ. eigenvalues --   -1.82272  -1.66669  -1.66075  -1.33140  -1.09123
 Alpha  occ. eigenvalues --   -1.08011  -0.87342  -0.85278  -0.76461  -0.69267
 Alpha  occ. eigenvalues --   -0.66941  -0.64382  -0.62312  -0.56952  -0.56330
 Alpha  occ. eigenvalues --   -0.54971  -0.51224  -0.49674  -0.47042  -0.46716
 Alpha  occ. eigenvalues --   -0.44074  -0.39378  -0.36887  -0.36670  -0.35789
 Alpha  occ. eigenvalues --   -0.32181  -0.31845
 Alpha virt. eigenvalues --    0.02780   0.03675   0.04727   0.05279   0.05795
 Alpha virt. eigenvalues --    0.05952   0.06210   0.06242   0.07449   0.08204
 Alpha virt. eigenvalues --    0.08308   0.10029   0.10989   0.11120   0.12864

 Mulliken charges:
               1
     1  C   -0.547298
     2  C   -1.466812
     3  C   -0.281832
     4  H    2.043805
     5  C   -2.735359
     6  H    1.528394
     7  C   -0.547196
     8  B    4.346747
     9  C   -1.466882
    10  H    1.496368
    11  H    2.043808
    12  O   -3.960173
    13  O   -3.960451
    14  H    1.528392
    15  H    0.989397
    16  H    0.989058
    17  O   -1.754674
    18  H    0.877348
    19  H    0.877359
 Sum of Mulliken charges =  -0.00000

 Dipole moment (field-independent basis, Debye):
    X=              2.3564    Y=             -0.0017    Z=              0.0040  Tot=              2.3564

 Test job not archived.
 1\1\GINC-SE074\SP\RHF\Aug-CC-pVDZ\C6H9B1O3\OHZDE\08-Apr-2025\0\\#t hf
 aug-cc-pvdz iop(5/13=1,5/36=2,99/5=2) pseudo=read geom=check guess=(re
 ad,tcheck) scf=(maxcycle=1)\\title\\0,1\C,0,1.25953,-1.19671,-0.0001\C
 ,0,2.64508,-1.19967,0.00081\C,0,0.541,-0.00032,-0.0006\H,0,0.72022,-2.
 13489,-0.0004\C,0,3.33913,0.00107,0.00121\H,0,3.18562,-2.1368,0.00117\
 C,0,1.25834,1.19678,-0.00016\B,0,-1.02544,-0.00106,-0.0016\C,0,2.64389
 ,1.20112,0.0007\H,0,4.42111,0.0016,0.00189\H,0,0.71811,2.13443,-0.0005
 7\O,0,-1.68242,-1.20031,-0.00203\O,0,-1.68373,1.19748,-0.00194\H,0,3.1

 Normal termination of Gaussian 16 at Tue Apr  8 22:28:31 2025.
