 Gaussian 16, Revision C.01,

 ----------------------------------------------------------------------
 #t hf aug-cc-pvdz symm=none int=(grid=ultrafine) guess=(read,tcheck) s
 table=(opt,rrhf)
 ----------------------------------------------------------------------
 -----
 title
 -----
 Symbolic Z-matrix:
 Charge =  0 Multiplicity = 1

 SCF Done:  E(RHF) =  -894.814409003     A.U. after   11 cycles
 Normal termination of Gaussian 16 at Tue Apr  8 22:22:43 2025.
 Gaussian 16:  ES64L-G16RevC.01  3-Jul-2019

 ----------------------------------------------------------------------
 #t hf aug-cc-pvdz iop(5/13=1,5/36=2,99/5=2) pseudo=read geom=check gue
 ss=(read,tcheck) scf=(maxcycle=1)
 ----------------------------------------------------------------------
 -----
 title
 -----
 Structure from the checkpoint file:  "B-set_b2f4_b2f4_150_dimer_mol1.chk"
 Charge =  0 Multiplicity = 1

                         Standard orientation:
 ---------------------------------------------------------------------
 Center     Atomic      Atomic             Coordinates (Angstroms)
 Number     Number       Type             X           Y           Z
 ---------------------------------------------------------------------
      1          5           0        2.798336   -0.716037    0.410339
      2          5           0        2.627203    0.899268   -0.182681
      3          9           0        1.772384   -1.343108    0.957648
      4          9           0        3.934759   -1.367790    0.343140
      5          9           0        1.618750    1.656790    0.211676
      6          9           0        3.482999    1.427235   -1.024325
      7          5           0       -2.479724   -0.731653   -0.647507
      8          5           0       -2.916006    0.549379    0.421873
      9          9           0       -1.549318   -0.570002   -1.578846
     10          9           0       -3.062699   -1.908509   -0.600358
     11          9           0       -3.426200    1.673723   -0.036179
     12          9           0       -2.787236    0.431129    1.726119
 ---------------------------------------------------------------------

 SCF Done:  E(RHF) =  -897.899958723     A.U. after    2 cycles

 The electronic state is 1-A.
 Alpha  occ. eigenvalues --  -29.27956 -29.27921 -29.27821 -29.27803 -29.27782
 Alpha  occ. eigenvalues --  -29.27667 -29.27650 -29.27535  -7.72045  -7.71733
 Alpha  occ. eigenvalues --   -7.71636  -7.71410  -1.21099  -1.20499  -1.08294
 Alpha  occ. eigenvalues --   -1.08180  -0.79797  -0.78042  -0.75136  -0.73776
 Alpha  occ. eigenvalues --   -0.66501  -0.66390  -0.54802  -0.53088  -0.52725
 Alpha  occ. eigenvalues --   -0.51427  -0.50448  -0.49212  -0.48427  -0.47419
 Alpha  occ. eigenvalues --   -0.46456  -0.46162  -0.45610  -0.44439  -0.39248
 Alpha  occ. eigenvalues --   -0.38056  -0.37570  -0.37187  -0.36742  -0.36631
 Alpha  occ. eigenvalues --   -0.35484  -0.35337  -0.33650  -0.32426  -0.22079
 Alpha  occ. eigenvalues --   -0.20628
 Alpha virt. eigenvalues --    0.01856   0.02964   0.04138   0.04856   0.05567
 Alpha virt. eigenvalues --    0.06188   0.06462   0.06974   0.08577   0.09488
 Alpha virt. eigenvalues --    0.10082   0.10735   0.10802   0.11197   0.12100

 Mulliken charges:
               1
     1  B   -0.208881
     2  B    0.022396
     3  F   -0.087771
     4  F    0.044779
     5  F   -0.035643
     6  F    0.238788
     7  B    0.434181
     8  B    0.430519
     9  F   -0.425391
    10  F   -0.061015
    11  F   -0.122169
    12  F   -0.229795
 Sum of Mulliken charges =  -0.00000

 Dipole moment (field-independent basis, Debye):
    X=              0.1523    Y=             -0.0758    Z=             -0.0138  Tot=              0.1706

 Test job not archived.
 1\1\GINC-SE398\SP\RHF\Aug-CC-pVDZ\B4F8\OHZDE\08-Apr-2025\0\\#t hf aug-
 cc-pvdz iop(5/13=1,5/36=2,99/5=2) pseudo=read geom=check guess=(read,t
 check) scf=(maxcycle=1)\\title\\0,1\B,0,1.91416,-0.63907,0.46973\B,0,1
 .67914,0.97528,-0.10369\F,0,0.89841,-1.33833,0.94368\F,0,3.09043,-1.21
 961,0.45886\F,0,0.60477,1.6621,0.24321\F,0,2.54863,1.57167,-0.88331\B,
 0,-3.28213417,-0.9499825,-0.9010575\B,0,-3.85797417,0.2793375,0.162962
 5\F,0,-2.31057417,-0.7127525,-1.7722475\F,0,-3.79352417,-2.1605525,-0.
 9096375\F,0,-4.40858417,1.3804275,-0.3046775\F,0,-3.79862417,0.1412575

 Normal termination of Gaussian 16 at Tue Apr  8 22:22:51 2025.
