 Gaussian 16, Revision C.01,

 ----------------------------------------------------------------------
 #t hf aug-cc-pvdz symm=none int=(grid=ultrafine) guess=(read,tcheck) s
 table=(opt,rrhf)
 ----------------------------------------------------------------------
 -----
 title
 -----
 Symbolic Z-matrix:
 Charge =  0 Multiplicity = 1

 SCF Done:  E(RHF) =  -327.284841539     A.U. after   12 cycles
 Normal termination of Gaussian 16 at Tue Apr  8 22:25:18 2025.
 Gaussian 16:  ES64L-G16RevC.01  3-Jul-2019

 ----------------------------------------------------------------------
 #t hf aug-cc-pvdz iop(5/13=1,5/36=2,99/5=2) pseudo=read geom=check gue
 ss=(read,tcheck) scf=(maxcycle=1)
 ----------------------------------------------------------------------
 -----
 title
 -----
 Structure from the checkpoint file:  "B-set_boricacid_h2o_095_dimer_mol1.chk"
 Charge =  0 Multiplicity = 1

                         Standard orientation:
 ---------------------------------------------------------------------
 Center     Atomic      Atomic             Coordinates (Angstroms)
 Number     Number       Type             X           Y           Z
 ---------------------------------------------------------------------
      1          5           0       -0.729256   -0.024965    0.003954
      2          8           0       -0.062267   -1.201415    0.003856
      3          8           0       -0.037266    1.170216    0.003981
      4          8           0       -2.094315    0.021670    0.007515
      5          1           0        0.898651   -1.085304   -0.016123
      6          1           0       -0.617999    1.928372   -0.012278
      7          1           0       -2.487422   -0.848898    0.000419
      8          8           0        2.338942   -0.063489   -0.090180
      9          1           0        1.770155    0.714274   -0.056895
     10          1           0        2.922137    0.000526    0.663728
 ---------------------------------------------------------------------

 SCF Done:  E(RHF) =  -328.628515086     A.U. after    2 cycles

 The electronic state is 1-A.
 Alpha  occ. eigenvalues --  -21.10031 -21.06805 -21.05585 -21.03006  -7.65198
 Alpha  occ. eigenvalues --   -1.88100  -1.68432  -1.66986  -1.65143  -0.78139
 Alpha  occ. eigenvalues --   -0.68715  -0.64879  -0.61932  -0.53425  -0.52381
 Alpha  occ. eigenvalues --   -0.46334  -0.41389  -0.39207  -0.37615  -0.35737
 Alpha  occ. eigenvalues --   -0.33634
 Alpha virt. eigenvalues --    0.03302   0.04489   0.04927   0.05484   0.07521
 Alpha virt. eigenvalues --    0.07860   0.08678   0.10037   0.10326   0.15066
 Alpha virt. eigenvalues --    0.18942   0.20696   0.21521   0.21674   0.22818

 Mulliken charges:
               1
     1  B    7.640568
     2  O   -3.852311
     3  O   -3.653276
     4  O   -3.751051
     5  H    1.641513
     6  H    1.083244
     7  H    0.936738
     8  O   -2.027262
     9  H    1.119995
    10  H    0.861842
 Sum of Mulliken charges =  -0.00000

 Dipole moment (field-independent basis, Debye):
    X=              0.4126    Y=              0.8177    Z=              0.6456  Tot=              1.1206

 Test job not archived.
 1\1\GINC-SE368\SP\RHF\Aug-CC-pVDZ\B1H5O4\OHZDE\08-Apr-2025\0\\#t hf au
 g-cc-pvdz iop(5/13=1,5/36=2,99/5=2) pseudo=read geom=check guess=(read
 ,tcheck) scf=(maxcycle=1)\\title\\0,1\B,0,-0.76791,-0.02465,0.00325\O,
 0,-0.10569,-1.20379,0.00191\O,0,-0.07109,1.16772,0.00192\O,0,-2.13276,
 0.02751,0.00942\H,0,0.85565,-1.09157,-0.01991\H,0,-0.64878,1.92822,-0.
 01325\H,0,-2.5294,-0.84146,0.0031\O,0,2.29992121,-0.07559441,-0.096749
 36\H,0,1.73435121,0.7044656,-0.06239936\H,0,2.88481121,-0.01392441,0.6
 5604064\\Version=ES64L-G16RevC.01\State=1-A\HF=-328.6285151\RMSD=1.093

 Normal termination of Gaussian 16 at Tue Apr  8 22:25:21 2025.
