 Gaussian 16, Revision C.01,

 ----------------------------------------------------------------------
 #t hf aug-cc-pvdz symm=none int=(grid=ultrafine) guess=(read,tcheck) s
 table=(opt,rrhf)
 ----------------------------------------------------------------------
 -----
 title
 -----
 Symbolic Z-matrix:
 Charge =  0 Multiplicity = 1

 SCF Done:  E(RHF) =  -2334.96962506     A.U. after   12 cycles

 1\1\GINC-SE227\Stability\RHF\Aug-CC-pVDZ\B4Cl4F4\OHZDE\08-Apr-2025\0\\
 #t hf aug-cc-pvdz symm=none int=(grid=ultrafine) guess=(read,tcheck) s
 table=(opt,rrhf)\\title\\0,1\B,0,-1.57438,-0.71073,0.17185\B,0,-1.4340
 6,0.93593,-0.18667\Cl,0,-2.09565,-1.82193,-1.067\Cl,0,-1.25402,-1.2836
 8,1.78589\Cl,0,-2.80515,1.98794,0.03394\Cl,0,0.06371,1.62548,-0.79315\
 B,0,2.59447242,-0.71240708,-0.67200567\B,0,2.97373242,0.25705292,0.707
 34433\F,0,1.70456242,-1.68375708,-0.60221567\F,0,3.18087242,-0.5192970
 8,-1.83292567\F,0,2.45433242,0.00131292,1.88951433\F,0,3.79002242,1.28

 Normal termination of Gaussian 16 at Tue Apr  8 22:22:25 2025.
 Gaussian 16:  ES64L-G16RevC.01  3-Jul-2019

 ----------------------------------------------------------------------
 #t hf aug-cc-pvdz iop(5/13=1,5/36=2,99/5=2) pseudo=read geom=check gue
 ss=(read,tcheck) scf=(maxcycle=1)
 ----------------------------------------------------------------------
 -----
 title
 -----
 Structure from the checkpoint file:  "B-set_b2f4_b2cl4_105_dimer_mol1.chk"
 Charge =  0 Multiplicity = 1

                         Standard orientation:
 ---------------------------------------------------------------------
 Center     Atomic      Atomic             Coordinates (Angstroms)
 Number     Number       Type             X           Y           Z
 ---------------------------------------------------------------------
      1          5           0       -1.642696   -0.721941    0.172278
      2          5           0       -1.519988    0.926196   -0.185912
      3         17           0       -2.153037   -1.838269   -1.066513
      4         17           0       -1.315244   -1.291883    1.785960
      5         17           0       -2.901951    1.963632    0.035870
      6         17           0       -0.029975    1.631656   -0.793202
      7          5           0        2.525383   -0.679439   -0.674323
      8          5           0        2.895309    0.293623    0.705025
      9          9           0        1.645814   -1.660139   -0.604196
     10          9           0        3.108946   -0.479866   -1.835580
     11          9           0        2.379417    0.032124    1.887471
     12          9           0        3.700652    1.330157    0.614381
 ---------------------------------------------------------------------

 SCF Done:  E(RHF) =  -2337.67889726     A.U. after    2 cycles

 The electronic state is 1-A.
 Alpha  occ. eigenvalues --  -99.92989 -99.92347 -99.91809 -99.91782 -29.27567
 Alpha  occ. eigenvalues --  -29.27360 -29.27329 -29.27242 -10.50312 -10.49643
 Alpha  occ. eigenvalues --  -10.49199 -10.48999  -9.70303  -9.69872  -9.69670
 Alpha  occ. eigenvalues --   -9.69582  -9.69192  -9.69176  -9.68991  -9.68975
 Alpha  occ. eigenvalues --   -9.68625  -9.68613  -9.68539  -9.68457  -7.72992
 Alpha  occ. eigenvalues --   -7.71729  -7.71509  -7.71073  -1.43561  -1.40670
 Alpha  occ. eigenvalues --   -1.32349  -1.31559  -1.20757  -1.07874  -0.91206
 Alpha  occ. eigenvalues --   -0.79536  -0.78552  -0.73223  -0.67176  -0.66139
 Alpha  occ. eigenvalues --   -0.65851  -0.65489  -0.59741  -0.59049  -0.58404
 Alpha  occ. eigenvalues --   -0.55420  -0.54685  -0.53668  -0.52554  -0.52294
 Alpha  occ. eigenvalues --   -0.52030  -0.49863  -0.48280  -0.45628  -0.44109
 Alpha  occ. eigenvalues --   -0.43853  -0.39005  -0.37108  -0.36445  -0.34924
 Alpha  occ. eigenvalues --   -0.31891  -0.21979
 Alpha virt. eigenvalues --    0.01491   0.01931   0.02492   0.02906   0.03045
 Alpha virt. eigenvalues --    0.04509   0.05011   0.06365   0.06910   0.07632
 Alpha virt. eigenvalues --    0.08355   0.09141   0.09731   0.09801   0.10056

 Mulliken charges:
               1
     1  B    3.005029
     2  B    2.196982
     3  Cl  -1.399262
     4  Cl  -1.329628
     5  Cl  -1.355916
     6  Cl  -1.124614
     7  B   -0.420438
     8  B   -0.069838
     9  F    0.065170
    10  F    0.108708
    11  F    0.198696
    12  F    0.125112
 Sum of Mulliken charges =   0.00000

 Dipole moment (field-independent basis, Debye):
    X=             -0.1798    Y=             -0.0026    Z=             -0.0310  Tot=              0.1825

 Test job not archived.
 1\1\GINC-SE227\SP\RHF\Aug-CC-pVDZ\B4Cl4F4\OHZDE\08-Apr-2025\0\\#t hf a
 ug-cc-pvdz iop(5/13=1,5/36=2,99/5=2) pseudo=read geom=check guess=(rea
 d,tcheck) scf=(maxcycle=1)\\title\\0,1\B,0,-1.57438,-0.71073,0.17185\B
 ,0,-1.43406,0.93593,-0.18667\Cl,0,-2.09565,-1.82193,-1.067\Cl,0,-1.254
 02,-1.28368,1.78589\Cl,0,-2.80515,1.98794,0.03394\Cl,0,0.06371,1.62548
 ,-0.79315\B,0,2.59447242,-0.71240708,-0.67200567\B,0,2.97373242,0.2570
 5292,0.70734433\F,0,1.70456242,-1.68375708,-0.60221567\F,0,3.18087242,
 -0.51929708,-1.83292567\F,0,2.45433242,0.00131292,1.88951433\F,0,3.790

 Normal termination of Gaussian 16 at Tue Apr  8 22:22:35 2025.
