 Gaussian 16, Revision C.01,

 ----------------------------------------------------------------------
 #t hf aug-cc-pvdz symm=none int=(grid=ultrafine) guess=(read,tcheck) s
 table=(opt,rrhf)
 ----------------------------------------------------------------------
 -----
 title
 -----
 Symbolic Z-matrix:
 Charge =  0 Multiplicity = 1

 SCF Done:  E(RHF) =  -327.287588305     A.U. after   11 cycles
 Normal termination of Gaussian 16 at Tue Apr  8 22:25:19 2025.
 Gaussian 16:  ES64L-G16RevC.01  3-Jul-2019

 ----------------------------------------------------------------------
 #t hf aug-cc-pvdz iop(5/13=1,5/36=2,99/5=2) pseudo=read geom=check gue
 ss=(read,tcheck) scf=(maxcycle=1)
 ----------------------------------------------------------------------
 -----
 title
 -----
 Structure from the checkpoint file:  "B-set_boricacid_h2o_110_dimer_mol1.chk"
 Charge =  0 Multiplicity = 1

                         Standard orientation:
 ---------------------------------------------------------------------
 Center     Atomic      Atomic             Coordinates (Angstroms)
 Number     Number       Type             X           Y           Z
 ---------------------------------------------------------------------
      1          5           0       -0.845232   -0.024107    0.002091
      2          8           0       -0.191152   -1.207776   -0.001549
      3          8           0       -0.140232    1.163439   -0.001828
      4          8           0       -2.209660    0.037446    0.013166
      5          1           0        0.770853   -1.102176   -0.026834
      6          1           0       -0.712725    1.927896   -0.014973
      7          1           0       -2.612291   -0.828774    0.008333
      8          8           0        2.708072   -0.066289   -0.084231
      9          1           0        2.148011    0.717646   -0.047901
     10          1           0        3.296077   -0.008613    0.666447
 ---------------------------------------------------------------------

 SCF Done:  E(RHF) =  -328.629716936     A.U. after    2 cycles

 The electronic state is 1-A.
 Alpha  occ. eigenvalues --  -21.10520 -21.06360 -21.05739 -21.04492  -7.65355
 Alpha  occ. eigenvalues --   -1.87994  -1.67144  -1.66440  -1.66032  -0.77981
 Alpha  occ. eigenvalues --   -0.65858  -0.64382  -0.63308  -0.52560  -0.52322
 Alpha  occ. eigenvalues --   -0.46975  -0.40284  -0.39350  -0.37156  -0.36329
 Alpha  occ. eigenvalues --   -0.35370
 Alpha virt. eigenvalues --    0.03340   0.04390   0.04918   0.05443   0.07338
 Alpha virt. eigenvalues --    0.07821   0.08701   0.09966   0.10424   0.15119
 Alpha virt. eigenvalues --    0.19035   0.20703   0.21523   0.21805   0.22626

 Mulliken charges:
               1
     1  B    7.834878
     2  O   -3.865197
     3  O   -3.593707
     4  O   -3.759558
     5  H    1.284250
     6  H    1.101596
     7  H    1.010612
     8  O   -1.898068
     9  H    1.004850
    10  H    0.880344
 Sum of Mulliken charges =   0.00000

 Dipole moment (field-independent basis, Debye):
    X=              0.2700    Y=              0.7395    Z=              0.6403  Tot=              1.0148

 Test job not archived.
 1\1\GINC-SE393\SP\RHF\Aug-CC-pVDZ\B1H5O4\OHZDE\08-Apr-2025\0\\#t hf au
 g-cc-pvdz iop(5/13=1,5/36=2,99/5=2) pseudo=read geom=check guess=(read
 ,tcheck) scf=(maxcycle=1)\\title\\0,1\B,0,-0.76791,-0.02465,0.00325\O,
 0,-0.10569,-1.20379,0.00191\O,0,-0.07109,1.16772,0.00192\O,0,-2.13276,
 0.02751,0.00942\H,0,0.85565,-1.09157,-0.01991\H,0,-0.64878,1.92822,-0.
 01325\H,0,-2.5294,-0.84146,0.0031\O,0,2.78588757,-0.04237119,-0.070291
 29\H,0,2.22031757,0.73768881,-0.03594129\H,0,3.37077757,0.01929881,0.6
 8249871\\Version=ES64L-G16RevC.01\State=1-A\HF=-328.6297169\RMSD=1.082

 Normal termination of Gaussian 16 at Tue Apr  8 22:25:21 2025.
