 Gaussian 16, Revision C.01,

 ----------------------------------------------------------------------
 #t hf aug-cc-pvdz symm=none int=(grid=ultrafine) guess=(read,tcheck) s
 table=(opt,rrhf)
 ----------------------------------------------------------------------
 -----
 title
 -----
 Symbolic Z-matrix:
 Charge =  0 Multiplicity = 1

 SCF Done:  E(RHF) =  -464.893615550     A.U. after   15 cycles
 Normal termination of Gaussian 16 at Tue Apr  8 22:26:18 2025.
 Gaussian 16:  ES64L-G16RevC.01  3-Jul-2019

 ----------------------------------------------------------------------
 #t hf aug-cc-pvdz iop(5/13=1,5/36=2,99/5=2) pseudo=read geom=check gue
 ss=(read,tcheck) scf=(maxcycle=1)
 ----------------------------------------------------------------------
 -----
 title
 -----
 Structure from the checkpoint file:  "B-set_azaborine_benzene_100_dimer_mol1.chk"
 Charge =  0 Multiplicity = 1

                         Standard orientation:
 ---------------------------------------------------------------------
 Center     Atomic      Atomic             Coordinates (Angstroms)
 Number     Number       Type             X           Y           Z
 ---------------------------------------------------------------------
      1          7           0        0.986890    0.198560   -0.055289
      2          5           0        1.789719    1.377150   -0.031779
      3          6           0        1.499180   -1.057250   -0.038009
      4          1           0       -0.018410    0.259949   -0.084779
      5          6           0        3.279399    1.128991    0.013501
      6          1           0        1.234099    2.434460   -0.049229
      7          6           0        2.840080   -1.265829    0.002811
      8          1           0        0.789160   -1.872560   -0.057929
      9          6           0        3.729300   -0.160609    0.028391
     10          1           0        4.013529    1.924941    0.034961
     11          1           0        3.218281   -2.276869    0.015661
     12          1           0        4.792520   -0.374449    0.060671
     13          6           0       -2.299850   -0.168971    1.391511
     14          6           0       -2.358261    1.104978    0.845111
     15          6           0       -2.275530   -1.279791    0.560541
     16          1           0       -2.267690   -0.295691    2.464671
     17          6           0       -2.391651    1.268298   -0.532499
     18          1           0       -2.369001    1.970938    1.492051
     19          6           0       -2.308740   -1.116821   -0.817149
     20          1           0       -2.229879   -2.272511    0.987121
     21          6           0       -2.366610    0.157338   -1.363669
     22          1           0       -2.428631    2.261298   -0.958129
     23          1           0       -2.288220   -1.982121   -1.465359
     24          1           0       -2.386480    0.284948   -2.437029
 ---------------------------------------------------------------------

 SCF Done:  E(RHF) =  -467.137500617     A.U. after    2 cycles

 The electronic state is 1-A.
 Alpha  occ. eigenvalues --  -15.73377 -11.52951 -11.46184 -11.43695 -11.43546
 Alpha  occ. eigenvalues --  -11.42509 -11.41362 -11.41185 -11.37080 -11.36948
 Alpha  occ. eigenvalues --  -11.33381  -7.58108  -1.43748  -1.35330  -1.18051
 Alpha  occ. eigenvalues --   -1.10439  -1.10403  -1.06757  -0.86999  -0.86986
 Alpha  occ. eigenvalues --   -0.85522  -0.83998  -0.73650  -0.72731  -0.66474
 Alpha  occ. eigenvalues --   -0.64240  -0.59979  -0.59378  -0.59342  -0.57088
 Alpha  occ. eigenvalues --   -0.54597  -0.53263  -0.51977  -0.51459  -0.45714
 Alpha  occ. eigenvalues --   -0.45701  -0.42976  -0.40107  -0.37022  -0.34567
 Alpha  occ. eigenvalues --   -0.34364  -0.28390
 Alpha virt. eigenvalues --    0.03107   0.04344   0.04493   0.04545   0.05277
 Alpha virt. eigenvalues --    0.05849   0.05922   0.06613   0.06716   0.06736
 Alpha virt. eigenvalues --    0.07078   0.07935   0.09537   0.09666   0.10287

 Mulliken charges:
               1
     1  N   -3.675771
     2  B    6.376681
     3  C   -0.022391
     4  H    1.465858
     5  C   -3.491174
     6  H   -4.327078
     7  C   -0.928934
     8  H    1.941679
     9  C   -1.001029
    10  H    1.337149
    11  H    1.464119
    12  H    1.477204
    13  C   -1.818905
    14  C   -1.708592
    15  C   -1.611618
    16  H    1.622313
    17  C   -1.734140
    18  H    1.627514
    19  C   -1.719449
    20  H    1.617135
    21  C   -1.792079
    22  H    1.635628
    23  H    1.628616
    24  H    1.637265
 Sum of Mulliken charges =   0.00000

 Dipole moment (field-independent basis, Debye):
    X=             -2.1540    Y=             -1.7313    Z=              0.0020  Tot=              2.7635

 Test job not archived.
 1\1\GINC-SE424\SP\RHF\Aug-CC-pVDZ\C10H12B1N1\OHZDE\08-Apr-2025\0\\#t h
 f aug-cc-pvdz iop(5/13=1,5/36=2,99/5=2) pseudo=read geom=check guess=(
 read,tcheck) scf=(maxcycle=1)\\title\\0,1\N,0,-0.98689,0.19856,0.05529
 \B,0,-1.78972,1.37715,0.03178\C,0,-1.49918,-1.05725,0.03801\H,0,0.0184
 1,0.25995,0.08478\C,0,-3.2794,1.12899,-0.0135\H,0,-1.2341,2.43446,0.04
 923\C,0,-2.84008,-1.26583,-0.00281\H,0,-0.78916,-1.87256,0.05793\C,0,-
 3.7293,-0.16061,-0.02839\H,0,-4.01353,1.92494,-0.03496\H,0,-3.21828,-2
 .27687,-0.01566\H,0,-4.79252,-0.37445,-0.06067\C,0,2.29985,-0.16897,-1

 Normal termination of Gaussian 16 at Tue Apr  8 22:26:36 2025.
