 Gaussian 16, Revision C.01,

 ----------------------------------------------------------------------
 #t hf aug-cc-pvdz symm=none int=(grid=ultrafine) guess=(read,tcheck) s
 table=(opt,rrhf)
 ----------------------------------------------------------------------
 -----
 title
 -----
 Symbolic Z-matrix:
 Charge =  0 Multiplicity = 1

 SCF Done:  E(RHF) =  -360.437638714     A.U. after   15 cycles

 1\1\GINC-SE163\Stability\RHF\Aug-CC-pVDZ\C8H14B2\OHZDE\08-Apr-2025\0\\
 #t hf aug-cc-pvdz symm=none int=(grid=ultrafine) guess=(read,tcheck) s
 table=(opt,rrhf)\\title\\0,1\B,0,-1.44421,-0.34378,-1.38976\C,0,-1.353
 82,1.11975,-0.80607\C,0,-2.20691,-1.16484,-0.27513\H,0,-1.05979,-0.732
 25,-2.44825\C,0,-1.96773,1.08262,0.37927\H,0,-0.92918,2.01911,-1.22576
 \C,0,-2.47978,-0.29789,0.7014\H,0,-2.48296,-2.20807,-0.24206\H,0,-2.10
 422,1.91644,1.05668\H,0,-2.99941,-0.51278,1.627\B,0,2.20903543,1.00136
 154,0.99239843\C,0,1.96219543,-0.47623846,1.45474843\C,0,3.04399543,0.

 Normal termination of Gaussian 16 at Tue Apr  8 22:29:32 2025.
 Gaussian 16:  ES64L-G16RevC.01  3-Jul-2019

 ----------------------------------------------------------------------
 #t hf aug-cc-pvdz iop(5/13=1,5/36=2,99/5=2) pseudo=read geom=check gue
 ss=(read,tcheck) scf=(maxcycle=1)
 ----------------------------------------------------------------------
 -----
 title
 -----
 Structure from the checkpoint file:  "B-set_borole_borolane_125_dimer_mol1.chk"
 Charge =  0 Multiplicity = 1

                         Standard orientation:
 ---------------------------------------------------------------------
 Center     Atomic      Atomic             Coordinates (Angstroms)
 Number     Number       Type             X           Y           Z
 ---------------------------------------------------------------------
      1          5           0       -1.986036   -0.314945   -1.363046
      2          6           0       -1.897757    1.130212   -0.734943
      3          6           0       -2.673046   -1.189971   -0.240283
      4          1           0       -1.647680   -0.659146   -2.452141
      5          6           0       -2.449579    1.039612    0.477732
      6          1           0       -1.514606    2.052619   -1.144416
      7          6           0       -2.914556   -0.362368    0.777763
      8          1           0       -2.924403   -2.239886   -0.229087
      9          1           0       -2.569428    1.847180    1.189237
     10          1           0       -3.381616   -0.619799    1.720372
     11          5           0        1.753763    1.035696    0.877482
     12          6           0        1.562831   -0.461735    1.300855
     13          6           0        2.520725    1.047200   -0.496436
     14          1           0        1.438501    1.996120    1.514909
     15          1           0        2.349662   -0.655188    2.045780
     16          1           0        0.622856   -0.728133    1.783265
     17          6           0        1.865204   -1.250254    0.019076
     18          6           0        2.920203   -0.423408   -0.724844
     19          1           0        1.803139    1.366913   -1.261732
     20          1           0        3.350254    1.752286   -0.563954
     21          1           0        0.955189   -1.310778   -0.592364
     22          1           0        2.179370   -2.278955    0.196410
     23          1           0        2.997180   -0.694732   -1.777578
     24          1           0        3.898802   -0.607986   -0.274401
 ---------------------------------------------------------------------

 SCF Done:  E(RHF) =  -362.234427384     A.U. after    2 cycles

 The electronic state is 1-A.
 Alpha  occ. eigenvalues --  -11.47017 -11.41426 -11.40683 -11.37510 -11.36939
 Alpha  occ. eigenvalues --  -11.34882 -11.32985 -11.32382  -7.61447  -7.58583
 Alpha  occ. eigenvalues --   -1.30478  -1.28694  -1.03577  -1.03486  -0.97641
 Alpha  occ. eigenvalues --   -0.92758  -0.80392  -0.73553  -0.73006  -0.70392
 Alpha  occ. eigenvalues --   -0.68758  -0.63807  -0.63195  -0.56338  -0.55003
 Alpha  occ. eigenvalues --   -0.50527  -0.47458  -0.46035  -0.45277  -0.44065
 Alpha  occ. eigenvalues --   -0.43884  -0.42768  -0.41445  -0.40597  -0.37477
 Alpha  occ. eigenvalues --   -0.30567
 Alpha virt. eigenvalues --    0.02697   0.03534   0.04115   0.04237   0.04339
 Alpha virt. eigenvalues --    0.04959   0.05363   0.05666   0.06087   0.06707
 Alpha virt. eigenvalues --    0.07093   0.07266   0.07694   0.08364   0.08764

 Mulliken charges:
               1
     1  B    7.819781
     2  C   -3.266956
     3  C   -2.922332
     4  H   -4.697023
     5  C   -1.098065
     6  H    1.515660
     7  C   -1.766278
     8  H    1.444268
     9  H    1.556532
    10  H    1.494923
    11  B    8.396207
    12  C   -4.265789
    13  C   -4.121808
    14  H   -5.700708
    15  H    1.395619
    16  H    1.954682
    17  C   -3.627734
    18  C   -3.329439
    19  H    1.891359
    20  H    1.471722
    21  H    1.851683
    22  H    1.265089
    23  H    1.362925
    24  H    1.375684
 Sum of Mulliken charges =  -0.00000

 Dipole moment (field-independent basis, Debye):
    X=             -0.4844    Y=             -0.0472    Z=              1.0461  Tot=              1.1538

 Test job not archived.
 1\1\GINC-SE163\SP\RHF\Aug-CC-pVDZ\C8H14B2\OHZDE\08-Apr-2025\0\\#t hf a
 ug-cc-pvdz iop(5/13=1,5/36=2,99/5=2) pseudo=read geom=check guess=(rea
 d,tcheck) scf=(maxcycle=1)\\title\\0,1\B,0,-1.44421,-0.34378,-1.38976\
 C,0,-1.35382,1.11975,-0.80607\C,0,-2.20691,-1.16484,-0.27513\H,0,-1.05
 979,-0.73225,-2.44825\C,0,-1.96773,1.08262,0.37927\H,0,-0.92918,2.0191
 1,-1.22576\C,0,-2.47978,-0.29789,0.7014\H,0,-2.48296,-2.20807,-0.24206
 \H,0,-2.10422,1.91644,1.05668\H,0,-2.99941,-0.51278,1.627\B,0,2.209035
 43,1.00136154,0.99239843\C,0,1.96219543,-0.47623846,1.45474843\C,0,3.0

 Normal termination of Gaussian 16 at Tue Apr  8 22:29:47 2025.
