 Gaussian 16, Revision C.01,

 ----------------------------------------------------------------------
 #t hf aug-cc-pvdz symm=none int=(grid=ultrafine) guess=(read,tcheck) s
 table=(opt,rrhf)
 ----------------------------------------------------------------------
 -----
 title
 -----
 Symbolic Z-matrix:
 Charge =  0 Multiplicity = 1

 SCF Done:  E(RHF) =  -3775.11192670     A.U. after   12 cycles
 Normal termination of Gaussian 16 at Tue Apr  8 22:22:17 2025.
 Gaussian 16:  ES64L-G16RevC.01  3-Jul-2019

 ----------------------------------------------------------------------
 #t hf aug-cc-pvdz iop(5/13=1,5/36=2,99/5=2) pseudo=read geom=check gue
 ss=(read,tcheck) scf=(maxcycle=1)
 ----------------------------------------------------------------------
 -----
 title
 -----
 Structure from the checkpoint file:  "B-set_b2cl4_b2cl4_090_dimer_mol1.chk"
 Charge =  0 Multiplicity = 1

                         Standard orientation:
 ---------------------------------------------------------------------
 Center     Atomic      Atomic             Coordinates (Angstroms)
 Number     Number       Type             X           Y           Z
 ---------------------------------------------------------------------
      1          5           0        1.873522    0.833639    0.150300
      2          5           0        1.873682   -0.833551   -0.150340
      3         17           0        1.001327    1.506494    1.506830
      4         17           0        2.795395    1.893645   -0.885250
      5         17           0        2.795939   -1.893305    0.885130
      6         17           0        1.001397   -1.506676   -1.506670
      7          5           0       -1.873640    0.833552   -0.150340
      8          5           0       -1.873660   -0.833618    0.150350
      9         17           0       -1.001195    1.506417   -1.506700
     10         17           0       -2.795777    1.893536    0.885000
     11         17           0       -1.001455   -1.506533    1.506850
     12         17           0       -2.795603   -1.893584   -0.885180
 ---------------------------------------------------------------------

 SCF Done:  E(RHF) =  -3777.44681822     A.U. after    2 cycles

 The electronic state is 1-A.
 Alpha  occ. eigenvalues --  -99.91738 -99.91737 -99.91733 -99.91733 -99.91721
 Alpha  occ. eigenvalues --  -99.91715 -99.91707 -99.91705 -10.49191 -10.49189
 Alpha  occ. eigenvalues --  -10.49168 -10.49162 -10.48955 -10.48948 -10.48945
 Alpha  occ. eigenvalues --  -10.48939  -9.69205  -9.69180  -9.69166  -9.69117
 Alpha  occ. eigenvalues --   -9.68998  -9.68927  -9.68927  -9.68910  -9.68800
 Alpha  occ. eigenvalues --   -9.68760  -9.68735  -9.68712  -9.68653  -9.68640
 Alpha  occ. eigenvalues --   -9.68628  -9.68600  -9.68565  -9.68534  -9.68467
 Alpha  occ. eigenvalues --   -9.68461  -9.68446  -9.68405  -9.68363  -9.68323
 Alpha  occ. eigenvalues --   -7.72793  -7.72726  -7.71481  -7.71463  -1.44015
 Alpha  occ. eigenvalues --   -1.42021  -1.40646  -1.40141  -1.32019  -1.31836
 Alpha  occ. eigenvalues --   -1.31665  -1.31312  -0.91656  -0.90866  -0.78368
 Alpha  occ. eigenvalues --   -0.78015  -0.67627  -0.66500  -0.66465  -0.65972
 Alpha  occ. eigenvalues --   -0.65396  -0.63646  -0.61633  -0.61019  -0.58843
 Alpha  occ. eigenvalues --   -0.57335  -0.57123  -0.56822  -0.55457  -0.54273
 Alpha  occ. eigenvalues --   -0.53667  -0.53605  -0.52925  -0.52531  -0.51351
 Alpha  occ. eigenvalues --   -0.50923  -0.44184  -0.43527
 Alpha virt. eigenvalues --    0.00488   0.01288   0.01646   0.01707   0.02383
 Alpha virt. eigenvalues --    0.03186   0.03731   0.05099   0.06936   0.07425
 Alpha virt. eigenvalues --    0.07904   0.08551   0.08615   0.08647   0.09718

 Mulliken charges:
               1
     1  B    2.849060
     2  B    2.849066
     3  Cl  -1.309351
     4  Cl  -1.539780
     5  Cl  -1.539743
     6  Cl  -1.309269
     7  B    2.849089
     8  B    2.848988
     9  Cl  -1.309198
    10  Cl  -1.539803
    11  Cl  -1.309327
    12  Cl  -1.539733
 Sum of Mulliken charges =  -0.00000

 Dipole moment (field-independent basis, Debye):
    X=             -0.0002    Y=              0.0001    Z=             -0.0001  Tot=              0.0003

 Test job not archived.
 1\1\GINC-SE082\SP\RHF\Aug-CC-pVDZ\B4Cl8\OHZDE\08-Apr-2025\0\\#t hf aug
 -cc-pvdz iop(5/13=1,5/36=2,99/5=2) pseudo=read geom=check guess=(read,
 tcheck) scf=(maxcycle=1)\\title\\0,1\B,0,2.08355,-0.83363,-0.1503\B,0,
 2.0837,0.83356,0.15034\Cl,0,1.21136,-1.50649,-1.50683\Cl,0,3.00543,-1.
 89363,0.88525\Cl,0,3.00595,1.89332,-0.88513\Cl,0,1.21141,1.50668,1.506
 67\B,0,-1.663612,-0.83356617,0.15033967\B,0,-1.663642,0.83360383,-0.15
 035033\Cl,0,-0.791162,-1.50642617,1.50669967\Cl,0,-2.585742,-1.8935561
 7,-0.88500033\Cl,0,-0.791442,1.50652383,-1.50685033\Cl,0,-2.585592,1.8

 Normal termination of Gaussian 16 at Tue Apr  8 22:22:31 2025.
