 Gaussian 16, Revision C.01,

 ----------------------------------------------------------------------
 #t hf aug-cc-pvdz symm=none int=(grid=ultrafine) guess=(read,tcheck) s
 table=(opt,rrhf)
 ----------------------------------------------------------------------
 -----
 title
 -----
 Symbolic Z-matrix:
 Charge =  0 Multiplicity = 1

 SCF Done:  E(RHF) =  -481.969014412     A.U. after   14 cycles
 Normal termination of Gaussian 16 at Tue Apr  8 22:26:05 2025.
 Gaussian 16:  ES64L-G16RevC.01  3-Jul-2019

 ----------------------------------------------------------------------
 #t hf aug-cc-pvdz iop(5/13=1,5/36=2,99/5=2) pseudo=read geom=check gue
 ss=(read,tcheck) scf=(maxcycle=1)
 ----------------------------------------------------------------------
 -----
 title
 -----
 Structure from the checkpoint file:  "B-set_boricacid_benzene_110_dimer_mol1.chk"
 Charge =  0 Multiplicity = 1

                         Standard orientation:
 ---------------------------------------------------------------------
 Center     Atomic      Atomic             Coordinates (Angstroms)
 Number     Number       Type             X           Y           Z
 ---------------------------------------------------------------------
      1          5           0        2.726013   -0.172482   -0.003870
      2          8           0        4.014692   -0.631924   -0.019450
      3          8           0        1.690310   -1.053222   -0.016785
      4          8           0        2.501498    1.178084    0.024814
      5          1           0        4.059700   -1.585773   -0.039129
      6          1           0        0.829495   -0.628907   -0.004343
      7          1           0        3.316632    1.676137    0.031064
      8          6           0       -2.853330   -0.764373   -0.725748
      9          6           0       -2.077085    0.178090   -1.383699
     10          6           0       -2.860853   -0.811900    0.660311
     11          1           0       -3.449845   -1.464961   -1.293776
     12          6           0       -1.306757    1.073348   -0.655332
     13          1           0       -2.067409    0.211949   -2.464433
     14          6           0       -2.092172    0.083066    1.389618
     15          1           0       -3.463150   -1.549555    1.172581
     16          6           0       -1.314360    1.025802    0.732527
     17          1           0       -0.685867    1.798249   -1.162433
     18          1           0       -2.094303    0.042999    2.470180
     19          1           0       -0.699972    1.714565    1.294953
 ---------------------------------------------------------------------

 SCF Done:  E(RHF) =  -484.111082183     A.U. after    2 cycles

 The electronic state is 1-A.
 Alpha  occ. eigenvalues --  -21.05434 -21.05295 -21.04670 -11.51999 -11.42714
 Alpha  occ. eigenvalues --  -11.42571 -11.40160 -11.40098 -11.36132  -7.64840
 Alpha  occ. eigenvalues --   -1.87564  -1.65948  -1.65686  -1.34434  -1.09338
 Alpha  occ. eigenvalues --   -1.09307  -0.86063  -0.86004  -0.77631  -0.72571
 Alpha  occ. eigenvalues --   -0.65614  -0.64089  -0.63837  -0.58471  -0.58412
 Alpha  occ. eigenvalues --   -0.56231  -0.51974  -0.51600  -0.50678  -0.44864
 Alpha  occ. eigenvalues --   -0.44825  -0.39097  -0.38757  -0.36425  -0.36111
 Alpha  occ. eigenvalues --   -0.33262  -0.33180
 Alpha virt. eigenvalues --    0.03257   0.04203   0.04818   0.04867   0.05536
 Alpha virt. eigenvalues --    0.05749   0.06663   0.06735   0.07573   0.07599
 Alpha virt. eigenvalues --    0.08601   0.09678   0.11246   0.11512   0.11671

 Mulliken charges:
               1
     1  B    8.246698
     2  O   -3.913028
     3  O   -4.202459
     4  O   -3.896390
     5  H    1.136520
     6  H    1.501237
     7  H    1.156839
     8  C   -1.525266
     9  C   -1.640406
    10  C   -1.524877
    11  H    1.515095
    12  C   -1.505933
    13  H    1.539497
    14  C   -1.639727
    15  H    1.514464
    16  C   -1.515610
    17  H    1.608235
    18  H    1.539262
    19  H    1.605849
 Sum of Mulliken charges =  -0.00000

 Dipole moment (field-independent basis, Debye):
    X=             -0.4524    Y=              0.0448    Z=             -0.0019  Tot=              0.4546

 Test job not archived.
 1\1\GINC-SE096\SP\RHF\Aug-CC-pVDZ\C6H9B1O3\OHZDE\08-Apr-2025\0\\#t hf
 aug-cc-pvdz iop(5/13=1,5/36=2,99/5=2) pseudo=read geom=check guess=(re
 ad,tcheck) scf=(maxcycle=1)\\title\\0,1\B,0,2.47525,0.1904,0.00446\O,0
 ,3.75759,0.66722,0.02093\O,0,1.42772,1.05703,0.01798\O,0,2.26904,-1.16
 305,-0.02572\H,0,3.78968,1.62157,0.04163\H,0,0.57273,0.62112,0.00482\H
 ,0,3.09084,-1.65002,-0.03224\C,0,-3.11180751,0.70597548,0.72521061\C,0
 ,-2.32307751,-0.22659452,1.38241061\C,0,-3.11955751,0.75486548,-0.6607
 9939\H,0,-3.71791751,1.39782548,1.29379061\C,0,-1.54048751,-1.11057452

 Normal termination of Gaussian 16 at Tue Apr  8 22:26:15 2025.
