 Gaussian 16, Revision C.01,

 ----------------------------------------------------------------------
 #t hf aug-cc-pvdz symm=none int=(grid=ultrafine) guess=(read,tcheck) s
 table=(opt,rrhf)
 ----------------------------------------------------------------------
 -----
 title
 -----
 Symbolic Z-matrix:
 Charge =  0 Multiplicity = 1

 SCF Done:  E(RHF) =  -497.145897683     A.U. after   14 cycles
 Normal termination of Gaussian 16 at Tue Apr  8 22:28:25 2025.
 Gaussian 16:  ES64L-G16RevC.01  3-Jul-2019

 ----------------------------------------------------------------------
 #t hf aug-cc-pvdz iop(5/13=1,5/36=2,99/5=2) pseudo=read geom=check gue
 ss=(read,tcheck) scf=(maxcycle=1)
 ----------------------------------------------------------------------
 -----
 title
 -----
 Structure from the checkpoint file:  "B-set_borepin_borazine_110_dimer_mol1.chk"
 Charge =  0 Multiplicity = 1

                         Standard orientation:
 ---------------------------------------------------------------------
 Center     Atomic      Atomic             Coordinates (Angstroms)
 Number     Number       Type             X           Y           Z
 ---------------------------------------------------------------------
      1          6           0       -1.322731   -1.149819    1.228704
      2          6           0       -2.042517   -1.525509    0.135892
      3          6           0       -0.988399    0.144429    1.706120
      4          1           0       -0.937819   -1.965109    1.830291
      5          6           0       -2.678983   -0.735829   -0.858059
      6          1           0       -2.147792   -2.595443   -0.001913
      7          6           0       -1.296030    1.360502    1.175975
      8          1           0       -0.393509    0.132440    2.614712
      9          6           0       -2.717260    0.620141   -0.984400
     10          1           0       -3.196232   -1.321822   -1.612721
     11          1           0       -0.902298    2.200430    1.741985
     12          5           0       -2.087310    1.676933   -0.086200
     13          1           0       -3.277860    0.967572   -1.848417
     14          1           0       -2.228367    2.828243   -0.387907
     15          5           0        3.041125   -0.013825    0.737561
     16          7           0        2.607529    1.197217    0.129153
     17          7           0        2.551599   -1.234102    0.187854
     18          1           0        3.783673   -0.009683    1.674724
     19          5           0        1.703113    1.224042   -0.974112
     20          1           0        2.934170    2.069348    0.502869
     21          5           0        1.661602   -1.274367   -0.927259
     22          1           0        2.852009   -2.100383    0.595602
     23          7           0        1.266493   -0.029490   -1.490263
     24          1           0        1.334775    2.255527   -1.450260
     25          1           0        1.271845   -2.313317   -1.371240
     26          1           0        0.610922   -0.030574   -2.250270
 ---------------------------------------------------------------------

 SCF Done:  E(RHF) =  -499.452753798     A.U. after    2 cycles

 The electronic state is 1-A.
 Alpha  occ. eigenvalues --  -15.67815 -15.67610 -15.67349 -11.49482 -11.44858
 Alpha  occ. eigenvalues --  -11.42876 -11.41163 -11.38538 -11.36205  -7.61174
 Alpha  occ. eigenvalues --   -7.61078  -7.59586  -7.59196  -1.47865  -1.29758
 Alpha  occ. eigenvalues --   -1.29280  -1.29182  -1.15216  -1.09539  -0.91453
 Alpha  occ. eigenvalues --   -0.89284  -0.84360  -0.84291  -0.76301  -0.71176
 Alpha  occ. eigenvalues --   -0.69655  -0.68936  -0.61864  -0.57962  -0.57361
 Alpha  occ. eigenvalues --   -0.57346  -0.57008  -0.56170  -0.52014  -0.49810
 Alpha  occ. eigenvalues --   -0.48362  -0.47742  -0.40977  -0.40513  -0.40426
 Alpha  occ. eigenvalues --   -0.40029  -0.38797  -0.38525  -0.37139  -0.31240
 Alpha virt. eigenvalues --    0.01929   0.02044   0.02617   0.03276   0.05156
 Alpha virt. eigenvalues --    0.05265   0.05855   0.05960   0.06244   0.06455
 Alpha virt. eigenvalues --    0.07083   0.07661   0.07715   0.07964   0.08326

 Mulliken charges:
               1
     1  C   -1.214588
     2  C   -0.966736
     3  C   -1.168983
     4  H    1.591229
     5  C   -1.261921
     6  H    1.509652
     7  C   -3.709874
     8  H    1.418590
     9  C   -3.634832
    10  H    1.400259
    11  H    1.484781
    12  B    8.324116
    13  H    1.362414
    14  H   -5.341279
    15  B    7.683770
    16  N   -3.754877
    17  N   -3.690196
    18  H   -5.076803
    19  B    8.912353
    20  H    1.040325
    21  B    8.673315
    22  H    1.088095
    23  N   -4.547527
    24  H   -5.675090
    25  H   -5.585932
    26  H    1.139739
 Sum of Mulliken charges =   0.00000

 Dipole moment (field-independent basis, Debye):
    X=              0.1393    Y=             -2.2025    Z=              0.6309  Tot=              2.2953

 Test job not archived.
 1\1\GINC-SE070\SP\RHF\Aug-CC-pVDZ\C6H13B4N3\OHZDE\08-Apr-2025\0\\#t hf
  aug-cc-pvdz iop(5/13=1,5/36=2,99/5=2) pseudo=read geom=check guess=(r
 ead,tcheck) scf=(maxcycle=1)\\title\\0,1\C,0,-1.1002,-1.1557,1.24379\C
 ,0,-1.87153,-1.52215,0.18349\C,0,-0.73895,0.13441,1.71272\H,0,-0.6909,
 -1.97601,1.822\C,0,-2.55047,-0.72416,-0.77509\H,0,-1.98729,-2.59084,0.
 04445\C,0,-1.06616,1.35478,1.20463\H,0,-0.10247,0.11476,2.59254\C,0,-2
 .58928,0.63268,-0.89154\H,0,-3.10457,-1.30369,-1.50828\H,0,-0.64323,2.
 18983,1.75662\B,0,-1.91408,1.68172,-0.01745\H,0,-3.18812,0.98737,-1.72

 Normal termination of Gaussian 16 at Tue Apr  8 22:28:49 2025.
