 Gaussian 16, Revision C.01,

 ----------------------------------------------------------------------
 #t hf aug-cc-pvdz symm=none int=(grid=ultrafine) guess=(read,tcheck) s
 table=(opt,rrhf)
 ----------------------------------------------------------------------
 -----
 title
 -----
 Symbolic Z-matrix:
 Charge =  0 Multiplicity = 1

 SCF Done:  E(RHF) =  -736.579197462     A.U. after   12 cycles
 Normal termination of Gaussian 16 at Tue Apr  8 22:38:58 2025.
 Gaussian 16:  ES64L-G16RevC.01  3-Jul-2019

 ----------------------------------------------------------------------
 #t hf aug-cc-pvdz iop(5/13=1,5/36=2,99/5=2) pseudo=read geom=check gue
 ss=(read,tcheck) scf=(maxcycle=1)
 ----------------------------------------------------------------------
 -----
 title
 -----
 Structure from the checkpoint file:  "B-set_trimethylborate_trimethylborate_090_dimer_mol1.chk"
 Charge =  0 Multiplicity = 1

                         Standard orientation:
 ---------------------------------------------------------------------
 Center     Atomic      Atomic             Coordinates (Angstroms)
 Number     Number       Type             X           Y           Z
 ---------------------------------------------------------------------
      1          5           0        1.452387   -0.007737    0.003149
      2          8           0        1.447340   -1.346131    0.254949
      3          8           0        1.459340    0.879617    1.036217
      4          8           0        1.461511    0.443347   -1.281850
      5          6           0        1.382186   -1.833514    1.581551
      6          6           0        1.408666    2.272777    0.795141
      7          6           0        1.400482   -0.461397   -2.367749
      8          1           0        0.387651   -1.669278    1.997384
      9          1           0        1.584720   -2.901949    1.547268
     10          1           0        2.120165   -1.347384    2.219797
     11          1           0        1.621969    2.775235    1.736266
     12          1           0        2.145946    2.573929    0.050796
     13          1           0        0.415441    2.561874    0.450259
     14          1           0        1.609641    0.102036   -3.274652
     15          1           0        2.135892   -1.259085   -2.261933
     16          1           0        0.405339   -0.901258   -2.439498
     17          5           0       -1.452328    0.007554   -0.003150
     18          8           0       -1.458795   -0.878726   -1.037162
     19          8           0       -1.460966   -0.444664    1.281476
     20          8           0       -1.448091    1.346228   -0.253653
     21          6           0       -1.407660   -2.272103   -0.797095
     22          6           0       -1.399810    0.459494    2.367988
     23          6           0       -1.384162    1.835099   -1.579754
     24          1           0       -2.146991   -2.574480   -0.055297
     25          1           0       -1.617718   -2.773870   -1.739308
     26          1           0       -0.415258   -2.560693   -0.449416
     27          1           0       -1.609850   -0.104268    3.274491
     28          1           0       -0.404272    0.898395    2.440342
     29          1           0       -2.134538    1.257758    2.262100
     30          1           0       -0.389670    1.672429   -1.996365
     31          1           0       -2.121822    1.348746   -2.218189
     32          1           0       -1.587859    2.903265   -1.544351
 ---------------------------------------------------------------------

 SCF Done:  E(RHF) =  -739.836269583     A.U. after    2 cycles

 The electronic state is 1-A.
 Alpha  occ. eigenvalues --  -21.01392 -21.01390 -21.01335 -21.01334 -21.01324
 Alpha  occ. eigenvalues --  -21.01324 -11.40214 -11.40156 -11.40154 -11.39552
 Alpha  occ. eigenvalues --  -11.39548 -11.39458  -7.64250  -7.64212  -1.91335
 Alpha  occ. eigenvalues --   -1.89673  -1.70271  -1.70270  -1.69764  -1.69762
 Alpha  occ. eigenvalues --   -1.02917  -1.02398  -0.97990  -0.97985  -0.97305
 Alpha  occ. eigenvalues --   -0.97304  -0.69697  -0.68464  -0.65652  -0.64583
 Alpha  occ. eigenvalues --   -0.64580  -0.64226  -0.64221  -0.60381  -0.60118
 Alpha  occ. eigenvalues --   -0.60113  -0.58368  -0.58367  -0.58334  -0.57996
 Alpha  occ. eigenvalues --   -0.52016  -0.52012  -0.51846  -0.51843  -0.49617
 Alpha  occ. eigenvalues --   -0.47558  -0.46459  -0.44806  -0.34296  -0.34293
 Alpha  occ. eigenvalues --   -0.34111  -0.34100  -0.33069  -0.33062  -0.31648
 Alpha  occ. eigenvalues --   -0.31639
 Alpha virt. eigenvalues --    0.03490   0.04205   0.04207   0.04483   0.05328
 Alpha virt. eigenvalues --    0.05328   0.05467   0.06260   0.06262   0.06291
 Alpha virt. eigenvalues --    0.07130   0.07556   0.07760   0.07763   0.08252

 Mulliken charges:
               1
     1  B   17.125757
     2  O   -6.277352
     3  O   -6.273018
     4  O   -6.282296
     5  C   -4.070390
     6  C   -4.070138
     7  C   -4.070973
     8  H    1.742689
     9  H    1.289058
    10  H    1.609680
    11  H    1.288731
    12  H    1.608736
    13  H    1.738449
    14  H    1.289084
    15  H    1.607495
    16  H    1.744503
    17  B   17.123647
    18  O   -6.273753
    19  O   -6.280972
    20  O   -6.275722
    21  C   -4.070842
    22  C   -4.071615
    23  C   -4.068875
    24  H    1.608770
    25  H    1.289082
    26  H    1.739888
    27  H    1.289595
    28  H    1.742964
    29  H    1.608125
    30  H    1.740084
    31  H    1.610405
    32  H    1.289204
 Sum of Mulliken charges =  -0.00000

 Dipole moment (field-independent basis, Debye):
    X=             -0.0008    Y=              0.0013    Z=             -0.0002  Tot=              0.0016

 Test job not archived.
 1\1\GINC-SE086\SP\RHF\Aug-CC-pVDZ\C6H18B2O6\OHZDE\08-Apr-2025\0\\#t hf
  aug-cc-pvdz iop(5/13=1,5/36=2,99/5=2) pseudo=read geom=check guess=(r
 ead,tcheck) scf=(maxcycle=1)\\title\\0,1\B,0,1.60824,0.00191,-0.00082\
 O,0,1.60915,1.34156,-0.2459\O,0,1.61322,-0.88027,-1.03832\O,0,1.61338,
 -0.45565,1.28191\C,0,1.5482,1.83586,-1.57014\C,0,1.55638,-2.2744,-0.80
 433\C,0,1.55431,0.44388,2.37224\H,0,0.55368,1.67784,-1.98841\H,0,1.755
 1,2.90326,-1.53016\H,0,2.28521,1.34988,-2.20962\H,0,1.76915,-2.77301,-
 1.74762\H,0,2.29118,-2.58234,-0.06031\H,0,0.5614,-2.5611,-0.46252\H,0,

 Normal termination of Gaussian 16 at Tue Apr  8 22:39:39 2025.
