 Gaussian 16, Revision C.01,

 ----------------------------------------------------------------------
 #t hf aug-cc-pvdz symm=none int=(grid=ultrafine) guess=(read,tcheck) s
 table=(opt,rrhf)
 ----------------------------------------------------------------------
 -----
 title
 -----
 Symbolic Z-matrix:
 Charge =  0 Multiplicity = 1

 SCF Done:  E(RHF) =  -463.677337953     A.U. after   16 cycles
 Normal termination of Gaussian 16 at Tue Apr  8 22:25:40 2025.
 Gaussian 16:  ES64L-G16RevC.01  3-Jul-2019

 ----------------------------------------------------------------------
 #t hf aug-cc-pvdz iop(5/13=1,5/36=2,99/5=2) pseudo=read geom=check gue
 ss=(read,tcheck) scf=(maxcycle=1)
 ----------------------------------------------------------------------
 -----
 title
 -----
 Structure from the checkpoint file:  "B-set_borabenzene_pyridine_095_dimer_mol1.chk"
 Charge =  0 Multiplicity = 1

                         Standard orientation:
 ---------------------------------------------------------------------
 Center     Atomic      Atomic             Coordinates (Angstroms)
 Number     Number       Type             X           Y           Z
 ---------------------------------------------------------------------
      1          6           0       -1.462753    1.234661    0.364103
      2          6           0       -2.850323    1.163900    0.350083
      3          6           0       -3.530633   -0.000030   -0.000047
      4          6           0       -2.850222   -1.163940   -0.350007
      5          6           0       -1.462592   -1.234709   -0.364147
      6          1           0       -4.612903   -0.000051   -0.000117
      7          1           0       -1.017834    2.174541    0.680873
      8          1           0       -3.437774    2.033730    0.625813
      9          1           0       -3.437652   -2.033660   -0.626117
     10          1           0       -1.018022   -2.174499   -0.681647
     11          5           0       -0.721003   -0.000009    0.000023
     12          6           0        1.431293   -1.092098    0.383678
     13          6           0        2.807173   -1.127047    0.387028
     14          6           0        3.512653    0.000013   -0.000182
     15          6           0        2.807072    1.127133   -0.387102
     16          6           0        1.431212    1.092102   -0.383432
     17          7           0        0.752343   -0.000008    0.000128
     18          1           0        4.593193    0.000013   -0.000292
     19          1           0        0.824024   -1.927048    0.697028
     20          1           0        3.312404   -2.027257    0.701928
     21          1           0        3.312202    2.027413   -0.701962
     22          1           0        0.823692    1.927032   -0.696352
 ---------------------------------------------------------------------

 SCF Done:  E(RHF) =  -465.882905368     A.U. after    2 cycles

 The electronic state is 1-A.
 Alpha  occ. eigenvalues --  -15.81564 -11.55060 -11.51173 -11.49136 -11.45846
 Alpha  occ. eigenvalues --  -11.43214 -11.42179 -11.37194 -11.33486 -11.31570
 Alpha  occ. eigenvalues --  -11.29351  -7.54841  -1.56808  -1.29346  -1.22744
 Alpha  occ. eigenvalues --   -1.17550  -1.04233  -1.01491  -0.95374  -0.93630
 Alpha  occ. eigenvalues --   -0.82040  -0.78773  -0.75056  -0.69622  -0.66767
 Alpha  occ. eigenvalues --   -0.66653  -0.64679  -0.62040  -0.61992  -0.54841
 Alpha  occ. eigenvalues --   -0.53694  -0.51418  -0.48087  -0.47776  -0.44523
 Alpha  occ. eigenvalues --   -0.42199  -0.39179  -0.38841  -0.34957  -0.28504
 Alpha  occ. eigenvalues --   -0.22691
 Alpha virt. eigenvalues --    0.01750   0.03939   0.04114   0.05194   0.05527
 Alpha virt. eigenvalues --    0.05549   0.05711   0.07067   0.07326   0.07416
 Alpha virt. eigenvalues --    0.07673   0.08086   0.08676   0.09104   0.09875

 Mulliken charges:
               1
     1  C   -4.933828
     2  C   -0.515120
     3  C   -0.897543
     4  C   -0.514792
     5  C   -4.934904
     6  H    1.566873
     7  H    1.670737
     8  H    1.432347
     9  H    1.432376
    10  H    1.670466
    11  B    3.911089
    12  C    0.036948
    13  C   -1.456220
    14  C   -0.199233
    15  C   -1.456955
    16  C    0.039510
    17  N   -5.274977
    18  H    1.609752
    19  H    2.008703
    20  H    1.397982
    21  H    1.397879
    22  H    2.008911
 Sum of Mulliken charges =  -0.00000

 Dipole moment (field-independent basis, Debye):
    X=              8.3448    Y=              0.0005    Z=             -0.0004  Tot=              8.3448

 Test job not archived.
 1\1\GINC-SE454\SP\RHF\Aug-CC-pVDZ\C10H10B1N1\OHZDE\08-Apr-2025\0\\#t h
 f aug-cc-pvdz iop(5/13=1,5/36=2,99/5=2) pseudo=read geom=check guess=(
 read,tcheck) scf=(maxcycle=1)\\title\\0,1\C,0,1.50247,-1.23466,0.3641\
 C,0,2.89004,-1.1639,0.35008\C,0,3.57035,0.00003,-0.00005\C,0,2.88994,1
 .16394,-0.35001\C,0,1.50231,1.23471,-0.36415\H,0,4.65262,0.00005,-0.00
 012\H,0,1.05755,-2.17454,0.68087\H,0,3.47749,-2.03373,0.62581\H,0,3.47
 737,2.03366,-0.62612\H,0,1.05774,2.1745,-0.68165\B,0,0.76072,0.00001,0
 .00002\C,0,-1.3915755,1.0921,0.3836745\C,0,-2.7674555,1.12705,0.387024

 Normal termination of Gaussian 16 at Tue Apr  8 22:25:55 2025.
