 Gaussian 16, Revision C.01,

 ----------------------------------------------------------------------
 #t hf aug-cc-pvdz symm=none int=(grid=ultrafine) guess=(read,tcheck) s
 table=(opt,rrhf)
 ----------------------------------------------------------------------
 -----
 title
 -----
 Symbolic Z-matrix:
 Charge =  0 Multiplicity = 1

 SCF Done:  E(RHF) =  -736.586159055     A.U. after   12 cycles
 Normal termination of Gaussian 16 at Tue Apr  8 22:38:52 2025.
 Gaussian 16:  ES64L-G16RevC.01  3-Jul-2019

 ----------------------------------------------------------------------
 #t hf aug-cc-pvdz iop(5/13=1,5/36=2,99/5=2) pseudo=read geom=check gue
 ss=(read,tcheck) scf=(maxcycle=1)
 ----------------------------------------------------------------------
 -----
 title
 -----
 Structure from the checkpoint file:  "B-set_trimethylborate_trimethylborate_095_dimer_mol1.chk"
 Charge =  0 Multiplicity = 1

                         Standard orientation:
 ---------------------------------------------------------------------
 Center     Atomic      Atomic             Coordinates (Angstroms)
 Number     Number       Type             X           Y           Z
 ---------------------------------------------------------------------
      1          5           0        1.530323   -0.003014    0.001258
      2          8           0        1.530109   -1.342241    0.248641
      3          8           0        1.535675    0.880945    1.037241
      4          8           0        1.536214    0.452335   -1.282255
      5          6           0        1.468366   -1.834215    1.573710
      6          6           0        1.479998    2.274714    0.800837
      7          6           0        1.476774   -0.449022   -2.371055
      8          1           0        0.473842   -1.674699    1.991402
      9          1           0        1.674443   -2.901844    1.535629
     10          1           0        2.205560   -1.347713    2.212581
     11          1           0        1.692869    2.774779    1.743334
     12          1           0        2.215267    2.580800    0.056515
     13          1           0        0.485347    2.561604    0.458229
     14          1           0        1.682827    0.118102   -3.276368
     15          1           0        2.215001   -1.244575   -2.268850
     16          1           0        0.483019   -0.891988   -2.442938
     17          5           0       -1.530263    0.002832   -0.001260
     18          8           0       -1.535134   -0.880049   -1.038185
     19          8           0       -1.535665   -0.453649    1.281876
     20          8           0       -1.530859    1.342332   -0.247344
     21          6           0       -1.478997   -2.274030   -0.802790
     22          6           0       -1.476096    0.447119    2.371287
     23          6           0       -1.470346    1.835788   -1.571906
     24          1           0       -2.216316   -2.581339   -0.061017
     25          1           0       -1.688627   -2.773390   -1.746377
     26          1           0       -0.485167   -2.560425   -0.457382
     27          1           0       -1.683028   -0.120334    3.276200
     28          1           0       -0.481942    0.889127    2.443771
     29          1           0       -2.213642    1.243252    2.269011
     30          1           0       -0.475870    1.677840   -1.990370
     31          1           0       -2.207220    1.349065   -2.210965
     32          1           0       -1.677583    2.903139   -1.532704
 ---------------------------------------------------------------------

 SCF Done:  E(RHF) =  -739.839768233     A.U. after    2 cycles

 The electronic state is 1-A.
 Alpha  occ. eigenvalues --  -21.01458 -21.01439 -21.01391 -21.01390 -21.01386
 Alpha  occ. eigenvalues --  -21.01386 -11.40146 -11.40111 -11.40109 -11.39661
 Alpha  occ. eigenvalues --  -11.39657 -11.39570  -7.64219  -7.64140  -1.91173
 Alpha  occ. eigenvalues --   -1.89622  -1.70083  -1.70082  -1.69694  -1.69692
 Alpha  occ. eigenvalues --   -1.02696  -1.02462  -0.97994  -0.97989  -0.97320
 Alpha  occ. eigenvalues --   -0.97319  -0.69483  -0.68477  -0.64957  -0.64434
 Alpha  occ. eigenvalues --   -0.64430  -0.64112  -0.64107  -0.60924  -0.59961
 Alpha  occ. eigenvalues --   -0.59957  -0.58662  -0.58661  -0.58325  -0.58077
 Alpha  occ. eigenvalues --   -0.52043  -0.52040  -0.51884  -0.51881  -0.49116
 Alpha  occ. eigenvalues --   -0.47615  -0.46429  -0.45277  -0.34128  -0.34119
 Alpha  occ. eigenvalues --   -0.34105  -0.34103  -0.33032  -0.33025  -0.31942
 Alpha  occ. eigenvalues --   -0.31933
 Alpha virt. eigenvalues --    0.03558   0.04190   0.04192   0.04459   0.05314
 Alpha virt. eigenvalues --    0.05314   0.05568   0.06252   0.06254   0.06519
 Alpha virt. eigenvalues --    0.07120   0.07535   0.07732   0.07734   0.08223

 Mulliken charges:
               1
     1  B   16.874284
     2  O   -6.238296
     3  O   -6.231941
     4  O   -6.243503
     5  C   -4.028864
     6  C   -4.028921
     7  C   -4.029530
     8  H    1.724930
     9  H    1.290078
    10  H    1.629337
    11  H    1.289398
    12  H    1.628743
    13  H    1.720581
    14  H    1.290186
    15  H    1.627275
    16  H    1.726416
    17  B   16.871835
    18  O   -6.233267
    19  O   -6.242296
    20  O   -6.236028
    21  C   -4.029503
    22  C   -4.030196
    23  C   -4.027460
    24  H    1.628614
    25  H    1.289796
    26  H    1.722158
    27  H    1.290586
    28  H    1.725049
    29  H    1.627945
    30  H    1.722488
    31  H    1.629962
    32  H    1.290143
 Sum of Mulliken charges =  -0.00000

 Dipole moment (field-independent basis, Debye):
    X=             -0.0008    Y=              0.0012    Z=             -0.0002  Tot=              0.0014

 Test job not archived.
 1\1\GINC-SE226\SP\RHF\Aug-CC-pVDZ\C6H18B2O6\OHZDE\08-Apr-2025\0\\#t hf
  aug-cc-pvdz iop(5/13=1,5/36=2,99/5=2) pseudo=read geom=check guess=(r
 ead,tcheck) scf=(maxcycle=1)\\title\\0,1\B,0,1.60824,0.00191,-0.00082\
 O,0,1.60915,1.34156,-0.2459\O,0,1.61322,-0.88027,-1.03832\O,0,1.61338,
 -0.45565,1.28191\C,0,1.5482,1.83586,-1.57014\C,0,1.55638,-2.2744,-0.80
 433\C,0,1.55431,0.44388,2.37224\H,0,0.55368,1.67784,-1.98841\H,0,1.755
 1,2.90326,-1.53016\H,0,2.28521,1.34988,-2.20962\H,0,1.76915,-2.77301,-
 1.74762\H,0,2.29118,-2.58234,-0.06031\H,0,0.5614,-2.5611,-0.46252\H,0,

 Normal termination of Gaussian 16 at Tue Apr  8 22:39:31 2025.
