 Gaussian 16, Revision C.01,

 ----------------------------------------------------------------------
 #t hf aug-cc-pvdz symm=none int=(grid=ultrafine) guess=(read,tcheck) s
 table=(opt,rrhf)
 ----------------------------------------------------------------------
 -----
 title
 -----
 Symbolic Z-matrix:
 Charge =  0 Multiplicity = 1

 SCF Done:  E(RHF) =  -327.284307526     A.U. after   11 cycles
 Normal termination of Gaussian 16 at Tue Apr  8 22:25:19 2025.
 Gaussian 16:  ES64L-G16RevC.01  3-Jul-2019

 ----------------------------------------------------------------------
 #t hf aug-cc-pvdz iop(5/13=1,5/36=2,99/5=2) pseudo=read geom=check gue
 ss=(read,tcheck) scf=(maxcycle=1)
 ----------------------------------------------------------------------
 -----
 title
 -----
 Structure from the checkpoint file:  "B-set_boricacid_h2o_125_dimer_mol1.chk"
 Charge =  0 Multiplicity = 1

                         Standard orientation:
 ---------------------------------------------------------------------
 Center     Atomic      Atomic             Coordinates (Angstroms)
 Number     Number       Type             X           Y           Z
 ---------------------------------------------------------------------
      1          5           0       -0.961240   -0.023450    0.000830
      2          8           0       -0.316775   -1.212370   -0.005804
      3          8           0       -0.246689    1.158357   -0.006626
      4          8           0       -2.325056    0.049132    0.018454
      5          1           0        0.645919   -1.114553   -0.035725
      6          1           0       -0.813040    1.927416   -0.017116
      7          1           0       -2.734696   -0.813805    0.015664
      8          8           0        3.077765   -0.068418   -0.080192
      9          1           0        2.524241    0.720023   -0.041270
     10          1           0        3.669818   -0.015432    0.667644
 ---------------------------------------------------------------------

 SCF Done:  E(RHF) =  -328.626188527     A.U. after    2 cycles

 The electronic state is 1-A.
 Alpha  occ. eigenvalues --  -21.10499 -21.06116 -21.05812 -21.05124  -7.65434
 Alpha  occ. eigenvalues --   -1.88041  -1.66666  -1.66381  -1.66178  -0.78008
 Alpha  occ. eigenvalues --   -0.64829  -0.64430  -0.63902  -0.52508  -0.52124
 Alpha  occ. eigenvalues --   -0.46821  -0.39972  -0.39136  -0.36949  -0.36599
 Alpha  occ. eigenvalues --   -0.35788
 Alpha virt. eigenvalues --    0.03319   0.04317   0.04906   0.05399   0.07089
 Alpha virt. eigenvalues --    0.07807   0.08605   0.09878   0.10566   0.15045
 Alpha virt. eigenvalues --    0.18906   0.20636   0.21568   0.21757   0.22571

 Mulliken charges:
               1
     1  B    7.916635
     2  O   -3.854133
     3  O   -3.625730
     4  O   -3.749018
     5  H    1.137305
     6  H    1.098977
     7  H    1.048315
     8  O   -1.810478
     9  H    0.965978
    10  H    0.872150
 Sum of Mulliken charges =  -0.00000

 Dipole moment (field-independent basis, Debye):
    X=              0.1929    Y=              0.7008    Z=              0.6393  Tot=              0.9680

 Test job not archived.
 1\1\GINC-SE461\SP\RHF\Aug-CC-pVDZ\B1H5O4\OHZDE\08-Apr-2025\0\\#t hf au
 g-cc-pvdz iop(5/13=1,5/36=2,99/5=2) pseudo=read geom=check guess=(read
 ,tcheck) scf=(maxcycle=1)\\title\\0,1\B,0,-0.76791,-0.02465,0.00325\O,
 0,-0.10569,-1.20379,0.00191\O,0,-0.07109,1.16772,0.00192\O,0,-2.13276,
 0.02751,0.00942\H,0,0.85565,-1.09157,-0.01991\H,0,-0.64878,1.92822,-0.
 01325\H,0,-2.5294,-0.84146,0.0031\O,0,3.27185393,-0.00914798,-0.043833
 21\H,0,2.70628393,0.77091202,-0.00948321\H,0,3.85674393,0.05252202,0.7
 0895679\\Version=ES64L-G16RevC.01\State=1-A\HF=-328.6261885\RMSD=1.076

 Normal termination of Gaussian 16 at Tue Apr  8 22:25:22 2025.
