 Gaussian 16, Revision C.01,

 ----------------------------------------------------------------------
 #t hf aug-cc-pvdz symm=none int=(grid=ultrafine) guess=(read,tcheck) s
 table=(opt,rrhf)
 ----------------------------------------------------------------------
 -----
 title
 -----
 Symbolic Z-matrix:
 Charge =  0 Multiplicity = 1

 SCF Done:  E(RHF) =  -894.817676841     A.U. after   12 cycles
 Normal termination of Gaussian 16 at Tue Apr  8 22:22:47 2025.
 Gaussian 16:  ES64L-G16RevC.01  3-Jul-2019

 ----------------------------------------------------------------------
 #t hf aug-cc-pvdz iop(5/13=1,5/36=2,99/5=2) pseudo=read geom=check gue
 ss=(read,tcheck) scf=(maxcycle=1)
 ----------------------------------------------------------------------
 -----
 title
 -----
 Structure from the checkpoint file:  "B-set_b2f4_b2f4_095_dimer_mol1.chk"
 Charge =  0 Multiplicity = 1

                         Standard orientation:
 ---------------------------------------------------------------------
 Center     Atomic      Atomic             Coordinates (Angstroms)
 Number     Number       Type             X           Y           Z
 ---------------------------------------------------------------------
      1          5           0        1.828672   -0.622195    0.479286
      2          5           0        1.576285    0.990991   -0.090012
      3          9           0        0.817975   -1.338653    0.938112
      4          9           0        3.013561   -1.185039    0.479963
      5          9           0        0.487700    1.660134    0.246981
      6          9           0        2.445914    1.603762   -0.856665
      7          5           0       -1.384371   -0.790754   -0.723702
      8          5           0       -1.991153    0.425089    0.338606
      9          9           0       -0.406219   -0.535168   -1.582232
     10          9           0       -1.877413   -2.008781   -0.743534
     11          9           0       -2.552630    1.519893   -0.130868
     12          9           0       -1.945240    0.282111    1.645921
 ---------------------------------------------------------------------

 SCF Done:  E(RHF) =  -897.896580010     A.U. after    2 cycles

 The electronic state is 1-A.
 Alpha  occ. eigenvalues --  -29.28991 -29.28942 -29.28706 -29.28319 -29.28224
 Alpha  occ. eigenvalues --  -29.27676 -29.27088 -29.26981  -7.72705  -7.72294
 Alpha  occ. eigenvalues --   -7.71800  -7.71035  -1.22205  -1.20331  -1.09095
 Alpha  occ. eigenvalues --   -1.08526  -0.81578  -0.78405  -0.75395  -0.74837
 Alpha  occ. eigenvalues --   -0.67457  -0.66624  -0.57256  -0.54117  -0.53195
 Alpha  occ. eigenvalues --   -0.52700  -0.50751  -0.49394  -0.48436  -0.47917
 Alpha  occ. eigenvalues --   -0.46818  -0.46493  -0.45693  -0.45175  -0.39818
 Alpha  occ. eigenvalues --   -0.39149  -0.38498  -0.37439  -0.37384  -0.36626
 Alpha  occ. eigenvalues --   -0.35852  -0.35196  -0.33668  -0.33315  -0.23102
 Alpha  occ. eigenvalues --   -0.20481
 Alpha virt. eigenvalues --    0.01719   0.02666   0.03579   0.04391   0.05253
 Alpha virt. eigenvalues --    0.06802   0.07387   0.07933   0.08921   0.09668
 Alpha virt. eigenvalues --    0.10155   0.10233   0.10816   0.10862   0.11835

 Mulliken charges:
               1
     1  B    0.461351
     2  B   -0.021751
     3  F   -0.719505
     4  F    0.227189
     5  F    0.056424
     6  F   -0.075670
     7  B    0.275141
     8  B    0.021952
     9  F   -0.041005
    10  F   -0.119289
    11  F   -0.078086
    12  F    0.013248
 Sum of Mulliken charges =  -0.00000

 Dipole moment (field-independent basis, Debye):
    X=              0.6722    Y=             -0.1318    Z=             -0.0218  Tot=              0.6853

 Test job not archived.
 1\1\GINC-SE329\SP\RHF\Aug-CC-pVDZ\B4F8\OHZDE\08-Apr-2025\0\\#t hf aug-
 cc-pvdz iop(5/13=1,5/36=2,99/5=2) pseudo=read geom=check guess=(read,t
 check) scf=(maxcycle=1)\\title\\0,1\B,0,1.91416,-0.63907,0.46973\B,0,1
 .67914,0.97528,-0.10369\F,0,0.89841,-1.33833,0.94368\F,0,3.09043,-1.21
 961,0.45886\F,0,0.60477,1.6621,0.24321\F,0,2.54863,1.57167,-0.88331\B,
 0,-1.31515358,-0.76455275,-0.69432625\B,0,-1.89099358,0.46476725,0.369
 69375\F,0,-0.34359358,-0.52732275,-1.56551625\F,0,-1.82654358,-1.97512
 275,-0.70290625\F,0,-2.44160358,1.56585725,-0.09794625\F,0,-1.83164358

 Normal termination of Gaussian 16 at Tue Apr  8 22:22:55 2025.
