 Gaussian 16, Revision C.01,

 ----------------------------------------------------------------------
 #t hf aug-cc-pvdz symm=none int=(grid=ultrafine) guess=(read,tcheck) s
 table=(opt,rrhf)
 ----------------------------------------------------------------------
 -----
 title
 -----
 Symbolic Z-matrix:
 Charge =  0 Multiplicity = 1

 SCF Done:  E(RHF) =  -219.226194134     A.U. after   13 cycles
 Normal termination of Gaussian 16 at Tue Apr  8 22:27:38 2025.
 Gaussian 16:  ES64L-G16RevC.01  3-Jul-2019

 ----------------------------------------------------------------------
 #t hf aug-cc-pvdz iop(5/13=1,5/36=2,99/5=2) pseudo=read geom=check gue
 ss=(read,tcheck) scf=(maxcycle=1)
 ----------------------------------------------------------------------
 -----
 title
 -----
 Structure from the checkpoint file:  "B-set_borole_methane_100_dimer_mol1.chk"
 Charge =  0 Multiplicity = 1

                         Standard orientation:
 ---------------------------------------------------------------------
 Center     Atomic      Atomic             Coordinates (Angstroms)
 Number     Number       Type             X           Y           Z
 ---------------------------------------------------------------------
      1          5           0       -0.065129   -0.163800    1.201798
      2          6           0       -0.741701   -1.267199    0.295678
      3          6           0       -0.448158    1.204300    0.511938
      4          1           0        0.547830   -0.325441    2.210558
      5          6           0       -1.397320   -0.605669   -0.659482
      6          1           0       -0.741162   -2.343249    0.384298
      7          6           0       -1.219128    0.887491   -0.529392
      8          1           0       -0.195537    2.218800    0.781428
      9          1           0       -1.995770   -1.042698   -1.449672
     10          1           0       -1.680728    1.580212   -1.222512
     11          6           0        2.722671   -0.058053   -0.443032
     12          1           0        3.648470   -0.548104   -0.736092
     13          1           0        2.694022    0.950107   -0.848552
     14          1           0        1.876830   -0.625552   -0.826552
     15          1           0        2.673511   -0.010303    0.643858
 ---------------------------------------------------------------------

 SCF Done:  E(RHF) =  -220.329255505     A.U. after    2 cycles

 The electronic state is 1-A.
 Alpha  occ. eigenvalues --  -11.46477 -11.40131 -11.36468 -11.35581 -11.34671
 Alpha  occ. eigenvalues --   -7.61052  -1.30192  -1.03255  -1.02902  -0.92418
 Alpha  occ. eigenvalues --   -0.73282  -0.72758  -0.68484  -0.54790  -0.53802
 Alpha  occ. eigenvalues --   -0.53551  -0.53445  -0.47130  -0.45444  -0.43693
 Alpha  occ. eigenvalues --   -0.41152  -0.30305
 Alpha virt. eigenvalues --    0.03114   0.03318   0.04471   0.04668   0.05225
 Alpha virt. eigenvalues --    0.05724   0.06061   0.06854   0.07476   0.08559
 Alpha virt. eigenvalues --    0.08820   0.09035   0.11760   0.12879   0.14011

 Mulliken charges:
               1
     1  B    8.754455
     2  C   -3.300447
     3  C   -3.288291
     4  H   -4.771120
     5  C   -1.411764
     6  H    1.292356
     7  C   -1.415101
     8  H    1.375299
     9  H    1.401063
    10  H    1.400133
    11  C   -5.366893
    12  H    1.167794
    13  H    1.258326
    14  H    1.465273
    15  H    1.438916
 Sum of Mulliken charges =  -0.00000

 Dipole moment (field-independent basis, Debye):
    X=             -0.6936    Y=              0.2167    Z=             -1.2480  Tot=              1.4442

 Test job not archived.
 1\1\GINC-SE219\SP\RHF\Aug-CC-pVDZ\C5H9B1\OHZDE\08-Apr-2025\0\\#t hf au
 g-cc-pvdz iop(5/13=1,5/36=2,99/5=2) pseudo=read geom=check guess=(read
 ,tcheck) scf=(maxcycle=1)\\title\\0,1\B,0,0.06513,-0.1638,-1.2018\C,0,
 0.7417,-1.2672,-0.29568\C,0,0.44816,1.2043,-0.51194\H,0,-0.54783,-0.32
 544,-2.21056\C,0,1.39732,-0.60567,0.65948\H,0,0.74116,-2.34325,-0.3843
 \C,0,1.21913,0.88749,0.52939\H,0,0.19554,2.2188,-0.78143\H,0,1.99577,-
 1.0427,1.44967\H,0,1.68073,1.58021,1.22251\C,0,-2.72267,-0.05805,0.443
 03\H,0,-3.64847,-0.5481,0.73609\H,0,-2.69402,0.95011,0.84855\H,0,-1.87

 Normal termination of Gaussian 16 at Tue Apr  8 22:27:43 2025.
