 Gaussian 16, Revision C.01,

 ----------------------------------------------------------------------
 #t hf aug-cc-pvdz symm=none int=(grid=ultrafine) guess=(read,tcheck) s
 table=(opt,rrhf)
 ----------------------------------------------------------------------
 -----
 title
 -----
 Symbolic Z-matrix:
 Charge =  0 Multiplicity = 1

 SCF Done:  E(RHF) =  -464.895153639     A.U. after   15 cycles
 Normal termination of Gaussian 16 at Tue Apr  8 22:26:44 2025.
 Gaussian 16:  ES64L-G16RevC.01  3-Jul-2019

 ----------------------------------------------------------------------
 #t hf aug-cc-pvdz iop(5/13=1,5/36=2,99/5=2) pseudo=read geom=check gue
 ss=(read,tcheck) scf=(maxcycle=1)
 ----------------------------------------------------------------------
 -----
 title
 -----
 Structure from the checkpoint file:  "B-set_azaborine_benzene_105_dimer_mol1.chk"
 Charge =  0 Multiplicity = 1

                         Standard orientation:
 ---------------------------------------------------------------------
 Center     Atomic      Atomic             Coordinates (Angstroms)
 Number     Number       Type             X           Y           Z
 ---------------------------------------------------------------------
      1          7           0        1.103943    0.198824   -0.055363
      2          5           0        1.907334    1.377022   -0.031385
      3          6           0        1.615611   -1.057236   -0.037832
      4          1           0        0.098689    0.260705   -0.085403
      5          6           0        3.396868    1.128135    0.014706
      6          1           0        1.352239    2.434603   -0.049115
      7          6           0        2.956387   -1.266470    0.003719
      8          1           0        0.905205   -1.872199   -0.058160
      9          6           0        3.846131   -0.161684    0.029812
     10          1           0        4.131374    1.923727    0.036587
     11          1           0        3.334087   -2.277695    0.016752
     12          1           0        4.909229   -0.376043    0.062670
     13          6           0       -2.417621   -0.168627    1.390865
     14          6           0       -2.475111    1.105365    0.844463
     15          6           0       -2.393387   -1.279439    0.559883
     16          1           0       -2.386112   -0.295387    2.464040
     17          6           0       -2.507666    1.268733   -0.533161
     18          1           0       -2.485784    1.971315    1.491418
     19          6           0       -2.425762   -1.116421   -0.817821
     20          1           0       -2.348455   -2.272191    0.986464
     21          6           0       -2.482712    0.157780   -1.364343
     22          1           0       -2.543929    2.261761   -0.958788
     23          1           0       -2.405308   -1.981715   -1.466040
     24          1           0       -2.501931    0.285425   -2.437711
 ---------------------------------------------------------------------

 SCF Done:  E(RHF) =  -467.136517998     A.U. after    2 cycles

 The electronic state is 1-A.
 Alpha  occ. eigenvalues --  -15.73667 -11.52817 -11.46173 -11.43537 -11.43434
 Alpha  occ. eigenvalues --  -11.42583 -11.41237 -11.41048 -11.37051 -11.36947
 Alpha  occ. eigenvalues --  -11.33461  -7.58229  -1.43887  -1.35182  -1.18163
 Alpha  occ. eigenvalues --   -1.10268  -1.10239  -1.06872  -0.86865  -0.86858
 Alpha  occ. eigenvalues --   -0.85620  -0.84111  -0.73500  -0.72795  -0.66386
 Alpha  occ. eigenvalues --   -0.64308  -0.60052  -0.59257  -0.59235  -0.56994
 Alpha  occ. eigenvalues --   -0.54704  -0.53290  -0.52100  -0.51444  -0.45623
 Alpha  occ. eigenvalues --   -0.45613  -0.43097  -0.40237  -0.37062  -0.34367
 Alpha  occ. eigenvalues --   -0.34257  -0.28518
 Alpha virt. eigenvalues --    0.03065   0.04335   0.04437   0.04544   0.05230
 Alpha virt. eigenvalues --    0.05814   0.05942   0.06573   0.06663   0.06703
 Alpha virt. eigenvalues --    0.07084   0.07955   0.09464   0.09736   0.10200

 Mulliken charges:
               1
     1  N   -3.734149
     2  B    6.433642
     3  C   -0.007112
     4  H    1.211411
     5  C   -3.480783
     6  H   -4.328155
     7  C   -0.838644
     8  H    1.817907
     9  C   -0.982247
    10  H    1.345316
    11  H    1.471167
    12  H    1.478369
    13  C   -1.731623
    14  C   -1.671351
    15  C   -1.592521
    16  H    1.614224
    17  C   -1.728482
    18  H    1.616674
    19  C   -1.719886
    20  H    1.610968
    21  C   -1.667227
    22  H    1.627253
    23  H    1.625728
    24  H    1.629522
 Sum of Mulliken charges =  -0.00000

 Dipole moment (field-independent basis, Debye):
    X=             -2.0814    Y=             -1.7368    Z=             -0.0025  Tot=              2.7109

 Test job not archived.
 1\1\GINC-SE252\SP\RHF\Aug-CC-pVDZ\C10H12B1N1\OHZDE\08-Apr-2025\0\\#t h
 f aug-cc-pvdz iop(5/13=1,5/36=2,99/5=2) pseudo=read geom=check guess=(
 read,tcheck) scf=(maxcycle=1)\\title\\0,1\N,0,-0.98689,0.19856,0.05529
 \B,0,-1.78972,1.37715,0.03178\C,0,-1.49918,-1.05725,0.03801\H,0,0.0184
 1,0.25995,0.08478\C,0,-3.2794,1.12899,-0.0135\H,0,-1.2341,2.43446,0.04
 923\C,0,-2.84008,-1.26583,-0.00281\H,0,-0.78916,-1.87256,0.05793\C,0,-
 3.7293,-0.16061,-0.02839\H,0,-4.01353,1.92494,-0.03496\H,0,-3.21828,-2
 .27687,-0.01566\H,0,-4.79252,-0.37445,-0.06067\C,0,2.53370121,-0.17057

 Normal termination of Gaussian 16 at Tue Apr  8 22:27:00 2025.
