 Gaussian 16, Revision C.01,

 ----------------------------------------------------------------------
 #t hf aug-cc-pvdz symm=none int=(grid=ultrafine) guess=(read,tcheck) s
 table=(opt,rrhf)
 ----------------------------------------------------------------------
 -----
 title
 -----
 Symbolic Z-matrix:
 Charge =  0 Multiplicity = 1

 SCF Done:  E(RHF) =  -251.236443217     A.U. after   11 cycles
 Normal termination of Gaussian 16 at Tue Apr  8 22:24:46 2025.
 Gaussian 16:  ES64L-G16RevC.01  3-Jul-2019

 ----------------------------------------------------------------------
 #t hf aug-cc-pvdz iop(5/13=1,5/36=2,99/5=2) pseudo=read geom=check gue
 ss=(read,tcheck) scf=(maxcycle=1)
 ----------------------------------------------------------------------
 -----
 title
 -----
 Structure from the checkpoint file:  "B-set_boricacid_boricacid_090_dimer_mol2.chk"
 Charge =  0 Multiplicity = 1

                         Standard orientation:
 ---------------------------------------------------------------------
 Center     Atomic      Atomic             Coordinates (Angstroms)
 Number     Number       Type             X           Y           Z
 ---------------------------------------------------------------------
      1          5           0       -0.020761    0.006753   -0.000017
      2          8           0        0.753433    1.131482    0.000012
      3          8           0       -1.367348    0.075053   -0.000069
      4          8           0        0.627820   -1.214224   -0.000033
      5          1           0        0.232742    1.932252    0.000113
      6          1           0       -1.819263   -0.782111    0.000525
      7          1           0        1.579088   -1.122395    0.000174
 ---------------------------------------------------------------------

 SCF Done:  E(RHF) =  -252.256755179     A.U. after    2 cycles

 The electronic state is 1-A.
 Alpha  occ. eigenvalues --  -21.05831 -21.05762 -21.05488  -7.65501  -1.88020
 Alpha  occ. eigenvalues --   -1.66799  -1.65685  -0.78280  -0.64914  -0.64165
 Alpha  occ. eigenvalues --   -0.52569  -0.51854  -0.40298  -0.38568  -0.37052
 Alpha  occ. eigenvalues --   -0.36504
 Alpha virt. eigenvalues --    0.03247   0.04917   0.05047   0.05335   0.07909
 Alpha virt. eigenvalues --    0.08508   0.08560   0.15226   0.21065   0.21349
 Alpha virt. eigenvalues --    0.22339   0.22390   0.22508   0.22897   0.23960

 Mulliken charges:
               1
     1  B    7.873756
     2  O   -3.664104
     3  O   -3.716950
     4  O   -3.596397
     5  H    1.032338
     6  H    1.029261
     7  H    1.042095
 Sum of Mulliken charges =   0.00000

 Dipole moment (field-independent basis, Debye):
    X=             -0.0843    Y=              0.0227    Z=              0.0008  Tot=              0.0873

 Test job not archived.
 1\1\GINC-SE364\SP\RHF\Aug-CC-pVDZ\B1H3O3\OHZDE\08-Apr-2025\0\\#t hf au
 g-cc-pvdz iop(5/13=1,5/36=2,99/5=2) pseudo=read geom=check guess=(read
 ,tcheck) scf=(maxcycle=1)\\title\\0,1\B,0,2.06504,0.02667,-0.0001\O,0,
 3.42239,-0.12163,0.00046\O,0,1.48665,1.24463,-0.00073\O,0,1.2976,-1.12
 332,-0.00004\H,0,3.88051,0.71651,0.00047\H,0,0.51769,1.23606,-0.00048\
 H,0,1.82952,-1.9173,0.0006\\Version=ES64L-G16RevC.01\State=1-A\HF=-252
 .2567552\RMSD=1.376e-01\Dipole=-0.0078764,0.0334256,0.000309\Quadrupol
 e=0.8007649,0.5353227,-1.3360877,-0.1389435,-0.0002063,-0.0002615\PG=C

 Normal termination of Gaussian 16 at Tue Apr  8 22:24:49 2025.
