 Gaussian 16, Revision C.01,

 ----------------------------------------------------------------------
 #t hf aug-cc-pvdz symm=none int=(grid=ultrafine) guess=(read,tcheck) s
 table=(opt,rrhf)
 ----------------------------------------------------------------------
 -----
 title
 -----
 Symbolic Z-matrix:
 Charge =  0 Multiplicity = 1

 SCF Done:  E(RHF) =  -219.224343031     A.U. after   14 cycles
 Normal termination of Gaussian 16 at Tue Apr  8 22:27:40 2025.
 Gaussian 16:  ES64L-G16RevC.01  3-Jul-2019

 ----------------------------------------------------------------------
 #t hf aug-cc-pvdz iop(5/13=1,5/36=2,99/5=2) pseudo=read geom=check gue
 ss=(read,tcheck) scf=(maxcycle=1)
 ----------------------------------------------------------------------
 -----
 title
 -----
 Structure from the checkpoint file:  "B-set_borole_methane_095_dimer_mol1.chk"
 Charge =  0 Multiplicity = 1

                         Standard orientation:
 ---------------------------------------------------------------------
 Center     Atomic      Atomic             Coordinates (Angstroms)
 Number     Number       Type             X           Y           Z
 ---------------------------------------------------------------------
      1          5           0       -0.000440   -0.167545    1.194901
      2          6           0       -0.699731   -1.266417    0.300605
      3          6           0       -0.393369    1.203546    0.516644
      4          1           0        0.633170   -0.333750    2.190068
      5          6           0       -1.373176   -0.600320   -0.638851
      6          1           0       -0.700937   -2.342682    0.386564
      7          6           0       -1.187251    0.891910   -0.508912
      8          1           0       -0.131694    2.216523    0.783207
      9          1           0       -1.989670   -1.033377   -1.417268
     10          1           0       -1.661073    1.587896   -1.190416
     11          6           0        2.577132   -0.062754   -0.474831
     12          1           0        3.494873   -0.555130   -0.788609
     13          1           0        2.543304    0.946511   -0.877189
     14          1           0        1.721466   -0.626484   -0.841755
     15          1           0        2.551131   -0.017574    0.612969
 ---------------------------------------------------------------------

 SCF Done:  E(RHF) =  -220.330819970     A.U. after    2 cycles

 The electronic state is 1-A.
 Alpha  occ. eigenvalues --  -11.46450 -11.40123 -11.36445 -11.35615 -11.34711
 Alpha  occ. eigenvalues --   -7.61032  -1.30171  -1.03250  -1.03086  -0.92380
 Alpha  occ. eigenvalues --   -0.73256  -0.72774  -0.68490  -0.54766  -0.54107
 Alpha  occ. eigenvalues --   -0.53669  -0.53496  -0.47073  -0.45240  -0.43655
 Alpha  occ. eigenvalues --   -0.41130  -0.30297
 Alpha virt. eigenvalues --    0.03233   0.03348   0.04477   0.04671   0.05313
 Alpha virt. eigenvalues --    0.05719   0.06034   0.06849   0.07490   0.08578
 Alpha virt. eigenvalues --    0.08818   0.09101   0.11766   0.12915   0.14007

 Mulliken charges:
               1
     1  B    8.978101
     2  C   -3.417048
     3  C   -3.304085
     4  H   -4.848239
     5  C   -1.353244
     6  H    1.269220
     7  C   -1.449833
     8  H    1.358789
     9  H    1.394945
    10  H    1.394928
    11  C   -5.393060
    12  H    1.137134
    13  H    1.283676
    14  H    1.535962
    15  H    1.412753
 Sum of Mulliken charges =   0.00000

 Dipole moment (field-independent basis, Debye):
    X=             -0.6593    Y=              0.2193    Z=             -1.2491  Tot=              1.4293

 Test job not archived.
 1\1\GINC-SE109\SP\RHF\Aug-CC-pVDZ\C5H9B1\OHZDE\08-Apr-2025\0\\#t hf au
 g-cc-pvdz iop(5/13=1,5/36=2,99/5=2) pseudo=read geom=check guess=(read
 ,tcheck) scf=(maxcycle=1)\\title\\0,1\B,0,0.06513,-0.1638,-1.2018\C,0,
 0.7417,-1.2672,-0.29568\C,0,0.44816,1.2043,-0.51194\H,0,-0.54783,-0.32
 544,-2.21056\C,0,1.39732,-0.60567,0.65948\H,0,0.74116,-2.34325,-0.3843
 \C,0,1.21913,0.88749,0.52939\H,0,0.19554,2.2188,-0.78143\H,0,1.99577,-
 1.0427,1.44967\H,0,1.68073,1.58021,1.22251\C,0,-2.54683095,-0.0544174,
 0.4133031\H,0,-3.47263095,-0.5444674,0.7063631\H,0,-2.51818095,0.95374

 Normal termination of Gaussian 16 at Tue Apr  8 22:27:44 2025.
