 Gaussian 16, Revision C.01,

 ----------------------------------------------------------------------
 #t hf aug-cc-pvdz symm=none int=(grid=ultrafine) guess=(read,tcheck) s
 table=(opt,rrhf)
 ----------------------------------------------------------------------
 -----
 title
 -----
 Symbolic Z-matrix:
 Charge =  0 Multiplicity = 1

 SCF Done:  E(RHF) =  -481.965260678     A.U. after   14 cycles
 Normal termination of Gaussian 16 at Tue Apr  8 22:24:55 2025.
 Gaussian 16:  ES64L-G16RevC.01  3-Jul-2019

 ----------------------------------------------------------------------
 #t hf aug-cc-pvdz iop(5/13=1,5/36=2,99/5=2) pseudo=read geom=check gue
 ss=(read,tcheck) scf=(maxcycle=1)
 ----------------------------------------------------------------------
 -----
 title
 -----
 Structure from the checkpoint file:  "B-set_boricacid_benzene_095_dimer_mol1.chk"
 Charge =  0 Multiplicity = 1

                         Standard orientation:
 ---------------------------------------------------------------------
 Center     Atomic      Atomic             Coordinates (Angstroms)
 Number     Number       Type             X           Y           Z
 ---------------------------------------------------------------------
      1          5           0        2.349541   -0.200844   -0.004834
      2          8           0        3.627790   -0.688503   -0.021897
      3          8           0        1.294701   -1.058555   -0.018753
      4          8           0        2.154815    1.154284    0.026338
      5          1           0        3.651787   -1.643076   -0.043274
      6          1           0        0.443439   -0.615424   -0.005115
      7          1           0        2.980714    1.634266    0.033035
      8          6           0       -2.586373   -0.724175   -0.726177
      9          6           0       -1.789895    0.202140   -1.382880
     10          6           0       -2.594267   -0.773973    0.659800
     11          1           0       -3.198435   -1.410462   -1.295121
     12          6           0       -0.999699    1.078942   -0.653346
     13          1           0       -1.780000    0.237686   -2.463557
     14          6           0       -1.805723    0.102572    1.390274
     15          1           0       -3.212402   -1.499100    1.171090
     16          6           0       -1.007673    1.029123    0.734431
     17          1           0       -0.363254    1.790899   -1.159499
     18          1           0       -1.808212    0.060653    2.470765
     19          1           0       -0.378005    1.703205    1.297743
 ---------------------------------------------------------------------

 SCF Done:  E(RHF) =  -484.111774760     A.U. after    2 cycles

 The electronic state is 1-A.
 Alpha  occ. eigenvalues --  -21.05234 -21.05033 -21.03728 -11.52138 -11.42895
 Alpha  occ. eigenvalues --  -11.42577 -11.40362 -11.40252 -11.36208  -7.64482
 Alpha  occ. eigenvalues --   -1.87287  -1.65850  -1.65327  -1.34653  -1.09518
 Alpha  occ. eigenvalues --   -1.09451  -0.86124  -0.86080  -0.77415  -0.72724
 Alpha  occ. eigenvalues --   -0.65641  -0.63997  -0.63859  -0.58545  -0.58379
 Alpha  occ. eigenvalues --   -0.56259  -0.51738  -0.51511  -0.50870  -0.44872
 Alpha  occ. eigenvalues --   -0.44835  -0.38962  -0.38620  -0.36316  -0.35995
 Alpha  occ. eigenvalues --   -0.33119  -0.32577
 Alpha virt. eigenvalues --    0.03323   0.04360   0.04896   0.04919   0.05556
 Alpha virt. eigenvalues --    0.05789   0.06637   0.06768   0.07575   0.07903
 Alpha virt. eigenvalues --    0.08658   0.09898   0.11213   0.11444   0.11774

 Mulliken charges:
               1
     1  B    8.375777
     2  O   -4.007676
     3  O   -4.413908
     4  O   -4.075059
     5  H    1.192115
     6  H    2.162692
     7  H    1.232826
     8  C   -1.592466
     9  C   -1.684043
    10  C   -1.583781
    11  H    1.519190
    12  C   -1.676507
    13  H    1.530450
    14  C   -1.686956
    15  H    1.518626
    16  C   -1.672582
    17  H    1.671390
    18  H    1.529467
    19  H    1.660447
 Sum of Mulliken charges =  -0.00000

 Dipole moment (field-independent basis, Debye):
    X=             -0.4653    Y=              0.1288    Z=              0.0000  Tot=              0.4828

 Test job not archived.
 1\1\GINC-SE339\SP\RHF\Aug-CC-pVDZ\C6H9B1O3\OHZDE\08-Apr-2025\0\\#t hf
 aug-cc-pvdz iop(5/13=1,5/36=2,99/5=2) pseudo=read geom=check guess=(re
 ad,tcheck) scf=(maxcycle=1)\\title\\0,1\B,0,2.47525,0.1904,0.00446\O,0
 ,3.75759,0.66722,0.02093\O,0,1.42772,1.05703,0.01798\O,0,2.26904,-1.16
 305,-0.02572\H,0,3.78968,1.62157,0.04163\H,0,0.57273,0.62112,0.00482\H
 ,0,3.09084,-1.65002,-0.03224\C,0,-2.45590624,0.75605226,0.7263947\C,0,
 -1.66717624,-0.17651774,1.3835947\C,0,-2.46365624,0.80494226,-0.659615
 3\H,0,-3.06201624,1.44790226,1.2949747\C,0,-0.88458624,-1.06049774,0.6

 Normal termination of Gaussian 16 at Tue Apr  8 22:25:05 2025.
