 Gaussian 16, Revision C.01,

 ----------------------------------------------------------------------
 #t hf aug-cc-pvdz symm=none int=(grid=ultrafine) guess=(read,tcheck) s
 table=(opt,rrhf)
 ----------------------------------------------------------------------
 -----
 title
 -----
 Symbolic Z-matrix:
 Charge =  0 Multiplicity = 1

 SCF Done:  E(RHF) =  -360.434732915     A.U. after   15 cycles

 1\1\GINC-SE029\Stability\RHF\Aug-CC-pVDZ\C8H14B2\OHZDE\08-Apr-2025\0\\
 #t hf aug-cc-pvdz symm=none int=(grid=ultrafine) guess=(read,tcheck) s
 table=(opt,rrhf)\\title\\0,1\B,0,-1.44421,-0.34378,-1.38976\C,0,-1.353
 82,1.11975,-0.80607\C,0,-2.20691,-1.16484,-0.27513\H,0,-1.05979,-0.732
 25,-2.44825\C,0,-1.96773,1.08262,0.37927\H,0,-0.92918,2.01911,-1.22576
 \C,0,-2.47978,-0.29789,0.7014\H,0,-2.48296,-2.20807,-0.24206\H,0,-2.10
 422,1.91644,1.05668\H,0,-2.99941,-0.51278,1.627\B,0,1.48482309,1.04002
 431,0.89921569\C,0,1.23798309,-0.43757569,1.36156569\C,0,2.31978309,0.

 Normal termination of Gaussian 16 at Tue Apr  8 22:29:37 2025.
 Gaussian 16:  ES64L-G16RevC.01  3-Jul-2019

 ----------------------------------------------------------------------
 #t hf aug-cc-pvdz iop(5/13=1,5/36=2,99/5=2) pseudo=read geom=check gue
 ss=(read,tcheck) scf=(maxcycle=1)
 ----------------------------------------------------------------------
 -----
 title
 -----
 Structure from the checkpoint file:  "B-set_borole_borolane_105_dimer_mol1.chk"
 Charge =  0 Multiplicity = 1

                         Standard orientation:
 ---------------------------------------------------------------------
 Center     Atomic      Atomic             Coordinates (Angstroms)
 Number     Number       Type             X           Y           Z
 ---------------------------------------------------------------------
      1          5           0       -1.556807   -0.335834   -1.383802
      2          6           0       -1.467156    1.123084   -0.788566
      3          6           0       -2.299229   -1.171193   -0.266110
      4          1           0       -1.184632   -0.712729   -2.450819
      5          6           0       -2.064515    1.071901    0.404681
      6          1           0       -1.053690    2.028632   -1.206102
      7          6           0       -2.563847   -0.314452    0.721638
      8          1           0       -2.568567   -2.216333   -0.238437
      9          1           0       -2.196674    1.898948    1.091193
     10          1           0       -3.069438   -0.540550    1.652329
     11          5           0        1.395039    1.045807    0.877002
     12          6           0        1.163390   -0.437237    1.329682
     13          6           0        2.211933    1.010423   -0.467410
     14          1           0        1.072929    2.026904    1.478509
     15          1           0        1.918998   -0.624443    2.107789
     16          1           0        0.201988   -0.676315    1.783320
     17          6           0        1.499152   -1.262528    0.079758
     18          6           0        2.594559   -0.471679   -0.644642
     19          1           0        1.528399    1.322210   -1.266405
     20          1           0        3.055199    1.700211   -0.521443
     21          1           0        0.611268   -1.323851   -0.563320
     22          1           0        1.789145   -2.291335    0.293844
     23          1           0        2.705470   -0.770628   -1.686813
     24          1           0        3.552724   -0.660502   -0.153835
 ---------------------------------------------------------------------

 SCF Done:  E(RHF) =  -362.238919687     A.U. after    2 cycles

 The electronic state is 1-A.
 Alpha  occ. eigenvalues --  -11.47430 -11.41759 -11.40968 -11.37734 -11.37275
 Alpha  occ. eigenvalues --  -11.35266 -11.33016 -11.32515  -7.61561  -7.58503
 Alpha  occ. eigenvalues --   -1.30673  -1.28537  -1.03785  -1.03441  -0.97643
 Alpha  occ. eigenvalues --   -0.92882  -0.80468  -0.73661  -0.73177  -0.70350
 Alpha  occ. eigenvalues --   -0.68843  -0.63776  -0.63263  -0.56540  -0.54995
 Alpha  occ. eigenvalues --   -0.50647  -0.47473  -0.46206  -0.45200  -0.44106
 Alpha  occ. eigenvalues --   -0.43823  -0.42743  -0.41514  -0.40476  -0.37394
 Alpha  occ. eigenvalues --   -0.30833
 Alpha virt. eigenvalues --    0.02951   0.03617   0.04208   0.04328   0.04424
 Alpha virt. eigenvalues --    0.05027   0.05421   0.05620   0.06147   0.06823
 Alpha virt. eigenvalues --    0.07256   0.07361   0.07806   0.08320   0.08736

 Mulliken charges:
               1
     1  B    8.380709
     2  C   -3.176634
     3  C   -3.243473
     4  H   -5.034285
     5  C   -1.423735
     6  H    1.625707
     7  C   -1.716460
     8  H    1.416957
     9  H    1.604607
    10  H    1.518037
    11  B    9.237592
    12  C   -4.294702
    13  C   -4.138253
    14  H   -6.096847
    15  H    1.390106
    16  H    2.040319
    17  C   -4.118813
    18  C   -3.314206
    19  H    1.827665
    20  H    1.443554
    21  H    2.071914
    22  H    1.276834
    23  H    1.366059
    24  H    1.357347
 Sum of Mulliken charges =   0.00000

 Dipole moment (field-independent basis, Debye):
    X=             -0.5465    Y=             -0.0621    Z=              1.0390  Tot=              1.1756

 Test job not archived.
 1\1\GINC-SE029\SP\RHF\Aug-CC-pVDZ\C8H14B2\OHZDE\08-Apr-2025\0\\#t hf a
 ug-cc-pvdz iop(5/13=1,5/36=2,99/5=2) pseudo=read geom=check guess=(rea
 d,tcheck) scf=(maxcycle=1)\\title\\0,1\B,0,-1.44421,-0.34378,-1.38976\
 C,0,-1.35382,1.11975,-0.80607\C,0,-2.20691,-1.16484,-0.27513\H,0,-1.05
 979,-0.73225,-2.44825\C,0,-1.96773,1.08262,0.37927\H,0,-0.92918,2.0191
 1,-1.22576\C,0,-2.47978,-0.29789,0.7014\H,0,-2.48296,-2.20807,-0.24206
 \H,0,-2.10422,1.91644,1.05668\H,0,-2.99941,-0.51278,1.627\B,0,1.484823
 09,1.04002431,0.89921569\C,0,1.23798309,-0.43757569,1.36156569\C,0,2.3

 Normal termination of Gaussian 16 at Tue Apr  8 22:29:53 2025.
