 Gaussian 16, Revision C.01,

 ----------------------------------------------------------------------
 #t hf aug-cc-pvdz symm=none int=(grid=ultrafine) guess=(read,tcheck) s
 table=(opt,rrhf)
 ----------------------------------------------------------------------
 -----
 title
 -----
 Symbolic Z-matrix:
 Charge =  0 Multiplicity = 1

 SCF Done:  E(RHF) =  -464.880460223     A.U. after   15 cycles
 Normal termination of Gaussian 16 at Tue Apr  8 22:26:15 2025.
 Gaussian 16:  ES64L-G16RevC.01  3-Jul-2019

 ----------------------------------------------------------------------
 #t hf aug-cc-pvdz iop(5/13=1,5/36=2,99/5=2) pseudo=read geom=check gue
 ss=(read,tcheck) scf=(maxcycle=1)
 ----------------------------------------------------------------------
 -----
 title
 -----
 Structure from the checkpoint file:  "B-set_azaborine_benzene_090_dimer_mol1.chk"
 Charge =  0 Multiplicity = 1

                         Standard orientation:
 ---------------------------------------------------------------------
 Center     Atomic      Atomic             Coordinates (Angstroms)
 Number     Number       Type             X           Y           Z
 ---------------------------------------------------------------------
      1          7           0        0.752719    0.197885   -0.054973
      2          5           0        1.554123    1.377467   -0.032637
      3          6           0        1.266585   -1.057290   -0.038332
      4          1           0       -0.252696    0.258030   -0.083077
      5          6           0        3.044170    1.131151    0.010598
      6          1           0        0.997173    2.434089   -0.049377
      7          6           0        2.607796   -1.264210    0.000646
      8          1           0        0.557546   -1.873478   -0.057226
      9          6           0        3.495684   -0.157891    0.024937
     10          1           0        3.777345    1.928009    0.030999
     11          1           0        2.987263   -2.274781    0.013029
     12          1           0        4.559211   -0.370414    0.055759
     13          6           0       -2.063868   -0.169843    1.393006
     14          6           0       -2.124607    1.104003    0.846618
     15          6           0       -2.039323   -1.280679    0.562065
     16          1           0       -2.030068   -0.296462    2.466128
     17          6           0       -2.160103    1.267203   -0.530954
     18          1           0       -2.135524    1.969986    1.493524
     19          6           0       -2.074638   -1.117828   -0.815587
     20          1           0       -1.991856   -2.273318    0.988636
     21          6           0       -2.134838    0.156228   -1.362097
     22          1           0       -2.198899    2.260133   -0.956587
     23          1           0       -2.053944   -1.983139   -1.463777
     24          1           0       -2.156349    0.283753   -2.435435
 ---------------------------------------------------------------------

 SCF Done:  E(RHF) =  -467.133640502     A.U. after    2 cycles

 The electronic state is 1-A.
 Alpha  occ. eigenvalues --  -15.72454 -11.53160 -11.46188 -11.44074 -11.43719
 Alpha  occ. eigenvalues --  -11.42314 -11.41611 -11.41399 -11.37677 -11.36732
 Alpha  occ. eigenvalues --  -11.33191  -7.57797  -1.43626  -1.35804  -1.17795
 Alpha  occ. eigenvalues --   -1.10899  -1.10820  -1.06491  -0.87363  -0.87315
 Alpha  occ. eigenvalues --   -0.85390  -0.83816  -0.74164  -0.72704  -0.66663
 Alpha  occ. eigenvalues --   -0.64254  -0.60013  -0.59683  -0.59610  -0.57267
 Alpha  occ. eigenvalues --   -0.54401  -0.53357  -0.51790  -0.50748  -0.45896
 Alpha  occ. eigenvalues --   -0.45876  -0.42702  -0.39771  -0.37358  -0.34867
 Alpha  occ. eigenvalues --   -0.34058  -0.28058
 Alpha virt. eigenvalues --    0.03225   0.04351   0.04541   0.04631   0.05364
 Alpha virt. eigenvalues --    0.05868   0.05898   0.06699   0.06785   0.06858
 Alpha virt. eigenvalues --    0.07083   0.07892   0.09403   0.09685   0.10303

 Mulliken charges:
               1
     1  N   -3.549507
     2  B    6.260736
     3  C   -0.090806
     4  H    2.417478
     5  C   -3.471520
     6  H   -4.340358
     7  C   -1.115383
     8  H    2.275553
     9  C   -1.141223
    10  H    1.324473
    11  H    1.435806
    12  H    1.480135
    13  C   -2.021028
    14  C   -1.829945
    15  C   -1.754531
    16  H    1.635501
    17  C   -1.790252
    18  H    1.634026
    19  C   -1.762076
    20  H    1.615223
    21  C   -2.129329
    22  H    1.646843
    23  H    1.626118
    24  H    1.644066
 Sum of Mulliken charges =  -0.00000

 Dipole moment (field-independent basis, Debye):
    X=             -2.2186    Y=             -1.7401    Z=              0.0108  Tot=              2.8196

 Test job not archived.
 1\1\GINC-SE118\SP\RHF\Aug-CC-pVDZ\C10H12B1N1\OHZDE\08-Apr-2025\0\\#t h
 f aug-cc-pvdz iop(5/13=1,5/36=2,99/5=2) pseudo=read geom=check guess=(
 read,tcheck) scf=(maxcycle=1)\\title\\0,1\N,0,-0.98689,0.19856,0.05529
 \B,0,-1.78972,1.37715,0.03178\C,0,-1.49918,-1.05725,0.03801\H,0,0.0184
 1,0.25995,0.08478\C,0,-3.2794,1.12899,-0.0135\H,0,-1.2341,2.43446,0.04
 923\C,0,-2.84008,-1.26583,-0.00281\H,0,-0.78916,-1.87256,0.05793\C,0,-
 3.7293,-0.16061,-0.02839\H,0,-4.01353,1.92494,-0.03496\H,0,-3.21828,-2
 .27687,-0.01566\H,0,-4.79252,-0.37445,-0.06067\C,0,1.83214758,-0.16576

 Normal termination of Gaussian 16 at Tue Apr  8 22:26:34 2025.
