 Gaussian 16, Revision C.01,

 ----------------------------------------------------------------------
 #t hf aug-cc-pvdz symm=none int=(grid=ultrafine) guess=(read,tcheck) s
 table=(opt,rrhf)
 ----------------------------------------------------------------------
 -----
 title
 -----
 Symbolic Z-matrix:
 Charge =  0 Multiplicity = 1

 SCF Done:  E(RHF) =  -247.038380568     A.U. after   13 cycles
 Normal termination of Gaussian 16 at Tue Apr  8 22:29:22 2025.
 Gaussian 16:  ES64L-G16RevC.01  3-Jul-2019

 ----------------------------------------------------------------------
 #t hf aug-cc-pvdz iop(5/13=1,5/36=2,99/5=2) pseudo=read geom=check gue
 ss=(read,tcheck) scf=(maxcycle=1)
 ----------------------------------------------------------------------
 -----
 title
 -----
 Structure from the checkpoint file:  "BBI-024PHE-028ALA-1_mol2.chk"
 Charge =  0 Multiplicity = 1

                         Standard orientation:
 ---------------------------------------------------------------------
 Center     Atomic      Atomic             Coordinates (Angstroms)
 Number     Number       Type             X           Y           Z
 ---------------------------------------------------------------------
      1          6           0       -1.836263   -0.523794    0.022781
      2          6           0        1.939968   -0.100883    0.027501
      3          6           0       -0.452784    0.148707   -0.012904
      4          8           0       -0.365269    1.385253   -0.010782
      5          7           0        0.602738   -0.671825   -0.067002
      6          1           0       -1.768195   -1.544349    0.389331
      7          1           0        0.475539   -1.681096   -0.013731
      8          1           0        2.085001    0.290982    1.034597
      9          1           0       -2.452938    0.068535    0.714776
     10          1           0       -2.307998   -0.508026   -0.970811
     11          1           0        2.688775   -0.886551   -0.151400
     12          1           0        2.077278    0.737076   -0.671758
 ---------------------------------------------------------------------

 SCF Done:  E(RHF) =  -248.179925865     A.U. after    2 cycles

 The electronic state is 1-A.
 Alpha  occ. eigenvalues --  -21.00898 -15.76691 -11.48711 -11.39847 -11.38397
 Alpha  occ. eigenvalues --   -1.68411  -1.39253  -1.10171  -0.98784  -0.79431
 Alpha  occ. eigenvalues --   -0.67491  -0.62903  -0.61150  -0.57632  -0.55529
 Alpha  occ. eigenvalues --   -0.51544  -0.46278  -0.45841  -0.30450  -0.27633
 Alpha virt. eigenvalues --    0.03155   0.04607   0.05256   0.06214   0.06609
 Alpha virt. eigenvalues --    0.07249   0.07719   0.11057   0.12079   0.12988
 Alpha virt. eigenvalues --    0.13452   0.14468   0.15078   0.15613   0.16797

 Mulliken charges:
               1
     1  C   -4.317416
     2  C   -3.428936
     3  C    5.117034
     4  O   -3.165403
     5  N   -2.610639
     6  H    1.283383
     7  H    0.718941
     8  H    1.268115
     9  H    1.209518
    10  H    1.241763
    11  H    1.318581
    12  H    1.365058
 Sum of Mulliken charges =   0.00000

 Dipole moment (field-independent basis, Debye):
    X=              0.8033    Y=             -2.5758    Z=              0.0970  Tot=              2.6999

 Test job not archived.
 1\1\GINC-SE250\SP\RHF\Aug-CC-pVDZ\C3H7N1O1\OHZDE\08-Apr-2025\0\\#t hf
 aug-cc-pvdz iop(5/13=1,5/36=2,99/5=2) pseudo=read geom=check guess=(re
 ad,tcheck) scf=(maxcycle=1)\\title\\0,1\C,0,0.43005695,-1.22596079,1.4
 0422318\C,0,0.07105695,1.64003921,-1.06477682\C,0,-0.06594305,-0.39896
 079,0.20522318\O,0,-0.99794305,-0.82096079,-0.49477682\N,0,0.57605695,
 0.75203921,-0.02577682\H,0,0.95505695,-0.60196079,2.12222318\H,0,1.301
 05695,1.07603921,0.61222318\H,0,-0.88894305,2.04603921,-0.74477682\H,0
 ,-0.46529305,-1.65112079,1.88128318\H,0,1.07794695,-2.05094079,1.07308

 Normal termination of Gaussian 16 at Tue Apr  8 22:29:25 2025.
