 Gaussian 16, Revision C.01,

 ----------------------------------------------------------------------
 #t hf aug-cc-pvdz symm=none int=(grid=ultrafine) guess=(read,tcheck) s
 table=(opt,rrhf)
 ----------------------------------------------------------------------
 -----
 title
 -----
 Symbolic Z-matrix:
 Charge =  0 Multiplicity = 1

 SCF Done:  E(RHF) =  -494.080737548     A.U. after   13 cycles
 Normal termination of Gaussian 16 at Tue Apr  8 22:32:12 2025.
 Gaussian 16:  ES64L-G16RevC.01  3-Jul-2019

 ----------------------------------------------------------------------
 #t hf aug-cc-pvdz iop(5/13=1,5/36=2,99/5=2) pseudo=read geom=check gue
 ss=(read,tcheck) scf=(maxcycle=1)
 ----------------------------------------------------------------------
 -----
 title
 -----
 Structure from the checkpoint file:  "BBI-007VAL-041VAL-1_mol1.chk"
 Charge =  0 Multiplicity = 1

                         Standard orientation:
 ---------------------------------------------------------------------
 Center     Atomic      Atomic             Coordinates (Angstroms)
 Number     Number       Type             X           Y           Z
 ---------------------------------------------------------------------
      1          6           0       -2.548554   -1.708696   -0.977091
      2          6           0       -2.849429    1.600806    0.860315
      3          6           0       -2.088210   -0.404606   -0.292460
      4          8           0       -0.922017    0.010822   -0.327360
      5          7           0       -3.054682    0.257643    0.334472
      6          1           0       -3.450337   -1.463889   -1.543917
      7          1           0       -3.994589   -0.134064    0.343963
      8          1           0       -2.320881    2.225629    0.138160
      9          1           0       -1.776407   -2.106929   -1.651776
     10          1           0       -2.840926   -2.433770   -0.203277
     11          1           0       -3.854061    1.981714    1.096143
     12          1           0       -2.259861    1.551662    1.787676
     13          6           0        2.287431    1.797523   -0.844374
     14          6           0        1.823146   -1.520469    1.022383
     15          6           0        2.490299   -0.386410    0.280499
     16          8           0        3.670579   -0.483609    0.007267
     17          7           0        1.750923    0.655450   -0.084662
     18          1           0        0.749808    0.627792    0.081567
     19          1           0        3.354303    1.674513   -1.038827
     20          1           0        0.783914   -1.563325    0.702732
     21          1           0        1.764923    1.891659   -1.807766
     22          1           0        2.135285    2.695467   -0.227488
     23          1           0        2.335910   -2.447488    0.726237
     24          1           0        1.822635   -1.377209    2.113015
 ---------------------------------------------------------------------

 SCF Done:  E(RHF) =  -496.368593843     A.U. after    2 cycles

 The electronic state is 1-A.
 Alpha  occ. eigenvalues --  -21.03384 -20.97113 -15.78504 -15.71605 -11.52371
 Alpha  occ. eigenvalues --  -11.45572 -11.42139 -11.40870 -11.37324 -11.35565
 Alpha  occ. eigenvalues --   -1.72103  -1.66719  -1.41847  -1.34838  -1.12713
 Alpha  occ. eigenvalues --   -1.07675  -1.00656  -0.96046  -0.81907  -0.75127
 Alpha  occ. eigenvalues --   -0.69455  -0.65286  -0.64951  -0.62979  -0.60104
 Alpha  occ. eigenvalues --   -0.59628  -0.58248  -0.57784  -0.55456  -0.54170
 Alpha  occ. eigenvalues --   -0.52495  -0.49153  -0.48818  -0.48184  -0.43871
 Alpha  occ. eigenvalues --   -0.42326  -0.33171  -0.30997  -0.26397  -0.24396
 Alpha virt. eigenvalues --    0.02259   0.03540   0.04370   0.04764   0.05426
 Alpha virt. eigenvalues --    0.05765   0.06014   0.06309   0.06668   0.07554
 Alpha virt. eigenvalues --    0.08250   0.08886   0.09902   0.10605   0.11051

 Mulliken charges:
               1
     1  C   -4.118233
     2  C   -3.857869
     3  C    5.293694
     4  O   -3.785515
     5  N   -2.823184
     6  H    1.210688
     7  H    0.734825
     8  H    1.474008
     9  H    1.382730
    10  H    1.279884
    11  H    1.312177
    12  H    1.392305
    13  C   -3.511722
    14  C   -4.575411
    15  C    5.472549
    16  O   -3.487590
    17  N   -2.960110
    18  H    1.436754
    19  H    1.415568
    20  H    1.374154
    21  H    1.391419
    22  H    1.388515
    23  H    1.216308
    24  H    1.344056
 Sum of Mulliken charges =  -0.00000

 Dipole moment (field-independent basis, Debye):
    X=             -7.0927    Y=              0.9189    Z=              0.1656  Tot=              7.1539

 Test job not archived.
 1\1\GINC-SE435\SP\RHF\Aug-CC-pVDZ\C6H14N2O2\OHZDE\08-Apr-2025\0\\#t hf
  aug-cc-pvdz iop(5/13=1,5/36=2,99/5=2) pseudo=read geom=check guess=(r
 ead,tcheck) scf=(maxcycle=1)\\title\\0,1\C,0,-0.50820164,-1.50404925,2
 .84248291\C,0,-3.29020164,0.23495075,0.93048291\C,0,-1.19020164,-0.735
 04925,1.69148291\O,0,-0.65020164,-0.52204925,0.59748291\N,0,-2.4252016
 4,-0.32504925,1.96048291\H,0,-1.22820164,-2.24804925,3.19248291\H,0,-2
 .81820164,-0.51504925,2.88048291\H,0,-3.24120164,-0.35804925,0.0154829
 1\H,0,0.41407836,-2.00123935,2.50751791\H,0,-0.32899164,-0.81087755,3.

 Normal termination of Gaussian 16 at Tue Apr  8 22:32:25 2025.
