 Gaussian 16, Revision C.01,

 ----------------------------------------------------------------------
 #t hf aug-cc-pvdz symm=none int=(grid=ultrafine) guess=(read,tcheck) s
 table=(opt,rrhf)
 ----------------------------------------------------------------------
 -----
 title
 -----
 Symbolic Z-matrix:
 Charge =  0 Multiplicity = 1

 SCF Done:  E(RHF) =  -494.074620912     A.U. after   14 cycles
 Normal termination of Gaussian 16 at Tue Apr  8 22:32:43 2025.
 Gaussian 16:  ES64L-G16RevC.01  3-Jul-2019

 ----------------------------------------------------------------------
 #t hf aug-cc-pvdz iop(5/13=1,5/36=2,99/5=2) pseudo=read geom=check gue
 ss=(read,tcheck) scf=(maxcycle=1)
 ----------------------------------------------------------------------
 -----
 title
 -----
 Structure from the checkpoint file:  "BBI-011ILE-014PHE-1_mol1.chk"
 Charge =  0 Multiplicity = 1

                         Standard orientation:
 ---------------------------------------------------------------------
 Center     Atomic      Atomic             Coordinates (Angstroms)
 Number     Number       Type             X           Y           Z
 ---------------------------------------------------------------------
      1          6           0       -2.751828   -1.467692    0.843192
      2          6           0       -1.855144    1.914376   -0.695750
      3          6           0       -2.128455   -0.440785   -0.100733
      4          8           0       -1.355558   -0.791564   -0.993415
      5          7           0       -2.442609    0.835638    0.106209
      6          1           0       -2.103813   -2.345012    0.828446
      7          1           0       -3.105038    1.064800    0.839480
      8          1           0       -2.101754    1.743304   -1.745168
      9          1           0       -2.778019   -1.068322    1.867795
     10          1           0       -3.740961   -1.777011    0.474494
     11          1           0       -2.283981    2.884499   -0.404260
     12          1           0       -0.758109    1.915744   -0.615085
     13          6           0        2.056409   -1.957244   -0.332088
     14          6           0        1.646699    1.664809    0.856514
     15          6           0        2.251426    0.422518    0.203398
     16          8           0        3.323135    0.497434   -0.399937
     17          7           0        1.572329   -0.722762    0.301627
     18          1           0        0.725250   -0.757863    0.863411
     19          1           0        3.085945   -2.134881   -0.024232
     20          1           0        2.130898    2.534853    0.411766
     21          1           0        1.446059   -2.826787   -0.046833
     22          1           0        2.085513   -1.878607   -1.428890
     23          1           0        0.561554    1.735776    0.690923
     24          1           0        1.873164    1.656517    1.932914
 ---------------------------------------------------------------------

 SCF Done:  E(RHF) =  -496.362618288     A.U. after    2 cycles

 The electronic state is 1-A.
 Alpha  occ. eigenvalues --  -21.02027 -20.99528 -15.77716 -15.74746 -11.50436
 Alpha  occ. eigenvalues --  -11.47845 -11.41396 -11.39960 -11.38387 -11.38276
 Alpha  occ. eigenvalues --   -1.70339  -1.67690  -1.40236  -1.36935  -1.11893
 Alpha  occ. eigenvalues --   -1.09450  -1.00280  -0.97652  -0.80329  -0.77568
 Alpha  occ. eigenvalues --   -0.68805  -0.66596  -0.64738  -0.62185  -0.61568
 Alpha  occ. eigenvalues --   -0.60401  -0.58806  -0.56839  -0.56115  -0.53922
 Alpha  occ. eigenvalues --   -0.53279  -0.50944  -0.47820  -0.47204  -0.45153
 Alpha  occ. eigenvalues --   -0.44365  -0.31988  -0.29040  -0.28426  -0.26493
 Alpha virt. eigenvalues --    0.02655   0.03723   0.04525   0.04726   0.05328
 Alpha virt. eigenvalues --    0.05686   0.06147   0.06885   0.07418   0.07584
 Alpha virt. eigenvalues --    0.08119   0.08711   0.08993   0.09799   0.11542

 Mulliken charges:
               1
     1  C   -4.385724
     2  C   -4.145829
     3  C    5.640866
     4  O   -3.291146
     5  N   -2.701227
     6  H    1.279136
     7  H    0.795799
     8  H    1.367250
     9  H    1.262941
    10  H    1.245959
    11  H    1.308356
    12  H    1.749916
    13  C   -3.705867
    14  C   -5.143422
    15  C    5.765021
    16  O   -3.359705
    17  N   -2.975893
    18  H    0.922595
    19  H    1.375112
    20  H    1.169728
    21  H    1.422498
    22  H    1.424202
    23  H    1.753680
    24  H    1.225754
 Sum of Mulliken charges =  -0.00000

 Dipole moment (field-independent basis, Debye):
    X=             -4.1829    Y=              0.3965    Z=              2.1146  Tot=              4.7038

 Test job not archived.
 1\1\GINC-SE096\SP\RHF\Aug-CC-pVDZ\C6H14N2O2\OHZDE\08-Apr-2025\0\\#t hf
  aug-cc-pvdz iop(5/13=1,5/36=2,99/5=2) pseudo=read geom=check guess=(r
 ead,tcheck) scf=(maxcycle=1)\\title\\0,1\C,0,-2.06462623,1.62744846,-1
 .93389649\C,0,1.48137378,2.25444846,-0.65189649\C,0,-0.59062622,1.3844
 4846,-1.61389649\O,0,-0.06662622,0.29344846,-1.84289649\N,0,0.07937377
 ,2.39244846,-1.06089649\H,0,-2.54662622,0.64944846,-1.96589649\H,0,-0.
 39562622,3.27744846,-0.91889649\H,0,2.07537378,1.98444846,-1.52689649\
 H,0,-2.52950922,2.22142346,-1.13322649\H,0,-2.17098023,2.08476846,-2.9

 Normal termination of Gaussian 16 at Tue Apr  8 22:32:58 2025.
