 Gaussian 16, Revision C.01,

 ----------------------------------------------------------------------
 #t hf aug-cc-pvdz symm=none int=(grid=ultrafine) guess=(read,tcheck) s
 table=(opt,rrhf)
 ----------------------------------------------------------------------
 -----
 title
 -----
 Symbolic Z-matrix:
 Charge =  0 Multiplicity = 1

 SCF Done:  E(RHF) =  -494.073896631     A.U. after   13 cycles
 Normal termination of Gaussian 16 at Tue Apr  8 22:32:20 2025.
 Gaussian 16:  ES64L-G16RevC.01  3-Jul-2019

 ----------------------------------------------------------------------
 #t hf aug-cc-pvdz iop(5/13=1,5/36=2,99/5=2) pseudo=read geom=check gue
 ss=(read,tcheck) scf=(maxcycle=1)
 ----------------------------------------------------------------------
 -----
 title
 -----
 Structure from the checkpoint file:  "BBI-112TRP-115ARG-1_mol1.chk"
 Charge =  0 Multiplicity = 1

                         Standard orientation:
 ---------------------------------------------------------------------
 Center     Atomic      Atomic             Coordinates (Angstroms)
 Number     Number       Type             X           Y           Z
 ---------------------------------------------------------------------
      1          6           0       -3.035113   -1.244231    0.934241
      2          6           0       -1.661205    1.868213   -0.829158
      3          6           0       -2.235223   -0.383494   -0.061705
      4          8           0       -1.488873   -0.897167   -0.893263
      5          7           0       -2.369519    0.937656    0.039351
      6          1           0       -2.570182   -2.232531    0.973557
      7          1           0       -3.027025    1.315233    0.714944
      8          1           0       -1.875321    1.617456   -1.869174
      9          1           0       -2.989365   -0.777309    1.929175
     10          1           0       -4.075697   -1.368993    0.600149
     11          1           0       -2.025089    2.886555   -0.627746
     12          1           0       -0.570229    1.816099   -0.698721
     13          6           0        1.966001   -1.983757   -0.363101
     14          6           0        1.786452    1.655565    0.814339
     15          6           0        2.338963    0.362231    0.199538
     16          8           0        3.494333    0.306437   -0.230814
     17          7           0        1.536360   -0.707961    0.208230
     18          1           0        0.625781   -0.653843    0.651043
     19          1           0        3.043209   -2.090415   -0.221141
     20          1           0        2.250747    2.571866    0.451988
     21          1           0        1.455303   -2.830550    0.118669
     22          1           0        1.820848   -2.057266   -1.451000
     23          1           0        0.701211    1.727114    0.649908
     24          1           0        2.064999    1.547400    1.872973
 ---------------------------------------------------------------------

 SCF Done:  E(RHF) =  -496.362676335     A.U. after    2 cycles

 The electronic state is 1-A.
 Alpha  occ. eigenvalues --  -21.02411 -20.99399 -15.77865 -15.74759 -11.50689
 Alpha  occ. eigenvalues --  -11.47982 -11.41564 -11.40120 -11.38762 -11.38043
 Alpha  occ. eigenvalues --   -1.70767  -1.67537  -1.40611  -1.37062  -1.11820
 Alpha  occ. eigenvalues --   -1.09646  -1.00401  -0.97435  -0.80547  -0.77634
 Alpha  occ. eigenvalues --   -0.69032  -0.66619  -0.64907  -0.62397  -0.61753
 Alpha  occ. eigenvalues --   -0.60272  -0.58602  -0.56884  -0.56358  -0.53640
 Alpha  occ. eigenvalues --   -0.53514  -0.51412  -0.47998  -0.47554  -0.45336
 Alpha  occ. eigenvalues --   -0.44018  -0.32180  -0.29422  -0.28360  -0.26285
 Alpha virt. eigenvalues --    0.02599   0.03724   0.04510   0.04785   0.05392
 Alpha virt. eigenvalues --    0.05680   0.06088   0.06838   0.07322   0.07573
 Alpha virt. eigenvalues --    0.07945   0.08782   0.08859   0.09593   0.11544

 Mulliken charges:
               1
     1  C   -4.413480
     2  C   -4.151268
     3  C    5.726940
     4  O   -3.310046
     5  N   -2.741339
     6  H    1.289362
     7  H    0.793152
     8  H    1.360824
     9  H    1.243414
    10  H    1.253208
    11  H    1.304838
    12  H    1.783495
    13  C   -3.638776
    14  C   -5.078130
    15  C    5.589471
    16  O   -3.349067
    17  N   -3.043776
    18  H    0.953227
    19  H    1.428236
    20  H    1.170568
    21  H    1.431961
    22  H    1.393620
    23  H    1.818642
    24  H    1.184922
 Sum of Mulliken charges =  -0.00000

 Dipole moment (field-independent basis, Debye):
    X=             -4.3665    Y=              0.9415    Z=              1.6698  Tot=              4.7687

 Test job not archived.
 1\1\GINC-SE368\SP\RHF\Aug-CC-pVDZ\C6H14N2O2\OHZDE\08-Apr-2025\0\\#t hf
  aug-cc-pvdz iop(5/13=1,5/36=2,99/5=2) pseudo=read geom=check guess=(r
 ead,tcheck) scf=(maxcycle=1)\\title\\0,1\C,0,0.51033317,-3.34724131,-0
 .63019171\C,0,-1.17166682,-1.19924131,2.06080829\C,0,-0.38766682,-2.26
 824131,0.00380829\O,0,-1.05866682,-1.50724131,-0.69119171\N,0,-0.38066
 682,-2.18224131,1.33280829\H,0,0.67733318,-3.07424131,-1.67519171\H,0,
 0.15833317,-2.85724131,1.86680829\H,0,-2.21766682,-1.29524131,1.765808
 29\H,0,1.47306318,-3.37034131,-0.09857171\H,0,0.01935318,-4.33134131,-

 Normal termination of Gaussian 16 at Tue Apr  8 22:32:32 2025.
