 Gaussian 16, Revision C.01,

 ----------------------------------------------------------------------
 #t hf aug-cc-pvdz symm=none int=(grid=ultrafine) guess=(read,tcheck) s
 table=(opt,rrhf)
 ----------------------------------------------------------------------
 -----
 title
 -----
 Symbolic Z-matrix:
 Charge =  0 Multiplicity = 1

 SCF Done:  E(RHF) =  -494.083568026     A.U. after   13 cycles
 Normal termination of Gaussian 16 at Tue Apr  8 22:33:06 2025.
 Gaussian 16:  ES64L-G16RevC.01  3-Jul-2019

 ----------------------------------------------------------------------
 #t hf aug-cc-pvdz iop(5/13=1,5/36=2,99/5=2) pseudo=read geom=check gue
 ss=(read,tcheck) scf=(maxcycle=1)
 ----------------------------------------------------------------------
 -----
 title
 -----
 Structure from the checkpoint file:  "BBI-024PHE-028ALA-1_mol1.chk"
 Charge =  0 Multiplicity = 1

                         Standard orientation:
 ---------------------------------------------------------------------
 Center     Atomic      Atomic             Coordinates (Angstroms)
 Number     Number       Type             X           Y           Z
 ---------------------------------------------------------------------
      1          6           0       -3.018799   -1.545568   -0.911738
      2          6           0       -2.413105    1.700228    0.968885
      3          6           0       -2.278894   -0.387080   -0.220368
      4          8           0       -1.040542   -0.338511   -0.249227
      5          7           0       -3.044415    0.513234    0.407116
      6          1           0       -4.048105   -1.277929   -1.134054
      7          1           0       -4.059979    0.453459    0.355126
      8          1           0       -2.053454    2.327307    0.152638
      9          1           0       -2.484085   -1.739043   -1.853358
     10          1           0       -2.988014   -2.456420   -0.295777
     11          1           0       -3.153983    2.272221    1.546739
     12          1           0       -1.543326    1.444815    1.591973
     13          6           0        2.276947    1.706510   -0.943310
     14          6           0        1.928898   -1.635397    0.930946
     15          6           0        2.554991   -0.452032    0.185356
     16          8           0        3.785125   -0.261461    0.166985
     17          7           0        1.718190    0.463874   -0.340457
     18          1           0        0.712244    0.324507   -0.303275
     19          1           0        2.922730    1.450583   -1.786572
     20          1           0        2.712985   -2.060555    1.562101
     21          1           0        1.451918    2.343993   -1.293949
     22          1           0        2.868952    2.261542   -0.200699
     23          1           0        1.096468   -1.291609    1.562509
     24          1           0        1.592329   -2.412829    0.229294
 ---------------------------------------------------------------------

 SCF Done:  E(RHF) =  -496.370219566     A.U. after    2 cycles

 The electronic state is 1-A.
 Alpha  occ. eigenvalues --  -21.03488 -20.97959 -15.78957 -15.72048 -11.52450
 Alpha  occ. eigenvalues --  -11.46222 -11.41987 -11.40499 -11.37724 -11.36204
 Alpha  occ. eigenvalues --   -1.71954  -1.65410  -1.41644  -1.34046  -1.12270
 Alpha  occ. eigenvalues --   -1.07473  -1.00699  -0.96077  -0.82070  -0.75395
 Alpha  occ. eigenvalues --   -0.69584  -0.65048  -0.64697  -0.63129  -0.59876
 Alpha  occ. eigenvalues --   -0.59474  -0.57703  -0.57367  -0.55273  -0.53549
 Alpha  occ. eigenvalues --   -0.53004  -0.49443  -0.48677  -0.48086  -0.43112
 Alpha  occ. eigenvalues --   -0.42491  -0.33262  -0.30948  -0.27063  -0.24964
 Alpha virt. eigenvalues --    0.02321   0.03567   0.04293   0.05162   0.05449
 Alpha virt. eigenvalues --    0.05857   0.06408   0.06499   0.06647   0.07581
 Alpha virt. eigenvalues --    0.08454   0.08908   0.09390   0.10411   0.10963

 Mulliken charges:
               1
     1  C   -4.053248
     2  C   -3.904197
     3  C    5.250832
     4  O   -4.003539
     5  N   -2.633060
     6  H    1.292872
     7  H    0.732565
     8  H    1.393671
     9  H    1.306526
    10  H    1.302364
    11  H    1.322716
    12  H    1.523902
    13  C   -3.644438
    14  C   -4.483325
    15  C    5.058326
    16  O   -3.169203
    17  N   -2.923655
    18  H    1.506784
    19  H    1.397114
    20  H    1.178818
    21  H    1.433521
    22  H    1.400379
    23  H    1.328756
    24  H    1.385518
 Sum of Mulliken charges =  -0.00000

 Dipole moment (field-independent basis, Debye):
    X=             -6.9384    Y=              1.1942    Z=              0.1097  Tot=              7.0413

 Test job not archived.
 1\1\GINC-SE219\SP\RHF\Aug-CC-pVDZ\C6H14N2O2\OHZDE\08-Apr-2025\0\\#t hf
  aug-cc-pvdz iop(5/13=1,5/36=2,99/5=2) pseudo=read geom=check guess=(r
 ead,tcheck) scf=(maxcycle=1)\\title\\0,1\C,0,2.17376038,-0.31092777,2.
 78619199\C,0,1.81476038,2.55507223,0.31719199\C,0,1.67776038,0.5160722
 3,1.58719199\O,0,0.74576038,0.09407223,0.88719199\N,0,2.31976038,1.667
 07223,1.35619199\H,0,2.69876038,0.31307223,3.50419199\H,0,3.04476038,1
 .99107223,1.99419199\H,0,0.85476038,2.96107223,0.63719199\H,0,1.278410
 38,-0.73608777,3.26325199\H,0,2.82165038,-1.13590777,2.45505199\H,0,2.

 Normal termination of Gaussian 16 at Tue Apr  8 22:33:20 2025.
