 Gaussian 16, Revision C.01,

 ----------------------------------------------------------------------
 #t hf aug-cc-pvdz symm=none int=(grid=ultrafine) guess=(read,tcheck) s
 table=(opt,rrhf)
 ----------------------------------------------------------------------
 -----
 title
 -----
 Symbolic Z-matrix:
 Charge =  0 Multiplicity = 1

 SCF Done:  E(RHF) =  -494.079701184     A.U. after   14 cycles
 Normal termination of Gaussian 16 at Tue Apr  8 22:32:43 2025.
 Gaussian 16:  ES64L-G16RevC.01  3-Jul-2019

 ----------------------------------------------------------------------
 #t hf aug-cc-pvdz iop(5/13=1,5/36=2,99/5=2) pseudo=read geom=check gue
 ss=(read,tcheck) scf=(maxcycle=1)
 ----------------------------------------------------------------------
 -----
 title
 -----
 Structure from the checkpoint file:  "BBI-064TYR-067GLU-1_mol1.chk"
 Charge =  0 Multiplicity = 1

                         Standard orientation:
 ---------------------------------------------------------------------
 Center     Atomic      Atomic             Coordinates (Angstroms)
 Number     Number       Type             X           Y           Z
 ---------------------------------------------------------------------
      1          6           0        2.982153   -1.542605    0.819451
      2          6           0        2.071254    1.895394   -0.498838
      3          6           0        2.280238   -0.468971   -0.001423
      4          8           0        1.336847   -0.769919   -0.729679
      5          7           0        2.725350    0.780758    0.133374
      6          1           0        3.866851   -1.120775    1.289294
      7          1           0        3.503558    0.955668    0.759896
      8          1           0        2.621634    2.821860   -0.328370
      9          1           0        1.941356    1.722322   -1.567281
     10          1           0        2.259137   -1.889330    1.572467
     11          1           0        3.296565   -2.390185    0.192754
     12          1           0        1.099770    1.937851    0.015378
     13          6           0       -2.270184   -1.963047   -0.497055
     14          6           0       -1.747119    1.807678    0.129542
     15          6           0       -2.433784    0.433967    0.214022
     16          8           0       -3.575702    0.354140    0.710619
     17          7           0       -1.742873   -0.610207   -0.281713
     18          1           0       -0.789018   -0.446106   -0.576942
     19          1           0       -3.356949   -1.914405   -0.521887
     20          1           0       -1.655103    2.152346    1.158881
     21          1           0       -1.887252   -2.365255   -1.446574
     22          1           0       -1.961066   -2.588891    0.353107
     23          1           0       -0.753713    1.783816   -0.342238
     24          1           0       -2.447620    2.498952   -0.361820
 ---------------------------------------------------------------------

 SCF Done:  E(RHF) =  -496.369921110     A.U. after    2 cycles

 The electronic state is 1-A.
 Alpha  occ. eigenvalues --  -21.02832 -20.98819 -15.78336 -15.73790 -11.51465
 Alpha  occ. eigenvalues --  -11.47539 -11.42109 -11.40092 -11.38366 -11.37944
 Alpha  occ. eigenvalues --   -1.71667  -1.65770  -1.41857  -1.36415  -1.12505
 Alpha  occ. eigenvalues --   -1.08729  -1.00668  -0.97217  -0.81251  -0.76390
 Alpha  occ. eigenvalues --   -0.69558  -0.65902  -0.65335  -0.63244  -0.60813
 Alpha  occ. eigenvalues --   -0.60421  -0.59350  -0.56629  -0.56262  -0.54261
 Alpha  occ. eigenvalues --   -0.53289  -0.50659  -0.48707  -0.47662  -0.44446
 Alpha  occ. eigenvalues --   -0.43385  -0.32472  -0.30103  -0.27734  -0.25781
 Alpha virt. eigenvalues --    0.02556   0.03754   0.04488   0.05294   0.05640
 Alpha virt. eigenvalues --    0.05856   0.06080   0.06271   0.07102   0.07882
 Alpha virt. eigenvalues --    0.08525   0.09001   0.09872   0.10508   0.11130

 Mulliken charges:
               1
     1  C   -4.203161
     2  C   -3.961941
     3  C    5.245972
     4  O   -3.523480
     5  N   -2.641250
     6  H    1.335508
     7  H    0.711433
     8  H    1.240028
     9  H    1.563510
    10  H    1.246578
    11  H    1.251933
    12  H    1.732394
    13  C   -3.516337
    14  C   -4.963287
    15  C    5.093826
    16  O   -3.293295
    17  N   -2.898297
    18  H    0.979089
    19  H    1.405472
    20  H    1.211919
    21  H    1.409451
    22  H    1.418719
    23  H    1.981670
    24  H    1.173544
 Sum of Mulliken charges =   0.00000

 Dipole moment (field-independent basis, Debye):
    X=              5.4847    Y=              0.5822    Z=             -0.1036  Tot=              5.5165

 Test job not archived.
 1\1\GINC-SE361\SP\RHF\Aug-CC-pVDZ\C6H14N2O2\OHZDE\08-Apr-2025\0\\#t hf
  aug-cc-pvdz iop(5/13=1,5/36=2,99/5=2) pseudo=read geom=check guess=(r
 ead,tcheck) scf=(maxcycle=1)\\title\\0,1\C,0,-0.98549638,2.4303157,2.2
 9741501\C,0,2.35250362,0.8463157,1.43941501\C,0,0.03450362,1.3593157,1
 .93441501\O,0,-0.33749638,0.2143157,1.68641501\N,0,1.31250362,1.736315
 7,1.88241501\H,0,-0.46849638,3.3323157,2.61441501\H,0,1.54450362,2.701
 3157,2.09141501\H,0,3.33450362,1.3123157,1.53341501\H,0,2.32550362,-0.
 0956843,1.98741501\H,0,-1.58767638,2.6134557,1.39528201\H,0,-1.6410563

 Normal termination of Gaussian 16 at Tue Apr  8 22:32:55 2025.
