 Gaussian 16, Revision C.01,

 ----------------------------------------------------------------------
 #t hf aug-cc-pvdz symm=none int=(grid=ultrafine) guess=(read,tcheck) s
 table=(opt,rrhf)
 ----------------------------------------------------------------------
 -----
 title
 -----
 Symbolic Z-matrix:
 Charge =  0 Multiplicity = 1

 SCF Done:  E(RHF) =  -494.088475647     A.U. after   13 cycles
 Normal termination of Gaussian 16 at Tue Apr  8 22:32:29 2025.
 Gaussian 16:  ES64L-G16RevC.01  3-Jul-2019

 ----------------------------------------------------------------------
 #t hf aug-cc-pvdz iop(5/13=1,5/36=2,99/5=2) pseudo=read geom=check gue
 ss=(read,tcheck) scf=(maxcycle=1)
 ----------------------------------------------------------------------
 -----
 title
 -----
 Structure from the checkpoint file:  "BBI-051ALA-055ASN-1_mol1.chk"
 Charge =  0 Multiplicity = 1

                         Standard orientation:
 ---------------------------------------------------------------------
 Center     Atomic      Atomic             Coordinates (Angstroms)
 Number     Number       Type             X           Y           Z
 ---------------------------------------------------------------------
      1          6           0       -2.879099   -1.672199   -0.839588
      2          6           0       -2.541521    1.635957    1.032778
      3          6           0       -2.280760   -0.354796   -0.352691
      4          8           0       -1.202585    0.043471   -0.781146
      5          7           0       -2.982487    0.349521    0.532288
      6          1           0       -2.069159   -2.251982   -1.286437
      7          1           0       -3.878645   -0.020337    0.840417
      8          1           0       -2.298484    2.285698    0.191200
      9          1           0       -3.294997   -2.247266    0.000842
     10          1           0       -3.638192   -1.501383   -1.617141
     11          1           0       -3.370803    2.091452    1.593860
     12          1           0       -1.622635    1.526417    1.627464
     13          6           0        2.253841    1.724895   -0.865995
     14          6           0        1.947098   -1.584714    1.015051
     15          6           0        2.586903   -0.442609    0.239680
     16          8           0        3.789562   -0.414114    0.054971
     17          7           0        1.789062    0.549497   -0.150992
     18          1           0        0.789309    0.445437   -0.010881
     19          1           0        2.866656    1.406206   -1.713908
     20          1           0        2.731194   -2.026093    1.635596
     21          1           0        1.375105    2.273196   -1.236381
     22          1           0        2.858060    2.402159   -0.244527
     23          1           0        1.139767   -1.204154    1.658005
     24          1           0        1.552206   -2.346534    0.326799
 ---------------------------------------------------------------------

 SCF Done:  E(RHF) =  -496.373307418     A.U. after    2 cycles

 The electronic state is 1-A.
 Alpha  occ. eigenvalues --  -21.02885 -20.98587 -15.78084 -15.72959 -11.51211
 Alpha  occ. eigenvalues --  -11.46693 -11.41767 -11.40121 -11.37859 -11.36887
 Alpha  occ. eigenvalues --   -1.71864  -1.67641  -1.41133  -1.36343  -1.12196
 Alpha  occ. eigenvalues --   -1.08602  -1.00682  -0.96745  -0.80947  -0.76016
 Alpha  occ. eigenvalues --   -0.69499  -0.65639  -0.64928  -0.62599  -0.60928
 Alpha  occ. eigenvalues --   -0.59603  -0.58998  -0.57179  -0.55991  -0.53691
 Alpha  occ. eigenvalues --   -0.53096  -0.50064  -0.48671  -0.48066  -0.44348
 Alpha  occ. eigenvalues --   -0.43812  -0.32613  -0.30193  -0.27893  -0.25599
 Alpha virt. eigenvalues --    0.02452   0.03657   0.04475   0.04890   0.05439
 Alpha virt. eigenvalues --    0.05836   0.06082   0.06317   0.07363   0.07629
 Alpha virt. eigenvalues --    0.08363   0.08984   0.09189   0.10439   0.10830

 Mulliken charges:
               1
     1  C   -4.265148
     2  C   -3.888828
     3  C    5.605548
     4  O   -3.583418
     5  N   -2.682782
     6  H    1.301926
     7  H    0.753971
     8  H    1.478216
     9  H    1.235588
    10  H    1.238810
    11  H    1.317698
    12  H    1.422170
    13  C   -3.621471
    14  C   -4.647940
    15  C    5.347918
    16  O   -3.322044
    17  N   -2.937374
    18  H    1.078864
    19  H    1.416371
    20  H    1.178417
    21  H    1.480161
    22  H    1.358380
    23  H    1.353214
    24  H    1.381751
 Sum of Mulliken charges =   0.00000

 Dipole moment (field-independent basis, Debye):
    X=             -6.2683    Y=              0.7339    Z=              1.0181  Tot=              6.3927

 Test job not archived.
 1\1\GINC-SE334\SP\RHF\Aug-CC-pVDZ\C6H14N2O2\OHZDE\08-Apr-2025\0\\#t hf
  aug-cc-pvdz iop(5/13=1,5/36=2,99/5=2) pseudo=read geom=check guess=(r
 ead,tcheck) scf=(maxcycle=1)\\title\\0,1\C,0,-1.34378644,-3.08290328,0
 .84343186\C,0,1.24121356,-2.33890328,-1.86356814\C,0,-0.23478644,-2.36
 490328,0.07843186\O,0,0.27721356,-1.34290328,0.52343186\N,0,0.16621356
 ,-2.90190328,-1.07156814\H,0,-1.75878644,-2.37090328,1.55943186\H,0,-0
 .28178644,-3.75990328,-1.38456814\H,0,2.11621356,-2.19090328,-1.229568
 14\H,0,-2.14768644,-3.39877328,0.16228186\H,0,-0.94690644,-3.93728328,

 Normal termination of Gaussian 16 at Tue Apr  8 22:32:41 2025.
