 Gaussian 16, Revision C.01,

 ----------------------------------------------------------------------
 #t hf aug-cc-pvdz symm=none int=(grid=ultrafine) guess=(read,tcheck) s
 table=(opt,rrhf)
 ----------------------------------------------------------------------
 -----
 title
 -----
 Symbolic Z-matrix:
 Charge =  0 Multiplicity = 1

 SCF Done:  E(RHF) =  -494.078628860     A.U. after   14 cycles
 Normal termination of Gaussian 16 at Tue Apr  8 22:32:45 2025.
 Gaussian 16:  ES64L-G16RevC.01  3-Jul-2019

 ----------------------------------------------------------------------
 #t hf aug-cc-pvdz iop(5/13=1,5/36=2,99/5=2) pseudo=read geom=check gue
 ss=(read,tcheck) scf=(maxcycle=1)
 ----------------------------------------------------------------------
 -----
 title
 -----
 Structure from the checkpoint file:  "BBI-097GLU-100THR-2_mol1.chk"
 Charge =  0 Multiplicity = 1

                         Standard orientation:
 ---------------------------------------------------------------------
 Center     Atomic      Atomic             Coordinates (Angstroms)
 Number     Number       Type             X           Y           Z
 ---------------------------------------------------------------------
      1          6           0       -2.619406   -1.400400    1.179172
      2          6           0       -2.000614    1.736893   -0.934323
      3          6           0       -2.150329   -0.514487    0.012845
      4          8           0       -1.380399   -0.986333   -0.844474
      5          7           0       -2.541974    0.769009    0.017927
      6          1           0       -1.761573   -2.013618    1.464384
      7          1           0       -3.194841    1.100384    0.715975
      8          1           0       -2.218357    1.414609   -1.951373
      9          1           0       -2.930550   -0.839935    2.073075
     10          1           0       -3.427029   -2.079056    0.867440
     11          1           0       -2.435684    2.733243   -0.767007
     12          1           0       -0.909684    1.815163   -0.817113
     13          6           0        2.311314   -1.798441   -0.597600
     14          6           0        1.418800    1.677024    0.708170
     15          6           0        2.226013    0.479108    0.260147
     16          8           0        3.454618    0.546268    0.290376
     17          7           0        1.579207   -0.591338   -0.168220
     18          1           0        0.565960   -0.617678   -0.142566
     19          1           0        3.377526   -1.625015   -0.570400
     20          1           0        1.813895    2.516554    0.129532
     21          1           0        2.114762   -2.651915    0.067946
     22          1           0        2.058965   -2.052683   -1.637639
     23          1           0        0.337434    1.614522    0.516518
     24          1           0        1.640126    1.884077    1.765592
 ---------------------------------------------------------------------

 SCF Done:  E(RHF) =  -496.368524589     A.U. after    2 cycles

 The electronic state is 1-A.
 Alpha  occ. eigenvalues --  -21.03238 -20.98379 -15.78857 -15.74072 -11.51949
 Alpha  occ. eigenvalues --  -11.47709 -11.41897 -11.40461 -11.38369 -11.37961
 Alpha  occ. eigenvalues --   -1.70994  -1.67422  -1.41126  -1.36606  -1.12035
 Alpha  occ. eigenvalues --   -1.09407  -1.00873  -0.97548  -0.81594  -0.77114
 Alpha  occ. eigenvalues --   -0.69648  -0.66481  -0.65209  -0.62791  -0.61339
 Alpha  occ. eigenvalues --   -0.60781  -0.58917  -0.56826  -0.56501  -0.53678
 Alpha  occ. eigenvalues --   -0.53208  -0.49839  -0.48799  -0.47832  -0.45018
 Alpha  occ. eigenvalues --   -0.44289  -0.32770  -0.30363  -0.27828  -0.25973
 Alpha virt. eigenvalues --    0.02562   0.03665   0.04391   0.05082   0.05573
 Alpha virt. eigenvalues --    0.05694   0.06027   0.06741   0.07093   0.08119
 Alpha virt. eigenvalues --    0.08304   0.09188   0.09494   0.09566   0.11790

 Mulliken charges:
               1
     1  C   -4.216926
     2  C   -4.062831
     3  C    5.321279
     4  O   -3.336476
     5  N   -2.678013
     6  H    1.286873
     7  H    0.778108
     8  H    1.366784
     9  H    1.321450
    10  H    1.257265
    11  H    1.278746
    12  H    1.812580
    13  C   -3.409049
    14  C   -5.124844
    15  C    5.663334
    16  O   -3.512187
    17  N   -3.277955
    18  H    1.092102
    19  H    1.393160
    20  H    1.103151
    21  H    1.426586
    22  H    1.398579
    23  H    1.957568
    24  H    1.160718
 Sum of Mulliken charges =  -0.00000

 Dipole moment (field-independent basis, Debye):
    X=             -5.0274    Y=              0.5498    Z=              0.6910  Tot=              5.1044

 Test job not archived.
 1\1\GINC-SE365\SP\RHF\Aug-CC-pVDZ\C6H14N2O2\OHZDE\08-Apr-2025\0\\#t hf
  aug-cc-pvdz iop(5/13=1,5/36=2,99/5=2) pseudo=read geom=check guess=(r
 ead,tcheck) scf=(maxcycle=1)\\title\\0,1\C,0,-0.90885373,-1.18440364,2
 .85767884\C,0,1.59414627,1.51459636,1.78867884\C,0,-0.35485373,0.09659
 636,2.21167884\O,0,-1.06185373,0.73359636,1.40867884\N,0,0.91414627,0.
 42959636,2.49367884\H,0,-1.48685373,-1.69440364,2.08367884\H,0,1.44014
 627,-0.09840364,3.17767884\H,0,1.05314627,2.44759636,1.93867884\H,0,-0
 .13461373,-1.88613264,3.20136884\H,0,-1.59269873,-0.95157464,3.6872288

 Normal termination of Gaussian 16 at Tue Apr  8 22:32:57 2025.
