 Gaussian 16, Revision C.01,

 ----------------------------------------------------------------------
 #t hf aug-cc-pvdz symm=none int=(grid=ultrafine) guess=(read,tcheck) s
 table=(opt,rrhf)
 ----------------------------------------------------------------------
 -----
 title
 -----
 Symbolic Z-matrix:
 Charge =  0 Multiplicity = 1

 SCF Done:  E(RHF) =  -494.084293565     A.U. after   14 cycles
 Normal termination of Gaussian 16 at Tue Apr  8 22:33:07 2025.
 Gaussian 16:  ES64L-G16RevC.01  3-Jul-2019

 ----------------------------------------------------------------------
 #t hf aug-cc-pvdz iop(5/13=1,5/36=2,99/5=2) pseudo=read geom=check gue
 ss=(read,tcheck) scf=(maxcycle=1)
 ----------------------------------------------------------------------
 -----
 title
 -----
 Structure from the checkpoint file:  "BBI-060LEU-064TYR-1_mol1.chk"
 Charge =  0 Multiplicity = 1

                         Standard orientation:
 ---------------------------------------------------------------------
 Center     Atomic      Atomic             Coordinates (Angstroms)
 Number     Number       Type             X           Y           Z
 ---------------------------------------------------------------------
      1          6           0       -2.343159   -0.536819    1.910582
      2          6           0       -2.960872    0.787479   -1.587769
      3          6           0       -2.173336   -0.274104    0.424978
      4          8           0       -1.204419   -0.724534   -0.185872
      5          7           0       -3.085596    0.483974   -0.167229
      6          1           0       -1.349434   -0.739218    2.302493
      7          1           0       -3.933023    0.736526    0.328234
      8          1           0       -2.865057   -0.144856   -2.147298
      9          1           0       -2.757866    0.342607    2.424999
     10          1           0       -2.973319   -1.420858    2.087722
     11          1           0       -3.881382    1.292813   -1.915328
     12          1           0       -2.074059    1.402349   -1.801065
     13          6           0        1.895803   -1.765286   -0.693044
     14          6           0        2.295223    1.844544    0.488165
     15          6           0        2.615169    0.425546    0.078547
     16          8           0        3.801380    0.067976    0.102240
     17          7           0        1.617367   -0.365342   -0.330362
     18          1           0        0.655291   -0.055959   -0.270218
     19          1           0        2.967927   -1.944154   -0.780326
     20          1           0        3.092463    2.455429    0.061038
     21          1           0        1.502537   -2.456787    0.066667
     22          1           0        1.460314   -2.042698   -1.664327
     23          1           0        1.305871    2.185076    0.148722
     24          1           0        2.378682    1.923610    1.582141
 ---------------------------------------------------------------------

 SCF Done:  E(RHF) =  -496.370536497     A.U. after    2 cycles

 The electronic state is 1-A.
 Alpha  occ. eigenvalues --  -21.02946 -20.97855 -15.78481 -15.73200 -11.51609
 Alpha  occ. eigenvalues --  -11.46762 -11.41571 -11.40216 -11.37060 -11.36849
 Alpha  occ. eigenvalues --   -1.72266  -1.66198  -1.41414  -1.35444  -1.12539
 Alpha  occ. eigenvalues --   -1.08468  -1.00665  -0.96400  -0.81686  -0.76265
 Alpha  occ. eigenvalues --   -0.69591  -0.65516  -0.64965  -0.62940  -0.60220
 Alpha  occ. eigenvalues --   -0.59577  -0.59403  -0.57163  -0.55541  -0.53341
 Alpha  occ. eigenvalues --   -0.52405  -0.49348  -0.49014  -0.47925  -0.43821
 Alpha  occ. eigenvalues --   -0.43255  -0.33073  -0.30547  -0.27142  -0.25214
 Alpha virt. eigenvalues --    0.02389   0.03648   0.04362   0.04838   0.05360
 Alpha virt. eigenvalues --    0.05974   0.06174   0.06319   0.07372   0.07734
 Alpha virt. eigenvalues --    0.07922   0.08825   0.09016   0.10116   0.10916

 Mulliken charges:
               1
     1  C   -4.254552
     2  C   -3.771281
     3  C    5.667399
     4  O   -3.549140
     5  N   -2.828783
     6  H    1.268670
     7  H    0.743880
     8  H    1.453476
     9  H    1.245388
    10  H    1.247842
    11  H    1.307840
    12  H    1.403189
    13  C   -3.531264
    14  C   -4.708350
    15  C    5.334614
    16  O   -3.378476
    17  N   -3.121665
    18  H    1.276568
    19  H    1.374167
    20  H    1.208975
    21  H    1.475852
    22  H    1.420890
    23  H    1.401295
    24  H    1.313465
 Sum of Mulliken charges =  -0.00000

 Dipole moment (field-independent basis, Debye):
    X=             -6.5812    Y=              0.7808    Z=              0.1505  Tot=              6.6291

 Test job not archived.
 1\1\GINC-SE339\SP\RHF\Aug-CC-pVDZ\C6H14N2O2\OHZDE\08-Apr-2025\0\\#t hf
  aug-cc-pvdz iop(5/13=1,5/36=2,99/5=2) pseudo=read geom=check guess=(r
 ead,tcheck) scf=(maxcycle=1)\\title\\0,1\C,0,-1.28882937,2.78861656,-0
 .44574848\C,0,1.90917063,1.85561656,-2.25574848\C,0,-0.21782937,1.9596
 1656,-1.13174848\O,0,-0.32282937,0.73561656,-1.20674848\N,0,0.83917063
 ,2.60361656,-1.60674848\H,0,-1.79282937,2.12361656,0.25125152\H,0,0.84
 117063,3.61661656,-1.64174848\H,0,1.48617063,1.24261656,-3.05374848\H,
 0,-0.84591937,3.62489556,0.11502352\H,0,-2.02919937,3.15844156,-1.1703

 Normal termination of Gaussian 16 at Tue Apr  8 22:33:21 2025.
