 Gaussian 16, Revision C.01,

 ----------------------------------------------------------------------
 #t hf aug-cc-pvdz symm=none int=(grid=ultrafine) guess=(read,tcheck) s
 table=(opt,rrhf)
 ----------------------------------------------------------------------
 -----
 title
 -----
 Symbolic Z-matrix:
 Charge =  0 Multiplicity = 1

 SCF Done:  E(RHF) =  -494.075594196     A.U. after   14 cycles
 Normal termination of Gaussian 16 at Tue Apr  8 22:31:39 2025.
 Gaussian 16:  ES64L-G16RevC.01  3-Jul-2019

 ----------------------------------------------------------------------
 #t hf aug-cc-pvdz iop(5/13=1,5/36=2,99/5=2) pseudo=read geom=check gue
 ss=(read,tcheck) scf=(maxcycle=1)
 ----------------------------------------------------------------------
 -----
 title
 -----
 Structure from the checkpoint file:  "BBI-007GLN-010ASN-1_mol1.chk"
 Charge =  0 Multiplicity = 1

                         Standard orientation:
 ---------------------------------------------------------------------
 Center     Atomic      Atomic             Coordinates (Angstroms)
 Number     Number       Type             X           Y           Z
 ---------------------------------------------------------------------
      1          6           0       -2.916024   -1.307991    0.895747
      2          6           0       -1.700764    1.905223   -0.783109
      3          6           0       -2.177572   -0.401622   -0.083304
      4          8           0       -1.433712   -0.880548   -0.941877
      5          7           0       -2.376693    0.907943    0.051779
      6          1           0       -2.456836   -2.296766    0.852012
      7          1           0       -3.050159    1.227146    0.742020
      8          1           0       -1.893018    1.672385   -1.833219
      9          1           0       -2.849173   -0.915907    1.921321
     10          1           0       -3.962195   -1.383627    0.564387
     11          1           0       -2.101803    2.908757   -0.577953
     12          1           0       -0.609354    1.868997   -0.650760
     13          6           0        1.990960   -1.979563   -0.328590
     14          6           0        1.731324    1.602619    0.923711
     15          6           0        2.287764    0.381908    0.192075
     16          8           0        3.372520    0.425009   -0.394265
     17          7           0        1.541177   -0.718080    0.246806
     18          1           0        0.691113   -0.704142    0.801330
     19          1           0        3.020165   -2.159153   -0.009045
     20          1           0        2.279448    2.477132    0.567826
     21          1           0        1.371154   -2.812344    0.035159
     22          1           0        2.020298   -1.959493   -1.428016
     23          1           0        0.657736    1.724463    0.717420
     24          1           0        1.926646    1.464379    1.997372
 ---------------------------------------------------------------------

 SCF Done:  E(RHF) =  -496.363962543     A.U. after    2 cycles

 The electronic state is 1-A.
 Alpha  occ. eigenvalues --  -21.02160 -20.99616 -15.77761 -15.74759 -11.50582
 Alpha  occ. eigenvalues --  -11.47716 -11.41520 -11.39915 -11.38428 -11.38221
 Alpha  occ. eigenvalues --   -1.70297  -1.67602  -1.40376  -1.37625  -1.11976
 Alpha  occ. eigenvalues --   -1.09756  -1.00305  -0.97508  -0.80335  -0.77634
 Alpha  occ. eigenvalues --   -0.68806  -0.66424  -0.64749  -0.62408  -0.61798
 Alpha  occ. eigenvalues --   -0.60593  -0.58880  -0.57040  -0.56355  -0.53943
 Alpha  occ. eigenvalues --   -0.53450  -0.50890  -0.47912  -0.47098  -0.45100
 Alpha  occ. eigenvalues --   -0.44481  -0.32060  -0.29194  -0.28427  -0.26477
 Alpha virt. eigenvalues --    0.02630   0.03705   0.04547   0.04678   0.05389
 Alpha virt. eigenvalues --    0.05697   0.06115   0.06932   0.07331   0.07576
 Alpha virt. eigenvalues --    0.07980   0.08626   0.08859   0.09709   0.11450

 Mulliken charges:
               1
     1  C   -4.400233
     2  C   -4.139785
     3  C    5.761419
     4  O   -3.322634
     5  N   -2.788586
     6  H    1.287917
     7  H    0.801992
     8  H    1.378189
     9  H    1.249635
    10  H    1.234964
    11  H    1.316665
    12  H    1.740041
    13  C   -3.666633
    14  C   -5.157214
    15  C    5.790801
    16  O   -3.340947
    17  N   -3.027694
    18  H    0.941080
    19  H    1.363581
    20  H    1.156660
    21  H    1.441309
    22  H    1.424955
    23  H    1.729039
    24  H    1.225479
 Sum of Mulliken charges =  -0.00000

 Dipole moment (field-independent basis, Debye):
    X=             -4.1698    Y=              0.6551    Z=              2.0382  Tot=              4.6872

 Test job not archived.
 1\1\GINC-SE423\SP\RHF\Aug-CC-pVDZ\C6H14N2O2\OHZDE\08-Apr-2025\0\\#t hf
  aug-cc-pvdz iop(5/13=1,5/36=2,99/5=2) pseudo=read geom=check guess=(r
 ead,tcheck) scf=(maxcycle=1)\\title\\0,1\C,0,-2.91012335,1.19531259,-1
 .15828453\C,0,0.79987665,1.67031259,-1.95228453\C,0,-1.46412335,0.8373
 1259,-1.48428453\O,0,-1.11012335,-0.34168741,-1.55128453\N,0,-0.628123
 35,1.85531259,-1.67828453\H,0,-3.39712335,0.30331259,-0.76128453\H,0,-
 1.00312335,2.79931259,-1.66728453\H,0,0.90887665,1.01431259,-2.8192845
 3\H,0,-2.95661535,2.00293159,-0.41290453\H,0,-3.40636435,1.48759859,-2

 Normal termination of Gaussian 16 at Tue Apr  8 22:31:51 2025.
