 Gaussian 16, Revision C.01,

 ----------------------------------------------------------------------
 #t hf aug-cc-pvdz symm=none int=(grid=ultrafine) guess=(read,tcheck) s
 table=(opt,rrhf)
 ----------------------------------------------------------------------
 -----
 title
 -----
 Symbolic Z-matrix:
 Charge =  0 Multiplicity = 1

 SCF Done:  E(RHF) =  -494.087706833     A.U. after   13 cycles
 Normal termination of Gaussian 16 at Tue Apr  8 22:33:06 2025.
 Gaussian 16:  ES64L-G16RevC.01  3-Jul-2019

 ----------------------------------------------------------------------
 #t hf aug-cc-pvdz iop(5/13=1,5/36=2,99/5=2) pseudo=read geom=check gue
 ss=(read,tcheck) scf=(maxcycle=1)
 ----------------------------------------------------------------------
 -----
 title
 -----
 Structure from the checkpoint file:  "BBI-012LEU-085ASP-1_mol1.chk"
 Charge =  0 Multiplicity = 1

                         Standard orientation:
 ---------------------------------------------------------------------
 Center     Atomic      Atomic             Coordinates (Angstroms)
 Number     Number       Type             X           Y           Z
 ---------------------------------------------------------------------
      1          6           0       -2.530921    1.932164   -0.494973
      2          6           0       -2.875717   -1.776652    0.366636
      3          6           0       -2.165952    0.525086   -0.052596
      4          8           0       -1.000812    0.272200    0.255941
      5          7           0       -3.133821   -0.387820    0.001834
      6          1           0       -1.814572    2.181466   -1.278209
      7          1           0       -4.079946   -0.107470   -0.220308
      8          1           0       -1.843009   -2.019361    0.114158
      9          1           0       -3.559071    2.034979   -0.872241
     10          1           0       -2.383830    2.636986    0.336649
     11          1           0       -3.040399   -1.926795    1.443828
     12          1           0       -3.548623   -2.397145   -0.243439
     13          6           0        2.565454    1.778733    0.455665
     14          6           0        1.604386   -1.790788   -0.279464
     15          6           0        2.478755   -0.559260   -0.169566
     16          8           0        3.707020   -0.622886   -0.281555
     17          7           0        1.844156    0.561054    0.139191
     18          1           0        0.834307    0.542486    0.243448
     19          1           0        3.189061    2.061136   -0.393792
     20          1           0        0.564961   -1.481976   -0.200842
     21          1           0        1.835548    2.577207    0.654849
     22          1           0        3.194317    1.625432    1.345064
     23          1           0        1.764417   -2.322431   -1.229068
     24          1           0        1.808800   -2.467367    0.563421
 ---------------------------------------------------------------------

 SCF Done:  E(RHF) =  -496.375942554     A.U. after    2 cycles

 The electronic state is 1-A.
 Alpha  occ. eigenvalues --  -21.03146 -20.97558 -15.78925 -15.72205 -11.52625
 Alpha  occ. eigenvalues --  -11.46145 -11.42084 -11.40765 -11.37542 -11.36232
 Alpha  occ. eigenvalues --   -1.72764  -1.65785  -1.41768  -1.36168  -1.12810
 Alpha  occ. eigenvalues --   -1.08195  -1.01126  -0.96040  -0.82022  -0.75818
 Alpha  occ. eigenvalues --   -0.69910  -0.65419  -0.65135  -0.63691  -0.60575
 Alpha  occ. eigenvalues --   -0.60143  -0.58461  -0.57091  -0.55422  -0.53768
 Alpha  occ. eigenvalues --   -0.52847  -0.49594  -0.49430  -0.48733  -0.43278
 Alpha  occ. eigenvalues --   -0.42284  -0.33011  -0.31175  -0.26990  -0.24599
 Alpha virt. eigenvalues --    0.02300   0.03617   0.04338   0.04704   0.05290
 Alpha virt. eigenvalues --    0.05756   0.05964   0.06641   0.07301   0.07849
 Alpha virt. eigenvalues --    0.08426   0.08952   0.09490   0.10878   0.11275

 Mulliken charges:
               1
     1  C   -4.236354
     2  C   -3.793470
     3  C    5.416378
     4  O   -3.918855
     5  N   -2.822353
     6  H    1.267818
     7  H    0.727269
     8  H    1.807069
     9  H    1.324966
    10  H    1.266659
    11  H    1.348227
    12  H    1.235785
    13  C   -3.625430
    14  C   -5.147598
    15  C    5.360688
    16  O   -3.359260
    17  N   -2.861538
    18  H    1.409875
    19  H    1.427892
    20  H    1.951398
    21  H    1.414505
    22  H    1.329843
    23  H    1.250010
    24  H    1.226476
 Sum of Mulliken charges =   0.00000

 Dipole moment (field-independent basis, Debye):
    X=             -7.2264    Y=              0.8236    Z=              0.2026  Tot=              7.2760

 Test job not archived.
 1\1\GINC-SE058\SP\RHF\Aug-CC-pVDZ\C6H14N2O2\OHZDE\08-Apr-2025\0\\#t hf
  aug-cc-pvdz iop(5/13=1,5/36=2,99/5=2) pseudo=read geom=check guess=(r
 ead,tcheck) scf=(maxcycle=1)\\title\\0,1\C,0,1.56791592,2.62003439,-1.
 15268062\C,0,1.77491592,-0.80896561,-2.83068062\C,0,1.26091592,1.17103
 439,-1.49168062\O,0,0.37191592,0.58203439,-0.87568062\N,0,1.96091592,0
 .59103439,-2.46468062\H,0,1.70891592,2.63803439,-0.07168062\H,0,2.6469
 1592,1.14103439,-2.96468062\H,0,1.40191592,-1.35196561,-1.96168062\H,0
 ,2.45649592,3.02434839,-1.65958162\H,0,0.70111592,3.25332439,-1.392694

 Normal termination of Gaussian 16 at Tue Apr  8 22:33:21 2025.
