 Gaussian 16, Revision C.01,

 ----------------------------------------------------------------------
 #t hf aug-cc-pvdz symm=none int=(grid=ultrafine) guess=(read,tcheck) s
 table=(opt,rrhf)
 ----------------------------------------------------------------------
 -----
 title
 -----
 Symbolic Z-matrix:
 Charge =  0 Multiplicity = 1

 SCF Done:  E(RHF) =  -247.040485211     A.U. after   13 cycles
 Normal termination of Gaussian 16 at Tue Apr  8 22:28:21 2025.
 Gaussian 16:  ES64L-G16RevC.01  3-Jul-2019

 ----------------------------------------------------------------------
 #t hf aug-cc-pvdz iop(5/13=1,5/36=2,99/5=2) pseudo=read geom=check gue
 ss=(read,tcheck) scf=(maxcycle=1)
 ----------------------------------------------------------------------
 -----
 title
 -----
 Structure from the checkpoint file:  "BBI-005ASP-008SER-2_mol2.chk"
 Charge =  0 Multiplicity = 1

                         Standard orientation:
 ---------------------------------------------------------------------
 Center     Atomic      Atomic             Coordinates (Angstroms)
 Number     Number       Type             X           Y           Z
 ---------------------------------------------------------------------
      1          6           0       -1.827251   -0.532191   -0.013610
      2          6           0        1.953173   -0.110497   -0.018652
      3          6           0       -0.467467    0.154334    0.012196
      4          8           0       -0.375221    1.377606    0.008459
      5          7           0        0.599497   -0.643807    0.013650
      6          1           0       -2.573401    0.207516   -0.309399
      7          1           0        0.466101   -1.648119    0.072270
      8          1           0        2.088037    0.529400    0.854629
      9          1           0       -1.825307   -1.344521   -0.755309
     10          1           0       -2.091662   -0.907954    0.985833
     11          1           0        2.687313   -0.928505    0.024882
     12          1           0        2.103473    0.508103   -0.915728
 ---------------------------------------------------------------------

 SCF Done:  E(RHF) =  -248.181102343     A.U. after    2 cycles

 The electronic state is 1-A.
 Alpha  occ. eigenvalues --  -21.00840 -15.76191 -11.48460 -11.39911 -11.38365
 Alpha  occ. eigenvalues --   -1.69186  -1.39131  -1.10495  -0.98864  -0.79031
 Alpha  occ. eigenvalues --   -0.67651  -0.63251  -0.60662  -0.58002  -0.55321
 Alpha  occ. eigenvalues --   -0.52039  -0.46403  -0.45867  -0.30430  -0.27625
 Alpha virt. eigenvalues --    0.03172   0.04591   0.05341   0.05899   0.06803
 Alpha virt. eigenvalues --    0.07144   0.07806   0.10256   0.12041   0.13161
 Alpha virt. eigenvalues --    0.14046   0.14381   0.15271   0.15612   0.16810

 Mulliken charges:
               1
     1  C   -4.226756
     2  C   -3.414532
     3  C    5.186304
     4  O   -3.158111
     5  N   -2.696692
     6  H    1.196686
     7  H    0.743928
     8  H    1.321131
     9  H    1.192683
    10  H    1.223445
    11  H    1.310661
    12  H    1.321251
 Sum of Mulliken charges =  -0.00000

 Dipole moment (field-independent basis, Debye):
    X=              0.7784    Y=             -2.5862    Z=              0.0452  Tot=              2.7012

 Test job not archived.
 1\1\GINC-SE404\SP\RHF\Aug-CC-pVDZ\C3H7N1O1\OHZDE\08-Apr-2025\0\\#t hf
 aug-cc-pvdz iop(5/13=1,5/36=2,99/5=2) pseudo=read geom=check guess=(re
 ad,tcheck) scf=(maxcycle=1)\\title\\0,1\C,0,1.41329664,0.77749316,-1.0
 1602898\C,0,-1.54170336,-1.16750684,0.38197102\C,0,0.35629664,0.302493
 16,-0.02702898\O,0,0.33829664,0.71549316,1.12797102\N,0,-0.51870336,-0
 .59450684,-0.48002898\H,0,2.21429664,1.25649316,-0.45002898\H,0,-0.492
 70336,-0.86050684,-1.45902898\H,0,-2.15770336,-0.35350684,0.76697102\H
 ,0,1.83327664,-0.08128384,-1.56019698\H,0,0.99057664,1.51887616,-1.710

 Normal termination of Gaussian 16 at Tue Apr  8 22:28:24 2025.
