 Gaussian 16, Revision C.01,

 ----------------------------------------------------------------------
 #t hf aug-cc-pvdz symm=none int=(grid=ultrafine) guess=(read,tcheck) s
 table=(opt,rrhf)
 ----------------------------------------------------------------------
 -----
 title
 -----
 Symbolic Z-matrix:
 Charge =  0 Multiplicity = 1

 SCF Done:  E(RHF) =  -494.086292400     A.U. after   13 cycles
 Normal termination of Gaussian 16 at Tue Apr  8 22:31:36 2025.
 Gaussian 16:  ES64L-G16RevC.01  3-Jul-2019

 ----------------------------------------------------------------------
 #t hf aug-cc-pvdz iop(5/13=1,5/36=2,99/5=2) pseudo=read geom=check gue
 ss=(read,tcheck) scf=(maxcycle=1)
 ----------------------------------------------------------------------
 -----
 title
 -----
 Structure from the checkpoint file:  "BBI-008TRP-251HIE-2_mol1.chk"
 Charge =  0 Multiplicity = 1

                         Standard orientation:
 ---------------------------------------------------------------------
 Center     Atomic      Atomic             Coordinates (Angstroms)
 Number     Number       Type             X           Y           Z
 ---------------------------------------------------------------------
      1          6           0       -2.313447    2.056860   -0.094430
      2          6           0       -3.479145   -1.560724    0.077483
      3          6           0       -2.247830    0.546617   -0.028708
      4          8           0       -1.185803   -0.005525    0.257024
      5          7           0       -3.391080   -0.117355   -0.204350
      6          1           0       -3.342123    2.364989   -0.295927
      7          1           0       -4.233933    0.392372   -0.437816
      8          1           0       -2.714345   -1.810105    0.814752
      9          1           0       -1.984265    2.446036    0.880342
     10          1           0       -1.674140    2.427073   -0.909438
     11          1           0       -4.440415   -1.804488    0.553444
     12          1           0       -3.263090   -2.208798   -0.784674
     13          6           0        1.785586   -1.973573   -0.010190
     14          6           0        2.735446    1.709795    0.172359
     15          6           0        2.889005    0.210044   -0.040601
     16          8           0        3.995001   -0.301401   -0.221264
     17          7           0        1.775797   -0.513837    0.018868
     18          1           0        0.876021   -0.056033    0.136523
     19          1           0        2.756514   -2.365781    0.295214
     20          1           0        1.701575    1.981791   -0.039974
     21          1           0        1.010898   -2.337546    0.680742
     22          1           0        1.561908   -2.307621   -1.034096
     23          1           0        2.985452    1.942036    1.218093
     24          1           0        3.375649    2.275720   -0.520371
 ---------------------------------------------------------------------

 SCF Done:  E(RHF) =  -496.371586457     A.U. after    2 cycles

 The electronic state is 1-A.
 Alpha  occ. eigenvalues --  -21.02905 -20.97885 -15.78712 -15.72783 -11.51984
 Alpha  occ. eigenvalues --  -11.46307 -11.41530 -11.40460 -11.37433 -11.36775
 Alpha  occ. eigenvalues --   -1.71902  -1.66348  -1.40968  -1.35967  -1.12596
 Alpha  occ. eigenvalues --   -1.08524  -1.00669  -0.96290  -0.81504  -0.75945
 Alpha  occ. eigenvalues --   -0.69331  -0.65140  -0.64790  -0.63389  -0.60763
 Alpha  occ. eigenvalues --   -0.59965  -0.58723  -0.56159  -0.56076  -0.53698
 Alpha  occ. eigenvalues --   -0.52580  -0.49686  -0.49148  -0.48231  -0.44070
 Alpha  occ. eigenvalues --   -0.43069  -0.32759  -0.30374  -0.27135  -0.25051
 Alpha virt. eigenvalues --    0.02416   0.03732   0.04469   0.04940   0.05471
 Alpha virt. eigenvalues --    0.05549   0.06052   0.06795   0.07028   0.07435
 Alpha virt. eigenvalues --    0.07992   0.08893   0.09985   0.10730   0.11168

 Mulliken charges:
               1
     1  C   -4.215630
     2  C   -3.595590
     3  C    5.486359
     4  O   -3.759881
     5  N   -2.762850
     6  H    1.295036
     7  H    0.709745
     8  H    1.444590
     9  H    1.304128
    10  H    1.280112
    11  H    1.321967
    12  H    1.359378
    13  C   -3.517595
    14  C   -4.498833
    15  C    5.140887
    16  O   -3.394290
    17  N   -2.873670
    18  H    1.171149
    19  H    1.395525
    20  H    1.403229
    21  H    1.414486
    22  H    1.407342
    23  H    1.282457
    24  H    1.201949
 Sum of Mulliken charges =  -0.00000

 Dipole moment (field-independent basis, Debye):
    X=             -7.0047    Y=              0.5086    Z=              0.1192  Tot=              7.0242

 Test job not archived.
 1\1\GINC-SE044\SP\RHF\Aug-CC-pVDZ\C6H14N2O2\OHZDE\08-Apr-2025\0\\#t hf
  aug-cc-pvdz iop(5/13=1,5/36=2,99/5=2) pseudo=read geom=check guess=(r
 ead,tcheck) scf=(maxcycle=1)\\title\\0,1\C,0,-2.67381842,0.70378354,-1
 .48543505\C,0,-2.86881842,1.20078354,2.28156495\C,0,-2.24881842,0.7267
 8354,-0.03343505\O,0,-1.05481842,0.64678354,0.25356495\N,0,-3.20581842
 ,0.92278354,0.87456495\H,0,-3.75481842,0.84978354,-1.54743505\H,0,-4.1
 7181842,0.98078354,0.57756495\H,0,-1.87381842,1.64778354,2.31056495\H,
 0,-2.14963842,1.52407354,-1.99764505\H,0,-2.42861842,-0.26982646,-1.93

 Normal termination of Gaussian 16 at Tue Apr  8 22:31:49 2025.
