 Gaussian 16, Revision C.01,

 ----------------------------------------------------------------------
 #t hf aug-cc-pvdz symm=none int=(grid=ultrafine) guess=(read,tcheck) s
 table=(opt,rrhf)
 ----------------------------------------------------------------------
 -----
 title
 -----
 Symbolic Z-matrix:
 Charge =  0 Multiplicity = 1

 SCF Done:  E(RHF) =  -247.036420300     A.U. after   13 cycles
 Normal termination of Gaussian 16 at Tue Apr  8 22:29:22 2025.
 Gaussian 16:  ES64L-G16RevC.01  3-Jul-2019

 ----------------------------------------------------------------------
 #t hf aug-cc-pvdz iop(5/13=1,5/36=2,99/5=2) pseudo=read geom=check gue
 ss=(read,tcheck) scf=(maxcycle=1)
 ----------------------------------------------------------------------
 -----
 title
 -----
 Structure from the checkpoint file:  "BBI-014VAL-017GLU-1_mol2.chk"
 Charge =  0 Multiplicity = 1

                         Standard orientation:
 ---------------------------------------------------------------------
 Center     Atomic      Atomic             Coordinates (Angstroms)
 Number     Number       Type             X           Y           Z
 ---------------------------------------------------------------------
      1          6           0        2.000613   -0.093973   -0.003138
      2          6           0       -1.816329   -0.574759    0.001396
      3          6           0       -0.477429    0.155032    0.009665
      4          8           0       -0.455433    1.400711   -0.006223
      5          7           0        0.619978   -0.619344    0.007552
      6          1           0        0.502412   -1.631755    0.022109
      7          1           0        1.915389    0.952082   -0.305538
      8          1           0       -1.609341   -1.643915    0.051135
      9          1           0        2.486757   -0.118044    0.983311
     10          1           0        2.558061   -0.702120   -0.730740
     11          1           0       -2.431192   -0.273297    0.862245
     12          1           0       -2.359598   -0.371026   -0.933140
 ---------------------------------------------------------------------

 SCF Done:  E(RHF) =  -248.178051504     A.U. after    2 cycles

 The electronic state is 1-A.
 Alpha  occ. eigenvalues --  -21.00507 -15.76727 -11.48858 -11.40356 -11.38568
 Alpha  occ. eigenvalues --   -1.67702  -1.38794  -1.10571  -0.98901  -0.79038
 Alpha  occ. eigenvalues --   -0.67451  -0.62681  -0.61117  -0.58061  -0.54938
 Alpha  occ. eigenvalues --   -0.52495  -0.46386  -0.45689  -0.29904  -0.27329
 Alpha virt. eigenvalues --    0.03172   0.04651   0.05331   0.05874   0.06649
 Alpha virt. eigenvalues --    0.07008   0.08238   0.10966   0.12136   0.12969
 Alpha virt. eigenvalues --    0.13284   0.14365   0.15454   0.15900   0.16624

 Mulliken charges:
               1
     1  C   -3.356940
     2  C   -4.147857
     3  C    4.899543
     4  O   -3.168836
     5  N   -2.699137
     6  H    0.713123
     7  H    1.406771
     8  H    1.294979
     9  H    1.290498
    10  H    1.299056
    11  H    1.231987
    12  H    1.236813
 Sum of Mulliken charges =  -0.00000

 Dipole moment (field-independent basis, Debye):
    X=              0.9668    Y=             -2.5668    Z=              0.0083  Tot=              2.7428

 Test job not archived.
 1\1\GINC-SE094\SP\RHF\Aug-CC-pVDZ\C3H7N1O1\OHZDE\08-Apr-2025\0\\#t hf
 aug-cc-pvdz iop(5/13=1,5/36=2,99/5=2) pseudo=read geom=check guess=(re
 ad,tcheck) scf=(maxcycle=1)\\title\\0,1\C,0,1.25111888,1.58425868,0.07
 82205\C,0,-0.55288112,-1.80974132,0.2412205\C,0,-0.34288112,-0.3257413
 2,-0.0397795\O,0,-1.25588112,0.33525868,-0.5707795\N,0,0.85811888,0.17
 625868,0.2912205\H,0,1.54311888,-0.44274132,0.7232205\H,0,0.52611888,1
 .98825868,-0.6317795\H,0,0.34611888,-2.18274132,0.7322205\H,0,1.201748
 88,2.19632868,0.9908705\H,0,2.27410888,1.56285868,-0.3255495\H,0,-1.42

 Normal termination of Gaussian 16 at Tue Apr  8 22:29:25 2025.
