 Gaussian 16, Revision C.01,

 ----------------------------------------------------------------------
 #t hf aug-cc-pvdz symm=none int=(grid=ultrafine) guess=(read,tcheck) s
 table=(opt,rrhf)
 ----------------------------------------------------------------------
 -----
 title
 -----
 Symbolic Z-matrix:
 Charge =  0 Multiplicity = 1

 SCF Done:  E(RHF) =  -494.069502760     A.U. after   14 cycles
 Normal termination of Gaussian 16 at Tue Apr  8 22:32:35 2025.
 Gaussian 16:  ES64L-G16RevC.01  3-Jul-2019

 ----------------------------------------------------------------------
 #t hf aug-cc-pvdz iop(5/13=1,5/36=2,99/5=2) pseudo=read geom=check gue
 ss=(read,tcheck) scf=(maxcycle=1)
 ----------------------------------------------------------------------
 -----
 title
 -----
 Structure from the checkpoint file:  "BBI-051ALA-054VAL-1_mol1.chk"
 Charge =  0 Multiplicity = 1

                         Standard orientation:
 ---------------------------------------------------------------------
 Center     Atomic      Atomic             Coordinates (Angstroms)
 Number     Number       Type             X           Y           Z
 ---------------------------------------------------------------------
      1          6           0       -3.257438   -1.879720   -0.233942
      2          6           0       -3.058646    1.897330    0.101185
      3          6           0       -2.684887   -0.474563   -0.230990
      4          8           0       -1.499578   -0.286330   -0.506628
      5          7           0       -3.506897    0.510793    0.102219
      6          1           0       -2.445823   -2.546191    0.050473
      7          1           0       -4.465454    0.309468    0.363437
      8          1           0       -2.397209    2.038812   -0.757204
      9          1           0       -4.066750   -2.016224    0.498443
     10          1           0       -3.580566   -2.157295   -1.248109
     11          1           0       -3.905027    2.584547   -0.044969
     12          1           0       -2.455808    2.168557    0.980405
     13          6           0        1.933543   -0.289751    1.762986
     14          6           0        4.282809    0.044356   -1.166354
     15          6           0        2.414693    0.085362    0.380504
     16          8           0        1.645269    0.562651   -0.474680
     17          7           0        3.689520   -0.167024    0.142111
     18          1           0        2.661130    0.073068    2.484226
     19          1           0        4.293702   -0.461599    0.903036
     20          1           0        3.509330    0.075541   -1.937560
     21          1           0        0.957587    0.187997    1.934067
     22          1           0        1.886065   -1.387161    1.821564
     23          1           0        4.822019    1.002958   -1.184906
     24          1           0        4.962468   -0.787521   -1.403082
 ---------------------------------------------------------------------

 SCF Done:  E(RHF) =  -496.354750777     A.U. after    2 cycles

 The electronic state is 1-A.
 Alpha  occ. eigenvalues --  -20.99089 -20.98389 -15.75487 -15.75042 -11.47705
 Alpha  occ. eigenvalues --  -11.46801 -11.38752 -11.38656 -11.37481 -11.37016
 Alpha  occ. eigenvalues --   -1.67529  -1.66087  -1.38259  -1.38122  -1.09720
 Alpha  occ. eigenvalues --   -1.09577  -0.97970  -0.97456  -0.78335  -0.77884
 Alpha  occ. eigenvalues --   -0.66784  -0.65985  -0.62212  -0.62130  -0.60020
 Alpha  occ. eigenvalues --   -0.59842  -0.57091  -0.57014  -0.53631  -0.53592
 Alpha  occ. eigenvalues --   -0.50776  -0.50231  -0.45173  -0.45015  -0.44406
 Alpha  occ. eigenvalues --   -0.43462  -0.28994  -0.28183  -0.26126  -0.25132
 Alpha virt. eigenvalues --    0.03548   0.04336   0.04812   0.05180   0.05726
 Alpha virt. eigenvalues --    0.05914   0.06253   0.06360   0.06859   0.07728
 Alpha virt. eigenvalues --    0.08329   0.08910   0.09549   0.09669   0.10924

 Mulliken charges:
               1
     1  C   -4.292451
     2  C   -3.656119
     3  C    5.480957
     4  O   -3.494479
     5  N   -2.657415
     6  H    1.238604
     7  H    0.754844
     8  H    1.466375
     9  H    1.231946
    10  H    1.247193
    11  H    1.313517
    12  H    1.365894
    13  C   -4.371322
    14  C   -3.399572
    15  C    5.372456
    16  O   -3.234883
    17  N   -3.098313
    18  H    1.210575
    19  H    0.845912
    20  H    1.427475
    21  H    1.292780
    22  H    1.321888
    23  H    1.324913
    24  H    1.309222
 Sum of Mulliken charges =  -0.00000

 Dipole moment (field-independent basis, Debye):
    X=             -0.3757    Y=             -0.2576    Z=              1.4691  Tot=              1.5381

 Test job not archived.
 1\1\GINC-SE424\SP\RHF\Aug-CC-pVDZ\C6H14N2O2\OHZDE\08-Apr-2025\0\\#t hf
  aug-cc-pvdz iop(5/13=1,5/36=2,99/5=2) pseudo=read geom=check guess=(r
 ead,tcheck) scf=(maxcycle=1)\\title\\0,1\C,0,3.18382991,-1.92653099,0.
 6135734\C,0,3.03282991,1.86646901,0.5225734\C,0,2.61582991,-0.51953099
 ,0.6175734\O,0,1.40082991,-0.34053099,0.7075734\N,0,3.47882991,0.47946
 901,0.4955734\H,0,2.43182991,-2.56353099,0.1525734\H,0,4.46782991,0.28
 846901,0.3815734\H,0,2.23882991,1.95246901,1.2685734\H,0,4.10294991,-2
 .01791099,0.0161834\H,0,3.33646991,-2.27867099,1.6444434\H,0,3.8418099

 Normal termination of Gaussian 16 at Tue Apr  8 22:32:47 2025.
