 Gaussian 16, Revision C.01,

 ----------------------------------------------------------------------
 #t hf aug-cc-pvdz symm=none int=(grid=ultrafine) guess=(read,tcheck) s
 table=(opt,rrhf)
 ----------------------------------------------------------------------
 -----
 title
 -----
 Symbolic Z-matrix:
 Charge =  0 Multiplicity = 1

 SCF Done:  E(RHF) =  -494.085852337     A.U. after   13 cycles
 Normal termination of Gaussian 16 at Tue Apr  8 22:33:05 2025.
 Gaussian 16:  ES64L-G16RevC.01  3-Jul-2019

 ----------------------------------------------------------------------
 #t hf aug-cc-pvdz iop(5/13=1,5/36=2,99/5=2) pseudo=read geom=check gue
 ss=(read,tcheck) scf=(maxcycle=1)
 ----------------------------------------------------------------------
 -----
 title
 -----
 Structure from the checkpoint file:  "BBI-025ILE-070TRP-1_mol1.chk"
 Charge =  0 Multiplicity = 1

                         Standard orientation:
 ---------------------------------------------------------------------
 Center     Atomic      Atomic             Coordinates (Angstroms)
 Number     Number       Type             X           Y           Z
 ---------------------------------------------------------------------
      1          6           0       -2.542411    1.882847    0.556894
      2          6           0       -3.027636   -1.699525   -0.625578
      3          6           0       -2.185107    0.465628    0.119643
      4          8           0       -1.007940    0.160941   -0.082189
      5          7           0       -3.198156   -0.387217   -0.019675
      6          1           0       -3.590998    1.906171    0.857216
      7          1           0       -4.146191   -0.064423    0.136130
      8          1           0       -2.124548   -2.190628   -0.260828
      9          1           0       -1.891295    2.179942    1.392229
     10          1           0       -2.396831    2.565388   -0.293366
     11          1           0       -3.910417   -2.324952   -0.426733
     12          1           0       -2.988065   -1.569079   -1.717100
     13          6           0        2.516800    1.838603   -0.509872
     14          6           0        1.740141   -1.681469    0.717516
     15          6           0        2.569954   -0.561180    0.108046
     16          8           0        3.779223   -0.719029   -0.117067
     17          7           0        1.904540    0.568157   -0.138789
     18          1           0        0.900580    0.569072    0.012489
     19          1           0        3.598855    1.734881   -0.520218
     20          1           0        0.698238   -1.448786    0.532309
     21          1           0        2.165279    2.134345   -1.509356
     22          1           0        2.232416    2.589343    0.242133
     23          1           0        1.991220   -2.647617    0.255440
     24          1           0        1.916356   -1.704959    1.803056
 ---------------------------------------------------------------------

 SCF Done:  E(RHF) =  -496.373618976     A.U. after    2 cycles

 The electronic state is 1-A.
 Alpha  occ. eigenvalues --  -21.03270 -20.97553 -15.78924 -15.72498 -11.52469
 Alpha  occ. eigenvalues --  -11.46078 -11.41888 -11.40768 -11.37841 -11.35855
 Alpha  occ. eigenvalues --   -1.72246  -1.65230  -1.41949  -1.36033  -1.12774
 Alpha  occ. eigenvalues --   -1.08057  -1.00861  -0.96204  -0.81900  -0.75592
 Alpha  occ. eigenvalues --   -0.69747  -0.65193  -0.64764  -0.63549  -0.60452
 Alpha  occ. eigenvalues --   -0.59982  -0.58394  -0.56933  -0.55797  -0.54439
 Alpha  occ. eigenvalues --   -0.52510  -0.49581  -0.49417  -0.48453  -0.43756
 Alpha  occ. eigenvalues --   -0.42242  -0.33013  -0.30806  -0.26711  -0.24502
 Alpha virt. eigenvalues --    0.02255   0.03601   0.04315   0.05095   0.05273
 Alpha virt. eigenvalues --    0.05659   0.05916   0.06495   0.06781   0.08020
 Alpha virt. eigenvalues --    0.08363   0.09134   0.09879   0.11011   0.11283

 Mulliken charges:
               1
     1  C   -4.124662
     2  C   -3.634961
     3  C    5.481139
     4  O   -3.904649
     5  N   -2.935172
     6  H    1.305155
     7  H    0.710714
     8  H    1.575294
     9  H    1.271109
    10  H    1.278722
    11  H    1.296443
    12  H    1.360059
    13  C   -3.425883
    14  C   -4.672476
    15  C    5.104816
    16  O   -3.386024
    17  N   -2.937469
    18  H    1.311157
    19  H    1.400174
    20  H    1.637373
    21  H    1.383125
    22  H    1.403750
    23  H    1.240543
    24  H    1.261723
 Sum of Mulliken charges =   0.00000

 Dipole moment (field-independent basis, Debye):
    X=             -7.1538    Y=              1.1547    Z=              0.1592  Tot=              7.2482

 Test job not archived.
 1\1\GINC-SE393\SP\RHF\Aug-CC-pVDZ\C6H14N2O2\OHZDE\08-Apr-2025\0\\#t hf
  aug-cc-pvdz iop(5/13=1,5/36=2,99/5=2) pseudo=read geom=check guess=(r
 ead,tcheck) scf=(maxcycle=1)\\title\\0,1\C,0,-0.05733484,3.23459655,-0
 .4047127\C,0,-1.81733484,1.66259655,2.5782873\C,0,-0.54633484,2.153596
 55,0.5542873\O,0,-0.39433484,0.96359655,0.2712873\N,0,-1.12433484,2.57
 259655,1.6782873\H,0,-0.11433484,4.20259655,0.0952873\H,0,-1.24233484,
 3.56659655,1.8372873\H,0,-1.25033484,0.74259655,2.7262873\H,0,0.977014
 16,3.01192655,-0.7056137\H,0,-0.71079684,3.24807655,-1.2894757\H,0,-2.

 Normal termination of Gaussian 16 at Tue Apr  8 22:33:18 2025.
