 Gaussian 16, Revision C.01,

 ----------------------------------------------------------------------
 #t hf aug-cc-pvdz symm=none int=(grid=ultrafine) guess=(read,tcheck) s
 table=(opt,rrhf)
 ----------------------------------------------------------------------
 -----
 title
 -----
 Symbolic Z-matrix:
 Charge =  0 Multiplicity = 1

 SCF Done:  E(RHF) =  -494.083823505     A.U. after   14 cycles
 Normal termination of Gaussian 16 at Tue Apr  8 22:31:50 2025.
 Gaussian 16:  ES64L-G16RevC.01  3-Jul-2019

 ----------------------------------------------------------------------
 #t hf aug-cc-pvdz iop(5/13=1,5/36=2,99/5=2) pseudo=read geom=check gue
 ss=(read,tcheck) scf=(maxcycle=1)
 ----------------------------------------------------------------------
 -----
 title
 -----
 Structure from the checkpoint file:  "BBI-004GLU-063LEU-2_mol1.chk"
 Charge =  0 Multiplicity = 1

                         Standard orientation:
 ---------------------------------------------------------------------
 Center     Atomic      Atomic             Coordinates (Angstroms)
 Number     Number       Type             X           Y           Z
 ---------------------------------------------------------------------
      1          6           0        2.490334    1.884149    0.054817
      2          6           0        1.751699   -1.854661    0.046076
      3          6           0        2.549697   -0.551528   -0.019901
      4          8           0        3.804271   -0.557238   -0.149166
      5          7           0        1.834393    0.579536    0.030709
      6          1           0        0.820942    0.535466    0.111230
      7          1           0        3.569427    1.768877    0.158827
      8          1           0        0.699203   -1.648424    0.238004
      9          1           0        2.292391    2.419738   -0.885376
     10          1           0        2.135169    2.469773    0.915579
     11          1           0        1.893757   -2.360158   -0.920514
     12          1           0        2.154499   -2.480979    0.855693
     13          6           0       -2.621462    1.958049   -0.075769
     14          6           0       -2.914501   -1.827270   -0.004142
     15          6           0       -2.197080    0.499388   -0.013640
     16          8           0       -1.011879    0.188417    0.153453
     17          7           0       -3.179596   -0.392480   -0.041037
     18          1           0       -3.707610    2.030486   -0.136773
     19          1           0       -4.141902   -0.076257   -0.117460
     20          1           0       -1.856580   -2.034958   -0.142168
     21          1           0       -2.253532    2.432913    0.845717
     22          1           0       -2.171884    2.446538   -0.952846
     23          1           0       -3.220366   -2.233569    0.971237
     24          1           0       -3.488352   -2.277028   -0.827794
 ---------------------------------------------------------------------

 SCF Done:  E(RHF) =  -496.371848886     A.U. after    2 cycles

 The electronic state is 1-A.
 Alpha  occ. eigenvalues --  -21.03119 -20.97371 -15.79035 -15.72572 -11.52750
 Alpha  occ. eigenvalues --  -11.46339 -11.41975 -11.40860 -11.37289 -11.36417
 Alpha  occ. eigenvalues --   -1.72338  -1.64194  -1.42036  -1.35422  -1.13110
 Alpha  occ. eigenvalues --   -1.07901  -1.00935  -0.96013  -0.82206  -0.75792
 Alpha  occ. eigenvalues --   -0.69628  -0.65426  -0.64776  -0.63884  -0.60242
 Alpha  occ. eigenvalues --   -0.60160  -0.58610  -0.57181  -0.55600  -0.53625
 Alpha  occ. eigenvalues --   -0.52587  -0.49560  -0.48882  -0.48606  -0.43215
 Alpha  occ. eigenvalues --   -0.42008  -0.32799  -0.31036  -0.26419  -0.24544
 Alpha virt. eigenvalues --    0.02254   0.03643   0.04381   0.04534   0.05478
 Alpha virt. eigenvalues --    0.05603   0.05887   0.06808   0.07350   0.08040
 Alpha virt. eigenvalues --    0.08330   0.08932   0.09502   0.10501   0.11206

 Mulliken charges:
               1
     1  C   -3.424210
     2  C   -4.778760
     3  C    5.165035
     4  O   -3.333614
     5  N   -3.022708
     6  H    1.394610
     7  H    1.384566
     8  H    1.674978
     9  H    1.403896
    10  H    1.393577
    11  H    1.267237
    12  H    1.239337
    13  C   -4.043481
    14  C   -3.774345
    15  C    5.390346
    16  O   -4.021571
    17  N   -2.968595
    18  H    1.305684
    19  H    0.772671
    20  H    1.760003
    21  H    1.275727
    22  H    1.282059
    23  H    1.362443
    24  H    1.295118
 Sum of Mulliken charges =   0.00000

 Dipole moment (field-independent basis, Debye):
    X=             -7.2903    Y=              0.7973    Z=              0.0502  Tot=              7.3339

 Test job not archived.
 1\1\GINC-SE252\SP\RHF\Aug-CC-pVDZ\C6H14N2O2\OHZDE\08-Apr-2025\0\\#t hf
  aug-cc-pvdz iop(5/13=1,5/36=2,99/5=2) pseudo=read geom=check guess=(r
 ead,tcheck) scf=(maxcycle=1)\\title\\0,1\C,0,-0.35331962,2.93529294,-0
 .89244818\C,0,1.41168038,0.95729294,1.84555182\C,0,1.00368038,2.144292
 94,0.97155182\O,0,1.46268038,3.30029294,1.18055182\N,0,0.16768038,1.87
 129294,-0.03844818\H,0,-0.15831962,0.91829294,-0.18344818\H,0,-0.07331
 962,3.91329294,-0.50044818\H,0,0.85368038,0.06529294,1.56255182\H,0,0.
 06459038,2.84018294,-1.90551618\H,0,-1.45208962,2.89228794,-0.92183418

 Normal termination of Gaussian 16 at Tue Apr  8 22:32:02 2025.
