 Gaussian 16, Revision C.01,

 ----------------------------------------------------------------------
 #t hf aug-cc-pvdz symm=none int=(grid=ultrafine) guess=(read,tcheck) s
 table=(opt,rrhf)
 ----------------------------------------------------------------------
 -----
 title
 -----
 Symbolic Z-matrix:
 Charge =  0 Multiplicity = 1

 SCF Done:  E(RHF) =  -307.050408118     A.U. after   12 cycles

 1\1\GINC-SE455\Stability\RHF\Aug-CC-pVDZ\C4H10O2\OHZDE\08-Apr-2025\0\\
 #t hf aug-cc-pvdz symm=none int=(grid=ultrafine) guess=(read,tcheck) s
 table=(opt,rrhf)\\title\\0,1\C,0,2.041092,0.351425,-0.324587\H,0,2.813
 519,1.08153,-0.065718\O,0,2.385216,-0.941345,0.170137\C,0,0.680041,0.8
 28725,0.16804\H,0,0.700547,0.891317,1.2614\H,0,0.514623,1.846117,-0.19
 8619\C,0,-0.462451,-0.079619,-0.28027\H,0,-0.246411,-1.10501,0.028744\
 H,0,-0.53006,-0.081175,-1.370459\H,0,2.503171,-0.861875,1.120703\H,0,2
 .030361,0.251489,-1.409683\C,0,-1.80363,0.353671,0.293404\H,0,-1.75716

 Normal termination of Gaussian 16 at Tue Apr  8 22:29:37 2025.
 Gaussian 16:  ES64L-G16RevC.01  3-Jul-2019

 ----------------------------------------------------------------------
 #t hf aug-cc-pvdz iop(5/13=1,5/36=2,99/5=2) pseudo=read geom=check gue
 ss=(read,tcheck) scf=(maxcycle=1)
 ----------------------------------------------------------------------
 -----
 title
 -----
 Structure from the checkpoint file:  "BCONF_B18_mol1.chk"
 Charge =  0 Multiplicity = 1

                         Standard orientation:
 ---------------------------------------------------------------------
 Center     Atomic      Atomic             Coordinates (Angstroms)
 Number     Number       Type             X           Y           Z
 ---------------------------------------------------------------------
      1          6           0        2.041092    0.351425   -0.324587
      2          1           0        2.813519    1.081530   -0.065718
      3          8           0        2.385216   -0.941345    0.170137
      4          6           0        0.680041    0.828725    0.168040
      5          1           0        0.700547    0.891317    1.261400
      6          1           0        0.514623    1.846117   -0.198619
      7          6           0       -0.462451   -0.079619   -0.280270
      8          1           0       -0.246411   -1.105010    0.028744
      9          1           0       -0.530060   -0.081175   -1.370459
     10          1           0        2.503171   -0.861875    1.120703
     11          1           0        2.030361    0.251489   -1.409683
     12          6           0       -1.803630    0.353671    0.293404
     13          1           0       -1.757166    0.355919    1.388316
     14          1           0       -2.039716    1.368996   -0.025013
     15          8           0       -2.887612   -0.448333   -0.165291
     16          1           0       -2.700003   -1.355099    0.092046
 ---------------------------------------------------------------------

 SCF Done:  E(RHF) =  -308.473898865     A.U. after    2 cycles

 The electronic state is 1-A.
 Alpha  occ. eigenvalues --  -21.06905 -21.06367 -11.43940 -11.43241 -11.40015
 Alpha  occ. eigenvalues --  -11.35626  -1.71385  -1.69708  -1.21140  -1.03370
 Alpha  occ. eigenvalues --   -0.89594  -0.83873  -0.67650  -0.65393  -0.62230
 Alpha  occ. eigenvalues --   -0.58403  -0.55216  -0.52909  -0.51341  -0.47998
 Alpha  occ. eigenvalues --   -0.47303  -0.40298  -0.39290  -0.32042  -0.30631
 Alpha virt. eigenvalues --    0.03986   0.04890   0.05123   0.05667   0.05833
 Alpha virt. eigenvalues --    0.06012   0.06907   0.07269   0.08464   0.08859
 Alpha virt. eigenvalues --    0.10723   0.13099   0.13450   0.15234   0.15428

 Mulliken charges:
               1
     1  C   -1.151028
     2  H    1.170007
     3  O   -2.371983
     4  C   -2.537408
     5  H    1.453220
     6  H    1.377496
     7  C   -2.756561
     8  H    1.568095
     9  H    1.421973
    10  H    0.690966
    11  H    1.417928
    12  C   -1.072772
    13  H    1.312306
    14  H    1.403849
    15  O   -2.659161
    16  H    0.733073
 Sum of Mulliken charges =  -0.00000

 Dipole moment (field-independent basis, Debye):
    X=              0.7448    Y=              0.3914    Z=              0.6498  Tot=              1.0631

 Test job not archived.
 1\1\GINC-SE455\SP\RHF\Aug-CC-pVDZ\C4H10O2\OHZDE\08-Apr-2025\0\\#t hf a
 ug-cc-pvdz iop(5/13=1,5/36=2,99/5=2) pseudo=read geom=check guess=(rea
 d,tcheck) scf=(maxcycle=1)\\title\\0,1\C,0,2.041092,0.351425,-0.324587
 \H,0,2.813519,1.08153,-0.065718\O,0,2.385216,-0.941345,0.170137\C,0,0.
 680041,0.828725,0.16804\H,0,0.700547,0.891317,1.2614\H,0,0.514623,1.84
 6117,-0.198619\C,0,-0.462451,-0.079619,-0.28027\H,0,-0.246411,-1.10501
 ,0.028744\H,0,-0.53006,-0.081175,-1.370459\H,0,2.503171,-0.861875,1.12
 0703\H,0,2.030361,0.251489,-1.409683\C,0,-1.80363,0.353671,0.293404\H,

 Normal termination of Gaussian 16 at Tue Apr  8 22:29:41 2025.
