 Gaussian 16, Revision C.01,

 ----------------------------------------------------------------------
 #t hf aug-cc-pvdz symm=none int=(grid=ultrafine) guess=(read,tcheck) s
 table=(opt,rrhf)
 ----------------------------------------------------------------------
 -----
 title
 -----
 Symbolic Z-matrix:
 Charge =  0 Multiplicity = 1

 SCF Done:  E(RHF) =  -307.049059156     A.U. after   12 cycles

 1\1\GINC-SE070\Stability\RHF\Aug-CC-pVDZ\C4H10O2\OHZDE\08-Apr-2025\0\\
 #t hf aug-cc-pvdz symm=none int=(grid=ultrafine) guess=(read,tcheck) s
 table=(opt,rrhf)\\title\\0,1\C,0,1.370096,-0.34089,0.653787\H,0,0.7641
 39,-1.225809,0.836661\O,0,2.060268,-0.596642,-0.570087\C,0,0.487183,0.
 899769,0.590614\H,0,-0.066426,0.964789,1.529242\H,0,1.118124,1.791791,
 0.5328\C,0,-0.487183,0.899757,-0.590632\H,0,0.066425,0.964761,-1.52926
 \H,0,-1.118124,1.79178,-0.532834\H,0,2.658041,0.140575,-0.722352\H,0,2
 .076243,-0.251423,1.4844\C,0,-1.370097,-0.340902,-0.653781\H,0,-2.0762

 Normal termination of Gaussian 16 at Tue Apr  8 22:29:41 2025.
 Gaussian 16:  ES64L-G16RevC.01  3-Jul-2019

 ----------------------------------------------------------------------
 #t hf aug-cc-pvdz iop(5/13=1,5/36=2,99/5=2) pseudo=read geom=check gue
 ss=(read,tcheck) scf=(maxcycle=1)
 ----------------------------------------------------------------------
 -----
 title
 -----
 Structure from the checkpoint file:  "BCONF_B15_mol1.chk"
 Charge =  0 Multiplicity = 1

                         Standard orientation:
 ---------------------------------------------------------------------
 Center     Atomic      Atomic             Coordinates (Angstroms)
 Number     Number       Type             X           Y           Z
 ---------------------------------------------------------------------
      1          6           0       -1.370096   -0.340890   -0.653787
      2          1           0       -0.764139   -1.225809   -0.836661
      3          8           0       -2.060268   -0.596642    0.570087
      4          6           0       -0.487183    0.899769   -0.590614
      5          1           0        0.066426    0.964789   -1.529242
      6          1           0       -1.118124    1.791791   -0.532800
      7          6           0        0.487183    0.899757    0.590632
      8          1           0       -0.066425    0.964761    1.529260
      9          1           0        1.118124    1.791780    0.532834
     10          1           0       -2.658041    0.140575    0.722352
     11          1           0       -2.076243   -0.251423   -1.484400
     12          6           0        1.370097   -0.340902    0.653781
     13          1           0        2.076243   -0.251451    1.484397
     14          1           0        0.764141   -1.225825    0.836637
     15          8           0        2.060271   -0.596633   -0.570097
     16          1           0        2.658014    0.140607   -0.722369
 ---------------------------------------------------------------------

 SCF Done:  E(RHF) =  -308.473216156     A.U. after    2 cycles

 The electronic state is 1-A.
 Alpha  occ. eigenvalues --  -21.06352 -21.06349 -11.43487 -11.43198 -11.39469
 Alpha  occ. eigenvalues --  -11.35493  -1.71042  -1.69456  -1.20242  -1.03137
 Alpha  occ. eigenvalues --   -0.91125  -0.81201  -0.67517  -0.64682  -0.61933
 Alpha  occ. eigenvalues --   -0.59410  -0.56321  -0.52919  -0.48360  -0.47699
 Alpha  occ. eigenvalues --   -0.45990  -0.39980  -0.39283  -0.31890  -0.30591
 Alpha virt. eigenvalues --    0.03946   0.05087   0.05141   0.05509   0.05802
 Alpha virt. eigenvalues --    0.06092   0.06514   0.07404   0.07891   0.09189
 Alpha virt. eigenvalues --    0.13248   0.13523   0.13947   0.14323   0.14730

 Mulliken charges:
               1
     1  C   -0.893946
     2  H    1.564122
     3  O   -2.513633
     4  C   -2.689489
     5  H    1.394836
     6  H    1.264939
     7  C   -2.689496
     8  H    1.394838
     9  H    1.264936
    10  H    0.706716
    11  H    1.166456
    12  C   -0.893941
    13  H    1.166454
    14  H    1.564122
    15  O   -2.513639
    16  H    0.706725
 Sum of Mulliken charges =   0.00000

 Dipole moment (field-independent basis, Debye):
    X=             -0.0000    Y=              1.0595    Z=             -0.0000  Tot=              1.0595

 Test job not archived.
 1\1\GINC-SE070\SP\RHF\Aug-CC-pVDZ\C4H10O2\OHZDE\08-Apr-2025\0\\#t hf a
 ug-cc-pvdz iop(5/13=1,5/36=2,99/5=2) pseudo=read geom=check guess=(rea
 d,tcheck) scf=(maxcycle=1)\\title\\0,1\C,0,1.370096,-0.34089,0.653787\
 H,0,0.764139,-1.225809,0.836661\O,0,2.060268,-0.596642,-0.570087\C,0,0
 .487183,0.899769,0.590614\H,0,-0.066426,0.964789,1.529242\H,0,1.118124
 ,1.791791,0.5328\C,0,-0.487183,0.899757,-0.590632\H,0,0.066425,0.96476
 1,-1.52926\H,0,-1.118124,1.79178,-0.532834\H,0,2.658041,0.140575,-0.72
 2352\H,0,2.076243,-0.251423,1.4844\C,0,-1.370097,-0.340902,-0.653781\H

 Normal termination of Gaussian 16 at Tue Apr  8 22:29:46 2025.
