 Gaussian 16, Revision C.01,

 ----------------------------------------------------------------------
 #t hf aug-cc-pvdz symm=none int=(grid=ultrafine) guess=(read,tcheck) s
 table=(opt,rrhf)
 ----------------------------------------------------------------------
 -----
 title
 -----
 Symbolic Z-matrix:
 Charge =  0 Multiplicity = 1

 SCF Done:  E(RHF) =  -307.051556045     A.U. after   12 cycles

 1\1\GINC-SE435\Stability\RHF\Aug-CC-pVDZ\C4H10O2\OHZDE\08-Apr-2025\0\\
 #t hf aug-cc-pvdz symm=none int=(grid=ultrafine) guess=(read,tcheck) s
 table=(opt,rrhf)\\title\\0,1\C,0,1.578385,0.14769,0.343809\H,0,1.39475
 ,0.012968,1.413545\O,0,1.359929,-1.086203,-0.359782\C,0,0.653845,1.215
 099,-0.221322\H,0,1.057827,2.180283,0.093924\H,0,0.729693,1.184864,-1.
 311438\C,0,-0.817334,1.152127,0.208156\H,0,-1.303525,2.065738,-0.14582
 8\H,0,-0.883765,1.159762,1.29926\H,0,1.98412,-1.734446,-0.021385\H,0,2
 .616286,0.458948,0.206544\C,0,-1.627725,-0.034052,-0.311301\H,0,-2.684

 Normal termination of Gaussian 16 at Tue Apr  8 22:29:42 2025.
 Gaussian 16:  ES64L-G16RevC.01  3-Jul-2019

 ----------------------------------------------------------------------
 #t hf aug-cc-pvdz iop(5/13=1,5/36=2,99/5=2) pseudo=read geom=check gue
 ss=(read,tcheck) scf=(maxcycle=1)
 ----------------------------------------------------------------------
 -----
 title
 -----
 Structure from the checkpoint file:  "BCONF_B11_mol2.chk"
 Charge =  0 Multiplicity = 1

                         Standard orientation:
 ---------------------------------------------------------------------
 Center     Atomic      Atomic             Coordinates (Angstroms)
 Number     Number       Type             X           Y           Z
 ---------------------------------------------------------------------
      1          6           0        1.578385    0.147689    0.343809
      2          1           0        1.394750    0.012967    1.413545
      3          8           0        1.359929   -1.086203   -0.359782
      4          6           0        0.653845    1.215099   -0.221322
      5          1           0        1.057828    2.180283    0.093924
      6          1           0        0.729693    1.184864   -1.311438
      7          6           0       -0.817334    1.152127    0.208156
      8          1           0       -1.303524    2.065738   -0.145828
      9          1           0       -0.883765    1.159762    1.299260
     10          1           0        1.984119   -1.734447   -0.021385
     11          1           0        2.616286    0.458947    0.206544
     12          6           0       -1.627725   -0.034051   -0.311301
     13          1           0       -2.684229    0.151016   -0.118566
     14          1           0       -1.501868   -0.118145   -1.397506
     15          8           0       -1.324262   -1.260154    0.333377
     16          1           0       -0.417652   -1.475314    0.076637
 ---------------------------------------------------------------------

 SCF Done:  E(RHF) =  -308.472782638     A.U. after    2 cycles

 The electronic state is 1-A.
 Alpha  occ. eigenvalues --  -21.08332 -21.03361 -11.44958 -11.42613 -11.39553
 Alpha  occ. eigenvalues --  -11.35353  -1.72888  -1.67883  -1.20525  -1.03558
 Alpha  occ. eigenvalues --   -0.90271  -0.81378  -0.68261  -0.64493  -0.63827
 Alpha  occ. eigenvalues --   -0.59124  -0.56342  -0.53349  -0.48613  -0.47011
 Alpha  occ. eigenvalues --   -0.44468  -0.42095  -0.38289  -0.32776  -0.28923
 Alpha virt. eigenvalues --    0.03731   0.05071   0.05123   0.05394   0.05953
 Alpha virt. eigenvalues --    0.06232   0.06619   0.07239   0.07765   0.09359
 Alpha virt. eigenvalues --    0.12858   0.13248   0.14039   0.14630   0.14987

 Mulliken charges:
               1
     1  C   -1.115712
     2  H    1.516236
     3  O   -2.575200
     4  C   -2.729344
     5  H    1.278961
     6  H    1.484899
     7  C   -2.795188
     8  H    1.270967
     9  H    1.439513
    10  H    0.824726
    11  H    1.292169
    12  C   -1.062830
    13  H    1.226270
    14  H    1.469175
    15  O   -2.802548
    16  H    1.277906
 Sum of Mulliken charges =  -0.00000

 Dipole moment (field-independent basis, Debye):
    X=              1.6110    Y=              0.6075    Z=             -0.0145  Tot=              1.7218

 Test job not archived.
 1\1\GINC-SE435\SP\RHF\Aug-CC-pVDZ\C4H10O2\OHZDE\08-Apr-2025\0\\#t hf a
 ug-cc-pvdz iop(5/13=1,5/36=2,99/5=2) pseudo=read geom=check guess=(rea
 d,tcheck) scf=(maxcycle=1)\\title\\0,1\C,0,1.578385,0.14769,0.343809\H
 ,0,1.39475,0.012968,1.413545\O,0,1.359929,-1.086203,-0.359782\C,0,0.65
 3845,1.215099,-0.221322\H,0,1.057827,2.180283,0.093924\H,0,0.729693,1.
 184864,-1.311438\C,0,-0.817334,1.152127,0.208156\H,0,-1.303525,2.06573
 8,-0.145828\H,0,-0.883765,1.159762,1.29926\H,0,1.98412,-1.734446,-0.02
 1385\H,0,2.616286,0.458948,0.206544\C,0,-1.627725,-0.034052,-0.311301\

 Normal termination of Gaussian 16 at Tue Apr  8 22:29:46 2025.
