 Gaussian 16, Revision C.01,

 ----------------------------------------------------------------------
 #t hf aug-cc-pvdz symm=none int=(grid=ultrafine) guess=(read,tcheck) s
 table=(opt,rrhf)
 ----------------------------------------------------------------------
 -----
 title
 -----
 Symbolic Z-matrix:
 Charge =  0 Multiplicity = 1

 SCF Done:  E(RHF) =  -307.047408095     A.U. after   12 cycles

 1\1\GINC-SE083\Stability\RHF\Aug-CC-pVDZ\C4H10O2\OHZDE\08-Apr-2025\0\\
 #t hf aug-cc-pvdz symm=none int=(grid=ultrafine) guess=(read,tcheck) s
 table=(opt,rrhf)\\title\\0,1\C,0,-1.38662,-0.06982,0.488134\H,0,-1.543
 127,0.660287,1.282218\O,0,-2.689541,-0.408677,0.021739\C,0,-0.512729,0
 .531521,-0.606158\H,0,-0.32899,-0.219569,-1.381057\H,0,-1.079255,1.332
 365,-1.083365\C,0,0.822127,1.084556,-0.098897\H,0,0.633223,1.875529,0.
 633135\H,0,1.35714,1.540532,-0.933359\H,0,-2.585023,-1.04799,-0.688206
 \H,0,-0.905181,-0.943444,0.940155\C,0,1.737082,0.046753,0.546114\H,0,2

 Normal termination of Gaussian 16 at Tue Apr  8 22:30:03 2025.
 Gaussian 16:  ES64L-G16RevC.01  3-Jul-2019

 ----------------------------------------------------------------------
 #t hf aug-cc-pvdz iop(5/13=1,5/36=2,99/5=2) pseudo=read geom=check gue
 ss=(read,tcheck) scf=(maxcycle=1)
 ----------------------------------------------------------------------
 -----
 title
 -----
 Structure from the checkpoint file:  "BCONF_B62_mol1.chk"
 Charge =  0 Multiplicity = 1

                         Standard orientation:
 ---------------------------------------------------------------------
 Center     Atomic      Atomic             Coordinates (Angstroms)
 Number     Number       Type             X           Y           Z
 ---------------------------------------------------------------------
      1          6           0       -1.386620   -0.069820    0.488134
      2          1           0       -1.543127    0.660287    1.282218
      3          8           0       -2.689541   -0.408678    0.021739
      4          6           0       -0.512729    0.531521   -0.606158
      5          1           0       -0.328990   -0.219569   -1.381057
      6          1           0       -1.079255    1.332365   -1.083365
      7          6           0        0.822127    1.084556   -0.098897
      8          1           0        0.633223    1.875529    0.633135
      9          1           0        1.357140    1.540532   -0.933359
     10          1           0       -2.585023   -1.047991   -0.688206
     11          1           0       -0.905181   -0.943444    0.940155
     12          6           0        1.737082    0.046753    0.546114
     13          1           0        2.678332    0.517613    0.824711
     14          1           0        1.290469   -0.351560    1.461646
     15          8           0        2.090532   -1.010941   -0.342913
     16          1           0        1.315328   -1.564869   -0.461645
 ---------------------------------------------------------------------

 SCF Done:  E(RHF) =  -308.471969182     A.U. after    2 cycles

 The electronic state is 1-A.
 Alpha  occ. eigenvalues --  -21.07071 -21.06980 -11.44340 -11.44013 -11.40231
 Alpha  occ. eigenvalues --  -11.36303  -1.71608  -1.70252  -1.21251  -1.03592
 Alpha  occ. eigenvalues --   -0.91566  -0.82696  -0.68628  -0.66493  -0.61418
 Alpha  occ. eigenvalues --   -0.58606  -0.57216  -0.52948  -0.51697  -0.48285
 Alpha  occ. eigenvalues --   -0.46397  -0.40831  -0.40094  -0.31917  -0.31337
 Alpha virt. eigenvalues --    0.03949   0.04979   0.05338   0.05680   0.05774
 Alpha virt. eigenvalues --    0.05935   0.06527   0.06712   0.07578   0.09295
 Alpha virt. eigenvalues --    0.12629   0.13778   0.14125   0.14256   0.14954

 Mulliken charges:
               1
     1  C   -0.703110
     2  H    1.382411
     3  O   -2.735211
     4  C   -2.615992
     5  H    1.461269
     6  H    1.317755
     7  C   -2.695813
     8  H    1.322974
     9  H    1.275079
    10  H    0.713080
    11  H    1.392554
    12  C   -1.059812
    13  H    1.188907
    14  H    1.549831
    15  O   -2.560132
    16  H    0.766209
 Sum of Mulliken charges =  -0.00000

 Dipole moment (field-independent basis, Debye):
    X=              0.0859    Y=              0.1040    Z=              0.0338  Tot=              0.1390

 Test job not archived.
 1\1\GINC-SE083\SP\RHF\Aug-CC-pVDZ\C4H10O2\OHZDE\08-Apr-2025\0\\#t hf a
 ug-cc-pvdz iop(5/13=1,5/36=2,99/5=2) pseudo=read geom=check guess=(rea
 d,tcheck) scf=(maxcycle=1)\\title\\0,1\C,0,-1.38662,-0.06982,0.488134\
 H,0,-1.543127,0.660287,1.282218\O,0,-2.689541,-0.408677,0.021739\C,0,-
 0.512729,0.531521,-0.606158\H,0,-0.32899,-0.219569,-1.381057\H,0,-1.07
 9255,1.332365,-1.083365\C,0,0.822127,1.084556,-0.098897\H,0,0.633223,1
 .875529,0.633135\H,0,1.35714,1.540532,-0.933359\H,0,-2.585023,-1.04799
 ,-0.688206\H,0,-0.905181,-0.943444,0.940155\C,0,1.737082,0.046753,0.54

 Normal termination of Gaussian 16 at Tue Apr  8 22:30:10 2025.
