 Gaussian 16, Revision C.01,

 ----------------------------------------------------------------------
 #t hf aug-cc-pvdz symm=none int=(grid=ultrafine) guess=(read,tcheck) s
 table=(opt,rrhf)
 ----------------------------------------------------------------------
 -----
 title
 -----
 Symbolic Z-matrix:
 Charge =  0 Multiplicity = 1

 SCF Done:  E(RHF) =  -307.050566395     A.U. after   12 cycles

 1\1\GINC-SE073\Stability\RHF\Aug-CC-pVDZ\C4H10O2\OHZDE\08-Apr-2025\0\\
 #t hf aug-cc-pvdz symm=none int=(grid=ultrafine) guess=(read,tcheck) s
 table=(opt,rrhf)\\title\\0,1\C,0,2.046373,0.354631,0.32139\H,0,2.04438
 2,0.24001,1.410792\O,0,2.462541,-0.852415,-0.311477\C,0,0.679427,0.834
 504,-0.151869\H,0,0.48614,1.813229,0.29777\H,0,0.71619,0.975438,-1.234
 491\C,0,-0.449077,-0.128363,0.210783\H,0,-0.469658,-0.295035,1.290804\
 H,0,-0.292182,-1.097521,-0.267034\H,0,1.897684,-1.559049,0.010687\H,0,
 2.807259,1.091009,0.068123\C,0,-1.807219,0.388704,-0.223631\H,0,-2.011

 Normal termination of Gaussian 16 at Tue Apr  8 22:29:40 2025.
 Gaussian 16:  ES64L-G16RevC.01  3-Jul-2019

 ----------------------------------------------------------------------
 #t hf aug-cc-pvdz iop(5/13=1,5/36=2,99/5=2) pseudo=read geom=check gue
 ss=(read,tcheck) scf=(maxcycle=1)
 ----------------------------------------------------------------------
 -----
 title
 -----
 Structure from the checkpoint file:  "BCONF_B21_mol1.chk"
 Charge =  0 Multiplicity = 1

                         Standard orientation:
 ---------------------------------------------------------------------
 Center     Atomic      Atomic             Coordinates (Angstroms)
 Number     Number       Type             X           Y           Z
 ---------------------------------------------------------------------
      1          6           0        2.046373    0.354631    0.321390
      2          1           0        2.044382    0.240010    1.410792
      3          8           0        2.462541   -0.852415   -0.311477
      4          6           0        0.679427    0.834504   -0.151869
      5          1           0        0.486140    1.813229    0.297770
      6          1           0        0.716190    0.975438   -1.234491
      7          6           0       -0.449077   -0.128363    0.210783
      8          1           0       -0.469658   -0.295035    1.290804
      9          1           0       -0.292182   -1.097521   -0.267034
     10          1           0        1.897684   -1.559049    0.010687
     11          1           0        2.807259    1.091009    0.068123
     12          6           0       -1.807219    0.388704   -0.223631
     13          1           0       -2.011490    1.347766    0.263948
     14          1           0       -1.809647    0.553967   -1.306023
     15          8           0       -2.780715   -0.585286    0.144620
     16          1           0       -3.640316   -0.265062   -0.139761
 ---------------------------------------------------------------------

 SCF Done:  E(RHF) =  -308.473573529     A.U. after    2 cycles

 The electronic state is 1-A.
 Alpha  occ. eigenvalues --  -21.06878 -21.06343 -11.44055 -11.43530 -11.39925
 Alpha  occ. eigenvalues --  -11.35519  -1.71408  -1.69737  -1.21108  -1.03530
 Alpha  occ. eigenvalues --   -0.89422  -0.83212  -0.67746  -0.65214  -0.62997
 Alpha  occ. eigenvalues --   -0.60162  -0.55475  -0.54480  -0.47880  -0.47562
 Alpha  occ. eigenvalues --   -0.44648  -0.41507  -0.39978  -0.32176  -0.31177
 Alpha virt. eigenvalues --    0.04097   0.05034   0.05106   0.05709   0.06027
 Alpha virt. eigenvalues --    0.06478   0.06700   0.07467   0.08147   0.08977
 Alpha virt. eigenvalues --    0.11248   0.13172   0.14418   0.14543   0.14983

 Mulliken charges:
               1
     1  C   -1.246901
     2  H    1.446425
     3  O   -2.478337
     4  C   -2.382849
     5  H    1.400400
     6  H    1.433632
     7  C   -2.933377
     8  H    1.411753
     9  H    1.448532
    10  H    0.766706
    11  H    1.153136
    12  C   -0.879362
    13  H    1.441531
    14  H    1.448150
    15  O   -2.852703
    16  H    0.823266
 Sum of Mulliken charges =  -0.00000

 Dipole moment (field-independent basis, Debye):
    X=             -0.7257    Y=              0.7325    Z=              0.1253  Tot=              1.0387

 Test job not archived.
 1\1\GINC-SE073\SP\RHF\Aug-CC-pVDZ\C4H10O2\OHZDE\08-Apr-2025\0\\#t hf a
 ug-cc-pvdz iop(5/13=1,5/36=2,99/5=2) pseudo=read geom=check guess=(rea
 d,tcheck) scf=(maxcycle=1)\\title\\0,1\C,0,2.046373,0.354631,0.32139\H
 ,0,2.044382,0.24001,1.410792\O,0,2.462541,-0.852415,-0.311477\C,0,0.67
 9427,0.834504,-0.151869\H,0,0.48614,1.813229,0.29777\H,0,0.71619,0.975
 438,-1.234491\C,0,-0.449077,-0.128363,0.210783\H,0,-0.469658,-0.295035
 ,1.290804\H,0,-0.292182,-1.097521,-0.267034\H,0,1.897684,-1.559049,0.0
 10687\H,0,2.807259,1.091009,0.068123\C,0,-1.807219,0.388704,-0.223631\

 Normal termination of Gaussian 16 at Tue Apr  8 22:29:45 2025.
