 Gaussian 16, Revision C.01,

 ----------------------------------------------------------------------
 #t hf aug-cc-pvdz symm=none int=(grid=ultrafine) guess=(read,tcheck) s
 table=(opt,rrhf)
 ----------------------------------------------------------------------
 -----
 title
 -----
 Symbolic Z-matrix:
 Charge =  0 Multiplicity = 1

 SCF Done:  E(RHF) =  -307.048229462     A.U. after   12 cycles

 1\1\GINC-SE049\Stability\RHF\Aug-CC-pVDZ\C4H10O2\OHZDE\08-Apr-2025\0\\
 #t hf aug-cc-pvdz symm=none int=(grid=ultrafine) guess=(read,tcheck) s
 table=(opt,rrhf)\\title\\0,1\C,0,1.392977,0.251812,-0.685299\H,0,0.798
 345,1.121323,-0.97958\O,0,2.215852,0.557522,0.44143\C,0,0.492488,-0.95
 6477,-0.460561\H,0,-0.069485,-1.137183,-1.37811\H,0,1.120648,-1.830367
 ,-0.279152\C,0,-0.4873,-0.80134,0.706668\H,0,0.059272,-0.735098,1.6512
 59\H,0,-1.109908,-1.695102,0.770127\H,0,1.642052,0.873627,1.143317\H,0
 ,2.085737,0.043566,-1.498809\C,0,-1.396798,0.41135,0.592379\H,0,-2.104

 Normal termination of Gaussian 16 at Tue Apr  8 22:30:01 2025.
 Gaussian 16:  ES64L-G16RevC.01  3-Jul-2019

 ----------------------------------------------------------------------
 #t hf aug-cc-pvdz iop(5/13=1,5/36=2,99/5=2) pseudo=read geom=check gue
 ss=(read,tcheck) scf=(maxcycle=1)
 ----------------------------------------------------------------------
 -----
 title
 -----
 Structure from the checkpoint file:  "BCONF_B36_mol1.chk"
 Charge =  0 Multiplicity = 1

                         Standard orientation:
 ---------------------------------------------------------------------
 Center     Atomic      Atomic             Coordinates (Angstroms)
 Number     Number       Type             X           Y           Z
 ---------------------------------------------------------------------
      1          6           0       -1.392977   -0.251812   -0.685299
      2          1           0       -0.798345   -1.121323   -0.979580
      3          8           0       -2.215852   -0.557522    0.441430
      4          6           0       -0.492488    0.956477   -0.460561
      5          1           0        0.069485    1.137183   -1.378110
      6          1           0       -1.120648    1.830367   -0.279152
      7          6           0        0.487300    0.801340    0.706668
      8          1           0       -0.059272    0.735098    1.651259
      9          1           0        1.109908    1.695102    0.770127
     10          1           0       -1.642052   -0.873627    1.143317
     11          1           0       -2.085737   -0.043566   -1.498809
     12          6           0        1.396798   -0.411350    0.592379
     13          1           0        2.104441   -0.416674    1.426437
     14          1           0        0.813796   -1.337540    0.647826
     15          8           0        2.082929   -0.329199   -0.654948
     16          1           0        2.680014   -1.079182   -0.714288
 ---------------------------------------------------------------------

 SCF Done:  E(RHF) =  -308.471493823     A.U. after    2 cycles

 The electronic state is 1-A.
 Alpha  occ. eigenvalues --  -21.07208 -21.06113 -11.44199 -11.42984 -11.39672
 Alpha  occ. eigenvalues --  -11.35368  -1.71665  -1.69581  -1.20291  -1.03552
 Alpha  occ. eigenvalues --   -0.91126  -0.80610  -0.67898  -0.67524  -0.62266
 Alpha  occ. eigenvalues --   -0.58856  -0.55406  -0.53950  -0.48837  -0.45921
 Alpha  occ. eigenvalues --   -0.45599  -0.40835  -0.39716  -0.32590  -0.30787
 Alpha virt. eigenvalues --    0.03796   0.05034   0.05423   0.05611   0.05966
 Alpha virt. eigenvalues --    0.06027   0.06422   0.06859   0.07989   0.09012
 Alpha virt. eigenvalues --    0.13242   0.13751   0.14355   0.14504   0.14858

 Mulliken charges:
               1
     1  C   -0.901379
     2  H    1.543235
     3  O   -2.604858
     4  C   -2.873087
     5  H    1.427537
     6  H    1.310608
     7  C   -2.715736
     8  H    1.378908
     9  H    1.306557
    10  H    0.770854
    11  H    1.194313
    12  C   -0.838077
    13  H    1.278669
    14  H    1.542176
    15  O   -2.605706
    16  H    0.785987
 Sum of Mulliken charges =  -0.00000

 Dipole moment (field-independent basis, Debye):
    X=              1.1057    Y=             -0.3848    Z=              0.2223  Tot=              1.1917

 Test job not archived.
 1\1\GINC-SE049\SP\RHF\Aug-CC-pVDZ\C4H10O2\OHZDE\08-Apr-2025\0\\#t hf a
 ug-cc-pvdz iop(5/13=1,5/36=2,99/5=2) pseudo=read geom=check guess=(rea
 d,tcheck) scf=(maxcycle=1)\\title\\0,1\C,0,1.392977,0.251812,-0.685299
 \H,0,0.798345,1.121323,-0.97958\O,0,2.215852,0.557522,0.44143\C,0,0.49
 2488,-0.956477,-0.460561\H,0,-0.069485,-1.137183,-1.37811\H,0,1.120648
 ,-1.830367,-0.279152\C,0,-0.4873,-0.80134,0.706668\H,0,0.059272,-0.735
 098,1.651259\H,0,-1.109908,-1.695102,0.770127\H,0,1.642052,0.873627,1.
 143317\H,0,2.085737,0.043566,-1.498809\C,0,-1.396798,0.41135,0.592379\

 Normal termination of Gaussian 16 at Tue Apr  8 22:30:06 2025.
