 Gaussian 16, Revision C.01,

 ----------------------------------------------------------------------
 #t hf aug-cc-pvdz symm=none int=(grid=ultrafine) guess=(read,tcheck) s
 table=(opt,rrhf)
 ----------------------------------------------------------------------
 -----
 title
 -----
 Symbolic Z-matrix:
 Charge =  0 Multiplicity = 1

 SCF Done:  E(RHF) =  -525.894464572     A.U. after   13 cycles
 Normal termination of Gaussian 16 at Wed Apr  9 00:33:56 2025.
 Gaussian 16:  ES64L-G16RevC.01  3-Jul-2019

 ----------------------------------------------------------------------
 #t hf aug-cc-pvdz iop(5/13=1,5/36=2,99/5=2) pseudo=read geom=check gue
 ss=(read,tcheck) scf=(maxcycle=1)
 ----------------------------------------------------------------------
 -----
 title
 -----
 Structure from the checkpoint file:  "BDE49_nonexpt_420_mol1.chk"
 Charge =  0 Multiplicity = 1

                         Standard orientation:
 ---------------------------------------------------------------------
 Center     Atomic      Atomic             Coordinates (Angstroms)
 Number     Number       Type             X           Y           Z
 ---------------------------------------------------------------------
      1          9           0        2.718141   -0.844091    0.197862
      2          5           0        1.664694   -0.092370   -0.059739
      3          9           0        1.843647    1.128740   -0.522037
      4          8           0        0.433321   -0.655062    0.116572
      5          6           0       -0.728554    0.061093    0.186915
      6          8           0       -0.826545    1.176198    0.607098
      7          8           0       -1.707804   -0.722176   -0.250434
      8          6           0       -3.025915   -0.138178   -0.190941
      9          1           0       -3.072621    0.754576   -0.815231
     10          1           0       -3.276965    0.123676    0.837326
     11          1           0       -3.694938   -0.907408   -0.567553
 ---------------------------------------------------------------------

 SCF Done:  E(RHF) =  -527.920149384     A.U. after    2 cycles

 The electronic state is 1-A.
 Alpha  occ. eigenvalues --  -29.27144 -29.26990 -21.12279 -21.10072 -21.07691
 Alpha  occ. eigenvalues --  -11.57179 -11.43759  -7.74982  -1.95361  -1.79415
 Alpha  occ. eigenvalues --   -1.69862  -1.13790  -1.02938  -0.83731  -0.79522
 Alpha  occ. eigenvalues --   -0.71642  -0.67187  -0.64309  -0.61142  -0.58044
 Alpha  occ. eigenvalues --   -0.55808  -0.52562  -0.49097  -0.47075  -0.44034
 Alpha  occ. eigenvalues --   -0.39863  -0.36306  -0.35501  -0.34642  -0.28679
 Alpha  occ. eigenvalues --   -0.27486
 Alpha virt. eigenvalues --   -0.00417   0.03378   0.04175   0.05452   0.05994
 Alpha virt. eigenvalues --    0.06116   0.06339   0.09579   0.12719   0.13566
 Alpha virt. eigenvalues --    0.13834   0.14977   0.15319   0.16024   0.16832

 Mulliken charges:
               1
     1  F   -0.408710
     2  B    1.910362
     3  F   -0.668117
     4  O   -2.763387
     5  C    6.152634
     6  O   -2.243691
     7  O   -2.844762
     8  C   -3.030167
     9  H    1.266926
    10  H    1.277950
    11  H    1.350962
 Sum of Mulliken charges =   0.00000

 Dipole moment (field-independent basis, Debye):
    X=              0.5376    Y=              0.7182    Z=             -0.8528  Tot=              1.2378

 Test job not archived.
 1\1\GINC-SE340\SP\RHF\Aug-CC-pVDZ\C2H3B1F2O3\OHZDE\09-Apr-2025\0\\#t h
 f aug-cc-pvdz iop(5/13=1,5/36=2,99/5=2) pseudo=read geom=check guess=(
 read,tcheck) scf=(maxcycle=1)\\title\\0,1\F,0,2.718141,-0.844091,0.197
 862\B,0,1.664694,-0.09237,-0.059739\F,0,1.843647,1.12874,-0.522037\O,0
 ,0.433321,-0.655062,0.116572\C,0,-0.728554,0.061093,0.186915\O,0,-0.82
 6545,1.176198,0.607098\O,0,-1.707804,-0.722176,-0.250434\C,0,-3.025915
 ,-0.138178,-0.190941\H,0,-3.072621,0.754576,-0.815231\H,0,-3.276965,0.
 123676,0.837326\H,0,-3.694938,-0.907408,-0.567553\\Version=ES64L-G16Re

 Normal termination of Gaussian 16 at Wed Apr  9 00:34:00 2025.
