 Gaussian 16, Revision C.01,

 ----------------------------------------------------------------------
 #t hf aug-cc-pvdz symm=none int=(grid=ultrafine) guess=(read,tcheck) s
 table=opt
 ----------------------------------------------------------------------
 -----
 title
 -----
 Symbolic Z-matrix:
 Charge =  0 Multiplicity = 2

 SCF Done:  E(UHF) =  -529.512029031     A.U. after   19 cycles
 Normal termination of Gaussian 16 at Tue Apr  8 23:39:09 2025.
 Gaussian 16:  ES64L-G16RevC.01  3-Jul-2019

 ----------------------------------------------------------------------
 #t hf aug-cc-pvdz iop(5/13=1,5/36=2,99/5=2) pseudo=read geom=check gue
 ss=(read,tcheck) scf=(maxcycle=1)
 ----------------------------------------------------------------------
 -----
 title
 -----
 Structure from the checkpoint file:  "BDE49_nonexpt_1575_mol2.chk"
 Charge =  0 Multiplicity = 2

                         Standard orientation:
 ---------------------------------------------------------------------
 Center     Atomic      Atomic             Coordinates (Angstroms)
 Number     Number       Type             X           Y           Z
 ---------------------------------------------------------------------
      1          6           0       -0.476422    0.132500   -0.000009
      2         15           0        1.375431   -0.143454   -0.000003
      3          8           0       -1.053784    1.188155   -0.000002
      4          8           0       -1.113960   -1.065077    0.000006
      5          1           0       -2.066972   -0.878855    0.000011
      6          1           0        1.635990    1.251043    0.000047
 ---------------------------------------------------------------------

 SCF Done:  E(UHF) =  -530.432656570     A.U. after    2 cycles

 The electronic state is 2-A.
 Alpha  occ. eigenvalues -- -105.21329 -21.13447 -21.07850 -11.51097  -2.79244
 Alpha  occ. eigenvalues --   -1.83690  -1.67296  -1.49718  -1.47318  -1.47075
 Alpha  occ. eigenvalues --   -0.85375  -0.70846  -0.61621  -0.55945  -0.52664
 Alpha  occ. eigenvalues --   -0.38402  -0.36048  -0.23906  -0.08110  -0.00513
 Alpha virt. eigenvalues --    0.04109   0.06701   0.08299   0.10617   0.11534
 Alpha virt. eigenvalues --    0.12538   0.13225   0.13558   0.15990   0.20117
 Alpha virt. eigenvalues --    0.20120   0.20691   0.21716   0.22409   0.25058

  Beta  occ. eigenvalues -- -105.20704 -21.13485 -21.07270 -11.51457  -2.77327
  Beta  occ. eigenvalues --   -1.83533  -1.66447  -1.47885  -1.45187  -1.23064
  Beta  occ. eigenvalues --   -0.84330  -0.68561  -0.61423  -0.56153  -0.51794
  Beta  occ. eigenvalues --   -0.38061  -0.34447  -0.24494  -0.06271
  Beta virt. eigenvalues --    0.04157   0.06740   0.07454   0.08631   0.11272
  Beta virt. eigenvalues --    0.12605   0.13152   0.13859   0.15172   0.16646
  Beta virt. eigenvalues --    0.20523   0.20817   0.21589   0.22435   0.25233

 Mulliken charges and spin densities:
               1          2
     1  C    2.385888  -0.220073
     2  P    2.541969   1.233790
     3  O   -2.380518   0.164345
     4  O   -2.464006  -0.012705
     5  H    0.834292   0.004193
     6  H   -0.917625  -0.169551
 Sum of Mulliken charges =  -0.00000   1.00000

 Dipole moment (field-independent basis, Debye):
    X=              1.9314    Y=             -2.8949    Z=             -0.0000  Tot=              3.4801
                          Isotropic Fermi Contact Couplings
        Atom                 a.u.       MegaHertz       Gauss      10(-4) cm-1
     1  C(13)             -0.01738     -19.54228      -6.97317      -6.51860
     2  P(31)              0.25343     458.98827     163.77843     153.10201
     3  O(17)              0.03288     -19.92898      -7.11116      -6.64759
     4  O(17)             -0.00571       3.46031       1.23472       1.15424
     5  H(1)              -0.00036      -1.58748      -0.56645      -0.52953
     6  H(1)              -0.00737     -32.92539     -11.74860     -10.98273
 --------------------------------------------------------
       Center         ----  Spin Dipole Couplings  ----

 Normal termination of Gaussian 16 at Tue Apr  8 23:39:11 2025.
