 Gaussian 16, Revision C.01,

 ----------------------------------------------------------------------
 #t hf aug-cc-pvdz symm=none int=(grid=ultrafine) guess=(read,tcheck) s
 table=opt
 ----------------------------------------------------------------------
 -----
 title
 -----
 Symbolic Z-matrix:
 Charge =  0 Multiplicity = 2

 SCF Done:  E(UHF) =  -375.228767655     A.U. after   15 cycles
 Normal termination of Gaussian 16 at Tue Apr  8 22:39:28 2025.
 Gaussian 16:  ES64L-G16RevC.01  3-Jul-2019

 ----------------------------------------------------------------------
 #t hf aug-cc-pvdz iop(5/13=1,5/36=2,99/5=2) pseudo=read geom=check gue
 ss=(read,tcheck) scf=(maxcycle=1)
 ----------------------------------------------------------------------
 -----
 title
 -----
 Structure from the checkpoint file:  "BDE49_expt_123_mol2.chk"
 Charge =  0 Multiplicity = 2

                         Standard orientation:
 ---------------------------------------------------------------------
 Center     Atomic      Atomic             Coordinates (Angstroms)
 Number     Number       Type             X           Y           Z
 ---------------------------------------------------------------------
      1          6           0       -0.018237    0.000000   -0.009086
      2          9           0        0.466866   -0.000021    1.261471
      3          6           0       -1.494948    0.000002   -0.037186
      4          9           0        0.495257   -1.090939   -0.618638
      5          9           0        0.495260    1.090959   -0.618602
      6          1           0       -2.018672   -0.941836    0.029774
      7          1           0       -2.018671    0.941840    0.029774
 ---------------------------------------------------------------------

 SCF Done:  E(UHF) =  -376.579235493     A.U. after    2 cycles

 The electronic state is 2-A.
 Alpha  occ. eigenvalues --  -29.30779 -29.30730 -29.30348 -11.59934 -11.42900
 Alpha  occ. eigenvalues --   -1.43019  -1.05673  -0.88662  -0.88159  -0.71759
 Alpha  occ. eigenvalues --   -0.62018  -0.47847  -0.44541  -0.43349  -0.42473
 Alpha  occ. eigenvalues --   -0.35891  -0.32436  -0.31701  -0.25319  -0.23737
 Alpha  occ. eigenvalues --   -0.21213
 Alpha virt. eigenvalues --    0.04061   0.05629   0.10452   0.10945   0.12073
 Alpha virt. eigenvalues --    0.12956   0.13524   0.16725   0.18743   0.21223
 Alpha virt. eigenvalues --    0.22794   0.23017   0.25375   0.26973   0.28658

  Beta  occ. eigenvalues --  -29.30727 -29.30678 -29.30130 -11.60151 -11.40646
  Beta  occ. eigenvalues --   -1.41974  -0.98629  -0.88527  -0.86588  -0.70471
  Beta  occ. eigenvalues --   -0.60818  -0.47739  -0.43295  -0.43201  -0.36338
  Beta  occ. eigenvalues --   -0.35725  -0.30567  -0.25363  -0.25293  -0.21067
  Beta virt. eigenvalues --    0.04194   0.05658   0.07450   0.10518   0.11079
  Beta virt. eigenvalues --    0.12980   0.13435   0.16668   0.17757   0.18895
  Beta virt. eigenvalues --    0.21566   0.22873   0.23293   0.26381   0.27182

 Mulliken charges and spin densities:
               1          2
     1  C   -0.342998  -0.269157
     2  F    0.421542   0.013963
     3  C   -3.570184   1.398933
     4  F    0.449460   0.000418
     5  F    0.449462   0.000418
     6  H    1.296360  -0.072288
     7  H    1.296356  -0.072289
 Sum of Mulliken charges =   0.00000   1.00000

 Dipole moment (field-independent basis, Debye):
    X=              1.0923    Y=             -0.0000    Z=              0.1922  Tot=              1.1090
                          Isotropic Fermi Contact Couplings
        Atom                 a.u.       MegaHertz       Gauss      10(-4) cm-1
     1  C(13)             -0.02556     -28.73702     -10.25408      -9.58564
     2  F(19)              0.02379     100.10583      35.72025      33.39171
     3  C(13)              0.12970     145.80678      52.02748      48.63591
     4  F(19)              0.00410      17.25014       6.15528       5.75403
     5  F(19)              0.00410      17.24729       6.15426       5.75308
     6  H(1)              -0.01849     -82.63125     -29.48488     -27.56282
     7  H(1)              -0.01849     -82.63146     -29.48496     -27.56289
 --------------------------------------------------------

 Normal termination of Gaussian 16 at Tue Apr  8 22:39:30 2025.
