 Gaussian 16, Revision C.01,

 ----------------------------------------------------------------------
 #t hf aug-cc-pvdz symm=none int=(grid=ultrafine) guess=(read,tcheck) s
 table=(opt,rrhf)
 ----------------------------------------------------------------------
 -----
 title
 -----
 Symbolic Z-matrix:
 Charge =  0 Multiplicity = 1

 SCF Done:  E(RHF) =  -459.590746574     A.U. after   12 cycles
 Normal termination of Gaussian 16 at Tue Apr  8 23:28:09 2025.
 Gaussian 16:  ES64L-G16RevC.01  3-Jul-2019

 ----------------------------------------------------------------------
 #t hf aug-cc-pvdz iop(5/13=1,5/36=2,99/5=2) pseudo=read geom=check gue
 ss=(read,tcheck) scf=(maxcycle=1)
 ----------------------------------------------------------------------
 -----
 title
 -----
 Structure from the checkpoint file:  "BDE49_nonexpt_1308_mol1.chk"
 Charge =  0 Multiplicity = 1

                         Standard orientation:
 ---------------------------------------------------------------------
 Center     Atomic      Atomic             Coordinates (Angstroms)
 Number     Number       Type             X           Y           Z
 ---------------------------------------------------------------------
      1          6           0        0.839331    0.634290   -0.046135
      2         15           0       -0.532571   -0.634127   -0.135463
      3          6           0       -2.023394    0.463667    0.068662
      4          1           0       -2.903806   -0.158441    0.245207
      5          1           0       -2.189729    1.014907   -0.860025
      6          1           0       -1.923645    1.177263    0.889663
      7          6           0        2.226558   -0.010590    0.055127
      8          1           0        0.670638    1.318153    0.791329
      9          1           0        0.772447    1.229571   -0.963144
     10          1           0        2.329086   -0.592034    0.975899
     11          1           0        3.012850    0.749563    0.055677
     12          1           0        2.414470   -0.685106   -0.784557
     13          1           0       -0.448716   -1.066168    1.215974
 ---------------------------------------------------------------------

 SCF Done:  E(RHF) =  -460.421449474     A.U. after    2 cycles

 The electronic state is 1-A.
 Alpha  occ. eigenvalues -- -105.15969 -11.39734 -11.36614 -11.35487  -2.73701
 Alpha  occ. eigenvalues --   -1.46733  -1.44319  -1.41990  -1.13131  -0.99662
 Alpha  occ. eigenvalues --   -0.86903  -0.66925  -0.61146  -0.56275  -0.55754
 Alpha  occ. eigenvalues --   -0.54879  -0.49357  -0.48811  -0.23463  -0.19080
 Alpha  occ. eigenvalues --   -0.01082
 Alpha virt. eigenvalues --    0.04635   0.04871   0.06244   0.06395   0.06577
 Alpha virt. eigenvalues --    0.07104   0.07391   0.08314   0.08690   0.10259
 Alpha virt. eigenvalues --    0.11490   0.13159   0.14150   0.14972   0.16172

 Mulliken charges:
               1
     1  C   -4.407277
     2  P    5.110626
     3  C   -5.659084
     4  H    1.189625
     5  H    1.106948
     6  H    1.112594
     7  C   -3.879612
     8  H    1.169704
     9  H    1.346415
    10  H    1.345038
    11  H    1.006977
    12  H    1.203468
    13  H   -0.645423
 Sum of Mulliken charges =   0.00000

 Dipole moment (field-independent basis, Debye):
    X=              0.3162    Y=             -0.7639    Z=             -0.0948  Tot=              0.8322

 Test job not archived.
 1\1\GINC-SE074\SP\RHF\Aug-CC-pVDZ\C3H9P1\OHZDE\08-Apr-2025\0\\#t hf au
 g-cc-pvdz iop(5/13=1,5/36=2,99/5=2) pseudo=read geom=check guess=(read
 ,tcheck) scf=(maxcycle=1)\\title\\0,1\C,0,0.839331,0.63429,-0.046135\P
 ,0,-0.532571,-0.634127,-0.135463\C,0,-2.023394,0.463667,0.068662\H,0,-
 2.903806,-0.158441,0.245207\H,0,-2.189729,1.014907,-0.860025\H,0,-1.92
 3645,1.177263,0.889663\C,0,2.226558,-0.01059,0.055127\H,0,0.670638,1.3
 18153,0.791329\H,0,0.772447,1.229571,-0.963144\H,0,2.329086,-0.592034,
 0.975899\H,0,3.01285,0.749563,0.055677\H,0,2.41447,-0.685106,-0.784557

 Normal termination of Gaussian 16 at Tue Apr  8 23:28:13 2025.
