 Gaussian 16, Revision C.01,

 ----------------------------------------------------------------------
 #t hf aug-cc-pvdz symm=none int=(grid=ultrafine) guess=(read,tcheck) s
 table=(opt,rrhf)
 ----------------------------------------------------------------------
 -----
 title
 -----
 Symbolic Z-matrix:
 Charge =  0 Multiplicity = 1

 SCF Done:  E(RHF) =  -631.766760640     A.U. after   12 cycles

 1\1\GINC-SE403\Stability\RHF\Aug-CC-pVDZ\C6H12S1\OHZDE\08-Apr-2025\0\\
 #t hf aug-cc-pvdz symm=none int=(grid=ultrafine) guess=(read,tcheck) s
 table=(opt,rrhf)\\title\\0,1\C,0,1.567578,-1.263297,0.214079\C,0,0.069
 758,-1.265122,-0.13226\C,0,2.271029,-0.004993,-0.312617\H,0,2.038569,-
 2.163085,-0.193709\H,0,1.686699,-1.316293,1.303678\C,0,-0.616638,0.012
 203,0.373691\H,0,-0.41806,-2.14617,0.294755\H,0,-0.053319,-1.328239,-1
 .22061\C,0,1.576136,1.270162,0.183963\H,0,2.260637,-0.017785,-1.409918
 \H,0,3.322937,-0.005764,-0.01017\C,0,0.078194,1.268577,-0.16536\H,0,2.

 Normal termination of Gaussian 16 at Tue Apr  8 22:47:18 2025.
 Gaussian 16:  ES64L-G16RevC.01  3-Jul-2019

 ----------------------------------------------------------------------
 #t hf aug-cc-pvdz iop(5/13=1,5/36=2,99/5=2) pseudo=read geom=check gue
 ss=(read,tcheck) scf=(maxcycle=1)
 ----------------------------------------------------------------------
 -----
 title
 -----
 Structure from the checkpoint file:  "BDE49_expt_1558_mol1.chk"
 Charge =  0 Multiplicity = 1

                         Standard orientation:
 ---------------------------------------------------------------------
 Center     Atomic      Atomic             Coordinates (Angstroms)
 Number     Number       Type             X           Y           Z
 ---------------------------------------------------------------------
      1          6           0        1.567578   -1.263297    0.214079
      2          6           0        0.069758   -1.265122   -0.132260
      3          6           0        2.271029   -0.004993   -0.312617
      4          1           0        2.038569   -2.163085   -0.193709
      5          1           0        1.686699   -1.316293    1.303678
      6          6           0       -0.616638    0.012203    0.373691
      7          1           0       -0.418060   -2.146170    0.294755
      8          1           0       -0.053319   -1.328239   -1.220610
      9          6           0        1.576135    1.270162    0.183963
     10          1           0        2.260637   -0.017785   -1.409918
     11          1           0        3.322937   -0.005763   -0.010170
     12          6           0        0.078193    1.268577   -0.165360
     13          1           0        2.052635    2.157024   -0.245397
     14          1           0        1.696588    1.348490    1.272052
     15          1           0       -0.404135    2.165671    0.235409
     16          1           0       -0.050416    1.301410   -1.253229
     17         16           0       -2.402939   -0.074862   -0.104910
     18          1           0       -2.779305    1.081020    0.469339
     19          1           0       -0.582133    0.016333    1.467383
 ---------------------------------------------------------------------

 SCF Done:  E(RHF) =  -633.204715479     A.U. after    2 cycles

 The electronic state is 1-A.
 Alpha  occ. eigenvalues --  -75.67590 -13.14465 -13.09830 -13.02116 -11.44790
 Alpha  occ. eigenvalues --  -11.43901 -11.42518 -11.38258 -11.37755 -11.34514
 Alpha  occ. eigenvalues --   -8.01442  -1.33691  -1.15708  -1.10628  -1.02828
 Alpha  occ. eigenvalues --   -0.88982  -0.86112  -0.78543  -0.66098  -0.61956
 Alpha  occ. eigenvalues --   -0.61466  -0.60826  -0.53333  -0.52185  -0.48956
 Alpha  occ. eigenvalues --   -0.48539  -0.47450  -0.44900  -0.42894  -0.39539
 Alpha  occ. eigenvalues --   -0.34344  -0.23196
 Alpha virt. eigenvalues --    0.03952   0.04659   0.05307   0.05376   0.05611
 Alpha virt. eigenvalues --    0.05691   0.05842   0.06007   0.06453   0.08349
 Alpha virt. eigenvalues --    0.08941   0.08980   0.10730   0.12598   0.13073

 Mulliken charges:
               1
     1  C   -2.731948
     2  C   -2.997760
     3  C   -2.673639
     4  H    1.282535
     5  H    1.335011
     6  C   -1.571153
     7  H    1.404603
     8  H    1.425920
     9  C   -2.622886
    10  H    1.389073
    11  H    1.301442
    12  C   -2.984641
    13  H    1.302723
    14  H    1.335767
    15  H    1.405659
    16  H    1.493432
    17  S   -0.657948
    18  H    0.926129
    19  H    1.637679
 Sum of Mulliken charges =  -0.00000

 Dipole moment (field-independent basis, Debye):
    X=              0.9904    Y=             -0.8095    Z=             -0.2930  Tot=              1.3123

 Test job not archived.
 1\1\GINC-SE403\SP\RHF\Aug-CC-pVDZ\C6H12S1\OHZDE\08-Apr-2025\0\\#t hf a
 ug-cc-pvdz iop(5/13=1,5/36=2,99/5=2) pseudo=read geom=check guess=(rea
 d,tcheck) scf=(maxcycle=1)\\title\\0,1\C,0,1.567578,-1.263297,0.214079
 \C,0,0.069758,-1.265122,-0.13226\C,0,2.271029,-0.004993,-0.312617\H,0,
 2.038569,-2.163085,-0.193709\H,0,1.686699,-1.316293,1.303678\C,0,-0.61
 6638,0.012203,0.373691\H,0,-0.41806,-2.14617,0.294755\H,0,-0.053319,-1
 .328239,-1.22061\C,0,1.576136,1.270162,0.183963\H,0,2.260637,-0.017785
 ,-1.409918\H,0,3.322937,-0.005764,-0.01017\C,0,0.078194,1.268577,-0.16

 Normal termination of Gaussian 16 at Tue Apr  8 22:47:26 2025.
