 Gaussian 16, Revision C.01,

 ----------------------------------------------------------------------
 #t hf aug-cc-pvdz symm=none int=(grid=ultrafine) guess=(read,tcheck) s
 table=(opt,rrhf)
 ----------------------------------------------------------------------
 -----
 title
 -----
 Symbolic Z-matrix:
 Charge =  0 Multiplicity = 1

 SCF Done:  E(RHF) =  -734.179195398     A.U. after   15 cycles
 Normal termination of Gaussian 16 at Tue Apr  8 23:12:04 2025.
 Gaussian 16:  ES64L-G16RevC.01  3-Jul-2019

 ----------------------------------------------------------------------
 #t hf aug-cc-pvdz iop(5/13=1,5/36=2,99/5=2) pseudo=read geom=check gue
 ss=(read,tcheck) scf=(maxcycle=1)
 ----------------------------------------------------------------------
 -----
 title
 -----
 Structure from the checkpoint file:  "BDE49_expt_503_mol1.chk"
 Charge =  0 Multiplicity = 1

                         Standard orientation:
 ---------------------------------------------------------------------
 Center     Atomic      Atomic             Coordinates (Angstroms)
 Number     Number       Type             X           Y           Z
 ---------------------------------------------------------------------
      1          6           0        3.491333    1.178861    0.000010
      2          6           0        2.110362    1.326973   -0.000025
      3          6           0        4.059776   -0.093621    0.000028
      4          6           0        3.230457   -1.211793    0.000011
      5          6           0        1.843719   -1.081627   -0.000025
      6          6           0        1.280383    0.199067   -0.000044
      7          1           0        1.671037    2.319800   -0.000039
      8          1           0        4.122364    2.060042    0.000023
      9          1           0        3.662220   -2.206089    0.000024
     10          1           0        1.203025   -1.949647   -0.000041
     11          7           0       -0.116754    0.427758   -0.000083
     12          1           0        5.136935   -0.210479    0.000056
     13          6           0       -1.120537   -0.488188   -0.000101
     14          1           0       -0.401347    1.396508   -0.000089
     15          8           0       -1.029330   -1.694812    0.000014
     16          6           0       -2.537894    0.147635    0.000015
     17          9           0       -3.218431   -0.237874   -1.085189
     18          9           0       -2.506377    1.508057    0.000050
     19          9           0       -3.218294   -0.237937    1.085285
 ---------------------------------------------------------------------

 SCF Done:  E(RHF) =  -737.165973930     A.U. after    2 cycles

 The electronic state is 1-A.
 Alpha  occ. eigenvalues --  -29.33324 -29.32796 -29.32767 -21.07003 -15.81582
 Alpha  occ. eigenvalues --  -11.63832 -11.54691 -11.54265 -11.47402 -11.44980
 Alpha  occ. eigenvalues --  -11.42485 -11.42018 -11.37935  -1.75433  -1.48426
 Alpha  occ. eigenvalues --   -1.41743  -1.31123  -1.10954  -1.10489  -0.94893
 Alpha  occ. eigenvalues --   -0.90686  -0.90362  -0.89224  -0.84609  -0.78645
 Alpha  occ. eigenvalues --   -0.73063  -0.68859  -0.60786  -0.60646  -0.59897
 Alpha  occ. eigenvalues --   -0.58244  -0.54540  -0.51461  -0.49627  -0.48321
 Alpha  occ. eigenvalues --   -0.46578  -0.45519  -0.45103  -0.41990  -0.40062
 Alpha  occ. eigenvalues --   -0.37353  -0.36707  -0.34554  -0.29465  -0.27954
 Alpha  occ. eigenvalues --   -0.27368  -0.26590  -0.23225
 Alpha virt. eigenvalues --    0.03133   0.04915   0.05014   0.06003   0.07127
 Alpha virt. eigenvalues --    0.08647   0.09883   0.09977   0.10557   0.11057
 Alpha virt. eigenvalues --    0.11713   0.11756   0.12317   0.12506   0.12572

 Mulliken charges:
               1
     1  C   -0.725379
     2  C   -2.809328
     3  C   -3.248482
     4  C   -0.564747
     5  C   -3.000599
     6  C    4.946812
     7  H    1.804923
     8  H    1.512452
     9  H    1.495026
    10  H    1.980324
    11  N   -4.388881
    12  H    1.565989
    13  C    1.441511
    14  H    0.705562
    15  O   -3.592516
    16  C    1.838144
    17  F    0.308929
    18  F    0.421355
    19  F    0.308907
 Sum of Mulliken charges =   0.00000

 Dipole moment (field-independent basis, Debye):
    X=             -0.5587    Y=              2.3576    Z=              0.0002  Tot=              2.4229

 Test job not archived.
 1\1\GINC-SE058\SP\RHF\Aug-CC-pVDZ\C8H6F3N1O1\OHZDE\08-Apr-2025\0\\#t h
 f aug-cc-pvdz iop(5/13=1,5/36=2,99/5=2) pseudo=read geom=check guess=(
 read,tcheck) scf=(maxcycle=1)\\title\\0,1\C,0,3.491333,1.178861,0.0000
 1\C,0,2.110362,1.326973,-0.000025\C,0,4.059776,-0.093621,0.000028\C,0,
 3.230457,-1.211793,0.000011\C,0,1.843719,-1.081627,-0.000025\C,0,1.280
 383,0.199067,-0.000044\H,0,1.671037,2.3198,-0.000039\H,0,4.122364,2.06
 0042,0.000023\H,0,3.66222,-2.206089,0.000024\H,0,1.203025,-1.949647,-0
 .000041\N,0,-0.116754,0.427758,-0.000083\H,0,5.136935,-0.210479,0.0000

 Normal termination of Gaussian 16 at Tue Apr  8 23:12:17 2025.
