 Gaussian 16, Revision C.01,

 ----------------------------------------------------------------------
 #t hf aug-cc-pvdz symm=none int=(grid=ultrafine) guess=(read,tcheck) s
 table=(opt,rrhf)
 ----------------------------------------------------------------------
 -----
 title
 -----
 Symbolic Z-matrix:
 Charge =  0 Multiplicity = 1

 SCF Done:  E(RHF) =  -207.851500940     A.U. after   11 cycles

 1\1\GINC-SE363\Stability\RHF\Aug-CC-pVDZ\C4H12B2\OHZDE\08-Apr-2025\0\\
 #t hf aug-cc-pvdz symm=none int=(grid=ultrafine) guess=(read,tcheck) s
 table=(opt,rrhf)\\title\\0,1\B,0,0.838325,0.000007,-0.00001\B,0,-0.838
 325,-0.000002,-0.000001\C,0,1.655304,-1.011407,-0.900076\H,0,1.82898,-
 1.898619,-0.269351\H,0,2.648884,-0.645178,-1.182007\H,0,1.14123,-1.372
 581,-1.795396\C,0,-1.655294,-1.011409,0.900081\H,0,-1.82897,-1.898629,
 0.269366\H,0,-2.648874,-0.645181,1.182015\H,0,-1.141214,-1.372572,1.79
 5402\C,0,1.655304,1.011411,0.900066\H,0,2.648884,0.645179,1.181994\H,0

 Normal termination of Gaussian 16 at Tue Apr  8 23:56:48 2025.
 Gaussian 16:  ES64L-G16RevC.01  3-Jul-2019

 ----------------------------------------------------------------------
 #t hf aug-cc-pvdz iop(5/13=1,5/36=2,99/5=2) pseudo=read geom=check gue
 ss=(read,tcheck) scf=(maxcycle=1)
 ----------------------------------------------------------------------
 -----
 title
 -----
 Structure from the checkpoint file:  "BDE49_nonexpt_1_mol1.chk"
 Charge =  0 Multiplicity = 1

                         Standard orientation:
 ---------------------------------------------------------------------
 Center     Atomic      Atomic             Coordinates (Angstroms)
 Number     Number       Type             X           Y           Z
 ---------------------------------------------------------------------
      1          5           0       -0.838325   -0.000007   -0.000010
      2          5           0        0.838325    0.000002   -0.000001
      3          6           0       -1.655304    1.011407   -0.900076
      4          1           0       -1.828980    1.898619   -0.269351
      5          1           0       -2.648884    0.645178   -1.182007
      6          1           0       -1.141230    1.372581   -1.795396
      7          6           0        1.655294    1.011409    0.900081
      8          1           0        1.828970    1.898629    0.269366
      9          1           0        2.648874    0.645181    1.182015
     10          1           0        1.141214    1.372572    1.795402
     11          6           0       -1.655304   -1.011411    0.900066
     12          1           0       -2.648884   -0.645179    1.181994
     13          1           0       -1.141231   -1.372577    1.795390
     14          1           0       -1.828980   -1.898629    0.269350
     15          6           0        1.655313   -1.011403   -0.900068
     16          1           0        2.648894   -0.645168   -1.181991
     17          1           0        1.141247   -1.372575   -1.795393
     18          1           0        1.828990   -1.898618   -0.269347
 ---------------------------------------------------------------------

 SCF Done:  E(RHF) =  -208.928638299     A.U. after    2 cycles

 The electronic state is 1-A.
 Alpha  occ. eigenvalues --  -11.33731 -11.33200 -11.32686 -11.32590  -7.56716
 Alpha  occ. eigenvalues --   -7.55534  -1.15199  -1.10031  -0.99790  -0.99448
 Alpha  occ. eigenvalues --   -0.74360  -0.60799  -0.57767  -0.55330  -0.55222
 Alpha  occ. eigenvalues --   -0.53974  -0.52964  -0.52503  -0.52482  -0.51340
 Alpha  occ. eigenvalues --   -0.40293  -0.39891  -0.31275
 Alpha virt. eigenvalues --    0.03192   0.03211   0.03389   0.03434   0.07440
 Alpha virt. eigenvalues --    0.07514   0.07614   0.08035   0.08186   0.08223
 Alpha virt. eigenvalues --    0.08396   0.08549   0.08649   0.09495   0.09729

 Mulliken charges:
               1
     1  B    6.823499
     2  B    6.823502
     3  C   -6.692051
     4  H    0.853609
     5  H    1.419403
     6  H    1.007319
     7  C   -6.692060
     8  H    0.853594
     9  H    1.419393
    10  H    1.007309
    11  C   -6.692063
    12  H    1.419389
    13  H    1.007304
    14  H    0.853589
    15  C   -6.692054
    16  H    1.419397
    17  H    1.007316
    18  H    0.853604
 Sum of Mulliken charges =  -0.00000

 Dipole moment (field-independent basis, Debye):
    X=             -0.0000    Y=             -0.0000    Z=             -0.0000  Tot=              0.0000

 Test job not archived.
 1\1\GINC-SE363\SP\RHF\Aug-CC-pVDZ\C4H12B2\OHZDE\08-Apr-2025\0\\#t hf a
 ug-cc-pvdz iop(5/13=1,5/36=2,99/5=2) pseudo=read geom=check guess=(rea
 d,tcheck) scf=(maxcycle=1)\\title\\0,1\B,0,0.838325,0.000007,-0.00001\
 B,0,-0.838325,-0.000002,-0.000001\C,0,1.655304,-1.011407,-0.900076\H,0
 ,1.82898,-1.898619,-0.269351\H,0,2.648884,-0.645178,-1.182007\H,0,1.14
 123,-1.372581,-1.795396\C,0,-1.655294,-1.011409,0.900081\H,0,-1.82897,
 -1.898629,0.269366\H,0,-2.648874,-0.645181,1.182015\H,0,-1.141214,-1.3
 72572,1.795402\C,0,1.655304,1.011411,0.900066\H,0,2.648884,0.645179,1.

 Normal termination of Gaussian 16 at Tue Apr  8 23:56:53 2025.
