 Gaussian 16, Revision C.01,

 ----------------------------------------------------------------------
 #t hf aug-cc-pvdz symm=none int=(grid=ultrafine) guess=(read,tcheck) s
 table=(opt,rrhf)
 ----------------------------------------------------------------------
 -----
 title
 -----
 Symbolic Z-matrix:
 Charge =  0 Multiplicity = 1

 SCF Done:  E(RHF) =  -756.907221370     A.U. after   18 cycles
 Normal termination of Gaussian 16 at Tue Apr  8 22:56:22 2025.
 Gaussian 16:  ES64L-G16RevC.01  3-Jul-2019

 ----------------------------------------------------------------------
 #t hf aug-cc-pvdz iop(5/13=1,5/36=2,99/5=2) pseudo=read geom=check gue
 ss=(read,tcheck) scf=(maxcycle=1)
 ----------------------------------------------------------------------
 -----
 title
 -----
 Structure from the checkpoint file:  "BDE49_expt_1824_mol1.chk"
 Charge =  0 Multiplicity = 1

                         Standard orientation:
 ---------------------------------------------------------------------
 Center     Atomic      Atomic             Coordinates (Angstroms)
 Number     Number       Type             X           Y           Z
 ---------------------------------------------------------------------
      1          7           0        2.536763   -0.016947    0.726003
      2          8           0        1.839900   -0.040737    1.656557
      3         16           0        1.645807    0.025451   -1.009685
      4          6           0       -0.047920    0.012473   -0.508557
      5          6           0       -0.714120   -1.204174   -0.308946
      6          6           0       -2.038477   -1.211100    0.117434
      7          6           0       -2.703883   -0.009509    0.355536
      8          6           0       -2.041561    1.202920    0.169368
      9          6           0       -0.717177    1.217717   -0.256685
     10          1           0       -0.196762    2.156319   -0.402809
     11          1           0       -3.736072   -0.017951    0.686585
     12          1           0       -2.555934    2.138348    0.357828
     13          1           0       -0.191407   -2.134296   -0.495497
     14          1           0       -2.550449   -2.155075    0.265473
 ---------------------------------------------------------------------

 SCF Done:  E(RHF) =  -758.776830839     A.U. after    2 cycles

 The electronic state is 1-A.
 Alpha  occ. eigenvalues --  -75.71101 -21.17563 -15.92606 -13.19988 -13.09270
 Alpha  occ. eigenvalues --  -13.08707 -11.52869 -11.44890 -11.44425 -11.42608
 Alpha  occ. eigenvalues --  -11.41675 -11.37793  -8.04972  -1.91439  -1.36644
 Alpha  occ. eigenvalues --   -1.18817  -1.10587  -1.06935  -0.93611  -0.87901
 Alpha  occ. eigenvalues --   -0.83585  -0.71950  -0.65410  -0.62981  -0.59764
 Alpha  occ. eigenvalues --   -0.59618  -0.59022  -0.56612  -0.53287  -0.51328
 Alpha  occ. eigenvalues --   -0.46426  -0.39866  -0.35502  -0.34260  -0.25859
 Alpha  occ. eigenvalues --   -0.24605
 Alpha virt. eigenvalues --    0.03168   0.04941   0.05053   0.05769   0.06508
 Alpha virt. eigenvalues --    0.07887   0.08733   0.09322   0.10737   0.11085
 Alpha virt. eigenvalues --    0.11347   0.13244   0.13525   0.13942   0.14136

 Mulliken charges:
               1
     1  N    1.375470
     2  O   -1.801316
     3  S    0.727246
     4  C    2.356731
     5  C   -3.217828
     6  C   -1.163295
     7  C   -2.037730
     8  C   -1.160988
     9  C   -3.223849
    10  H    1.764014
    11  H    1.518719
    12  H    1.549351
    13  H    1.764110
    14  H    1.549365
 Sum of Mulliken charges =   0.00000

 Dipole moment (field-independent basis, Debye):
    X=             -1.9870    Y=              0.0033    Z=             -0.1689  Tot=              1.9942

 Test job not archived.
 1\1\GINC-SE454\SP\RHF\Aug-CC-pVDZ\C6H5N1O1S1\OHZDE\08-Apr-2025\0\\#t h
 f aug-cc-pvdz iop(5/13=1,5/36=2,99/5=2) pseudo=read geom=check guess=(
 read,tcheck) scf=(maxcycle=1)\\title\\0,1\N,0,2.536763,-0.016947,0.726
 003\O,0,1.8399,-0.040737,1.656557\S,0,1.645807,0.025451,-1.009685\C,0,
 -0.04792,0.012473,-0.508557\C,0,-0.71412,-1.204174,-0.308946\C,0,-2.03
 8477,-1.2111,0.117434\C,0,-2.703883,-0.009509,0.355536\C,0,-2.041561,1
 .20292,0.169368\C,0,-0.717177,1.217717,-0.256685\H,0,-0.196762,2.15631
 9,-0.402809\H,0,-3.736072,-0.017951,0.686585\H,0,-2.555934,2.138348,0.

 Normal termination of Gaussian 16 at Tue Apr  8 22:56:28 2025.
