 Gaussian 16, Revision C.01,

 ----------------------------------------------------------------------
 #t hf aug-cc-pvdz symm=none int=(grid=ultrafine) guess=(read,tcheck) s
 table=(opt,rrhf)
 ----------------------------------------------------------------------
 -----
 title
 -----
 Symbolic Z-matrix:
 Charge =  0 Multiplicity = 1

 SCF Done:  E(RHF) =  -1085.35381962     A.U. after   14 cycles
 Normal termination of Gaussian 16 at Tue Apr  8 23:01:46 2025.
 Gaussian 16:  ES64L-G16RevC.01  3-Jul-2019

 ----------------------------------------------------------------------
 #t hf aug-cc-pvdz iop(5/13=1,5/36=2,99/5=2) pseudo=read geom=check gue
 ss=(read,tcheck) scf=(maxcycle=1)
 ----------------------------------------------------------------------
 -----
 title
 -----
 Structure from the checkpoint file:  "BDE49_expt_1981_mol1.chk"
 Charge =  0 Multiplicity = 1

                         Standard orientation:
 ---------------------------------------------------------------------
 Center     Atomic      Atomic             Coordinates (Angstroms)
 Number     Number       Type             X           Y           Z
 ---------------------------------------------------------------------
      1          6           0       -1.352521   -0.190098   -0.731355
      2         17           0        1.181649    1.327526   -0.040254
      3         16           0        0.229854   -0.577556    0.060629
      4          6           0       -2.241095    0.730722    0.090685
      5          1           0       -1.787957   -1.184903   -0.866222
      6          1           0       -1.086398    0.210049   -1.709982
      7          1           0       -2.439794    0.306724    1.075088
      8          1           0       -3.193131    0.858965   -0.430165
      9          1           0       -1.787402    1.714295    0.216749
     10          8           0        0.981499   -1.450636   -0.795576
     11          8           0        0.029837   -0.858854    1.454676
 ---------------------------------------------------------------------

 SCF Done:  E(RHF) =  -1086.89684618     A.U. after    2 cycles

 The electronic state is 1-A.
 Alpha  occ. eigenvalues --  -99.91531 -75.93692 -21.08754 -21.08734 -13.56948
 Alpha  occ. eigenvalues --  -13.44233 -13.33317 -11.46979 -11.40969 -10.48772
 Alpha  occ. eigenvalues --   -9.68610  -9.67957  -9.67852  -8.28698  -1.86818
 Alpha  occ. eigenvalues --   -1.68471  -1.32746  -1.23066  -1.02051  -0.89057
 Alpha  occ. eigenvalues --   -0.70930  -0.66530  -0.63634  -0.59565  -0.57125
 Alpha  occ. eigenvalues --   -0.55969  -0.53944  -0.52752  -0.45857  -0.45516
 Alpha  occ. eigenvalues --   -0.41652  -0.39209  -0.38659
 Alpha virt. eigenvalues --    0.02335   0.04771   0.05152   0.05392   0.06739
 Alpha virt. eigenvalues --    0.07999   0.09432   0.10199   0.11479   0.11570
 Alpha virt. eigenvalues --    0.13323   0.14062   0.14965   0.15864   0.15976

 Mulliken charges:
               1
     1  C   -3.942720
     2  Cl  -0.197876
     3  S    5.606014
     4  C   -3.311148
     5  H    1.543434
     6  H    1.424608
     7  H    1.309729
     8  H    1.131248
     9  H    1.278587
    10  O   -2.460029
    11  O   -2.381846
 Sum of Mulliken charges =   0.00000

 Dipole moment (field-independent basis, Debye):
    X=             -3.0089    Y=             -0.6292    Z=             -0.7412  Tot=              3.1621

 Test job not archived.
 1\1\GINC-SE250\SP\RHF\Aug-CC-pVDZ\C2H5Cl1O2S1\OHZDE\08-Apr-2025\0\\#t
 hf aug-cc-pvdz iop(5/13=1,5/36=2,99/5=2) pseudo=read geom=check guess=
 (read,tcheck) scf=(maxcycle=1)\\title\\0,1\C,0,-1.352521,-0.190099,-0.
 731355\Cl,0,1.181648,1.327527,-0.040254\S,0,0.229854,-0.577556,0.06062
 9\C,0,-2.241095,0.730721,0.090685\H,0,-1.787956,-1.184904,-0.866222\H,
 0,-1.086398,0.210049,-1.709982\H,0,-2.439794,0.306723,1.075088\H,0,-3.
 193131,0.858964,-0.430165\H,0,-1.787403,1.714294,0.216749\O,0,0.9815,-
 1.450636,-0.795576\O,0,0.029837,-0.858854,1.454676\\Version=ES64L-G16R

 Normal termination of Gaussian 16 at Tue Apr  8 23:01:50 2025.
