 Gaussian 16, Revision C.01,

 ----------------------------------------------------------------------
 #t hf aug-cc-pvdz symm=none int=(grid=ultrafine) guess=(read,tcheck) s
 table=(opt,rrhf)
 ----------------------------------------------------------------------
 -----
 title
 -----
 Symbolic Z-matrix:
 Charge =  0 Multiplicity = 1

 SCF Done:  E(RHF) =  -572.249804648     A.U. after   17 cycles
 Normal termination of Gaussian 16 at Tue Apr  8 23:19:49 2025.
 Gaussian 16:  ES64L-G16RevC.01  3-Jul-2019

 ----------------------------------------------------------------------
 #t hf aug-cc-pvdz iop(5/13=1,5/36=2,99/5=2) pseudo=read geom=check gue
 ss=(read,tcheck) scf=(maxcycle=1)
 ----------------------------------------------------------------------
 -----
 title
 -----
 Structure from the checkpoint file:  "BDE49_nonexpt_1099_mol1.chk"
 Charge =  0 Multiplicity = 1

                         Standard orientation:
 ---------------------------------------------------------------------
 Center     Atomic      Atomic             Coordinates (Angstroms)
 Number     Number       Type             X           Y           Z
 ---------------------------------------------------------------------
      1          9           0       -1.571834   -0.323685   -0.016932
      2         16           0        0.994156   -0.126133   -0.095289
      3          8           0       -0.371274    0.675046    0.059544
      4          1           0        1.210197   -0.469064    1.200668
 ---------------------------------------------------------------------

 SCF Done:  E(RHF) =  -573.115676821     A.U. after    2 cycles

 The electronic state is 1-A.
 Alpha  occ. eigenvalues --  -75.77972 -29.28448 -21.20723 -13.28027 -13.16438
 Alpha  occ. eigenvalues --  -13.10264  -8.11988  -1.82460  -1.08776  -0.70636
 Alpha  occ. eigenvalues --   -0.61225  -0.53766  -0.43557  -0.38746  -0.27365
 Alpha  occ. eigenvalues --   -0.24378  -0.22820
 Alpha virt. eigenvalues --    0.02846   0.07892   0.09299   0.11667   0.15103
 Alpha virt. eigenvalues --    0.17078   0.18308   0.23193   0.24196   0.25116
 Alpha virt. eigenvalues --    0.26394   0.27946   0.31615   0.33038   0.34541

 Mulliken charges:
               1
     1  F    0.007080
     2  S    0.335648
     3  O   -1.290063
     4  H    0.947335
 Sum of Mulliken charges =  -0.00000

 Dipole moment (field-independent basis, Debye):
    X=             -0.6367    Y=             -1.2421    Z=             -0.8886  Tot=              1.6546

 Test job not archived.
 1\1\GINC-SE343\SP\RHF\Aug-CC-pVDZ\F1H1O1S1\OHZDE\08-Apr-2025\0\\#t hf
 aug-cc-pvdz iop(5/13=1,5/36=2,99/5=2) pseudo=read geom=check guess=(re
 ad,tcheck) scf=(maxcycle=1)\\title\\0,1\F,0,-1.571834,-0.323685,-0.016
 932\S,0,0.994156,-0.126133,-0.095289\O,0,-0.371274,0.675046,0.059544\H
 ,0,1.210197,-0.469064,1.200668\\Version=ES64L-G16RevC.01\State=1-A\HF=
 -573.1156768\RMSD=7.175e-02\Dipole=-0.2504997,-0.488696,-0.3495844\Qua
 drupole=0.927686,-1.5340942,0.6064081,-1.0595503,-0.4478827,-0.4405466
 \PG=C01 [X(F1H1O1S1)]\\@

 Normal termination of Gaussian 16 at Tue Apr  8 23:19:50 2025.
