 Gaussian 16, Revision C.01,

 ----------------------------------------------------------------------
 #t hf aug-cc-pvdz symm=none int=(grid=ultrafine) guess=(read,tcheck) s
 table=(opt,rrhf)
 ----------------------------------------------------------------------
 -----
 title
 -----
 Symbolic Z-matrix:
 Charge =  0 Multiplicity = 1

 SCF Done:  E(RHF) =  -444.253376105     A.U. after   12 cycles
 Normal termination of Gaussian 16 at Wed Apr  9 00:03:31 2025.
 Gaussian 16:  ES64L-G16RevC.01  3-Jul-2019

 ----------------------------------------------------------------------
 #t hf aug-cc-pvdz iop(5/13=1,5/36=2,99/5=2) pseudo=read geom=check gue
 ss=(read,tcheck) scf=(maxcycle=1)
 ----------------------------------------------------------------------
 -----
 title
 -----
 Structure from the checkpoint file:  "BDE49_nonexpt_2166_mol1.chk"
 Charge =  0 Multiplicity = 1

                         Standard orientation:
 ---------------------------------------------------------------------
 Center     Atomic      Atomic             Coordinates (Angstroms)
 Number     Number       Type             X           Y           Z
 ---------------------------------------------------------------------
      1         14           0        0.762470   -0.510817    0.177607
      2          8           0        1.380547    0.971758   -0.235935
      3          1           0        2.265409    1.204698    0.051630
      4          6           0       -1.010779   -0.541601   -0.414297
      5          6           0       -1.908999    0.543082    0.207307
      6          1           0       -1.527354    1.542637   -0.013591
      7          1           0       -1.958551    0.442461    1.295542
      8          1           0       -2.931595    0.483118   -0.175989
      9          1           0       -1.412966   -1.539929   -0.199748
     10          1           0       -1.003370   -0.449292   -1.506645
     11          1           0        0.828825   -0.708238    1.650784
     12          1           0        1.539318   -1.606970   -0.459064
 ---------------------------------------------------------------------

 SCF Done:  E(RHF) =  -445.149550191     A.U. after    2 cycles

 The electronic state is 1-A.
 Alpha  occ. eigenvalues --  -76.21990 -21.06973 -11.38819 -11.34111  -5.55873
 Alpha  occ. eigenvalues --   -2.22497  -2.19120  -2.17467  -1.65300  -1.14440
 Alpha  occ. eigenvalues --   -0.89160  -0.72668  -0.61590  -0.57720  -0.56770
 Alpha  occ. eigenvalues --   -0.50755  -0.48493  -0.47001  -0.40775  -0.38346
 Alpha  occ. eigenvalues --   -0.37108
 Alpha virt. eigenvalues --    0.03740   0.05013   0.05745   0.06186   0.06603
 Alpha virt. eigenvalues --    0.07031   0.07464   0.07520   0.09274   0.09798
 Alpha virt. eigenvalues --    0.10385   0.13535   0.14229   0.15425   0.15885

 Mulliken charges:
               1
     1  Si   6.185123
     2  O   -2.583481
     3  H    1.123463
     4  C   -4.273681
     5  C   -3.401633
     6  H    1.296186
     7  H    1.317051
     8  H    1.134958
     9  H    1.376172
    10  H    1.476389
    11  H   -1.820762
    12  H   -1.829786
 Sum of Mulliken charges =  -0.00000

 Dipole moment (field-independent basis, Debye):
    X=             -0.0508    Y=              0.5180    Z=             -0.2101  Tot=              0.5613

 Test job not archived.
 1\1\GINC-SE103\SP\RHF\Aug-CC-pVDZ\C2H8O1Si1\OHZDE\09-Apr-2025\0\\#t hf
  aug-cc-pvdz iop(5/13=1,5/36=2,99/5=2) pseudo=read geom=check guess=(r
 ead,tcheck) scf=(maxcycle=1)\\title\\0,1\Si,0,0.76247,-0.510817,0.1776
 07\O,0,1.380547,0.971758,-0.235935\H,0,2.265409,1.204698,0.05163\C,0,-
 1.010779,-0.541601,-0.414297\C,0,-1.908999,0.543082,0.207307\H,0,-1.52
 7354,1.542637,-0.013591\H,0,-1.958551,0.442461,1.295542\H,0,-2.931595,
 0.483118,-0.175989\H,0,-1.412966,-1.539929,-0.199748\H,0,-1.00337,-0.4
 49292,-1.506645\H,0,0.828825,-0.708238,1.650784\H,0,1.539318,-1.60697,

 Normal termination of Gaussian 16 at Wed Apr  9 00:03:34 2025.
