 Gaussian 16, Revision C.01,

 ----------------------------------------------------------------------
 #t hf aug-cc-pvdz symm=none int=(grid=ultrafine) guess=(read,tcheck) s
 table=opt
 ----------------------------------------------------------------------
 -----
 title
 -----
 Symbolic Z-matrix:
 Charge =  0 Multiplicity = 2

 SCF Done:  E(UHF) =  -536.546239533     A.U. after   16 cycles
 Normal termination of Gaussian 16 at Wed Apr  9 00:00:58 2025.
 Gaussian 16:  ES64L-G16RevC.01  3-Jul-2019

 ----------------------------------------------------------------------
 #t hf aug-cc-pvdz iop(5/13=1,5/36=2,99/5=2) pseudo=read geom=check gue
 ss=(read,tcheck) scf=(maxcycle=1)
 ----------------------------------------------------------------------
 -----
 title
 -----
 Structure from the checkpoint file:  "BDE49_nonexpt_2091_mol2.chk"
 Charge =  0 Multiplicity = 2

                         Standard orientation:
 ---------------------------------------------------------------------
 Center     Atomic      Atomic             Coordinates (Angstroms)
 Number     Number       Type             X           Y           Z
 ---------------------------------------------------------------------
      1          8           0        0.532449   -1.322648   -0.032217
      2          7           0        0.366205    1.343641    0.081993
      3          6           0       -1.586482   -0.125002   -0.354680
      4          6           0       -1.092823    1.233503    0.154882
      5          6           0       -0.859488   -1.304458    0.290288
      6         14           0        1.467381    0.038694   -0.172823
      7          1           0       -0.975811   -1.270930    1.382442
      8          1           0       -1.281447   -2.249286   -0.061490
      9          1           0       -1.452418   -0.184470   -1.440536
     10          1           0       -2.659542   -0.210000   -0.153978
     11          1           0        0.714112    2.288151    0.163594
     12          1           0       -1.429630    1.365966    1.194562
     13          1           0       -1.564107    2.027671   -0.435485
     14          1           0        2.515240    0.042615    0.911265
 ---------------------------------------------------------------------

 SCF Done:  E(UHF) =  -537.832355268     A.U. after    2 cycles

 The electronic state is 2-A.
 Alpha  occ. eigenvalues --  -76.23553 -21.03324 -15.71452 -11.44318 -11.42765
 Alpha  occ. eigenvalues --  -11.37016  -5.57446  -2.24160  -2.21340  -2.17597
 Alpha  occ. eigenvalues --   -1.69439  -1.33768  -1.14115  -0.94788  -0.85574
 Alpha  occ. eigenvalues --   -0.71521  -0.67683  -0.63347  -0.60089  -0.55665
 Alpha  occ. eigenvalues --   -0.52394  -0.51516  -0.47574  -0.46808  -0.38834
 Alpha  occ. eigenvalues --   -0.34752  -0.34306  -0.24922
 Alpha virt. eigenvalues --    0.03554   0.05305   0.05407   0.05664   0.06077
 Alpha virt. eigenvalues --    0.06274   0.06746   0.06908   0.07781   0.09022
 Alpha virt. eigenvalues --    0.10430   0.12829   0.13261   0.14065   0.14636

  Beta  occ. eigenvalues --  -76.23069 -21.03068 -15.70974 -11.44310 -11.42778
  Beta  occ. eigenvalues --  -11.37015  -5.56640  -2.23625  -2.20610  -2.15030
  Beta  occ. eigenvalues --   -1.68866  -1.32985  -1.13749  -0.94591  -0.84929
  Beta  occ. eigenvalues --   -0.70517  -0.66977  -0.61821  -0.59804  -0.54980
  Beta  occ. eigenvalues --   -0.51880  -0.50410  -0.47013  -0.45355  -0.36263
  Beta  occ. eigenvalues --   -0.34086  -0.33011
  Beta virt. eigenvalues --    0.03599   0.05003   0.05384   0.05618   0.05777
  Beta virt. eigenvalues --    0.06112   0.06636   0.06795   0.07290   0.09013
  Beta virt. eigenvalues --    0.09977   0.11410   0.12897   0.13409   0.14229

 Mulliken charges and spin densities:
               1          2
     1  O   -2.928603  -0.110965
     2  N   -2.344823   0.027448
     3  C   -2.501577  -0.046005
     4  C   -2.068097  -0.007362
     5  C   -1.030055   0.017480
     6  Si   3.565742   0.995177
     7  H    1.469008   0.002005
     8  H    1.279122   0.003037
     9  H    1.390041  -0.004978
    10  H    1.306588  -0.001259
    11  H    0.608852  -0.009232
    12  H    1.414341   0.006810
    13  H    1.356070  -0.000663
    14  H   -1.516608   0.128508
 Sum of Mulliken charges =   0.00000   1.00000

 Dipole moment (field-independent basis, Debye):
    X=             -1.5703    Y=              0.8134    Z=             -0.0945  Tot=              1.7710
                          Isotropic Fermi Contact Couplings
        Atom                 a.u.       MegaHertz       Gauss      10(-4) cm-1
     1  O(17)              0.06056     -36.71161     -13.09962     -12.24568
     2  N(14)              0.07087      22.89808       8.17060       7.63798
     3  C(13)              0.00274       3.08359       1.10030       1.02858
     4  C(13)             -0.00086      -0.96553      -0.34452      -0.32207
     5  C(13)              0.00769       8.65006       3.08656       2.88535
     6  Si(29)             0.60468    -537.39678    -191.75653    -179.25627
     7  H(1)               0.00093       4.16340       1.48560       1.38876
     8  H(1)              -0.00019      -0.84849      -0.30276      -0.28303

 1\1\GINC-SE423\SP\UHF\Aug-CC-pVDZ\C3H8N1O1Si1(2)\OHZDE\09-Apr-2025\0\\
 #t hf aug-cc-pvdz iop(5/13=1,5/36=2,99/5=2) pseudo=read geom=check gue
 ss=(read,tcheck) scf=(maxcycle=1)\\title\\0,2\O,0,0.532448,-1.322648,-
 0.032217\N,0,0.366206,1.343641,0.081993\C,0,-1.586482,-0.125001,-0.354
 68\C,0,-1.092822,1.233504,0.154882\C,0,-0.859489,-1.304458,0.290288\Si
 ,0,1.467381,0.038693,-0.172823\H,0,-0.975812,-1.27093,1.382442\H,0,-1.
 281448,-2.249285,-0.06149\H,0,-1.452418,-0.184469,-1.440536\H,0,-2.659
 542,-0.209999,-0.153978\H,0,0.714113,2.28815,0.163594\H,0,-1.429629,1.

 Normal termination of Gaussian 16 at Wed Apr  9 00:01:04 2025.
