 Gaussian 16, Revision C.01,

 ----------------------------------------------------------------------
 #t hf aug-cc-pvdz symm=none int=(grid=ultrafine) guess=(read,tcheck) s
 table=(opt,rrhf)
 ----------------------------------------------------------------------
 -----
 title
 -----
 Symbolic Z-matrix:
 Charge =  0 Multiplicity = 1

 SCF Done:  E(RHF) =  -233.331945331     A.U. after   13 cycles
 Normal termination of Gaussian 16 at Wed Apr  9 00:37:53 2025.
 Gaussian 16:  ES64L-G16RevC.01  3-Jul-2019

 ----------------------------------------------------------------------
 #t hf aug-cc-pvdz iop(5/13=1,5/36=2,99/5=2) pseudo=read geom=check gue
 ss=(read,tcheck) scf=(maxcycle=1)
 ----------------------------------------------------------------------
 -----
 title
 -----
 Structure from the checkpoint file:  "BDE49_nonexpt_560_mol1.chk"
 Charge =  0 Multiplicity = 1

                         Standard orientation:
 ---------------------------------------------------------------------
 Center     Atomic      Atomic             Coordinates (Angstroms)
 Number     Number       Type             X           Y           Z
 ---------------------------------------------------------------------
      1          7           0        0.016158   -0.217751   -0.000002
      2          5           0       -1.235756    0.438912   -0.000005
      3          8           0       -2.365253   -0.334607    0.000002
      4          6           0        1.268903    0.391810    0.000000
      5          6           0        2.446749   -0.236084    0.000002
      6          1           0        1.220352    1.476078   -0.000001
      7          1           0        2.523479   -1.318410    0.000003
      8          1           0        3.368163    0.329181    0.000003
      9          1           0       -3.172163    0.183345    0.000007
     10          1           0       -1.273682    1.632692    0.000000
     11          1           0        0.027638   -1.230692   -0.000001
 ---------------------------------------------------------------------

 SCF Done:  E(RHF) =  -234.387064289     A.U. after    2 cycles

 The electronic state is 1-A.
 Alpha  occ. eigenvalues --  -21.05998 -15.72401 -11.43411 -11.36148  -7.63126
 Alpha  occ. eigenvalues --   -1.74970  -1.38741  -1.08349  -0.84153  -0.80842
 Alpha  occ. eigenvalues --   -0.64640  -0.61521  -0.60038  -0.51296  -0.50726
 Alpha  occ. eigenvalues --   -0.49853  -0.41035  -0.40301  -0.28991
 Alpha virt. eigenvalues --    0.03322   0.04123   0.04181   0.04981   0.06575
 Alpha virt. eigenvalues --    0.07247   0.08789   0.09424   0.10182   0.11190
 Alpha virt. eigenvalues --    0.11809   0.14990   0.15627   0.15849   0.16487

 Mulliken charges:
               1
     1  N   -4.396686
     2  B    6.176415
     3  O   -3.612236
     4  C    1.571056
     5  C   -3.064790
     6  H    1.904183
     7  H    1.357749
     8  H    1.289970
     9  H    0.958710
    10  H   -3.110489
    11  H    0.926118
 Sum of Mulliken charges =  -0.00000

 Dipole moment (field-independent basis, Debye):
    X=             -1.3182    Y=              0.0341    Z=             -0.0000  Tot=              1.3186

 Test job not archived.
 1\1\GINC-SE253\SP\RHF\Aug-CC-pVDZ\C2H6B1N1O1\OHZDE\09-Apr-2025\0\\#t h
 f aug-cc-pvdz iop(5/13=1,5/36=2,99/5=2) pseudo=read geom=check guess=(
 read,tcheck) scf=(maxcycle=1)\\title\\0,1\N,0,0.016158,-0.217751,-0.00
 0002\B,0,-1.235756,0.438912,-0.000005\O,0,-2.365253,-0.334607,0.000002
 \C,0,1.268903,0.39181,0.\C,0,2.446749,-0.236084,0.000002\H,0,1.220352,
 1.476078,-0.000001\H,0,2.523479,-1.31841,0.000003\H,0,3.368163,0.32918
 1,0.000003\H,0,-3.172163,0.183345,0.000007\H,0,-1.273682,1.632692,0.\H
 ,0,0.027638,-1.230692,-0.000001\\Version=ES64L-G16RevC.01\State=1-A\HF

 Normal termination of Gaussian 16 at Wed Apr  9 00:37:56 2025.
