 Gaussian 16, Revision C.01,

 ----------------------------------------------------------------------
 #t hf aug-cc-pvdz symm=none int=(grid=ultrafine) guess=(read,tcheck) s
 table=(opt,rrhf)
 ----------------------------------------------------------------------
 -----
 title
 -----
 Symbolic Z-matrix:
 Charge =  0 Multiplicity = 1

 SCF Done:  E(RHF) =  -1115.29431396     A.U. after   15 cycles
 Normal termination of Gaussian 16 at Wed Apr  9 00:50:49 2025.
 Gaussian 16:  ES64L-G16RevC.01  3-Jul-2019

 ----------------------------------------------------------------------
 #t hf aug-cc-pvdz iop(5/13=1,5/36=2,99/5=2) pseudo=read geom=check gue
 ss=(read,tcheck) scf=(maxcycle=1)
 ----------------------------------------------------------------------
 -----
 title
 -----
 Structure from the checkpoint file:  "BDE49_nonexpt_842_mol1.chk"
 Charge =  0 Multiplicity = 1

                         Standard orientation:
 ---------------------------------------------------------------------
 Center     Atomic      Atomic             Coordinates (Angstroms)
 Number     Number       Type             X           Y           Z
 ---------------------------------------------------------------------
      1          6           0        2.137158   -0.278960    0.150061
      2          6           0        1.693864    1.038161    0.145069
      3          6           0        0.361542    1.307446   -0.146249
      4          6           0        1.250387   -1.312092   -0.133754
      5          6           0       -0.071476   -1.002018   -0.418668
      6          6           0       -0.555204    0.302693   -0.440676
      7          9           0        3.412754   -0.552979    0.428953
      8          9           0        2.550369    2.027696    0.421583
      9          9           0       -0.023490    2.595928   -0.130988
     10          9           0        1.678396   -2.579162   -0.125702
     11          9           0       -0.911941   -2.021697   -0.685283
     12          5           0       -3.594827   -0.102389    0.653505
     13          8           0       -3.013830   -0.598932    1.767027
     14          1           0       -3.638127   -0.924919    2.425308
     15         14           0       -2.389977    0.620871   -0.814241
     16          1           0       -4.789907   -0.083951    0.550712
     17          1           0       -2.575209    2.080753   -0.977773
     18          1           0       -2.704735   -0.020127   -2.114395
 ---------------------------------------------------------------------

 SCF Done:  E(RHF) =  -1118.57497785     A.U. after    2 cycles

 The electronic state is 1-A.
 Alpha  occ. eigenvalues --  -76.22130 -29.32478 -29.31820 -29.31719 -29.31634
 Alpha  occ. eigenvalues --  -29.31348 -21.08976 -11.59972 -11.54246 -11.53101
 Alpha  occ. eigenvalues --  -11.51413 -11.48565 -11.43284  -7.64586  -5.55853
 Alpha  occ. eigenvalues --   -2.20826  -2.19332  -2.18249  -1.76005  -1.47104
 Alpha  occ. eigenvalues --   -1.27695  -1.25279  -1.07843  -1.04865  -0.90867
 Alpha  occ. eigenvalues --   -0.86890  -0.82369  -0.75908  -0.75099  -0.73641
 Alpha  occ. eigenvalues --   -0.67349  -0.66493  -0.64582  -0.62271  -0.55350
 Alpha  occ. eigenvalues --   -0.52602  -0.49124  -0.48638  -0.45543  -0.45043
 Alpha  occ. eigenvalues --   -0.43729  -0.43300  -0.42216  -0.41837  -0.40851
 Alpha  occ. eigenvalues --   -0.38952  -0.37947  -0.37103  -0.31715  -0.30631
 Alpha  occ. eigenvalues --   -0.30216  -0.29742  -0.29629  -0.27091  -0.22565
 Alpha  occ. eigenvalues --   -0.18584
 Alpha virt. eigenvalues --    0.02774   0.03993   0.04524   0.05127   0.07764
 Alpha virt. eigenvalues --    0.08176   0.08367   0.08784   0.09198   0.10063
 Alpha virt. eigenvalues --    0.10381   0.11241   0.11615   0.11657   0.12164

 Mulliken charges:
               1
     1  C    1.762514
     2  C   -2.615523
     3  C    4.078471
     4  C   -2.199588
     5  C    4.362514
     6  C  -10.428014
     7  F    1.062773
     8  F    1.118776
     9  F    0.775040
    10  F    1.128871
    11  F    0.763969
    12  B    3.903283
    13  O   -3.558379
    14  H    1.258018
    15  Si   4.631891
    16  H   -2.326436
    17  H   -1.818182
    18  H   -1.899997
 Sum of Mulliken charges =  -0.00000

 Dipole moment (field-independent basis, Debye):
    X=              1.7934    Y=             -1.4159    Z=              2.4050  Tot=              3.3174

 Test job not archived.
 1\1\GINC-SE096\SP\RHF\Aug-CC-pVDZ\C6H4B1F5O1Si1\OHZDE\09-Apr-2025\0\\#
 t hf aug-cc-pvdz iop(5/13=1,5/36=2,99/5=2) pseudo=read geom=check gues
 s=(read,tcheck) scf=(maxcycle=1)\\title\\0,1\C,0,2.137158,-0.27896,0.1
 50061\C,0,1.693864,1.038161,0.145069\C,0,0.361542,1.307446,-0.146249\C
 ,0,1.250387,-1.312092,-0.133754\C,0,-0.071476,-1.002018,-0.418668\C,0,
 -0.555204,0.302693,-0.440676\F,0,3.412754,-0.552979,0.428953\F,0,2.550
 369,2.027696,0.421583\F,0,-0.02349,2.595928,-0.130988\F,0,1.678396,-2.
 579162,-0.125702\F,0,-0.911941,-2.021697,-0.685283\B,0,-3.594827,-0.10

 Normal termination of Gaussian 16 at Wed Apr  9 00:51:03 2025.
