 Gaussian 16, Revision C.01,

 ----------------------------------------------------------------------
 #t hf aug-cc-pvdz symm=none int=(grid=ultrafine) guess=(read,tcheck) s
 table=(opt,rrhf)
 ----------------------------------------------------------------------
 -----
 title
 -----
 Symbolic Z-matrix:
 Charge =  0 Multiplicity = 1

 SCF Done:  E(RHF) =  -1561.44005971     A.U. after   16 cycles
 Normal termination of Gaussian 16 at Wed Apr  9 00:53:01 2025.
 Gaussian 16:  ES64L-G16RevC.01  3-Jul-2019

 ----------------------------------------------------------------------
 #t hf aug-cc-pvdz iop(5/13=1,5/36=2,99/5=2) pseudo=read geom=check gue
 ss=(read,tcheck) scf=(maxcycle=1)
 ----------------------------------------------------------------------
 -----
 title
 -----
 Structure from the checkpoint file:  "BDE49_nonexpt_902_mol1.chk"
 Charge =  0 Multiplicity = 1

                         Standard orientation:
 ---------------------------------------------------------------------
 Center     Atomic      Atomic             Coordinates (Angstroms)
 Number     Number       Type             X           Y           Z
 ---------------------------------------------------------------------
      1          6           0       -4.590846   -0.484482    0.000027
      2          6           0       -4.185670    0.850367   -0.000125
      3          6           0       -2.833822    1.165783   -0.000152
      4          6           0       -3.638857   -1.502053    0.000150
      5          6           0       -2.283149   -1.191385    0.000123
      6          6           0       -1.869518    0.146747   -0.000029
      7          1           0       -5.646595   -0.730932    0.000049
      8          1           0       -4.924469    1.643304   -0.000221
      9          1           0       -2.500425    2.195467   -0.000267
     10          1           0       -3.951569   -2.539543    0.000268
     11          1           0       -1.554595   -1.991437    0.000220
     12          6           0       -0.438491    0.573996   -0.000065
     13         16           0        0.761510   -0.805425    0.000021
     14          5           0        2.468182   -0.116407    0.000217
     15         16           0        3.016773    1.598345    0.000454
     16          8           0       -0.117856    1.739389   -0.000222
     17         16           0        3.699455   -1.463622   -0.000427
     18          1           0        1.784631    2.147909    0.000742
     19          1           0        4.793260   -0.680466   -0.000446
 ---------------------------------------------------------------------

 SCF Done:  E(RHF) =  -1563.79230371     A.U. after    2 cycles

 The electronic state is 1-A.
 Alpha  occ. eigenvalues --  -75.70642 -75.69833 -75.68971 -21.07997 -13.18059
 Alpha  occ. eigenvalues --  -13.17017 -13.16155 -13.13682 -13.11105 -13.09226
 Alpha  occ. eigenvalues --  -13.04879 -13.04058 -13.02863 -11.54982 -11.53560
 Alpha  occ. eigenvalues --  -11.45864 -11.45368 -11.43793 -11.42889 -11.38924
 Alpha  occ. eigenvalues --   -8.04938  -8.03740  -8.02923  -7.68846  -1.74873
 Alpha  occ. eigenvalues --   -1.36670  -1.24824  -1.16378  -1.11620  -1.10496
 Alpha  occ. eigenvalues --   -1.09598  -0.93026  -0.88670  -0.80321  -0.72925
 Alpha  occ. eigenvalues --   -0.69002  -0.64370  -0.60709  -0.60439  -0.59116
 Alpha  occ. eigenvalues --   -0.55884  -0.54594  -0.52104  -0.48962  -0.48529
 Alpha  occ. eigenvalues --   -0.46895  -0.45555  -0.37810  -0.36639  -0.35081
 Alpha  occ. eigenvalues --   -0.34105  -0.32674  -0.27066  -0.26549  -0.24783
 Alpha virt. eigenvalues --    0.02165   0.02563   0.03301   0.03438   0.05012
 Alpha virt. eigenvalues --    0.05233   0.05461   0.06682   0.07423   0.08145
 Alpha virt. eigenvalues --    0.08724   0.10059   0.10139   0.10771   0.11734

 Mulliken charges:
               1
     1  C   -3.428953
     2  C   -0.978504
     3  C   -4.154693
     4  C   -2.477495
     5  C    0.475075
     6  C    5.937561
     7  H    1.529983
     8  H    1.491258
     9  H    1.722889
    10  H    1.500826
    11  H    2.077428
    12  C   -0.482815
    13  S   -0.498875
    14  B    4.498454
    15  S   -2.729319
    16  O   -3.910918
    17  S   -2.721859
    18  H    1.314911
    19  H    0.835046
 Sum of Mulliken charges =  -0.00000

 Dipole moment (field-independent basis, Debye):
    X=             -1.3844    Y=             -2.0366    Z=             -0.0014  Tot=              2.4626

 Test job not archived.
 1\1\GINC-SE026\SP\RHF\Aug-CC-pVDZ\C7H7B1O1S3\OHZDE\09-Apr-2025\0\\#t h
 f aug-cc-pvdz iop(5/13=1,5/36=2,99/5=2) pseudo=read geom=check guess=(
 read,tcheck) scf=(maxcycle=1)\\title\\0,1\C,0,-4.590846,-0.484482,0.00
 0027\C,0,-4.18567,0.850367,-0.000125\C,0,-2.833822,1.165783,-0.000152\
 C,0,-3.638857,-1.502053,0.00015\C,0,-2.283149,-1.191385,0.000123\C,0,-
 1.869518,0.146747,-0.000029\H,0,-5.646595,-0.730932,0.000049\H,0,-4.92
 4469,1.643304,-0.000221\H,0,-2.500425,2.195467,-0.000267\H,0,-3.951569
 ,-2.539543,0.000268\H,0,-1.554595,-1.991437,0.00022\C,0,-0.438491,0.57

 Normal termination of Gaussian 16 at Wed Apr  9 00:53:14 2025.
