 Gaussian 16, Revision C.01,

 ----------------------------------------------------------------------
 #t hf aug-cc-pvdz symm=none int=(grid=ultrafine) guess=(read,tcheck) s
 table=(opt,rrhf)
 ----------------------------------------------------------------------
 -----
 title
 -----
 Symbolic Z-matrix:
 Charge =  0 Multiplicity = 1

 SCF Done:  E(RHF) =  -143.518597408     A.U. after   12 cycles
 Normal termination of Gaussian 16 at Wed Apr  9 00:27:19 2025.
 Gaussian 16:  ES64L-G16RevC.01  3-Jul-2019

 ----------------------------------------------------------------------
 #t hf aug-cc-pvdz iop(5/13=1,5/36=2,99/5=2) pseudo=read geom=check gue
 ss=(read,tcheck) scf=(maxcycle=1)
 ----------------------------------------------------------------------
 -----
 title
 -----
 Structure from the checkpoint file:  "BDE49_nonexpt_278_mol1.chk"
 Charge =  0 Multiplicity = 1

                         Standard orientation:
 ---------------------------------------------------------------------
 Center     Atomic      Atomic             Coordinates (Angstroms)
 Number     Number       Type             X           Y           Z
 ---------------------------------------------------------------------
      1          5           0        0.806826    1.334750    0.101011
      2          6           0       -0.004031    0.097542   -0.397802
      3          6           0        0.818045   -1.114811    0.138621
      4          1           0        0.861925   -1.119678    1.232533
      5          1           0        0.024143    0.031307   -1.492602
      6          6           0       -1.461901    0.018435    0.079013
      7          1           0       -1.520038    0.054612    1.171549
      8          1           0       -1.941289   -0.909696   -0.251252
      9          1           0       -2.056039    0.851338   -0.308237
     10          1           0        1.842920   -1.122446   -0.242310
     11          1           0        0.339916   -2.048901   -0.172921
     12          1           0        1.756299    1.729400   -0.507631
     13          1           0        0.545358    1.853321    1.146825
 ---------------------------------------------------------------------

 SCF Done:  E(RHF) =  -144.277351414     A.U. after    2 cycles

 The electronic state is 1-A.
 Alpha  occ. eigenvalues --  -11.39048 -11.38127 -11.33235  -7.60107  -1.22730
 Alpha  occ. eigenvalues --   -0.99690  -0.89662  -0.75348  -0.61969  -0.57786
 Alpha  occ. eigenvalues --   -0.55463  -0.53157  -0.48897  -0.45163  -0.42581
 Alpha  occ. eigenvalues --   -0.38476
 Alpha virt. eigenvalues --    0.03490   0.03685   0.04048   0.04509   0.06603
 Alpha virt. eigenvalues --    0.06683   0.07485   0.07611   0.07790   0.09155
 Alpha virt. eigenvalues --    0.10872   0.11831   0.12253   0.13475   0.14238

 Mulliken charges:
               1
     1  B    7.042903
     2  C   -2.725986
     3  C   -3.664606
     4  H    1.326445
     5  H    1.851817
     6  C   -3.863345
     7  H    1.273512
     8  H    1.183574
     9  H    1.172284
    10  H    1.304015
    11  H    1.210836
    12  H   -3.224188
    13  H   -2.887260
 Sum of Mulliken charges =   0.00000

 Dipole moment (field-independent basis, Debye):
    X=             -0.2808    Y=             -0.6122    Z=             -0.3520  Tot=              0.7599

 Test job not archived.
 1\1\GINC-SE336\SP\RHF\Aug-CC-pVDZ\C3H9B1\OHZDE\09-Apr-2025\0\\#t hf au
 g-cc-pvdz iop(5/13=1,5/36=2,99/5=2) pseudo=read geom=check guess=(read
 ,tcheck) scf=(maxcycle=1)\\title\\0,1\B,0,0.806826,1.33475,0.101011\C,
 0,-0.004031,0.097542,-0.397802\C,0,0.818045,-1.114811,0.138621\H,0,0.8
 61925,-1.119678,1.232533\H,0,0.024143,0.031307,-1.492602\C,0,-1.461901
 ,0.018435,0.079013\H,0,-1.520038,0.054612,1.171549\H,0,-1.941289,-0.90
 9696,-0.251252\H,0,-2.056039,0.851338,-0.308237\H,0,1.84292,-1.122445,
 -0.24231\H,0,0.339917,-2.048901,-0.172921\H,0,1.756299,1.729401,-0.507

 Normal termination of Gaussian 16 at Wed Apr  9 00:27:22 2025.
