 Gaussian 16, Revision C.01,

 ----------------------------------------------------------------------
 #t hf aug-cc-pvdz symm=none int=(grid=ultrafine) guess=(read,tcheck) s
 table=(opt,rrhf)
 ----------------------------------------------------------------------
 -----
 title
 -----
 Symbolic Z-matrix:
 Charge =  0 Multiplicity = 1

 SCF Done:  E(RHF) =  -628.479429908     A.U. after   13 cycles
 Normal termination of Gaussian 16 at Tue Apr  8 23:37:55 2025.
 Gaussian 16:  ES64L-G16RevC.01  3-Jul-2019

 ----------------------------------------------------------------------
 #t hf aug-cc-pvdz iop(5/13=1,5/36=2,99/5=2) pseudo=read geom=check gue
 ss=(read,tcheck) scf=(maxcycle=1)
 ----------------------------------------------------------------------
 -----
 title
 -----
 Structure from the checkpoint file:  "BDE49_nonexpt_1519_mol1.chk"
 Charge =  0 Multiplicity = 1

                         Standard orientation:
 ---------------------------------------------------------------------
 Center     Atomic      Atomic             Coordinates (Angstroms)
 Number     Number       Type             X           Y           Z
 ---------------------------------------------------------------------
      1          6           0       -0.974534    0.141305    0.021697
      2          7           0        1.805289   -0.307607    0.495779
      3          8           0        2.428131    0.711061   -0.318731
      4          6           0       -2.159069   -0.447434   -0.770369
      5          1           0       -2.416453   -1.454108   -0.428090
      6          1           0       -1.943893   -0.498129   -1.842143
      7          6           0       -0.653037    1.549642   -0.503627
      8          1           0       -0.339983    1.530841   -1.549991
      9          1           0        0.143857    2.020832    0.073877
     10          1           0       -1.541161    2.188294   -0.424073
     11          1           0       -3.044014    0.184617   -0.641274
     12          6           0       -1.325926    0.205938    1.518978
     13          1           0       -2.159531    0.897749    1.682214
     14          1           0       -0.474449    0.556019    2.108168
     15          1           0       -1.621002   -0.774163    1.904066
     16         15           0        0.427621   -1.101171   -0.185280
     17          1           0        2.399599    1.488916    0.249369
     18          1           0        0.658330   -0.874398   -1.570878
     19          1           0        2.537710   -0.980856    0.697282
 ---------------------------------------------------------------------

 SCF Done:  E(RHF) =  -630.061830726     A.U. after    2 cycles

 The electronic state is 1-A.
 Alpha  occ. eigenvalues -- -105.18399 -21.09319 -15.76484 -11.41279 -11.39075
 Alpha  occ. eigenvalues --  -11.38702 -11.34932  -2.76084  -1.76054  -1.53240
 Alpha  occ. eigenvalues --   -1.47948  -1.45092  -1.23083  -1.09553  -1.00688
 Alpha  occ. eigenvalues --   -1.00527  -0.78656  -0.70533  -0.61629  -0.60890
 Alpha  occ. eigenvalues --   -0.60205  -0.58334  -0.56258  -0.54217  -0.53860
 Alpha  occ. eigenvalues --   -0.51399  -0.43942  -0.43772  -0.39026  -0.35454
 Alpha  occ. eigenvalues --   -0.25875  -0.19274  -0.01336
 Alpha virt. eigenvalues --    0.04137   0.05629   0.05889   0.05991   0.06080
 Alpha virt. eigenvalues --    0.06213   0.06505   0.07036   0.07425   0.08645
 Alpha virt. eigenvalues --    0.08994   0.09145   0.11335   0.12597   0.12908

 Mulliken charges:
               1
     1  C    1.135700
     2  N   -0.940901
     3  O   -2.047426
     4  C   -3.919747
     5  H    1.279736
     6  H    1.326402
     7  C   -5.015206
     8  H    1.218301
     9  H    1.369245
    10  H    1.171327
    11  H    1.225369
    12  C   -4.972943
    13  H    1.192677
    14  H    1.218506
    15  H    1.290884
    16  P    3.887727
    17  H    0.876176
    18  H   -1.105697
    19  H    0.809869
 Sum of Mulliken charges =  -0.00000

 Dipole moment (field-independent basis, Debye):
    X=             -0.5056    Y=              1.7370    Z=             -0.1930  Tot=              1.8193

 Test job not archived.
 1\1\GINC-SE345\SP\RHF\Aug-CC-pVDZ\C4H12N1O1P1\OHZDE\08-Apr-2025\0\\#t
 hf aug-cc-pvdz iop(5/13=1,5/36=2,99/5=2) pseudo=read geom=check guess=
 (read,tcheck) scf=(maxcycle=1)\\title\\0,1\C,0,-0.974534,0.141305,0.02
 1697\N,0,1.805289,-0.307607,0.495779\O,0,2.428131,0.711061,-0.318731\C
 ,0,-2.159069,-0.447434,-0.770369\H,0,-2.416453,-1.454108,-0.42809\H,0,
 -1.943893,-0.498129,-1.842143\C,0,-0.653037,1.549642,-0.503627\H,0,-0.
 339983,1.530841,-1.549991\H,0,0.143857,2.020832,0.073877\H,0,-1.541161
 ,2.188294,-0.424073\H,0,-3.044014,0.184617,-0.641274\C,0,-1.325926,0.2

 Normal termination of Gaussian 16 at Tue Apr  8 23:38:02 2025.
