 Gaussian 16, Revision C.01,

 ----------------------------------------------------------------------
 #t hf aug-cc-pvdz symm=none int=(grid=ultrafine) guess=(read,tcheck) s
 table=(opt,rrhf)
 ----------------------------------------------------------------------
 -----
 title
 -----
 Symbolic Z-matrix:
 Charge =  0 Multiplicity = 1

 SCF Done:  E(RHF) =  -2615.13440089     A.U. after   12 cycles
 Normal termination of Gaussian 16 at Wed Apr  9 00:09:42 2025.
 Gaussian 16:  ES64L-G16RevC.01  3-Jul-2019

 ----------------------------------------------------------------------
 #t hf aug-cc-pvdz iop(5/13=1,5/36=2,99/5=2) pseudo=read geom=check gue
 ss=(read,tcheck) scf=(maxcycle=1)
 ----------------------------------------------------------------------
 -----
 title
 -----
 Structure from the checkpoint file:  "BDE49_nonexpt_2328_mol1.chk"
 Charge =  0 Multiplicity = 1

                         Standard orientation:
 ---------------------------------------------------------------------
 Center     Atomic      Atomic             Coordinates (Angstroms)
 Number     Number       Type             X           Y           Z
 ---------------------------------------------------------------------
      1         14           0        1.356918    0.514563   -0.000002
      2         14           0       -0.911884   -0.069566   -0.000001
      3         17           0       -2.059690    1.634004   -0.000021
      4         17           0       -1.332744   -1.177832    1.677317
      5          9           0        1.684786    1.396392    1.281179
      6         17           0        2.574779   -1.123293    0.000018
      7         17           0       -1.332737   -1.177866   -1.677299
      8          9           0        1.684792    1.396365   -1.281201
 ---------------------------------------------------------------------

 SCF Done:  E(RHF) =  -2617.06824118     A.U. after    2 cycles

 The electronic state is 1-A.
 Alpha  occ. eigenvalues --  -99.92491 -99.92489 -99.92480 -99.92377 -76.36685
 Alpha  occ. eigenvalues --  -76.35182 -29.31375 -29.31374 -10.49981 -10.49963
 Alpha  occ. eigenvalues --  -10.49899 -10.49880  -9.69801  -9.69795  -9.69793
 Alpha  occ. eigenvalues --   -9.69720  -9.69297  -9.69291  -9.69186  -9.69148
 Alpha  occ. eigenvalues --   -9.69109  -9.69083  -9.69029  -9.68999  -5.70805
 Alpha  occ. eigenvalues --   -5.70348  -2.35413  -2.33296  -2.32223  -2.32214
 Alpha  occ. eigenvalues --   -2.30662  -2.29645  -1.35865  -1.33581  -1.31736
 Alpha  occ. eigenvalues --   -1.31670  -0.97592  -0.81563  -0.73985  -0.65715
 Alpha  occ. eigenvalues --   -0.63831  -0.63632  -0.62475  -0.58575  -0.58378
 Alpha  occ. eigenvalues --   -0.58124  -0.57092  -0.55277  -0.55277  -0.53483
 Alpha  occ. eigenvalues --   -0.49670  -0.44177  -0.39815  -0.38213  -0.36899
 Alpha  occ. eigenvalues --   -0.34203  -0.31484
 Alpha virt. eigenvalues --    0.03374   0.04127   0.05814   0.06008   0.06327
 Alpha virt. eigenvalues --    0.07143   0.08206   0.08263   0.09064   0.09443
 Alpha virt. eigenvalues --    0.10934   0.12246   0.12591   0.12908   0.14216

 Mulliken charges:
               1
     1  Si   3.023122
     2  Si   1.020783
     3  Cl  -0.731544
     4  Cl  -0.724354
     5  F   -0.477893
     6  Cl  -0.907868
     7  Cl  -0.724354
     8  F   -0.477892
 Sum of Mulliken charges =  -0.00000

 Dipole moment (field-independent basis, Debye):
    X=              1.9420    Y=              4.0733    Z=             -0.0000  Tot=              4.5125

 Test job not archived.
 1\1\GINC-SE403\SP\RHF\Aug-CC-pVDZ\Cl4F2Si2\OHZDE\09-Apr-2025\0\\#t hf
 aug-cc-pvdz iop(5/13=1,5/36=2,99/5=2) pseudo=read geom=check guess=(re
 ad,tcheck) scf=(maxcycle=1)\\title\\0,1\Si,0,1.356918,0.514563,-0.0000
 02\Si,0,-0.911884,-0.069566,-0.000001\Cl,0,-2.05969,1.634004,-0.000021
 \Cl,0,-1.332744,-1.177832,1.677317\F,0,1.684786,1.396392,1.281179\Cl,0
 ,2.574779,-1.123293,0.000018\Cl,0,-1.332737,-1.177866,-1.677299\F,0,1.
 684792,1.396365,-1.281201\\Version=ES64L-G16RevC.01\State=1-A\HF=-2617
 .0682412\RMSD=3.773e-02\Dipole=0.7640269,1.6025482,-0.0000135\Quadrupo

 Normal termination of Gaussian 16 at Wed Apr  9 00:09:46 2025.
