 Gaussian 16, Revision C.01,

 ----------------------------------------------------------------------
 #t hf aug-cc-pvdz symm=none int=(grid=ultrafine) guess=(read,tcheck) s
 table=(opt,rrhf)
 ----------------------------------------------------------------------
 -----
 title
 -----
 Symbolic Z-matrix:
 Charge =  0 Multiplicity = 1

 SCF Done:  E(RHF) =  -458.949582327     A.U. after   15 cycles
 Normal termination of Gaussian 16 at Tue Apr  8 23:53:20 2025.
 Gaussian 16:  ES64L-G16RevC.01  3-Jul-2019

 ----------------------------------------------------------------------
 #t hf aug-cc-pvdz iop(5/13=1,5/36=2,99/5=2) pseudo=read geom=check gue
 ss=(read,tcheck) scf=(maxcycle=1)
 ----------------------------------------------------------------------
 -----
 title
 -----
 Structure from the checkpoint file:  "BDE49_nonexpt_1922_mol1.chk"
 Charge =  0 Multiplicity = 1

                         Standard orientation:
 ---------------------------------------------------------------------
 Center     Atomic      Atomic             Coordinates (Angstroms)
 Number     Number       Type             X           Y           Z
 ---------------------------------------------------------------------
      1         14           0        1.460639   -0.215337   -0.001125
      2          6           0       -0.149830    0.804305   -0.154189
      3          7           0       -1.243904    0.080137    0.514362
      4          8           0       -2.008806   -0.465130   -0.241823
      5          1           0        2.539704    0.571141   -0.637687
      6          1           0        1.289050   -1.505235   -0.701385
      7          1           0        1.778186   -0.444538    1.423383
      8          1           0       -0.386595    0.991462   -1.206862
      9          1           0        0.007466    1.736141    0.397488
 ---------------------------------------------------------------------

 SCF Done:  E(RHF) =  -459.849967072     A.U. after    2 cycles

 The electronic state is 1-A.
 Alpha  occ. eigenvalues --  -76.23624 -21.11928 -15.86390 -11.39220  -5.57101
 Alpha  occ. eigenvalues --   -2.20688  -2.19373  -2.19297  -1.85542  -1.18257
 Alpha  occ. eigenvalues --   -0.88377  -0.77045  -0.66254  -0.60517  -0.55705
 Alpha  occ. eigenvalues --   -0.50129  -0.48638  -0.48124  -0.40971  -0.28044
 Alpha virt. eigenvalues --    0.03722   0.04584   0.05368   0.06551   0.07642
 Alpha virt. eigenvalues --    0.07917   0.09018   0.09522   0.11610   0.12573
 Alpha virt. eigenvalues --    0.14651   0.14931   0.15448   0.16044   0.17145

 Mulliken charges:
               1
     1  Si   5.946053
     2  C   -2.961130
     3  N    0.984614
     4  O   -1.945859
     5  H   -1.598006
     6  H   -1.630790
     7  H   -1.682420
     8  H    1.529346
     9  H    1.358192
 Sum of Mulliken charges =   0.00000

 Dipole moment (field-independent basis, Debye):
    X=              0.8148    Y=              0.7192    Z=             -0.8035  Tot=              1.3516

 Test job not archived.
 1\1\GINC-SE419\SP\RHF\Aug-CC-pVDZ\C1H5N1O1Si1\OHZDE\08-Apr-2025\0\\#t
 hf aug-cc-pvdz iop(5/13=1,5/36=2,99/5=2) pseudo=read geom=check guess=
 (read,tcheck) scf=(maxcycle=1)\\title\\0,1\Si,0,1.460639,-0.215337,-0.
 001125\C,0,-0.14983,0.804305,-0.154189\N,0,-1.243904,0.080137,0.514362
 \O,0,-2.008806,-0.46513,-0.241823\H,0,2.539704,0.571141,-0.637687\H,0,
 1.28905,-1.505235,-0.701385\H,0,1.778186,-0.444538,1.423383\H,0,-0.386
 595,0.991462,-1.206862\H,0,0.007466,1.736141,0.397488\\Version=ES64L-G
 16RevC.01\State=1-A\HF=-459.8499671\RMSD=8.687e-02\Dipole=0.3205808,0.

 Normal termination of Gaussian 16 at Tue Apr  8 23:53:23 2025.
