 Gaussian 16, Revision C.01,

 ----------------------------------------------------------------------
 #t hf aug-cc-pvdz symm=none int=(grid=ultrafine) guess=(read,tcheck) s
 table=(opt,rrhf)
 ----------------------------------------------------------------------
 -----
 title
 -----
 Symbolic Z-matrix:
 Charge =  0 Multiplicity = 1

 SCF Done:  E(RHF) =  -645.270075483     A.U. after   13 cycles
 Normal termination of Gaussian 16 at Tue Apr  8 23:29:17 2025.
 Gaussian 16:  ES64L-G16RevC.01  3-Jul-2019

 ----------------------------------------------------------------------
 #t hf aug-cc-pvdz iop(5/13=1,5/36=2,99/5=2) pseudo=read geom=check gue
 ss=(read,tcheck) scf=(maxcycle=1)
 ----------------------------------------------------------------------
 -----
 title
 -----
 Structure from the checkpoint file:  "BDE49_nonexpt_1328_mol1.chk"
 Charge =  0 Multiplicity = 1

                         Standard orientation:
 ---------------------------------------------------------------------
 Center     Atomic      Atomic             Coordinates (Angstroms)
 Number     Number       Type             X           Y           Z
 ---------------------------------------------------------------------
      1          6           0       -1.125310    0.823028   -0.162657
      2         15           0        0.436306   -0.032571    0.099976
      3          8           0        0.708094   -0.650061    1.408420
      4          8           0        0.454279   -1.091967   -1.118019
      5          6           0       -2.343758   -0.073174    0.092906
      6          1           0       -1.116974    1.208263   -1.186485
      7          1           0       -1.119101    1.687113    0.507503
      8          1           0       -2.356669   -0.919028   -0.597115
      9          1           0       -3.267969    0.492055   -0.045265
     10          1           0       -2.332369   -0.465439    1.111685
     11          8           0        1.500798    1.102445   -0.319128
     12          1           0        2.310241    1.032033    0.201226
     13          1           0        0.847296   -1.928898   -0.842866
 ---------------------------------------------------------------------

 SCF Done:  E(RHF) =  -646.819874936     A.U. after    2 cycles

 The electronic state is 1-A.
 Alpha  occ. eigenvalues -- -105.29139 -21.10926 -21.10783 -21.01624 -11.41467
 Alpha  occ. eigenvalues --  -11.37266  -2.91850  -1.95608  -1.89674  -1.80133
 Alpha  occ. eigenvalues --   -1.53981  -1.39375  -1.26113  -1.13549  -0.88904
 Alpha  occ. eigenvalues --   -0.69314  -0.63670  -0.60022  -0.58429  -0.52928
 Alpha  occ. eigenvalues --   -0.51733  -0.50702  -0.45380  -0.38938  -0.34469
 Alpha  occ. eigenvalues --   -0.33399  -0.29235  -0.24431  -0.14649
 Alpha virt. eigenvalues --    0.03463   0.05341   0.05956   0.06090   0.06450
 Alpha virt. eigenvalues --    0.07313   0.07350   0.11135   0.12018   0.12145
 Alpha virt. eigenvalues --    0.13287   0.14283   0.15279   0.16060   0.16880

 Mulliken charges:
               1
     1  C   -5.322197
     2  P    9.914999
     3  O   -2.945903
     4  O   -2.832383
     5  C   -3.634731
     6  H    1.268536
     7  H    1.280366
     8  H    1.249746
     9  H    1.066343
    10  H    1.230093
    11  O   -2.916832
    12  H    0.858347
    13  H    0.783617
 Sum of Mulliken charges =   0.00000

 Dipole moment (field-independent basis, Debye):
    X=             -0.3171    Y=              1.0219    Z=             -2.4296  Tot=              2.6548

 Test job not archived.
 1\1\GINC-SE402\SP\RHF\Aug-CC-pVDZ\C2H7O3P1\OHZDE\08-Apr-2025\0\\#t hf
 aug-cc-pvdz iop(5/13=1,5/36=2,99/5=2) pseudo=read geom=check guess=(re
 ad,tcheck) scf=(maxcycle=1)\\title\\0,1\C,0,1.12531,-0.823028,-0.16265
 7\P,0,-0.436306,0.032571,0.099976\O,0,-0.708094,0.650061,1.40842\O,0,-
 0.454279,1.091967,-1.118019\C,0,2.343758,0.073173,0.092906\H,0,1.11697
 4,-1.208263,-1.186485\H,0,1.119101,-1.687113,0.507503\H,0,2.356669,0.9
 19027,-0.597115\H,0,3.267969,-0.492056,-0.045265\H,0,2.332369,0.465438
 ,1.111685\O,0,-1.500798,-1.102445,-0.319128\H,0,-2.310241,-1.032033,0.

 Normal termination of Gaussian 16 at Tue Apr  8 23:29:22 2025.
