 Gaussian 16, Revision C.01,

 ----------------------------------------------------------------------
 #t hf aug-cc-pvdz symm=none int=(grid=ultrafine) guess=(read,tcheck) s
 table=(opt,rrhf)
 ----------------------------------------------------------------------
 -----
 title
 -----
 Symbolic Z-matrix:
 Charge =  0 Multiplicity = 1

 SCF Done:  E(RHF) =  -1863.31315509     A.U. after   12 cycles
 Normal termination of Gaussian 16 at Wed Apr  9 00:16:14 2025.
 Gaussian 16:  ES64L-G16RevC.01  3-Jul-2019

 ----------------------------------------------------------------------
 #t hf aug-cc-pvdz iop(5/13=1,5/36=2,99/5=2) pseudo=read geom=check gue
 ss=(read,tcheck) scf=(maxcycle=1)
 ----------------------------------------------------------------------
 -----
 title
 -----
 Structure from the checkpoint file:  "BDE49_nonexpt_2448_mol1.chk"
 Charge =  0 Multiplicity = 1

                         Standard orientation:
 ---------------------------------------------------------------------
 Center     Atomic      Atomic             Coordinates (Angstroms)
 Number     Number       Type             X           Y           Z
 ---------------------------------------------------------------------
      1         14           0       -1.099937    2.060837   -0.679332
      2         14           0        0.860753    2.091588    0.652136
      3         15           0        1.921391   -0.639155   -0.153598
      4          8           0        3.451060   -0.930072   -0.437835
      5          8           0        1.609393   -1.461433    1.146359
      6          1           0        3.571534   -1.547567   -1.168047
      7          1           0        0.659129   -1.330984    1.408470
      8          8           0        1.033196   -0.918876   -1.312040
      9         15           0       -1.838872   -0.731661    0.184059
     10          8           0       -3.283788   -1.212195    0.606240
     11          1           0       -3.866497   -1.405210   -0.138131
     12          8           0       -1.445328   -1.693330   -0.991982
     13          1           0       -0.495539   -1.533112   -1.265053
     14          8           0       -0.904889   -0.674334    1.330061
     15          8           0        1.953870    0.880312    0.253006
     16          1           0        0.570228    2.021833    2.096527
     17          1           0        1.572753    3.352199    0.346709
     18          8           0       -2.061851    0.698158   -0.461536
     19          1           0       -0.774339    2.147753   -2.118062
     20          1           0       -1.939783    3.217556   -0.296772
 ---------------------------------------------------------------------

 SCF Done:  E(RHF) =  -1866.49420072     A.U. after    2 cycles

 The electronic state is 1-A.
 Alpha  occ. eigenvalues -- -105.33996-105.33964 -76.26642 -76.26617 -21.12978
 Alpha  occ. eigenvalues --  -21.12695 -21.09732 -21.09580 -21.09253 -21.09242
 Alpha  occ. eigenvalues --  -21.03943 -21.03935  -5.60052  -5.59998  -2.97558
 Alpha  occ. eigenvalues --   -2.97509  -2.26418  -2.26252  -2.21932  -2.21809
 Alpha  occ. eigenvalues --   -2.21632  -2.20482  -2.01218  -2.00031  -1.94708
 Alpha  occ. eigenvalues --   -1.94475  -1.94206  -1.93801  -1.75696  -1.74791
 Alpha  occ. eigenvalues --   -1.41213  -1.40977  -1.40165  -1.39878  -1.30417
 Alpha  occ. eigenvalues --   -1.27427  -0.81659  -0.74523  -0.71559  -0.65858
 Alpha  occ. eigenvalues --   -0.62715  -0.59396  -0.57545  -0.54861  -0.54016
 Alpha  occ. eigenvalues --   -0.53325  -0.52235  -0.50758  -0.46519  -0.46226
 Alpha  occ. eigenvalues --   -0.44722  -0.43551  -0.40688  -0.40124  -0.39738
 Alpha  occ. eigenvalues --   -0.37537  -0.36372  -0.35847  -0.33970  -0.32002
 Alpha  occ. eigenvalues --   -0.31492  -0.28901  -0.28005  -0.21448  -0.19165
 Alpha virt. eigenvalues --    0.03898   0.04635   0.04792   0.05265   0.06250
 Alpha virt. eigenvalues --    0.06986   0.07625   0.07839   0.08639   0.08975
 Alpha virt. eigenvalues --    0.09381   0.09779   0.10524   0.10854   0.11183

 Mulliken charges:
               1
     1  Si   5.134548
     2  Si   5.268753
     3  P    9.525131
     4  O   -2.727866
     5  O   -3.285725
     6  H    0.946224
     7  H    1.579551
     8  O   -3.153547
     9  P    9.382237
    10  O   -2.790464
    11  H    0.953865
    12  O   -3.199474
    13  H    1.754458
    14  O   -3.075896
    15  O   -4.688241
    16  H   -1.738735
    17  H   -1.852373
    18  O   -4.415101
    19  H   -1.793410
    20  H   -1.823936
 Sum of Mulliken charges =  -0.00000

 Dipole moment (field-independent basis, Debye):
    X=             -0.5221    Y=             -0.4128    Z=             -0.9468  Tot=              1.1573

 Test job not archived.
 1\1\GINC-SE367\SP\RHF\Aug-CC-pVDZ\H8O8P2Si2\OHZDE\09-Apr-2025\0\\#t hf
  aug-cc-pvdz iop(5/13=1,5/36=2,99/5=2) pseudo=read geom=check guess=(r
 ead,tcheck) scf=(maxcycle=1)\\title\\0,1\Si,0,-1.099937,2.060837,-0.67
 9332\Si,0,0.860753,2.091588,0.652136\P,0,1.921391,-0.639155,-0.153598\
 O,0,3.45106,-0.930072,-0.437835\O,0,1.609393,-1.461433,1.146359\H,0,3.
 571534,-1.547567,-1.168047\H,0,0.659129,-1.330984,1.40847\O,0,1.033196
 ,-0.918876,-1.31204\P,0,-1.838872,-0.731661,0.184059\O,0,-3.283788,-1.
 212195,0.60624\H,0,-3.866497,-1.40521,-0.138131\O,0,-1.445328,-1.69333

 Normal termination of Gaussian 16 at Wed Apr  9 00:16:28 2025.
