 Gaussian 16, Revision C.01,

 ----------------------------------------------------------------------
 #t hf aug-cc-pvdz symm=none int=(grid=ultrafine) guess=(read,tcheck) s
 table=(opt,rrhf)
 ----------------------------------------------------------------------
 -----
 title
 -----
 Symbolic Z-matrix:
 Charge =  0 Multiplicity = 1

 SCF Done:  E(RHF) =  -271.213291851     A.U. after   12 cycles

 1\1\GINC-SE049\Stability\RHF\Aug-CC-pVDZ\C5H12O1\OHZDE\08-Apr-2025\0\\
 #t hf aug-cc-pvdz symm=none int=(grid=ultrafine) guess=(read,tcheck) s
 table=(opt,rrhf)\\title\\0,1\C,0,1.695574,-0.395723,0.278821\O,0,0.418
 808,-0.005103,-0.197673\C,0,-0.617254,-0.908715,0.151157\C,0,-1.939308
 ,-0.374131,-0.382444\H,0,-0.407395,-1.902962,-0.273492\C,0,2.713983,0.
 639798,-0.163023\H,0,1.957701,-1.388976,-0.118811\H,0,1.678788,-0.4781
 53,1.376964\H,0,2.732093,0.715238,-1.252559\H,0,3.714292,0.366692,0.18
 3518\H,0,2.46179,1.621732,0.243672\C,0,-2.340802,0.971144,0.227963\H,0

 Normal termination of Gaussian 16 at Tue Apr  8 22:42:56 2025.
 Gaussian 16:  ES64L-G16RevC.01  3-Jul-2019

 ----------------------------------------------------------------------
 #t hf aug-cc-pvdz iop(5/13=1,5/36=2,99/5=2) pseudo=read geom=check gue
 ss=(read,tcheck) scf=(maxcycle=1)
 ----------------------------------------------------------------------
 -----
 title
 -----
 Structure from the checkpoint file:  "BDE49_expt_1370_mol1.chk"
 Charge =  0 Multiplicity = 1

                         Standard orientation:
 ---------------------------------------------------------------------
 Center     Atomic      Atomic             Coordinates (Angstroms)
 Number     Number       Type             X           Y           Z
 ---------------------------------------------------------------------
      1          6           0        1.695574   -0.395723    0.278821
      2          8           0        0.418808   -0.005103   -0.197673
      3          6           0       -0.617254   -0.908715    0.151157
      4          6           0       -1.939308   -0.374131   -0.382444
      5          1           0       -0.407395   -1.902962   -0.273492
      6          6           0        2.713983    0.639798   -0.163023
      7          1           0        1.957701   -1.388976   -0.118811
      8          1           0        1.678788   -0.478153    1.376964
      9          1           0        2.732093    0.715238   -1.252559
     10          1           0        3.714292    0.366692    0.183518
     11          1           0        2.461790    1.621732    0.243672
     12          6           0       -2.340802    0.971144    0.227963
     13          1           0       -2.713085   -1.125100   -0.186359
     14          1           0       -1.857518   -0.281351   -1.470508
     15          1           0       -2.470530    0.888401    1.311992
     16          1           0       -3.282804    1.331004   -0.194055
     17          1           0       -1.571895    1.722209    0.039135
     18          1           0       -0.665055   -1.022147    1.247035
 ---------------------------------------------------------------------

 SCF Done:  E(RHF) =  -272.546767386     A.U. after    2 cycles

 The electronic state is 1-A.
 Alpha  occ. eigenvalues --  -21.03189 -11.44000 -11.41861 -11.38571 -11.35892
 Alpha  occ. eigenvalues --  -11.34507  -1.74536  -1.18650  -1.10338  -0.96829
 Alpha  occ. eigenvalues --   -0.86829  -0.82696  -0.65986  -0.63146  -0.61041
 Alpha  occ. eigenvalues --   -0.58689  -0.56310  -0.52384  -0.50725  -0.49723
 Alpha  occ. eigenvalues --   -0.46787  -0.45901  -0.41921  -0.37639  -0.29242
 Alpha virt. eigenvalues --    0.04246   0.05219   0.05344   0.05584   0.05672
 Alpha virt. eigenvalues --    0.05898   0.06416   0.06621   0.07123   0.08335
 Alpha virt. eigenvalues --    0.08770   0.09403   0.12399   0.13378   0.14840

 Mulliken charges:
               1
     1  C   -1.296267
     2  O   -3.124256
     3  C   -0.792088
     4  C   -3.660731
     5  H    1.470632
     6  C   -4.060205
     7  H    1.543341
     8  H    1.545604
     9  H    1.317815
    10  H    1.119606
    11  H    1.312447
    12  C   -3.690738
    13  H    1.302753
    14  H    1.465814
    15  H    1.277155
    16  H    1.147774
    17  H    1.431088
    18  H    1.690254
 Sum of Mulliken charges =   0.00000

 Dipole moment (field-independent basis, Debye):
    X=              0.0698    Y=             -0.2637    Z=              0.0898  Tot=              0.2871

 Test job not archived.
 1\1\GINC-SE049\SP\RHF\Aug-CC-pVDZ\C5H12O1\OHZDE\08-Apr-2025\0\\#t hf a
 ug-cc-pvdz iop(5/13=1,5/36=2,99/5=2) pseudo=read geom=check guess=(rea
 d,tcheck) scf=(maxcycle=1)\\title\\0,1\C,0,1.695574,-0.395723,0.278821
 \O,0,0.418808,-0.005103,-0.197673\C,0,-0.617254,-0.908715,0.151157\C,0
 ,-1.939308,-0.374131,-0.382444\H,0,-0.407395,-1.902962,-0.273492\C,0,2
 .713983,0.639798,-0.163023\H,0,1.957701,-1.388976,-0.118811\H,0,1.6787
 88,-0.478153,1.376964\H,0,2.732093,0.715238,-1.252559\H,0,3.714292,0.3
 66692,0.183518\H,0,2.46179,1.621732,0.243672\C,0,-2.340802,0.971144,0.

 Normal termination of Gaussian 16 at Tue Apr  8 22:43:02 2025.
