 Gaussian 16, Revision C.01,

 ----------------------------------------------------------------------
 #t hf aug-cc-pvdz symm=none int=(grid=ultrafine) guess=(read,tcheck) s
 table=opt
 ----------------------------------------------------------------------
 -----
 title
 -----
 Symbolic Z-matrix:
 Charge =  0 Multiplicity = 2

 SCF Done:  E(UHF) =  -865.478201921     A.U. after   18 cycles
 Normal termination of Gaussian 16 at Wed Apr  9 00:09:20 2025.
 Gaussian 16:  ES64L-G16RevC.01  3-Jul-2019

 ----------------------------------------------------------------------
 #t hf aug-cc-pvdz iop(5/13=1,5/36=2,99/5=2) pseudo=read geom=check gue
 ss=(read,tcheck) scf=(maxcycle=1)
 ----------------------------------------------------------------------
 -----
 title
 -----
 Structure from the checkpoint file:  "BDE49_nonexpt_224_mol2.chk"
 Charge =  0 Multiplicity = 2

                         Standard orientation:
 ---------------------------------------------------------------------
 Center     Atomic      Atomic             Coordinates (Angstroms)
 Number     Number       Type             X           Y           Z
 ---------------------------------------------------------------------
      1          5           0        1.150577    0.325579    0.666904
      2         17           0        2.687287   -0.051975   -0.023672
      3          6           0       -0.285330    0.034165    0.019429
      4          8           0       -0.576160    1.242152   -0.663626
      5          8           0       -1.327201   -0.196631    0.937494
      6          8           0       -0.177374   -0.984707   -0.918863
      7          6           0       -1.149609    2.312966    0.097582
      8          1           0       -2.164628    2.069856    0.413683
      9          1           0       -1.160807    3.170972   -0.573910
     10          1           0       -0.545498    2.549825    0.978939
     11          6           0       -1.081326   -1.274329    1.834868
     12          1           0       -1.945634   -1.332308    2.494990
     13          1           0       -0.183694   -1.087206    2.440112
     14          1           0       -0.961611   -2.220499    1.298895
     15          6           0       -1.322663   -1.180336   -1.764663
     16          1           0       -1.123800   -2.096557   -2.318617
     17          1           0       -1.437706   -0.344842   -2.456932
     18          1           0       -2.233931   -1.294864   -1.172590
 ---------------------------------------------------------------------

 SCF Done:  E(UHF) =  -867.502025910     A.U. after    2 cycles

 The electronic state is 2-A.
 Alpha  occ. eigenvalues --  -99.90092 -21.05860 -21.05543 -21.05267 -11.48074
 Alpha  occ. eigenvalues --  -11.41893 -11.40981 -11.40113 -10.47336  -9.67358
 Alpha  occ. eigenvalues --   -9.66947  -9.66748  -7.68697  -1.88037  -1.70709
 Alpha  occ. eigenvalues --   -1.69940  -1.35106  -1.06530  -0.99629  -0.98047
 Alpha  occ. eigenvalues --   -0.89186  -0.74657  -0.67270  -0.66532  -0.64549
 Alpha  occ. eigenvalues --   -0.62127  -0.60302  -0.59158  -0.57339  -0.55369
 Alpha  occ. eigenvalues --   -0.54585  -0.53808  -0.52902  -0.45041  -0.39914
 Alpha  occ. eigenvalues --   -0.37486  -0.35015  -0.33529  -0.30087  -0.28271
 Alpha virt. eigenvalues --    0.03516   0.04106   0.04170   0.04909   0.05270
 Alpha virt. eigenvalues --    0.05685   0.06177   0.06582   0.06748   0.07386
 Alpha virt. eigenvalues --    0.08688   0.09724   0.09936   0.11180   0.13116

  Beta  occ. eigenvalues --  -99.90020 -21.05890 -21.05575 -21.05190 -11.47907
  Beta  occ. eigenvalues --  -11.41874 -11.40960 -11.40083 -10.47253  -9.67278
  Beta  occ. eigenvalues --   -9.66784  -9.66635  -7.66739  -1.87929  -1.70672
  Beta  occ. eigenvalues --   -1.69892  -1.34154  -1.06074  -0.99495  -0.97946
  Beta  occ. eigenvalues --   -0.86917  -0.73342  -0.66838  -0.66440  -0.63299
  Beta  occ. eigenvalues --   -0.62004  -0.59778  -0.59066  -0.56780  -0.55340
  Beta  occ. eigenvalues --   -0.54127  -0.53055  -0.51878  -0.44931  -0.39473
  Beta  occ. eigenvalues --   -0.37013  -0.33661  -0.30059  -0.29926
  Beta virt. eigenvalues --    0.02685   0.04124   0.04389   0.04985   0.05269
  Beta virt. eigenvalues --    0.05659   0.06179   0.06536   0.06754   0.06830
  Beta virt. eigenvalues --    0.08264   0.09553   0.09733   0.10250   0.11715

 Mulliken charges and spin densities:
               1          2
     1  B    1.111444   1.015951
     2  Cl  -1.358521   0.052460
     3  C    9.410261  -0.236847
     4  O   -3.640728   0.037692
     5  O   -3.719552   0.015902
     6  O   -4.109971   0.045497
     7  C   -3.478739   0.035728
     8  H    1.515144  -0.005536
     9  H    1.265144  -0.000170
    10  H    1.520010   0.021767
    11  C   -3.500500   0.007839
    12  H    1.324455  -0.001960
    13  H    1.591539   0.005004
    14  H    1.396343  -0.001605
    15  C   -3.570403   0.009496
    16  H    1.286582   0.000072
    17  H    1.530701  -0.000074
    18  H    1.426790  -0.001217
 Sum of Mulliken charges =  -0.00000   1.00000

 Dipole moment (field-independent basis, Debye):
    X=             -2.0350    Y=              0.0393    Z=             -0.1308  Tot=              2.0396
                          Isotropic Fermi Contact Couplings
        Atom                 a.u.       MegaHertz       Gauss      10(-4) cm-1
     1  B(11)              0.24514     351.61419     125.46469     117.28587
     2  Cl(35)             0.09848      43.18068      15.40794      14.40353
     3  C(13)              0.02839      31.91027      11.38638      10.64412
     4  O(17)             -0.00259       1.56726       0.55924       0.52278
     5  O(17)             -0.00053       0.32100       0.11454       0.10707
     6  O(17)              0.03162     -19.16686      -6.83921      -6.39338
     7  C(13)              0.00224       2.51792       0.89846       0.83989
     8  H(1)               0.00024       1.07513       0.38363       0.35863

 1\1\GINC-SE322\SP\UHF\Aug-CC-pVDZ\C4H9B1Cl1O3(2)\OHZDE\09-Apr-2025\0\\
 #t hf aug-cc-pvdz iop(5/13=1,5/36=2,99/5=2) pseudo=read geom=check gue
 ss=(read,tcheck) scf=(maxcycle=1)\\title\\0,2\B,0,1.150577,0.325579,0.
 666904\Cl,0,2.687287,-0.051975,-0.023672\C,0,-0.28533,0.034165,0.01942
 9\O,0,-0.57616,1.242152,-0.663626\O,0,-1.327201,-0.196631,0.937494\O,0
 ,-0.177374,-0.984707,-0.918863\C,0,-1.149609,2.312966,0.097582\H,0,-2.
 164628,2.069856,0.413683\H,0,-1.160807,3.170972,-0.57391\H,0,-0.545498
 ,2.549825,0.978939\C,0,-1.081326,-1.274329,1.834868\H,0,-1.945634,-1.3

 Normal termination of Gaussian 16 at Wed Apr  9 00:09:30 2025.
