 Gaussian 16, Revision C.01,

 ----------------------------------------------------------------------
 #t hf aug-cc-pvdz symm=none int=(grid=ultrafine) guess=(read,tcheck) s
 table=(opt,rrhf)
 ----------------------------------------------------------------------
 -----
 title
 -----
 Symbolic Z-matrix:
 Charge =  0 Multiplicity = 1

 SCF Done:  E(RHF) =  -1330.44515553     A.U. after   15 cycles
 Normal termination of Gaussian 16 at Wed Apr  9 00:22:38 2025.
 Gaussian 16:  ES64L-G16RevC.01  3-Jul-2019

 ----------------------------------------------------------------------
 #t hf aug-cc-pvdz iop(5/13=1,5/36=2,99/5=2) pseudo=read geom=check gue
 ss=(read,tcheck) scf=(maxcycle=1)
 ----------------------------------------------------------------------
 -----
 title
 -----
 Structure from the checkpoint file:  "BDE49_nonexpt_2667_mol1.chk"
 Charge =  0 Multiplicity = 1

                         Standard orientation:
 ---------------------------------------------------------------------
 Center     Atomic      Atomic             Coordinates (Angstroms)
 Number     Number       Type             X           Y           Z
 ---------------------------------------------------------------------
      1          9           0        2.265566   -0.211711   -0.000219
      2         16           0        0.819843   -1.110006    0.000233
      3          6           0       -0.419327    0.067798    0.000468
      4         16           0       -1.885174   -0.683543   -0.000240
      5         16           0       -0.128025    1.780723   -0.000052
      6          1           0        1.219564    1.703828    0.000102
 ---------------------------------------------------------------------

 SCF Done:  E(RHF) =  -1331.62891105     A.U. after    2 cycles

 The electronic state is 1-A.
 Alpha  occ. eigenvalues --  -75.81070 -75.75581 -75.69063 -29.29587 -13.24879
 Alpha  occ. eigenvalues --  -13.22406 -13.19286 -13.16387 -13.13713 -13.11390
 Alpha  occ. eigenvalues --  -13.07114 -13.02379 -13.00069 -11.52543  -8.15060
 Alpha  occ. eigenvalues --   -8.09657  -8.03200  -1.37433  -1.18382  -1.11883
 Alpha  occ. eigenvalues --   -0.83025  -0.68910  -0.60996  -0.51700  -0.50689
 Alpha  occ. eigenvalues --   -0.42540  -0.39365  -0.36579  -0.32700  -0.27229
 Alpha  occ. eigenvalues --   -0.23624  -0.19185
 Alpha virt. eigenvalues --    0.03022   0.04470   0.05677   0.06598   0.07919
 Alpha virt. eigenvalues --    0.09341   0.11803   0.14031   0.14161   0.15050
 Alpha virt. eigenvalues --    0.15770   0.16815   0.17177   0.17765   0.19022

 Mulliken charges:
               1
     1  F   -0.196981
     2  S    1.388736
     3  C   -2.915098
     4  S    1.004191
     5  S   -0.327060
     6  H    1.046212
 Sum of Mulliken charges =   0.00000

 Dipole moment (field-independent basis, Debye):
    X=              2.3619    Y=              1.0825    Z=             -0.0044  Tot=              2.5982

 Test job not archived.
 1\1\GINC-SE072\SP\RHF\Aug-CC-pVDZ\C1H1F1S3\OHZDE\09-Apr-2025\0\\#t hf
 aug-cc-pvdz iop(5/13=1,5/36=2,99/5=2) pseudo=read geom=check guess=(re
 ad,tcheck) scf=(maxcycle=1)\\title\\0,1\F,0,-2.265566,-0.21171,0.00021
 9\S,0,-0.819844,-1.110006,-0.000233\C,0,0.419327,0.067798,-0.000468\S,
 0,1.885174,-0.683544,0.00024\S,0,0.128025,1.780723,0.000052\H,0,-1.219
 564,1.703828,-0.000102\\Version=ES64L-G16RevC.01\State=1-A\HF=-1331.62
 8911\RMSD=1.475e-01\Dipole=-0.9292468,0.4258839,0.0017286\Quadrupole=4
 .5999428,1.9230651,-6.5230078,0.2147427,0.0024811,0.0001574\PG=C01 [X(

 Normal termination of Gaussian 16 at Wed Apr  9 00:22:40 2025.
