 Gaussian 16, Revision C.01,

 ----------------------------------------------------------------------
 #t hf aug-cc-pvdz symm=none int=(grid=ultrafine) guess=(read,tcheck) s
 table=opt
 ----------------------------------------------------------------------
 -----
 title
 -----
 Symbolic Z-matrix:
 Charge =  0 Multiplicity = 2

 SCF Done:  E(UHF) =  -1565.97106695     A.U. after   20 cycles

 1\1\GINC-SE105\Stability\UHF\Aug-CC-pVDZ\C1Cl3O2\OHZDE\08-Apr-2025\0\\
 #t hf aug-cc-pvdz symm=none int=(grid=ultrafine) guess=(read,tcheck) s
 table=opt\\title\\0,2\O,0,-1.880697,0.,1.241775\O,0,-0.570607,0.,1.345
 31\C,0,0.098617,0.,0.048508\Cl,0,1.814092,0.,0.476159\Cl,0,-0.347672,1
 .461396,-0.855366\Cl,0,-0.347672,-1.461396,-0.855366\\Version=ES64L-G1
 6RevC.01\HF=-1565.971067\S2=0.761508\S2-1=0.\S2A=0.750101\RMSD=5.593e-
 09\Dipole=0.1858494,0.,-0.2433263\Quadrupole=0.165488,1.0686116,-1.234
 0997,0.,0.9592383,0.\PG=Unknown\\@

 Normal termination of Gaussian 16 at Tue Apr  8 22:54:43 2025.
 Gaussian 16:  ES64L-G16RevC.01  3-Jul-2019

 ----------------------------------------------------------------------
 #t hf aug-cc-pvdz iop(5/13=1,5/36=2,99/5=2) pseudo=read geom=check gue
 ss=(read,tcheck) scf=(maxcycle=1)
 ----------------------------------------------------------------------
 -----
 title
 -----
 Structure from the checkpoint file:  "BDE49_expt_1798_mol2.chk"
 Charge =  0 Multiplicity = 2

                         Standard orientation:
 ---------------------------------------------------------------------
 Center     Atomic      Atomic             Coordinates (Angstroms)
 Number     Number       Type             X           Y           Z
 ---------------------------------------------------------------------
      1          8           0        2.043622   -0.950071   -0.000000
      2          8           0        1.444709    0.219697   -0.000000
      3          6           0       -0.010417    0.109407    0.000000
      4         17           0       -0.545964    1.794319    0.000000
      5         17           0       -0.545964   -0.744614    1.461396
      6         17           0       -0.545964   -0.744614   -1.461396
 ---------------------------------------------------------------------

 SCF Done:  E(UHF) =  -1567.44258071     A.U. after    2 cycles

 The electronic state is 2-A".
 Alpha  occ. eigenvalues --  -99.93856 -99.93522 -99.93501 -21.19443 -21.18416
 Alpha  occ. eigenvalues --  -11.60157 -10.51333 -10.50958 -10.50851  -9.71190
 Alpha  occ. eigenvalues --   -9.70859  -9.70620  -9.70266  -9.70238  -9.69942
 Alpha  occ. eigenvalues --   -9.69902  -9.69883  -9.69832  -2.10568  -1.50930
 Alpha  occ. eigenvalues --   -1.36524  -1.33164  -1.33098  -0.96065  -0.75904
 Alpha  occ. eigenvalues --   -0.75891  -0.71910  -0.64055  -0.59806  -0.55827
 Alpha  occ. eigenvalues --   -0.54219  -0.53110  -0.52923  -0.51978  -0.51633
 Alpha  occ. eigenvalues --   -0.38863  -0.35588
 Alpha virt. eigenvalues --   -0.00682   0.05297   0.05852   0.06199   0.09443
 Alpha virt. eigenvalues --    0.09605   0.11213   0.13205   0.14475   0.14541
 Alpha virt. eigenvalues --    0.14934   0.16393   0.17501   0.17673   0.18260

  Beta  occ. eigenvalues --  -99.93863 -99.93517 -99.93496 -21.17887 -21.15471
  Beta  occ. eigenvalues --  -11.60230 -10.51339 -10.50956 -10.50847  -9.71207
  Beta  occ. eigenvalues --   -9.70829  -9.70597  -9.70277  -9.70240  -9.69941
  Beta  occ. eigenvalues --   -9.69901  -9.69881  -9.69831  -2.05469  -1.48159
  Beta  occ. eigenvalues --   -1.33465  -1.33046  -1.30028  -0.95495  -0.75761
  Beta  occ. eigenvalues --   -0.74947  -0.71188  -0.59593  -0.59538  -0.53873
  Beta  occ. eigenvalues --   -0.53353  -0.52687  -0.51976  -0.50413  -0.46156
  Beta  occ. eigenvalues --   -0.36626
  Beta virt. eigenvalues --   -0.00602   0.03867   0.05341   0.05876   0.08655
  Beta virt. eigenvalues --    0.09445   0.11288   0.11700   0.13289   0.14817
  Beta virt. eigenvalues --    0.15059   0.15095   0.16422   0.17699   0.18138

 Mulliken charges and spin densities:
               1          2
     1  O   -0.192393   0.921917
     2  O   -0.799242   0.064123
     3  C   -0.681643   0.014015
     4  Cl   0.489535  -0.008327
     5  Cl   0.591872   0.004136
     6  Cl   0.591872   0.004136
 Sum of Mulliken charges =  -0.00000   1.00000

 Dipole moment (field-independent basis, Debye):
    X=              1.3813    Y=             -0.2924    Z=             -0.0000  Tot=              1.4119
                          Isotropic Fermi Contact Couplings
        Atom                 a.u.       MegaHertz       Gauss      10(-4) cm-1
     1  O(17)              0.19829    -120.20283     -42.89136     -40.09535
     2  O(17)              0.04917     -29.80695     -10.63586      -9.94253
     3  C(13)             -0.01514     -17.01795      -6.07243      -5.67658
     4  Cl(35)            -0.00529      -2.31731      -0.82687      -0.77297
     5  Cl(35)            -0.00130      -0.57033      -0.20351      -0.19024
     6  Cl(35)            -0.00130      -0.57033      -0.20351      -0.19024
 --------------------------------------------------------
       Center         ----  Spin Dipole Couplings  ----

 Normal termination of Gaussian 16 at Tue Apr  8 22:54:45 2025.
