 Gaussian 16, Revision C.01,

 ----------------------------------------------------------------------
 #t hf aug-cc-pvdz symm=none int=(grid=ultrafine) guess=(read,tcheck) s
 table=opt
 ----------------------------------------------------------------------
 -----
 title
 -----
 Symbolic Z-matrix:
 Charge =  0 Multiplicity = 2

 SCF Done:  E(UHF) =  -191.299370952     A.U. after   18 cycles
 Normal termination of Gaussian 16 at Tue Apr  8 23:01:43 2025.
 Gaussian 16:  ES64L-G16RevC.01  3-Jul-2019

 ----------------------------------------------------------------------
 #t hf aug-cc-pvdz iop(5/13=1,5/36=2,99/5=2) pseudo=read geom=check gue
 ss=(read,tcheck) scf=(maxcycle=1)
 ----------------------------------------------------------------------
 -----
 title
 -----
 Structure from the checkpoint file:  "BDE49_expt_196_mol2.chk"
 Charge =  0 Multiplicity = 2

                         Standard orientation:
 ---------------------------------------------------------------------
 Center     Atomic      Atomic             Coordinates (Angstroms)
 Number     Number       Type             X           Y           Z
 ---------------------------------------------------------------------
      1          8           0       -0.778411    0.837253    0.104493
      2          6           0        0.147187   -0.031744   -0.415729
      3          6           0       -1.106091   -0.598497    0.047522
      4          1           0       -1.881858   -0.859800   -0.665714
      5          1           0       -1.187643   -1.061473    1.029627
      6          6           0        1.550785   -0.105341    0.069436
      7          1           0        1.583742   -0.233400    1.162012
      8          1           0        2.087279    0.814579   -0.176460
      9          1           0        2.074475   -0.944439   -0.392780
 ---------------------------------------------------------------------

 SCF Done:  E(UHF) =  -192.159764465     A.U. after    2 cycles

 The electronic state is 2-A.
 Alpha  occ. eigenvalues --  -21.07485 -11.45975 -11.42715 -11.39079  -1.79175
 Alpha  occ. eigenvalues --   -1.11615  -0.97429  -0.81419  -0.68258  -0.61561
 Alpha  occ. eigenvalues --   -0.58266  -0.55802  -0.46088  -0.41166  -0.37650
 Alpha  occ. eigenvalues --   -0.26554
 Alpha virt. eigenvalues --    0.03684   0.05517   0.05973   0.06308   0.06651
 Alpha virt. eigenvalues --    0.08827   0.10648   0.12614   0.13780   0.14937
 Alpha virt. eigenvalues --    0.15560   0.15825   0.17296   0.17775   0.19029

  Beta  occ. eigenvalues --  -21.06992 -11.45207 -11.41746 -11.38452  -1.77603
  Beta  occ. eigenvalues --   -1.09530  -0.96830  -0.76616  -0.64831  -0.59438
  Beta  occ. eigenvalues --   -0.57231  -0.55126  -0.44109  -0.37297  -0.34096
  Beta virt. eigenvalues --    0.03110   0.05521   0.05945   0.06299   0.06557
  Beta virt. eigenvalues --    0.08411   0.10248   0.11905   0.12997   0.14400
  Beta virt. eigenvalues --    0.15315   0.15903   0.16326   0.17370   0.18889

 Mulliken charges and spin densities:
               1          2
     1  O   -2.348031   0.104312
     2  C    1.563543   1.414927
     3  C   -1.800269  -0.241223
     4  H    1.422603  -0.012485
     5  H    1.403807   0.015716
     6  C   -3.845322  -0.314401
     7  H    1.154318   0.041290
     8  H    1.214109  -0.002782
     9  H    1.235243  -0.005354
 Sum of Mulliken charges =  -0.00000   1.00000

 Dipole moment (field-independent basis, Debye):
    X=              0.2108    Y=             -0.3471    Z=              0.5116  Tot=              0.6532
                          Isotropic Fermi Contact Couplings
        Atom                 a.u.       MegaHertz       Gauss      10(-4) cm-1
     1  O(17)              0.05162     -31.29045     -11.16521     -10.43737
     2  C(13)              0.24219     272.26342      97.15036      90.81730
     3  C(13)             -0.00526      -5.91256      -2.10975      -1.97222
     4  H(1)               0.00224      10.00453       3.56986       3.33715
     5  H(1)               0.00131       5.84830       2.08682       1.95078
     6  C(13)              0.01958      22.00756       7.85285       7.34093
     7  H(1)               0.01439      64.33599      22.95668      21.46018
     8  H(1)               0.00315      14.06004       5.01697       4.68992

 Normal termination of Gaussian 16 at Tue Apr  8 23:01:45 2025.
