 Gaussian 16, Revision C.01,

 ----------------------------------------------------------------------
 #t hf aug-cc-pvdz symm=none int=(grid=ultrafine) guess=(read,tcheck) s
 table=opt
 ----------------------------------------------------------------------
 -----
 title
 -----
 Symbolic Z-matrix:
 Charge =  0 Multiplicity = 2

 SCF Done:  E(UHF) =  -655.775418023     A.U. after   19 cycles
 Normal termination of Gaussian 16 at Wed Apr  9 00:20:37 2025.
 Gaussian 16:  ES64L-G16RevC.01  3-Jul-2019

 ----------------------------------------------------------------------
 #t hf aug-cc-pvdz iop(5/13=1,5/36=2,99/5=2) pseudo=read geom=check gue
 ss=(read,tcheck) scf=(maxcycle=1)
 ----------------------------------------------------------------------
 -----
 title
 -----
 Structure from the checkpoint file:  "BDE49_nonexpt_259_mol2.chk"
 Charge =  0 Multiplicity = 2

                         Standard orientation:
 ---------------------------------------------------------------------
 Center     Atomic      Atomic             Coordinates (Angstroms)
 Number     Number       Type             X           Y           Z
 ---------------------------------------------------------------------
      1         17           0        2.769455   -0.000001    0.010402
      2          7           0       -0.190730   -0.000022   -0.037034
      3          6           0       -2.262542    1.302576    0.020834
      4          6           0       -1.526362    0.000000   -0.082618
      5          6           0       -2.262572   -1.302559    0.020835
      6          5           0        1.063089   -0.000001   -0.000788
      7          1           0       -1.677084    2.118386   -0.408591
      8          1           0       -2.472776    1.567436    1.069223
      9          1           0       -3.226196    1.253019   -0.494616
     10          1           0       -1.677137   -2.118381   -0.408599
     11          1           0       -3.226230   -1.252977   -0.494607
     12          1           0       -2.472802   -1.567419    1.069224
 ---------------------------------------------------------------------

 SCF Done:  E(UHF) =  -656.944494687     A.U. after    2 cycles

 The electronic state is 2-A.
 Alpha  occ. eigenvalues --  -99.92465 -15.68019 -11.43273 -11.37731 -11.35667
 Alpha  occ. eigenvalues --  -10.49657  -9.69710  -9.69059  -9.69043  -7.70364
 Alpha  occ. eigenvalues --   -1.38405  -1.35668  -1.12880  -1.01454  -0.87017
 Alpha  occ. eigenvalues --   -0.73819  -0.64528  -0.62864  -0.61596  -0.58993
 Alpha  occ. eigenvalues --   -0.57217  -0.53917  -0.52263  -0.49049  -0.45030
 Alpha  occ. eigenvalues --   -0.37288  -0.24161
 Alpha virt. eigenvalues --    0.03206   0.03855   0.04367   0.04587   0.06271
 Alpha virt. eigenvalues --    0.06422   0.07151   0.07602   0.08714   0.09554
 Alpha virt. eigenvalues --    0.11666   0.12780   0.14155   0.14333   0.15308

  Beta  occ. eigenvalues --  -99.92457 -15.69257 -11.41634 -11.38037 -11.35362
  Beta  occ. eigenvalues --  -10.49649  -9.69837  -9.69023  -9.68913  -7.69621
  Beta  occ. eigenvalues --   -1.37813  -1.35561  -1.11816  -1.01420  -0.84027
  Beta  occ. eigenvalues --   -0.73276  -0.63114  -0.61718  -0.60323  -0.56796
  Beta  occ. eigenvalues --   -0.56438  -0.52995  -0.51886  -0.48878  -0.44776
  Beta  occ. eigenvalues --   -0.38273
  Beta virt. eigenvalues --    0.03223   0.03884   0.04358   0.04553   0.06321
  Beta virt. eigenvalues --    0.06356   0.07166   0.07554   0.08793   0.09557
  Beta virt. eigenvalues --    0.10784   0.11889   0.12964   0.14230   0.14491

 Mulliken charges and spin densities:
               1          2
     1  Cl  -1.254420   0.047719
     2  N   -3.967379  -0.453044
     3  C   -3.899118  -0.353252
     4  C    4.249002   1.557069
     5  C   -3.899122  -0.353257
     6  B    1.084173   0.460798
     7  H    1.340394   0.006877
     8  H    1.196436   0.030777
     9  H    1.306597   0.009330
    10  H    1.340398   0.006877
    11  H    1.306601   0.009330
    12  H    1.196437   0.030777
 Sum of Mulliken charges =   0.00000   1.00000

 Dipole moment (field-independent basis, Debye):
    X=             -0.8382    Y=              0.0000    Z=              0.0363  Tot=              0.8390
                          Isotropic Fermi Contact Couplings
        Atom                 a.u.       MegaHertz       Gauss      10(-4) cm-1
     1  Cl(35)             0.01440       6.31250       2.25246       2.10562
     2  N(14)             -0.13886     -44.86534     -16.00907     -14.96546
     3  C(13)             -0.03466     -38.96492     -13.90365     -12.99730
     4  C(13)              0.14069     158.16292      56.43646      52.75747
     5  C(13)             -0.03466     -38.96501     -13.90369     -12.99733
     6  B(11)              0.04381      62.83592      22.42142      20.95981
     7  H(1)               0.00464      20.74946       7.40392       6.92128
     8  H(1)               0.01701      76.02677      27.12824      25.35980

 1\1\GINC-SE222\SP\UHF\Aug-CC-pVDZ\C3H6B1Cl1N1(2)\OHZDE\09-Apr-2025\0\\
 #t hf aug-cc-pvdz iop(5/13=1,5/36=2,99/5=2) pseudo=read geom=check gue
 ss=(read,tcheck) scf=(maxcycle=1)\\title\\0,2\Cl,0,2.769455,-0.000001,
 0.010402\N,0,-0.19073,-0.000022,-0.037034\C,0,-2.262542,1.302576,0.020
 834\C,0,-1.526362,0.,-0.082618\C,0,-2.262572,-1.302559,0.020835\B,0,1.
 063089,-0.000001,-0.000788\H,0,-1.677084,2.118386,-0.408591\H,0,-2.472
 776,1.567436,1.069223\H,0,-3.226196,1.253019,-0.494616\H,0,-1.677137,-
 2.118381,-0.408599\H,0,-3.22623,-1.252977,-0.494607\H,0,-2.472802,-1.5

 Normal termination of Gaussian 16 at Wed Apr  9 00:20:42 2025.
