 Gaussian 16, Revision C.01,

 ----------------------------------------------------------------------
 #t hf aug-cc-pvdz symm=none int=(grid=ultrafine) guess=(read,tcheck) s
 table=(opt,rrhf)
 ----------------------------------------------------------------------
 -----
 title
 -----
 Symbolic Z-matrix:
 Charge =  0 Multiplicity = 1

 SCF Done:  E(RHF) =  -877.302800087     A.U. after   16 cycles
 Normal termination of Gaussian 16 at Tue Apr  8 23:10:46 2025.
 Gaussian 16:  ES64L-G16RevC.01  3-Jul-2019

 ----------------------------------------------------------------------
 #t hf aug-cc-pvdz iop(5/13=1,5/36=2,99/5=2) pseudo=read geom=check gue
 ss=(read,tcheck) scf=(maxcycle=1)
 ----------------------------------------------------------------------
 -----
 title
 -----
 Structure from the checkpoint file:  "BDE49_expt_605_mol1.chk"
 Charge =  0 Multiplicity = 1

                         Standard orientation:
 ---------------------------------------------------------------------
 Center     Atomic      Atomic             Coordinates (Angstroms)
 Number     Number       Type             X           Y           Z
 ---------------------------------------------------------------------
      1          6           0        0.986148   -1.208866    0.000007
      2          6           0        1.683034   -0.003445   -0.000006
      3          6           0        1.018157    1.220867   -0.000002
      4          6           0       -2.573911    0.109061    0.000054
      5          8           0       -3.212626    1.133886   -0.000010
      6          8           0       -3.163899   -1.111285   -0.000021
      7          1           0       -4.118634   -0.950512   -0.000064
      8          6           0       -0.403565   -1.186225    0.000025
      9          6           0       -0.369966    1.231980    0.000016
     10          6           0       -1.089337    0.032756    0.000031
     11          1           0        1.582451    2.144110   -0.000012
     12          1           0       -0.915667    2.167152    0.000021
     13          1           0        1.526212   -2.146494    0.000004
     14          1           0       -0.959473   -2.114245    0.000036
     15         17           0        3.434938   -0.026917   -0.000029
 ---------------------------------------------------------------------

 SCF Done:  E(RHF) =  -879.399848375     A.U. after    2 cycles

 The electronic state is 1-A.
 Alpha  occ. eigenvalues --  -99.90743 -21.13075 -21.05950 -11.54671 -11.53785
 Alpha  occ. eigenvalues --  -11.47883 -11.46885 -11.45043 -11.43821 -11.39690
 Alpha  occ. eigenvalues --  -10.48096  -9.68123  -9.67224  -9.67047  -1.83822
 Alpha  occ. eigenvalues --   -1.66143  -1.41580  -1.29803  -1.12492  -1.12162
 Alpha  occ. eigenvalues --   -0.93386  -0.90394  -0.81639  -0.72889  -0.68066
 Alpha  occ. eigenvalues --   -0.64193  -0.62932  -0.61045  -0.59426  -0.59226
 Alpha  occ. eigenvalues --   -0.57265  -0.52340  -0.50751  -0.49344  -0.47480
 Alpha  occ. eigenvalues --   -0.45534  -0.36398  -0.35661  -0.33439  -0.30810
 Alpha virt. eigenvalues --    0.02941   0.04866   0.05693   0.06263   0.07200
 Alpha virt. eigenvalues --    0.07600   0.07849   0.08835   0.10223   0.10460
 Alpha virt. eigenvalues --    0.10504   0.11518   0.12887   0.13110   0.13403

 Mulliken charges:
               1
     1  C   -2.010937
     2  C   -3.008371
     3  C   -1.363898
     4  C    5.365318
     5  O   -3.547959
     6  O   -3.759715
     7  H    1.207882
     8  C    0.435696
     9  C   -0.681029
    10  C    0.966243
    11  H    1.742765
    12  H    1.856236
    13  H    1.754960
    14  H    1.926072
    15  Cl  -0.883262
 Sum of Mulliken charges =  -0.00000

 Dipole moment (field-independent basis, Debye):
    X=             -1.2299    Y=             -1.0256    Z=             -0.0001  Tot=              1.6014

 Test job not archived.
 1\1\GINC-SE458\SP\RHF\Aug-CC-pVDZ\C7H5Cl1O2\OHZDE\08-Apr-2025\0\\#t hf
  aug-cc-pvdz iop(5/13=1,5/36=2,99/5=2) pseudo=read geom=check guess=(r
 ead,tcheck) scf=(maxcycle=1)\\title\\0,1\C,0,0.986148,-1.208866,0.0000
 07\C,0,1.683034,-0.003445,-0.000006\C,0,1.018157,1.220867,-0.000002\C,
 0,-2.573911,0.109061,0.000054\O,0,-3.212626,1.133886,-0.00001\O,0,-3.1
 63899,-1.111285,-0.000021\H,0,-4.118634,-0.950512,-0.000064\C,0,-0.403
 565,-1.186225,0.000025\C,0,-0.369966,1.23198,0.000016\C,0,-1.089337,0.
 032756,0.000031\H,0,1.582451,2.14411,-0.000012\H,0,-0.915667,2.167152,

 Normal termination of Gaussian 16 at Tue Apr  8 23:10:53 2025.
