 Gaussian 16, Revision C.01,

 ----------------------------------------------------------------------
 #t hf aug-cc-pvdz symm=none int=(grid=ultrafine) guess=(read,tcheck) s
 table=(opt,rrhf)
 ----------------------------------------------------------------------
 -----
 title
 -----
 Symbolic Z-matrix:
 Charge =  0 Multiplicity = 1

 SCF Done:  E(RHF) =  -430.476586120     A.U. after   12 cycles
 Normal termination of Gaussian 16 at Wed Apr  9 00:47:58 2025.
 Gaussian 16:  ES64L-G16RevC.01  3-Jul-2019

 ----------------------------------------------------------------------
 #t hf aug-cc-pvdz iop(5/13=1,5/36=2,99/5=2) pseudo=read geom=check gue
 ss=(read,tcheck) scf=(maxcycle=1)
 ----------------------------------------------------------------------
 -----
 title
 -----
 Structure from the checkpoint file:  "BDE49_nonexpt_839_mol1.chk"
 Charge =  0 Multiplicity = 1

                         Standard orientation:
 ---------------------------------------------------------------------
 Center     Atomic      Atomic             Coordinates (Angstroms)
 Number     Number       Type             X           Y           Z
 ---------------------------------------------------------------------
      1         14           0       -0.694757   -0.668372   -0.000003
      2          5           0        1.332186   -0.527848   -0.000087
      3          8           0        1.890047    0.708344    0.000027
      4          6           0       -1.575994    1.000001    0.000010
      5          1           0       -1.299045    1.583177    0.882331
      6          1           0       -2.662135    0.877724    0.000048
      7          1           0       -1.299104    1.583160   -0.882340
      8          1           0        2.853869    0.700412    0.000092
      9          1           0        2.047057   -1.494164    0.000033
     10          1           0       -1.119655   -1.460302    1.189025
     11          1           0       -1.119729   -1.460319   -1.188993
 ---------------------------------------------------------------------

 SCF Done:  E(RHF) =  -431.279380834     A.U. after    2 cycles

 The electronic state is 1-A.
 Alpha  occ. eigenvalues --  -76.18570 -21.07507 -11.34051  -7.62390  -5.52321
 Alpha  occ. eigenvalues --   -2.15857  -2.14713  -2.14258  -1.74372  -1.02991
 Alpha  occ. eigenvalues --   -0.80867  -0.68047  -0.62915  -0.55042  -0.54740
 Alpha  occ. eigenvalues --   -0.45410  -0.43485  -0.43019  -0.41166  -0.34342
 Alpha virt. eigenvalues --    0.03044   0.03724   0.04550   0.04777   0.07212
 Alpha virt. eigenvalues --    0.07476   0.07619   0.08878   0.09457   0.09693
 Alpha virt. eigenvalues --    0.10321   0.10358   0.11403   0.13207   0.13420

 Mulliken charges:
               1
     1  Si   5.787080
     2  B    3.148026
     3  O   -3.434172
     4  C   -4.909678
     5  H    1.353976
     6  H    1.295867
     7  H    1.353975
     8  H    1.248142
     9  H   -2.156670
    10  H   -1.843257
    11  H   -1.843289
 Sum of Mulliken charges =   0.00000

 Dipole moment (field-independent basis, Debye):
    X=              1.3560    Y=              1.3796    Z=              0.0001  Tot=              1.9344

 Test job not archived.
 1\1\GINC-SE159\SP\RHF\Aug-CC-pVDZ\C1H7B1O1Si1\OHZDE\09-Apr-2025\0\\#t
 hf aug-cc-pvdz iop(5/13=1,5/36=2,99/5=2) pseudo=read geom=check guess=
 (read,tcheck) scf=(maxcycle=1)\\title\\0,1\Si,0,0.694757,-0.668372,0.0
 00003\B,0,-1.332186,-0.527848,0.000087\O,0,-1.890047,0.708345,-0.00002
 7\C,0,1.575995,1.,-0.00001\H,0,1.299046,1.583176,-0.882331\H,0,2.66213
 5,0.877723,-0.000048\H,0,1.299105,1.583159,0.88234\H,0,-2.853869,0.700
 413,-0.000092\H,0,-2.047057,-1.494163,-0.000033\H,0,1.119655,-1.460302
 ,-1.189025\H,0,1.119729,-1.460319,1.188993\\Version=ES64L-G16RevC.01\S

 Normal termination of Gaussian 16 at Wed Apr  9 00:48:02 2025.
