 Gaussian 16, Revision C.01,

 ----------------------------------------------------------------------
 #t hf aug-cc-pvdz symm=none int=(grid=ultrafine) guess=(read,tcheck) s
 table=(opt,rrhf)
 ----------------------------------------------------------------------
 -----
 title
 -----
 Symbolic Z-matrix:
 Charge =  0 Multiplicity = 1

 SCF Done:  E(RHF) =  -516.073858683     A.U. after   14 cycles
 Normal termination of Gaussian 16 at Tue Apr  8 23:20:47 2025.
 Gaussian 16:  ES64L-G16RevC.01  3-Jul-2019

 ----------------------------------------------------------------------
 #t hf aug-cc-pvdz iop(5/13=1,5/36=2,99/5=2) pseudo=read geom=check gue
 ss=(read,tcheck) scf=(maxcycle=1)
 ----------------------------------------------------------------------
 -----
 title
 -----
 Structure from the checkpoint file:  "BDE49_nonexpt_1114_mol1.chk"
 Charge =  0 Multiplicity = 1

                         Standard orientation:
 ---------------------------------------------------------------------
 Center     Atomic      Atomic             Coordinates (Angstroms)
 Number     Number       Type             X           Y           Z
 ---------------------------------------------------------------------
      1          9           0        1.544903   -0.313411   -0.000015
      2          8           0        0.462805    0.675188    0.000147
      3         15           0       -0.961471   -0.237953   -0.000153
      4          1           0       -1.592530    0.495093   -1.037758
      5          1           0       -1.591971    0.493394    1.039010
 ---------------------------------------------------------------------

 SCF Done:  E(RHF) =  -516.895802994     A.U. after    2 cycles

 The electronic state is 1-A.
 Alpha  occ. eigenvalues -- -105.24508 -29.29743 -21.16112  -2.81868  -1.83993
 Alpha  occ. eigenvalues --   -1.49184  -1.48774  -1.41091  -0.76547  -0.65157
 Alpha  occ. eigenvalues --   -0.50744  -0.41265  -0.35735  -0.28196  -0.23087
 Alpha  occ. eigenvalues --   -0.21532  -0.04447
 Alpha virt. eigenvalues --    0.04303   0.07453   0.09069   0.10005   0.12555
 Alpha virt. eigenvalues --    0.16677   0.18658   0.20037   0.23054   0.23251
 Alpha virt. eigenvalues --    0.27458   0.27626   0.29448   0.31145   0.32209

 Mulliken charges:
               1
     1  F    0.027397
     2  O   -1.071521
     3  P    2.669961
     4  H   -0.812953
     5  H   -0.812884
 Sum of Mulliken charges =   0.00000

 Dipole moment (field-independent basis, Debye):
    X=              2.1001    Y=             -3.3547    Z=             -0.0027  Tot=              3.9578

 Test job not archived.
 1\1\GINC-SE086\SP\RHF\Aug-CC-pVDZ\F1H2O1P1\OHZDE\08-Apr-2025\0\\#t hf
 aug-cc-pvdz iop(5/13=1,5/36=2,99/5=2) pseudo=read geom=check guess=(re
 ad,tcheck) scf=(maxcycle=1)\\title\\0,1\F,0,1.544903,-0.313411,-0.0000
 15\O,0,0.462805,0.675188,0.000147\P,0,-0.961471,-0.237953,-0.000153\H,
 0,-1.59253,0.495093,-1.037758\H,0,-1.591971,0.493394,1.03901\\Version=
 ES64L-G16RevC.01\State=1-A\HF=-516.895803\RMSD=2.118e-01\Dipole=0.8262
 308,-1.3198449,-0.0010443\Quadrupole=1.1504868,-3.6540893,2.5036025,2.
 363901,0.0025797,-0.0054192\PG=C01 [X(F1H2O1P1)]\\@

 Normal termination of Gaussian 16 at Tue Apr  8 23:20:49 2025.
