 Gaussian 16, Revision C.01,

 ----------------------------------------------------------------------
 #t hf aug-cc-pvdz symm=none int=(grid=ultrafine) guess=(read,tcheck) s
 table=(opt,rrhf)
 ----------------------------------------------------------------------
 -----
 title
 -----
 Symbolic Z-matrix:
 Charge =  0 Multiplicity = 1

 SCF Done:  E(RHF) =  -1146.98674581     A.U. after   16 cycles
 Normal termination of Gaussian 16 at Wed Apr  9 00:22:33 2025.
 Gaussian 16:  ES64L-G16RevC.01  3-Jul-2019

 ----------------------------------------------------------------------
 #t hf aug-cc-pvdz iop(5/13=1,5/36=2,99/5=2) pseudo=read geom=check gue
 ss=(read,tcheck) scf=(maxcycle=1)
 ----------------------------------------------------------------------
 -----
 title
 -----
 Structure from the checkpoint file:  "BDE49_nonexpt_2634_mol1.chk"
 Charge =  0 Multiplicity = 1

                         Standard orientation:
 ---------------------------------------------------------------------
 Center     Atomic      Atomic             Coordinates (Angstroms)
 Number     Number       Type             X           Y           Z
 ---------------------------------------------------------------------
      1          9           0        2.500059   -0.231018   -0.209858
      2         16           0        1.215859   -1.252384   -0.431857
      3          6           0       -0.068265   -0.068017   -0.026841
      4          7           0       -1.322611   -0.916228    0.162258
      5          8           0       -2.237822   -0.463658    0.794795
      6          8           0       -1.241638   -2.009972   -0.381148
      7          7           0        0.153535    0.735263    1.306022
      8          8           0        0.657043    0.105187    2.203356
      9          8           0       -0.250313    1.872659    1.304964
     10          7           0       -0.331138    0.972145   -1.150593
     11          8           0       -1.425610    0.948262   -1.666481
     12          8           0        0.617940    1.670916   -1.413525
 ---------------------------------------------------------------------

 SCF Done:  E(RHF) =  -1150.26328597     A.U. after    2 cycles

 The electronic state is 1-A.
 Alpha  occ. eigenvalues --  -75.85085 -29.33363 -21.18855 -21.17447 -21.17051
 Alpha  occ. eigenvalues --  -21.16788 -21.16750 -21.16309 -16.08930 -16.07973
 Alpha  occ. eigenvalues --  -16.07677 -13.34641 -13.29999 -13.18460 -11.63598
 Alpha  occ. eigenvalues --   -8.18968  -2.10350  -2.06426  -2.05677  -1.78603
 Alpha  occ. eigenvalues --   -1.77507  -1.76690  -1.41379  -1.24408  -1.07824
 Alpha  occ. eigenvalues --   -1.06559  -0.85866  -0.82026  -0.81483  -0.79820
 Alpha  occ. eigenvalues --   -0.73208  -0.71254  -0.69828  -0.68140  -0.67146
 Alpha  occ. eigenvalues --   -0.66535  -0.60362  -0.49474  -0.49196  -0.43908
 Alpha  occ. eigenvalues --   -0.42172  -0.40693  -0.40482  -0.38253  -0.37086
 Alpha  occ. eigenvalues --   -0.36519  -0.36467  -0.34762  -0.33625  -0.23989
 Alpha virt. eigenvalues --    0.04005   0.05742   0.07763   0.08814   0.09340
 Alpha virt. eigenvalues --    0.10940   0.11107   0.13171   0.13599   0.14029
 Alpha virt. eigenvalues --    0.14292   0.15189   0.15313   0.16204   0.16956

 Mulliken charges:
               1
     1  F   -0.396840
     2  S    1.387093
     3  C    3.422913
     4  N    4.170580
     5  O   -2.964408
     6  O   -2.748443
     7  N    4.599044
     8  O   -3.060678
     9  O   -2.949362
    10  N    4.418177
    11  O   -2.799552
    12  O   -3.078523
 Sum of Mulliken charges =   0.00000

 Dipole moment (field-independent basis, Debye):
    X=              3.6498    Y=             -0.7143    Z=             -0.1192  Tot=              3.7210

 Test job not archived.
 1\1\GINC-SE329\SP\RHF\Aug-CC-pVDZ\C1F1N3O6S1\OHZDE\09-Apr-2025\0\\#t h
 f aug-cc-pvdz iop(5/13=1,5/36=2,99/5=2) pseudo=read geom=check guess=(
 read,tcheck) scf=(maxcycle=1)\\title\\0,1\F,0,2.500059,-0.231018,-0.20
 9858\S,0,1.215859,-1.252384,-0.431857\C,0,-0.068265,-0.068017,-0.02684
 1\N,0,-1.322611,-0.916228,0.162258\O,0,-2.237822,-0.463658,0.794795\O,
 0,-1.241638,-2.009972,-0.381148\N,0,0.153535,0.735263,1.306022\O,0,0.6
 57043,0.105187,2.203356\O,0,-0.250313,1.872659,1.304964\N,0,-0.331138,
 0.972145,-1.150593\O,0,-1.42561,0.948262,-1.666481\O,0,0.61794,1.67091

 Normal termination of Gaussian 16 at Wed Apr  9 00:22:42 2025.
