 Gaussian 16, Revision C.01,

 ----------------------------------------------------------------------
 #t hf aug-cc-pvdz symm=none int=(grid=ultrafine) guess=(read,tcheck) s
 table=(opt,rrhf)
 ----------------------------------------------------------------------
 -----
 title
 -----
 Symbolic Z-matrix:
 Charge =  0 Multiplicity = 1

 SCF Done:  E(RHF) =  -1208.13982836     A.U. after   13 cycles
 Normal termination of Gaussian 16 at Tue Apr  8 23:39:49 2025.
 Gaussian 16:  ES64L-G16RevC.01  3-Jul-2019

 ----------------------------------------------------------------------
 #t hf aug-cc-pvdz iop(5/13=1,5/36=2,99/5=2) pseudo=read geom=check gue
 ss=(read,tcheck) scf=(maxcycle=1)
 ----------------------------------------------------------------------
 -----
 title
 -----
 Structure from the checkpoint file:  "BDE49_nonexpt_1591_mol1.chk"
 Charge =  0 Multiplicity = 1

                         Standard orientation:
 ---------------------------------------------------------------------
 Center     Atomic      Atomic             Coordinates (Angstroms)
 Number     Number       Type             X           Y           Z
 ---------------------------------------------------------------------
      1         15           0       -1.383319    0.056986   -0.007992
      2          8           0       -0.000002   -0.000002    0.854152
      3         15           0        1.383319   -0.056986   -0.007986
      4          8           0       -1.344198    1.219129   -0.909492
      5          8           0       -1.509522   -1.385975   -0.617694
      6          8           0        1.344202   -1.219125   -0.909491
      7          8           0        1.509525    1.385977   -0.617681
      8          1           0        0.645464    1.688989   -0.965714
      9          1           0       -0.645459   -1.688984   -0.965724
     10          8           0        2.519905   -0.043260    1.082321
     11          1           0        2.898790   -0.918657    1.227864
     12          8           0       -2.519910    0.043256    1.082309
     13          1           0       -2.898795    0.918652    1.227854
 ---------------------------------------------------------------------

 SCF Done:  E(RHF) =  -1210.69116117     A.U. after    2 cycles

 The electronic state is 1-A.
 Alpha  occ. eigenvalues -- -105.36138-105.35485 -21.15128 -21.15127 -21.12880
 Alpha  occ. eigenvalues --  -21.12864 -21.12154 -21.05368 -21.05357  -2.99429
 Alpha  occ. eigenvalues --   -2.99258  -2.04275  -2.04088  -2.00354  -1.96789
 Alpha  occ. eigenvalues --   -1.96617  -1.83639  -1.77851  -1.61084  -1.43237
 Alpha  occ. eigenvalues --   -1.41756  -1.34825  -1.30035  -1.25278  -0.74499
 Alpha  occ. eigenvalues --   -0.69842  -0.62868  -0.61285  -0.60873  -0.58581
 Alpha  occ. eigenvalues --   -0.51145  -0.49769  -0.46212  -0.45613  -0.42923
 Alpha  occ. eigenvalues --   -0.38110  -0.37825  -0.37474  -0.37315  -0.35915
 Alpha  occ. eigenvalues --   -0.31189  -0.29917  -0.29801  -0.19968  -0.19777
 Alpha virt. eigenvalues --    0.03481   0.04818   0.06833   0.08189   0.09433
 Alpha virt. eigenvalues --    0.10246   0.10505   0.11035   0.12236   0.13619
 Alpha virt. eigenvalues --    0.14623   0.16082   0.19330   0.19719   0.20300

 Mulliken charges:
               1
     1  P    8.564852
     2  O   -3.910689
     3  P    8.564854
     4  O   -2.839309
     5  O   -3.067159
     6  O   -2.839310
     7  O   -3.067161
     8  H    1.129586
     9  H    1.129587
    10  O   -2.729829
    11  H    0.897203
    12  O   -2.729830
    13  H    0.897204
 Sum of Mulliken charges =  -0.00000

 Dipole moment (field-independent basis, Debye):
    X=             -0.0000    Y=             -0.0000    Z=              3.5989  Tot=              3.5989

 Test job not archived.
 1\1\GINC-SE460\SP\RHF\Aug-CC-pVDZ\H4O7P2\OHZDE\08-Apr-2025\0\\#t hf au
 g-cc-pvdz iop(5/13=1,5/36=2,99/5=2) pseudo=read geom=check guess=(read
 ,tcheck) scf=(maxcycle=1)\\title\\0,1\P,0,-1.383319,0.056986,-0.007992
 \O,0,-0.000002,-0.000002,0.854152\P,0,1.383319,-0.056986,-0.007986\O,0
 ,-1.344198,1.219129,-0.909492\O,0,-1.509522,-1.385975,-0.617694\O,0,1.
 344202,-1.219125,-0.909491\O,0,1.509525,1.385977,-0.617681\H,0,0.64546
 4,1.688989,-0.965714\H,0,-0.645459,-1.688984,-0.965724\O,0,2.519905,-0
 .04326,1.082321\H,0,2.89879,-0.918657,1.227864\O,0,-2.51991,0.043256,1

 Normal termination of Gaussian 16 at Tue Apr  8 23:39:54 2025.
