 Gaussian 16, Revision C.01,

 ----------------------------------------------------------------------
 #t hf aug-cc-pvdz symm=none int=(grid=ultrafine) guess=(read,tcheck) s
 table=(opt,rrhf)
 ----------------------------------------------------------------------
 -----
 title
 -----
 Symbolic Z-matrix:
 Charge =  0 Multiplicity = 1

 SCF Done:  E(RHF) =  -783.338114232     A.U. after   16 cycles
 Normal termination of Gaussian 16 at Wed Apr  9 00:07:21 2025.
 Gaussian 16:  ES64L-G16RevC.01  3-Jul-2019

 ----------------------------------------------------------------------
 #t hf aug-cc-pvdz iop(5/13=1,5/36=2,99/5=2) pseudo=read geom=check gue
 ss=(read,tcheck) scf=(maxcycle=1)
 ----------------------------------------------------------------------
 -----
 title
 -----
 Structure from the checkpoint file:  "BDE49_nonexpt_2210_mol1.chk"
 Charge =  0 Multiplicity = 1

                         Standard orientation:
 ---------------------------------------------------------------------
 Center     Atomic      Atomic             Coordinates (Angstroms)
 Number     Number       Type             X           Y           Z
 ---------------------------------------------------------------------
      1          6           0       -2.151626   -0.905497    0.000018
      2          6           0       -1.812454    0.439206    0.000026
      3          6           0       -0.471454    0.843538   -0.000042
      4          6           0       -1.134367   -1.866783   -0.000040
      5          6           0        0.198435   -1.479974   -0.000098
      6          6           0        0.545019   -0.125371   -0.000108
      7          1           0       -1.406224   -2.915302   -0.000032
      8          1           0        0.971606   -2.240146   -0.000208
      9          8           0        1.844394    0.298827   -0.000220
     10         14           0        3.277698   -0.548265    0.000120
     11          1           0       -2.568051    1.219072    0.000095
     12          8           0       -3.441236   -1.357376    0.000137
     13          1           0       -4.041156   -0.604287   -0.000383
     14          6           0       -0.164087    2.292791    0.000035
     15          8           0       -1.014170    3.157857    0.000014
     16          1           0        0.909354    2.548447    0.000142
     17          1           0        4.323084    0.488265   -0.000165
     18          1           0        3.377693   -1.401426   -1.205072
     19          1           0        3.377219   -1.400840    1.205753
 ---------------------------------------------------------------------

 SCF Done:  E(RHF) =  -785.658646635     A.U. after    2 cycles

 The electronic state is 1-A.
 Alpha  occ. eigenvalues --  -76.26003 -21.10998 -21.08468 -21.05718 -11.54626
 Alpha  occ. eigenvalues --  -11.49467 -11.48731 -11.46147 -11.44703 -11.43110
 Alpha  occ. eigenvalues --  -11.38918  -5.59484  -2.26164  -2.21557  -2.21007
 Alpha  occ. eigenvalues --   -1.77223  -1.75315  -1.70066  -1.31876  -1.13725
 Alpha  occ. eigenvalues --   -1.07584  -0.95115  -0.88444  -0.81651  -0.77628
 Alpha  occ. eigenvalues --   -0.71554  -0.67261  -0.63847  -0.61528  -0.59710
 Alpha  occ. eigenvalues --   -0.58558  -0.54352  -0.52919  -0.51411  -0.50461
 Alpha  occ. eigenvalues --   -0.48793  -0.46755  -0.45984  -0.43471  -0.39851
 Alpha  occ. eigenvalues --   -0.38440  -0.33835  -0.29099  -0.26031
 Alpha virt. eigenvalues --    0.03064   0.04264   0.05114   0.05710   0.05788
 Alpha virt. eigenvalues --    0.06415   0.07241   0.07638   0.07749   0.08374
 Alpha virt. eigenvalues --    0.08456   0.10033   0.10988   0.12033   0.12766

 Mulliken charges:
               1
     1  C    5.322227
     2  C   -3.566133
     3  C    1.547906
     4  C   -2.925623
     5  C   -3.738644
     6  C    7.828747
     7  H    1.723842
     8  H    1.993387
     9  O   -5.435521
    10  Si   6.266657
    11  H    1.835740
    12  O   -4.620684
    13  H    1.039647
    14  C   -0.306228
    15  O   -3.283941
    16  H    1.532286
    17  H   -1.829843
    18  H   -1.691855
    19  H   -1.691968
 Sum of Mulliken charges =   0.00000

 Dipole moment (field-independent basis, Debye):
    X=              0.0088    Y=             -1.3300    Z=             -0.0002  Tot=              1.3300

 Test job not archived.
 1\1\GINC-SE403\SP\RHF\Aug-CC-pVDZ\C7H8O3Si1\OHZDE\09-Apr-2025\0\\#t hf
  aug-cc-pvdz iop(5/13=1,5/36=2,99/5=2) pseudo=read geom=check guess=(r
 ead,tcheck) scf=(maxcycle=1)\\title\\0,1\C,0,2.151626,-0.905497,-0.000
 018\C,0,1.812454,0.439206,-0.000026\C,0,0.471454,0.843538,0.000042\C,0
 ,1.134367,-1.866783,0.00004\C,0,-0.198435,-1.479974,0.000098\C,0,-0.54
 5019,-0.125371,0.000108\H,0,1.406224,-2.915302,0.000032\H,0,-0.971606,
 -2.240146,0.000208\O,0,-1.844394,0.298827,0.00022\Si,0,-3.277698,-0.54
 8265,-0.00012\H,0,2.568051,1.219072,-0.000095\O,0,3.441236,-1.357376,-

 Normal termination of Gaussian 16 at Wed Apr  9 00:07:32 2025.
