 Gaussian 16, Revision C.01,

 ----------------------------------------------------------------------
 #t hf aug-cc-pvdz symm=none int=(grid=ultrafine) guess=(read,tcheck) s
 table=(opt,rrhf)
 ----------------------------------------------------------------------
 -----
 title
 -----
 Symbolic Z-matrix:
 Charge =  0 Multiplicity = 1

 SCF Done:  E(RHF) =  -450.951806226     A.U. after   14 cycles
 Normal termination of Gaussian 16 at Wed Apr  9 00:32:19 2025.
 Gaussian 16:  ES64L-G16RevC.01  3-Jul-2019

 ----------------------------------------------------------------------
 #t hf aug-cc-pvdz iop(5/13=1,5/36=2,99/5=2) pseudo=read geom=check gue
 ss=(read,tcheck) scf=(maxcycle=1)
 ----------------------------------------------------------------------
 -----
 title
 -----
 Structure from the checkpoint file:  "BDE49_nonexpt_378_mol1.chk"
 Charge =  0 Multiplicity = 1

                         Standard orientation:
 ---------------------------------------------------------------------
 Center     Atomic      Atomic             Coordinates (Angstroms)
 Number     Number       Type             X           Y           Z
 ---------------------------------------------------------------------
      1          9           0       -1.560355   -1.402834    0.000282
      2          9           0       -2.195082    0.768335    0.000504
      3          5           0       -1.234048   -0.127860   -0.000569
      4          6           0        0.290295    0.361130   -0.000302
      5          8           0        0.619710    1.523015   -0.000105
      6          8           0        1.156288   -0.670467   -0.000245
      7          6           0        2.554918   -0.318094    0.000022
      8          1           0        3.093119   -1.262477    0.000032
      9          1           0        2.798248    0.266761    0.888333
     10          1           0        2.798549    0.266913   -0.888106
 ---------------------------------------------------------------------

 SCF Done:  E(RHF) =  -452.689295894     A.U. after    2 cycles

 The electronic state is 1-A.
 Alpha  occ. eigenvalues --  -29.27959 -29.27597 -21.10949 -21.07741 -11.49845
 Alpha  occ. eigenvalues --  -11.42756  -7.73568  -1.85762  -1.67900  -1.18997
 Alpha  occ. eigenvalues --   -1.03354  -0.81809  -0.77682  -0.70208  -0.64660
 Alpha  occ. eigenvalues --   -0.58214  -0.57719  -0.55904  -0.49440  -0.49048
 Alpha  occ. eigenvalues --   -0.48072  -0.43227  -0.36155  -0.35310  -0.34985
 Alpha  occ. eigenvalues --   -0.33525  -0.25262
 Alpha virt. eigenvalues --    0.03239   0.03932   0.05105   0.05724   0.06348
 Alpha virt. eigenvalues --    0.06461   0.06827   0.09309   0.12165   0.13477
 Alpha virt. eigenvalues --    0.13773   0.14110   0.14923   0.16461   0.18054

 Mulliken charges:
               1
     1  F   -0.525341
     2  F    0.127865
     3  B    1.731704
     4  C    1.924488
     5  O   -2.317852
     6  O   -2.240424
     7  C   -2.643887
     8  H    1.324552
     9  H    1.309457
    10  H    1.309438
 Sum of Mulliken charges =  -0.00000

 Dipole moment (field-independent basis, Debye):
    X=             -1.3698    Y=             -1.7271    Z=              0.0023  Tot=              2.2043

 Test job not archived.
 1\1\GINC-SE457\SP\RHF\Aug-CC-pVDZ\C2H3B1F2O2\OHZDE\09-Apr-2025\0\\#t h
 f aug-cc-pvdz iop(5/13=1,5/36=2,99/5=2) pseudo=read geom=check guess=(
 read,tcheck) scf=(maxcycle=1)\\title\\0,1\F,0,1.560355,-1.402834,-0.00
 0282\F,0,2.195082,0.768335,-0.000504\B,0,1.234048,-0.12786,0.000569\C,
 0,-0.290295,0.36113,0.000302\O,0,-0.61971,1.523015,0.000105\O,0,-1.156
 288,-0.670467,0.000245\C,0,-2.554918,-0.318094,-0.000022\H,0,-3.093119
 ,-1.262477,-0.000032\H,0,-2.798248,0.266761,-0.888333\H,0,-2.798549,0.
 266913,0.888106\\Version=ES64L-G16RevC.01\State=1-A\HF=-452.6892959\RM

 Normal termination of Gaussian 16 at Wed Apr  9 00:32:22 2025.
