 Gaussian 16, Revision C.01,

 ----------------------------------------------------------------------
 #t hf aug-cc-pvdz symm=none int=(grid=ultrafine) guess=(read,tcheck) s
 table=(opt,rrhf)
 ----------------------------------------------------------------------
 -----
 title
 -----
 Symbolic Z-matrix:
 Charge =  0 Multiplicity = 1

 SCF Done:  E(RHF) =  -233.302394679     A.U. after   13 cycles
 Normal termination of Gaussian 16 at Wed Apr  9 00:37:52 2025.
 Gaussian 16:  ES64L-G16RevC.01  3-Jul-2019

 ----------------------------------------------------------------------
 #t hf aug-cc-pvdz iop(5/13=1,5/36=2,99/5=2) pseudo=read geom=check gue
 ss=(read,tcheck) scf=(maxcycle=1)
 ----------------------------------------------------------------------
 -----
 title
 -----
 Structure from the checkpoint file:  "BDE49_nonexpt_570_mol1.chk"
 Charge =  0 Multiplicity = 1

                         Standard orientation:
 ---------------------------------------------------------------------
 Center     Atomic      Atomic             Coordinates (Angstroms)
 Number     Number       Type             X           Y           Z
 ---------------------------------------------------------------------
      1          6           0        1.693626   -0.616084   -0.000004
      2          6           0        0.410497    0.193702   -0.000007
      3          1           0        2.543334    0.062702   -0.000008
      4          1           0        1.742054   -1.260423   -0.883256
      5          1           0        1.742056   -1.260413    0.883256
      6          5           0       -2.098577   -0.116091    0.000017
      7          8           0        0.386468    1.397485   -0.000007
      8          7           0       -0.767998   -0.590991    0.000008
      9          1           0       -2.967111   -0.930375   -0.000006
     10          1           0       -2.305222    1.049278   -0.000017
     11          1           0       -0.602723   -1.588966    0.000011
 ---------------------------------------------------------------------

 SCF Done:  E(RHF) =  -234.360446674     A.U. after    2 cycles

 The electronic state is 1-A.
 Alpha  occ. eigenvalues --  -21.04406 -15.74621 -11.50923 -11.39856  -7.61872
 Alpha  occ. eigenvalues --   -1.71974  -1.38556  -1.10970  -0.88558  -0.76936
 Alpha  occ. eigenvalues --   -0.66372  -0.61747  -0.60031  -0.51789  -0.50574
 Alpha  occ. eigenvalues --   -0.49863  -0.46175  -0.36178  -0.29725
 Alpha virt. eigenvalues --    0.02541   0.03731   0.04220   0.05063   0.06338
 Alpha virt. eigenvalues --    0.06528   0.07249   0.09598   0.10907   0.11901
 Alpha virt. eigenvalues --    0.13017   0.13065   0.13706   0.14851   0.15519

 Mulliken charges:
               1
     1  C   -4.156826
     2  C    5.244193
     3  H    1.193771
     4  H    1.240172
     5  H    1.240171
     6  B    6.995477
     7  O   -3.082252
     8  N   -3.247840
     9  H   -3.515016
    10  H   -3.088261
    11  H    1.176411
 Sum of Mulliken charges =  -0.00000

 Dipole moment (field-independent basis, Debye):
    X=              1.0980    Y=             -2.2073    Z=              0.0000  Tot=              2.4653

 Test job not archived.
 1\1\GINC-SE457\SP\RHF\Aug-CC-pVDZ\C2H6B1N1O1\OHZDE\09-Apr-2025\0\\#t h
 f aug-cc-pvdz iop(5/13=1,5/36=2,99/5=2) pseudo=read geom=check guess=(
 read,tcheck) scf=(maxcycle=1)\\title\\0,1\C,0,1.693626,-0.616084,-0.00
 0004\C,0,0.410497,0.193702,-0.000007\H,0,2.543334,0.062701,-0.000008\H
 ,0,1.742054,-1.260423,-0.883256\H,0,1.742056,-1.260413,0.883256\B,0,-2
 .098577,-0.116091,0.000017\O,0,0.386468,1.397485,-0.000007\N,0,-0.7679
 98,-0.590991,0.000008\H,0,-2.967111,-0.930375,-0.000006\H,0,-2.305222,
 1.049278,-0.000017\H,0,-0.602723,-1.588966,0.000011\\Version=ES64L-G16

 Normal termination of Gaussian 16 at Wed Apr  9 00:37:54 2025.
