 Gaussian 16, Revision C.01,

 ----------------------------------------------------------------------
 #t hf aug-cc-pvdz symm=none int=(grid=ultrafine) guess=(read,tcheck) s
 table=(opt,rrhf)
 ----------------------------------------------------------------------
 -----
 title
 -----
 Symbolic Z-matrix:
 Charge =  0 Multiplicity = 1

 SCF Done:  E(RHF) =  -571.632660334     A.U. after   14 cycles
 Normal termination of Gaussian 16 at Wed Apr  9 00:02:32 2025.
 Gaussian 16:  ES64L-G16RevC.01  3-Jul-2019

 ----------------------------------------------------------------------
 #t hf aug-cc-pvdz iop(5/13=1,5/36=2,99/5=2) pseudo=read geom=check gue
 ss=(read,tcheck) scf=(maxcycle=1)
 ----------------------------------------------------------------------
 -----
 title
 -----
 Structure from the checkpoint file:  "BDE49_nonexpt_2148_mol1.chk"
 Charge =  0 Multiplicity = 1

                         Standard orientation:
 ---------------------------------------------------------------------
 Center     Atomic      Atomic             Coordinates (Angstroms)
 Number     Number       Type             X           Y           Z
 ---------------------------------------------------------------------
      1          7           0       -1.212198    0.116602    0.000157
      2          8           0       -1.233866    1.343737   -0.000119
      3          8           0       -2.207096   -0.604393   -0.000121
      4         14           0        0.443913   -0.715906    0.000039
      5          6           0        1.776039    0.288177    0.777811
      6          6           0        1.775973    0.288234   -0.777774
      7          1           0        2.604348   -0.217649    1.264361
      8          1           0        1.494865    1.220009    1.256999
      9          1           0        1.494759    1.220105   -1.256866
     10          1           0        2.604243   -0.217551   -1.264432
     11          1           0        0.288010   -2.171652   -0.000009
 ---------------------------------------------------------------------

 SCF Done:  E(RHF) =  -573.024972176     A.U. after    2 cycles

 The electronic state is 1-A.
 Alpha  occ. eigenvalues --  -76.26725 -21.09963 -21.09662 -15.96919 -11.42154
 Alpha  occ. eigenvalues --  -11.38337  -5.60995  -2.27547  -2.24525  -2.21865
 Alpha  occ. eigenvalues --   -1.97596  -1.68512  -1.19904  -0.99644  -0.88361
 Alpha  occ. eigenvalues --   -0.74437  -0.67218  -0.65417  -0.64197  -0.60611
 Alpha  occ. eigenvalues --   -0.57593  -0.53309  -0.44456  -0.34606  -0.32694
 Alpha  occ. eigenvalues --   -0.32097  -0.31281
 Alpha virt. eigenvalues --    0.03265   0.04486   0.05499   0.05834   0.06612
 Alpha virt. eigenvalues --    0.06883   0.07259   0.09726   0.10415   0.10972
 Alpha virt. eigenvalues --    0.12416   0.12795   0.13736   0.15427   0.15440

 Mulliken charges:
               1
     1  N    3.524833
     2  O   -2.207897
     3  O   -2.357268
     4  Si   4.745049
     5  C   -3.251885
     6  C   -3.251714
     7  H    1.144475
     8  H    1.186774
     9  H    1.186806
    10  H    1.144522
    11  H   -1.863695
 Sum of Mulliken charges =  -0.00000

 Dipole moment (field-independent basis, Debye):
    X=              2.2939    Y=             -0.8948    Z=             -0.0001  Tot=              2.4622

 Test job not archived.
 1\1\GINC-SE454\SP\RHF\Aug-CC-pVDZ\C2H5N1O2Si1\OHZDE\09-Apr-2025\0\\#t
 hf aug-cc-pvdz iop(5/13=1,5/36=2,99/5=2) pseudo=read geom=check guess=
 (read,tcheck) scf=(maxcycle=1)\\title\\0,1\N,0,-1.212198,0.116602,0.00
 0157\O,0,-1.233866,1.343737,-0.000119\O,0,-2.207096,-0.604393,-0.00012
 1\Si,0,0.443913,-0.715906,0.000039\C,0,1.776039,0.288177,0.777811\C,0,
 1.775973,0.288234,-0.777774\H,0,2.604348,-0.217649,1.264361\H,0,1.4948
 65,1.220009,1.256999\H,0,1.494759,1.220105,-1.256866\H,0,2.604243,-0.2
 17551,-1.264432\H,0,0.28801,-2.171652,-0.000009\\Version=ES64L-G16RevC

 Normal termination of Gaussian 16 at Wed Apr  9 00:02:36 2025.
