 Gaussian 16, Revision C.01,

 ----------------------------------------------------------------------
 #t hf aug-cc-pvdz symm=none int=(grid=ultrafine) guess=(read,tcheck) s
 table=(opt,rrhf)
 ----------------------------------------------------------------------
 -----
 title
 -----
 Symbolic Z-matrix:
 Charge =  0 Multiplicity = 1

 SCF Done:  E(RHF) =  -611.378022907     A.U. after   15 cycles
 Normal termination of Gaussian 16 at Tue Apr  8 23:29:50 2025.
 Gaussian 16:  ES64L-G16RevC.01  3-Jul-2019

 ----------------------------------------------------------------------
 #t hf aug-cc-pvdz iop(5/13=1,5/36=2,99/5=2) pseudo=read geom=check gue
 ss=(read,tcheck) scf=(maxcycle=1)
 ----------------------------------------------------------------------
 -----
 title
 -----
 Structure from the checkpoint file:  "BDE49_nonexpt_1319_mol1.chk"
 Charge =  0 Multiplicity = 1

                         Standard orientation:
 ---------------------------------------------------------------------
 Center     Atomic      Atomic             Coordinates (Angstroms)
 Number     Number       Type             X           Y           Z
 ---------------------------------------------------------------------
      1          6           0       -0.549722   -0.368337   -0.061001
      2         15           0        1.174595    0.150300   -0.609664
      3          6           0        2.150475   -1.133484    0.294867
      4          1           0        2.011548   -1.076801    1.377026
      5          1           0        3.209660   -1.019828    0.055363
      6          1           0        1.816322   -2.113861   -0.046258
      7          8           0       -0.777331   -1.530990    0.194364
      8          6           0       -1.648845    0.688827   -0.070432
      9          6           0        1.461671    1.658778    0.441852
     10          1           0        0.847200    2.486628    0.083172
     11          1           0        2.507096    1.956895    0.332073
     12          1           0        1.256596    1.488569    1.501889
     13          6           0       -3.053218    0.109249    0.088366
     14          1           0       -1.556395    1.267163   -0.997659
     15          1           0       -1.427835    1.397723    0.737822
     16          1           0       -3.291235   -0.568937   -0.733579
     17          1           0       -3.799138    0.907357    0.103838
     18          1           0       -3.136267   -0.461684    1.014454
 ---------------------------------------------------------------------

 SCF Done:  E(RHF) =  -612.878559598     A.U. after    2 cycles

 The electronic state is 1-A.
 Alpha  occ. eigenvalues -- -105.16753 -21.05379 -11.48262 -11.41378 -11.38366
 Alpha  occ. eigenvalues --  -11.37092 -11.36871  -2.75676  -1.71092  -1.48951
 Alpha  occ. eigenvalues --   -1.47878  -1.44608  -1.18030  -1.04401  -0.97218
 Alpha  occ. eigenvalues --   -0.94324  -0.75130  -0.66989  -0.63116  -0.58221
 Alpha  occ. eigenvalues --   -0.57532  -0.56373  -0.55853  -0.55247  -0.51635
 Alpha  occ. eigenvalues --   -0.50391  -0.48329  -0.42666  -0.38707  -0.20697
 Alpha  occ. eigenvalues --   -0.16157  -0.01277
 Alpha virt. eigenvalues --    0.04216   0.04854   0.05572   0.05804   0.06065
 Alpha virt. eigenvalues --    0.06405   0.06930   0.07266   0.07626   0.08037
 Alpha virt. eigenvalues --    0.08893   0.10082   0.10971   0.12203   0.12996

 Mulliken charges:
               1
     1  C    0.929573
     2  P    9.035198
     3  C   -6.349115
     4  H    0.953663
     5  H    1.147319
     6  H    1.173587
     7  O   -3.140788
     8  C   -3.588404
     9  C   -6.385858
    10  H    1.256407
    11  H    1.084836
    12  H    1.116865
    13  C   -4.025394
    14  H    1.682381
    15  H    1.561846
    16  H    1.239718
    17  H    1.034116
    18  H    1.274051
 Sum of Mulliken charges =  -0.00000

 Dipole moment (field-independent basis, Debye):
    X=             -0.5548    Y=              0.4891    Z=             -0.8596  Tot=              1.1340

 Test job not archived.
 1\1\GINC-SE173\SP\RHF\Aug-CC-pVDZ\C5H11O1P1\OHZDE\08-Apr-2025\0\\#t hf
  aug-cc-pvdz iop(5/13=1,5/36=2,99/5=2) pseudo=read geom=check guess=(r
 ead,tcheck) scf=(maxcycle=1)\\title\\0,1\C,0,-0.549722,-0.368337,-0.06
 1001\P,0,1.174595,0.1503,-0.609664\C,0,2.150475,-1.133484,0.294867\H,0
 ,2.011548,-1.076801,1.377026\H,0,3.20966,-1.019828,0.055363\H,0,1.8163
 22,-2.113861,-0.046258\O,0,-0.777331,-1.53099,0.194364\C,0,-1.648845,0
 .688827,-0.070432\C,0,1.461671,1.658778,0.441852\H,0,0.8472,2.486628,0
 .083172\H,0,2.507096,1.956895,0.332073\H,0,1.256596,1.488569,1.501889\

 Normal termination of Gaussian 16 at Tue Apr  8 23:29:57 2025.
