 Gaussian 16, Revision C.01,

 ----------------------------------------------------------------------
 #t hf aug-cc-pvdz symm=none int=(grid=ultrafine) guess=(read,tcheck) s
 table=(opt,rrhf)
 ----------------------------------------------------------------------
 -----
 title
 -----
 Symbolic Z-matrix:
 Charge =  0 Multiplicity = 1

 SCF Done:  E(RHF) =  -1181.13228019     A.U. after   12 cycles
 Normal termination of Gaussian 16 at Tue Apr  8 23:46:15 2025.
 Gaussian 16:  ES64L-G16RevC.01  3-Jul-2019

 ----------------------------------------------------------------------
 #t hf aug-cc-pvdz iop(5/13=1,5/36=2,99/5=2) pseudo=read geom=check gue
 ss=(read,tcheck) scf=(maxcycle=1)
 ----------------------------------------------------------------------
 -----
 title
 -----
 Structure from the checkpoint file:  "BDE49_nonexpt_175_mol1.chk"
 Charge =  0 Multiplicity = 1

                         Standard orientation:
 ---------------------------------------------------------------------
 Center     Atomic      Atomic             Coordinates (Angstroms)
 Number     Number       Type             X           Y           Z
 ---------------------------------------------------------------------
      1         17           0        0.481204    1.734421    0.195419
      2         17           0        1.749364   -1.006843   -0.149509
      3          5           0        0.336585    0.024129   -0.089742
      4          6           0       -1.103705   -0.651526   -0.262257
      5          9           0       -2.020878    0.225235   -0.773354
      6          9           0       -1.518757   -1.005837    1.008895
      7          1           0       -1.123627   -1.554889   -0.878102
 ---------------------------------------------------------------------

 SCF Done:  E(RHF) =  -1182.57276801     A.U. after    2 cycles

 The electronic state is 1-A.
 Alpha  occ. eigenvalues --  -99.92572 -99.92139 -29.29374 -29.29315 -11.50128
 Alpha  occ. eigenvalues --  -10.49899 -10.49430  -9.69851  -9.69376  -9.69343
 Alpha  occ. eigenvalues --   -9.69184  -9.68929  -9.68741  -7.73597  -1.43887
 Alpha  occ. eigenvalues --   -1.32349  -1.28008  -0.85819  -0.80554  -0.75762
 Alpha  occ. eigenvalues --   -0.69530  -0.63178  -0.59668  -0.54779  -0.54477
 Alpha  occ. eigenvalues --   -0.52574  -0.44649  -0.39087  -0.31307  -0.30979
 Alpha  occ. eigenvalues --   -0.25999  -0.23413
 Alpha virt. eigenvalues --    0.03105   0.03741   0.04410   0.05262   0.05843
 Alpha virt. eigenvalues --    0.09231   0.10594   0.12496   0.13344   0.14134
 Alpha virt. eigenvalues --    0.15216   0.15790   0.16593   0.17160   0.17528

 Mulliken charges:
               1
     1  Cl  -1.124901
     2  Cl  -1.201925
     3  B    3.524286
     4  C   -2.906646
     5  F    0.082128
     6  F    0.160396
     7  H    1.466662
 Sum of Mulliken charges =  -0.00000

 Dipole moment (field-independent basis, Debye):
    X=             -2.3273    Y=              0.0258    Z=              0.6157  Tot=              2.4075

 Test job not archived.
 1\1\GINC-SE338\SP\RHF\Aug-CC-pVDZ\C1H1B1Cl2F2\OHZDE\08-Apr-2025\0\\#t
 hf aug-cc-pvdz iop(5/13=1,5/36=2,99/5=2) pseudo=read geom=check guess=
 (read,tcheck) scf=(maxcycle=1)\\title\\0,1\Cl,0,0.481204,1.734421,0.19
 5419\Cl,0,1.749364,-1.006843,-0.149509\B,0,0.336585,0.024129,-0.089742
 \C,0,-1.103705,-0.651526,-0.262257\F,0,-2.020878,0.225235,-0.773354\F,
 0,-1.518757,-1.005837,1.008895\H,0,-1.123627,-1.554889,-0.878102\\Vers
 ion=ES64L-G16RevC.01\State=1-A\HF=-1182.572768\RMSD=4.889e-02\Dipole=-
 0.9156149,0.0101485,0.2422312\Quadrupole=0.912047,-0.6069736,-0.305073

 Normal termination of Gaussian 16 at Tue Apr  8 23:46:18 2025.
