 Gaussian 16, Revision C.01,

 ----------------------------------------------------------------------
 #t hf aug-cc-pvdz symm=none int=(grid=ultrafine) guess=(read,tcheck) s
 table=(opt,rrhf)
 ----------------------------------------------------------------------
 -----
 title
 -----
 Symbolic Z-matrix:
 Charge =  0 Multiplicity = 1

 SCF Done:  E(RHF) =  -235.392664730     A.U. after   11 cycles
 Normal termination of Gaussian 16 at Tue Apr  8 22:46:12 2025.
 Gaussian 16:  ES64L-G16RevC.01  3-Jul-2019

 ----------------------------------------------------------------------
 #t hf aug-cc-pvdz iop(5/13=1,5/36=2,99/5=2) pseudo=read geom=check gue
 ss=(read,tcheck) scf=(maxcycle=1)
 ----------------------------------------------------------------------
 -----
 title
 -----
 Structure from the checkpoint file:  "BDE49_expt_14_mol1.chk"
 Charge =  0 Multiplicity = 1

                         Standard orientation:
 ---------------------------------------------------------------------
 Center     Atomic      Atomic             Coordinates (Angstroms)
 Number     Number       Type             X           Y           Z
 ---------------------------------------------------------------------
      1          6           0        1.413141    2.903795    0.000000
      2          6           0        1.413141    1.372727    0.000000
      3          1           0        0.900930    3.299766    0.882749
      4          1           0        0.900930    3.299766   -0.882749
      5          1           0        2.430694    3.304226    0.000000
      6          6           0        0.005413    0.766131    0.000000
      7          1           0        1.963083    1.007350    0.876033
      8          1           0        1.963083    1.007350   -0.876033
      9          6           0       -0.005413   -0.766131    0.000000
     10          1           0       -0.545056    1.132613   -0.876653
     11          1           0       -0.545056    1.132613    0.876653
     12          6           0       -1.413141   -1.372727    0.000000
     13          1           0        0.545056   -1.132613    0.876653
     14          1           0        0.545056   -1.132613   -0.876653
     15          6           0       -1.413141   -2.903795    0.000000
     16          1           0       -1.963083   -1.007350   -0.876033
     17          1           0       -1.963083   -1.007350    0.876033
     18          1           0       -0.900930   -3.299766   -0.882749
     19          1           0       -2.430694   -3.304226    0.000000
     20          1           0       -0.900930   -3.299766    0.882749
 ---------------------------------------------------------------------

 SCF Done:  E(RHF) =  -236.644817470     A.U. after    2 cycles

 The electronic state is 1-AG.
 Alpha  occ. eigenvalues --  -11.41394 -11.41131 -11.38688 -11.36693 -11.35326
 Alpha  occ. eigenvalues --  -11.33381  -1.26437  -1.15383  -1.03520  -0.92508
 Alpha  occ. eigenvalues --   -0.83715  -0.81418  -0.65639  -0.60862  -0.58956
 Alpha  occ. eigenvalues --   -0.57321  -0.54978  -0.51397  -0.51118  -0.49390
 Alpha  occ. eigenvalues --   -0.45607  -0.45562  -0.44528  -0.43916  -0.38626
 Alpha virt. eigenvalues --    0.04311   0.04779   0.05135   0.05731   0.06049
 Alpha virt. eigenvalues --    0.06067   0.06348   0.06523   0.07381   0.08278
 Alpha virt. eigenvalues --    0.08342   0.08873   0.09712   0.10598   0.11934

 Mulliken charges:
               1
     1  C   -4.375608
     2  C   -3.116082
     3  H    1.323136
     4  H    1.323136
     5  H    1.076892
     6  C   -2.217623
     7  H    1.439688
     8  H    1.439688
     9  C   -2.217623
    10  H    1.553387
    11  H    1.553387
    12  C   -3.116082
    13  H    1.553387
    14  H    1.553387
    15  C   -4.375608
    16  H    1.439688
    17  H    1.439688
    18  H    1.323136
    19  H    1.076892
    20  H    1.323136
 Sum of Mulliken charges =   0.00000

 Dipole moment (field-independent basis, Debye):
    X=              0.0000    Y=             -0.0000    Z=              0.0000  Tot=              0.0000

 Test job not archived.
 1\1\GINC-SE036\SP\RHF\Aug-CC-pVDZ\C6H14\OHZDE\08-Apr-2025\0\\#t hf aug
 -cc-pvdz iop(5/13=1,5/36=2,99/5=2) pseudo=read geom=check guess=(read,
 tcheck) scf=(maxcycle=1)\\title\\0,1\C,0,1.413141,2.903795,0.\C,0,1.41
 3141,1.372727,0.\H,0,0.90093,3.299766,0.882749\H,0,0.90093,3.299766,-0
 .882749\H,0,2.430694,3.304226,0.\C,0,0.005413,0.766131,0.\H,0,1.963083
 ,1.00735,0.876033\H,0,1.963083,1.00735,-0.876033\C,0,-0.005413,-0.7661
 31,0.\H,0,-0.545056,1.132613,-0.876653\H,0,-0.545056,1.132613,0.876653
 \C,0,-1.413141,-1.372727,0.\H,0,0.545056,-1.132613,0.876653\H,0,0.5450

 Normal termination of Gaussian 16 at Tue Apr  8 22:46:20 2025.
