 Gaussian 16, Revision C.01,

 ----------------------------------------------------------------------
 #t hf aug-cc-pvdz symm=none int=(grid=ultrafine) guess=(read,tcheck) s
 table=(opt,rrhf)
 ----------------------------------------------------------------------
 -----
 title
 -----
 Symbolic Z-matrix:
 Charge =  0 Multiplicity = 1

 SCF Done:  E(RHF) =  -603.603021792     A.U. after   15 cycles
 Normal termination of Gaussian 16 at Wed Apr  9 00:42:05 2025.
 Gaussian 16:  ES64L-G16RevC.01  3-Jul-2019

 ----------------------------------------------------------------------
 #t hf aug-cc-pvdz iop(5/13=1,5/36=2,99/5=2) pseudo=read geom=check gue
 ss=(read,tcheck) scf=(maxcycle=1)
 ----------------------------------------------------------------------
 -----
 title
 -----
 Structure from the checkpoint file:  "BDE49_nonexpt_651_mol1.chk"
 Charge =  0 Multiplicity = 1

                         Standard orientation:
 ---------------------------------------------------------------------
 Center     Atomic      Atomic             Coordinates (Angstroms)
 Number     Number       Type             X           Y           Z
 ---------------------------------------------------------------------
      1          9           0        3.580406   -0.154262    0.000016
      2          9           0       -0.479424    2.163385   -0.000008
      3          8           0       -2.891300    0.836726   -0.000008
      4          6           0       -0.570331   -0.213258   -0.000011
      5          6           0        1.548192    1.025266    0.000003
      6          1           0        2.072739    1.971096    0.000007
      7          6           0        0.160522    0.978504   -0.000005
      8          6           0        0.187611   -1.399025   -0.000006
      9          1           0       -0.343735   -2.342594   -0.000011
     10          6           0        2.232227   -0.178820    0.000007
     11          6           0        1.576738   -1.401999    0.000003
     12          1           0        2.149966   -2.320008    0.000006
     13          5           0       -2.133575   -0.299703   -0.000025
     14          1           0       -3.841441    0.691311    0.000010
     15          8           0       -2.666473   -1.566397    0.000016
     16          1           0       -3.626078   -1.610039    0.000036
 ---------------------------------------------------------------------

 SCF Done:  E(RHF) =  -606.065620656     A.U. after    2 cycles

 The electronic state is 1-A.
 Alpha  occ. eigenvalues --  -29.29310 -29.28297 -21.07187 -21.06702 -11.55017
 Alpha  occ. eigenvalues --  -11.51010 -11.46125 -11.42269 -11.41762 -11.38148
 Alpha  occ. eigenvalues --   -7.67664  -1.82685  -1.67008  -1.39450  -1.19262
 Alpha  occ. eigenvalues --   -1.14202  -0.96148  -0.93836  -0.81103  -0.79345
 Alpha  occ. eigenvalues --   -0.69018  -0.68006  -0.63632  -0.62146  -0.60455
 Alpha  occ. eigenvalues --   -0.57841  -0.52914  -0.50437  -0.50355  -0.45882
 Alpha  occ. eigenvalues --   -0.44007  -0.40136  -0.38658  -0.38382  -0.37400
 Alpha  occ. eigenvalues --   -0.37218  -0.28808  -0.25627  -0.24859  -0.23401
 Alpha virt. eigenvalues --    0.02654   0.04389   0.05289   0.05510   0.06360
 Alpha virt. eigenvalues --    0.06941   0.07509   0.08888   0.09585   0.11290
 Alpha virt. eigenvalues --    0.11344   0.12825   0.12860   0.13671   0.13955

 Mulliken charges:
               1
     1  F    0.665545
     2  F    0.796980
     3  O   -3.667503
     4  C   -6.393539
     5  C   -7.209720
     6  H    1.827097
     7  C    7.197763
     8  C    2.089972
     9  H    1.924618
    10  C    4.193472
    11  C   -5.618393
    12  H    1.633452
    13  B    4.401725
    14  H    0.966732
    15  O   -3.843441
    16  H    1.035240
 Sum of Mulliken charges =  -0.00000

 Dipole moment (field-independent basis, Debye):
    X=             -0.3893    Y=              1.7749    Z=              0.0000  Tot=              1.8171

 Test job not archived.
 1\1\GINC-SE328\SP\RHF\Aug-CC-pVDZ\C6H5B1F2O2\OHZDE\09-Apr-2025\0\\#t h
 f aug-cc-pvdz iop(5/13=1,5/36=2,99/5=2) pseudo=read geom=check guess=(
 read,tcheck) scf=(maxcycle=1)\\title\\0,1\F,0,3.580406,-0.154262,0.000
 016\F,0,-0.479424,2.163385,-0.000008\O,0,-2.8913,0.836726,-0.000008\C,
 0,-0.570331,-0.213258,-0.000011\C,0,1.548192,1.025266,0.000003\H,0,2.0
 72739,1.971096,0.000007\C,0,0.160522,0.978504,-0.000005\C,0,0.187611,-
 1.399025,-0.000006\H,0,-0.343735,-2.342594,-0.000011\C,0,2.232227,-0.1
 7882,0.000007\C,0,1.576738,-1.401999,0.000003\H,0,2.149966,-2.320008,0

 Normal termination of Gaussian 16 at Wed Apr  9 00:42:12 2025.
