 Gaussian 16, Revision C.01,

 ----------------------------------------------------------------------
 #t hf aug-cc-pvdz symm=none int=(grid=ultrafine) guess=(read,tcheck) s
 table=(opt,rrhf)
 ----------------------------------------------------------------------
 -----
 title
 -----
 Symbolic Z-matrix:
 Charge =  0 Multiplicity = 1

 SCF Done:  E(RHF) =  -1520.11525421     A.U. after   14 cycles
 Normal termination of Gaussian 16 at Tue Apr  8 23:25:23 2025.
 Gaussian 16:  ES64L-G16RevC.01  3-Jul-2019

 ----------------------------------------------------------------------
 #t hf aug-cc-pvdz iop(5/13=1,5/36=2,99/5=2) pseudo=read geom=check gue
 ss=(read,tcheck) scf=(maxcycle=1)
 ----------------------------------------------------------------------
 -----
 title
 -----
 Structure from the checkpoint file:  "BDE49_nonexpt_1203_mol1.chk"
 Charge =  0 Multiplicity = 1

                         Standard orientation:
 ---------------------------------------------------------------------
 Center     Atomic      Atomic             Coordinates (Angstroms)
 Number     Number       Type             X           Y           Z
 ---------------------------------------------------------------------
      1         16           0       -0.629032    1.790331    0.043831
      2          8           0        0.847818    1.300249   -0.614633
      3          6           0        1.644870    0.519727    0.171421
      4          6           0       -1.526866    0.275452   -0.253925
      5          8           0       -1.101707   -0.732492   -0.707131
      6          8           0        1.425928    0.118342    1.263395
      7          6           0        3.776536   -0.468057   -0.057898
      8          6           0       -3.778176   -0.463747    0.065266
      9          9           0       -3.961233   -0.842216   -1.196924
     10          9           0       -4.903190    0.061617    0.531790
     11          9           0       -3.453263   -1.525842    0.795835
     12          9           0        4.280575    0.070363    1.050978
     13          9           0        4.722233   -0.514029   -0.986815
     14          9           0        3.363511   -1.703656    0.207994
     15          8           0       -2.814765    0.534122    0.160844
     16          8           0        2.758805    0.312069   -0.587002
 ---------------------------------------------------------------------

 SCF Done:  E(RHF) =  -1524.46709019     A.U. after    2 cycles

 The electronic state is 1-A.
 Alpha  occ. eigenvalues --  -75.80992 -29.35005 -29.34775 -29.34718 -29.34303
 Alpha  occ. eigenvalues --  -29.34126 -29.34068 -21.17386 -21.16800 -21.16698
 Alpha  occ. eigenvalues --  -21.12458 -21.11067 -13.29286 -13.22722 -13.16386
 Alpha  occ. eigenvalues --  -11.65277 -11.64817 -11.60853 -11.59407  -8.14739
 Alpha  occ. eigenvalues --   -1.99592  -1.95369  -1.83429  -1.76513  -1.74150
 Alpha  occ. eigenvalues --   -1.39449  -1.38154  -1.18199  -0.97254  -0.96762
 Alpha  occ. eigenvalues --   -0.96053  -0.95472  -0.93245  -0.86545  -0.73983
 Alpha  occ. eigenvalues --   -0.70623  -0.68516  -0.67022  -0.63731  -0.62382
 Alpha  occ. eigenvalues --   -0.58366  -0.53521  -0.50995  -0.50498  -0.49123
 Alpha  occ. eigenvalues --   -0.47887  -0.47562  -0.46951  -0.46318  -0.45669
 Alpha  occ. eigenvalues --   -0.43525  -0.42085  -0.40921  -0.39500  -0.37068
 Alpha  occ. eigenvalues --   -0.36552  -0.36218  -0.35255  -0.33316  -0.30986
 Alpha  occ. eigenvalues --   -0.30446  -0.28526  -0.28108  -0.27866  -0.27646
 Alpha  occ. eigenvalues --   -0.24681  -0.24040
 Alpha virt. eigenvalues --    0.05100   0.07193   0.08248   0.09068   0.10016
 Alpha virt. eigenvalues --    0.10752   0.11487   0.11640   0.11882   0.12151
 Alpha virt. eigenvalues --    0.12954   0.13274   0.13725   0.14404   0.14873

 Mulliken charges:
               1
     1  S    1.399993
     2  O   -2.422601
     3  C    4.996199
     4  C    1.846958
     5  O   -2.485914
     6  O   -2.263893
     7  C    0.768903
     8  C    1.107983
     9  F    0.440316
    10  F    0.634231
    11  F    0.476802
    12  F    0.413554
    13  F    0.472359
    14  F    0.425195
    15  O   -2.769565
    16  O   -3.040519
 Sum of Mulliken charges =   0.00000

 Dipole moment (field-independent basis, Debye):
    X=             -0.5011    Y=             -1.2614    Z=              0.9056  Tot=              1.6317

 Test job not archived.
 1\1\GINC-SE080\SP\RHF\Aug-CC-pVDZ\C4F6O5S1\OHZDE\08-Apr-2025\0\\#t hf
 aug-cc-pvdz iop(5/13=1,5/36=2,99/5=2) pseudo=read geom=check guess=(re
 ad,tcheck) scf=(maxcycle=1)\\title\\0,1\S,0,-0.629032,1.790331,0.04383
 1\O,0,0.847818,1.300249,-0.614633\C,0,1.64487,0.519727,0.171421\C,0,-1
 .526866,0.275452,-0.253925\O,0,-1.101707,-0.732492,-0.707131\O,0,1.425
 928,0.118342,1.263395\C,0,3.776536,-0.468057,-0.057898\C,0,-3.778176,-
 0.463747,0.065266\F,0,-3.961233,-0.842216,-1.196924\F,0,-4.90319,0.061
 617,0.53179\F,0,-3.453263,-1.525842,0.795835\F,0,4.280575,0.070363,1.0

 Normal termination of Gaussian 16 at Tue Apr  8 23:25:35 2025.
