 Gaussian 16, Revision C.01,

 ----------------------------------------------------------------------
 #t hf aug-cc-pvdz symm=none int=(grid=ultrafine) guess=(read,tcheck) s
 table=opt
 ----------------------------------------------------------------------
 -----
 title
 -----
 Symbolic Z-matrix:
 Charge =  0 Multiplicity = 2

 SCF Done:  E(UHF) =  -597.532775745     A.U. after   19 cycles
 Normal termination of Gaussian 16 at Wed Apr  9 00:30:43 2025.
 Gaussian 16:  ES64L-G16RevC.01  3-Jul-2019

 ----------------------------------------------------------------------
 #t hf aug-cc-pvdz iop(5/13=1,5/36=2,99/5=2) pseudo=read geom=check gue
 ss=(read,tcheck) scf=(maxcycle=1)
 ----------------------------------------------------------------------
 -----
 title
 -----
 Structure from the checkpoint file:  "BDE49_nonexpt_34_mol2.chk"
 Charge =  0 Multiplicity = 2

                         Standard orientation:
 ---------------------------------------------------------------------
 Center     Atomic      Atomic             Coordinates (Angstroms)
 Number     Number       Type             X           Y           Z
 ---------------------------------------------------------------------
      1          5           0        0.061222    0.792536    0.000029
      2          6           0       -1.264363    0.134643    0.000013
      3          8           0       -2.308168   -0.352151    0.000004
      4         17           0        1.508459   -0.231024   -0.000015
      5          1           0        0.101601    1.974078    0.000006
 ---------------------------------------------------------------------

 SCF Done:  E(UHF) =  -598.336888395     A.U. after    2 cycles

 The electronic state is 2-A.
 Alpha  occ. eigenvalues --  -99.89944 -21.18846 -11.52844 -10.47163  -9.67052
 Alpha  occ. eigenvalues --   -9.66584  -9.66570  -7.68459  -1.81885  -1.35455
 Alpha  occ. eigenvalues --   -1.02186  -0.71756  -0.62143  -0.61835  -0.60817
 Alpha  occ. eigenvalues --   -0.54826  -0.51791  -0.48535  -0.28560
 Alpha virt. eigenvalues --    0.03774   0.03848   0.04337   0.04439   0.09623
 Alpha virt. eigenvalues --    0.10259   0.12997   0.13167   0.13520   0.15005
 Alpha virt. eigenvalues --    0.15232   0.15975   0.17238   0.17609   0.21534

  Beta  occ. eigenvalues --  -99.89892 -21.17522 -11.52429 -10.47108  -9.67124
  Beta  occ. eigenvalues --   -9.66560  -9.66243  -7.67887  -1.79337  -1.34683
  Beta  occ. eigenvalues --   -0.96789  -0.70262  -0.61717  -0.60013  -0.54489
  Beta  occ. eigenvalues --   -0.51236  -0.50780  -0.48166
  Beta virt. eigenvalues --    0.03487   0.03818   0.03944   0.04602   0.05825
  Beta virt. eigenvalues --    0.10003   0.11016   0.13141   0.13387   0.15086
  Beta virt. eigenvalues --    0.15405   0.16057   0.16464   0.17660   0.19848

 Mulliken charges and spin densities:
               1          2
     1  B    5.845133   0.381225
     2  C    0.062755   0.327826
     3  O   -2.096394   0.347782
     4  Cl  -1.327215   0.028539
     5  H   -2.484280  -0.085371
 Sum of Mulliken charges =  -0.00000   1.00000

 Dipole moment (field-independent basis, Debye):
    X=             -2.3634    Y=             -0.1036    Z=              0.0000  Tot=              2.3656
                          Isotropic Fermi Contact Couplings
        Atom                 a.u.       MegaHertz       Gauss      10(-4) cm-1
     1  B(11)              0.02681      38.45084      13.72022      12.82582
     2  C(13)             -0.00974     -10.94405      -3.90511      -3.65054
     3  O(17)              0.07645     -46.34220     -16.53605     -15.45809
     4  Cl(35)             0.02598      11.39302       4.06531       3.80030
     5  H(1)              -0.01041     -46.52812     -16.60239     -15.52011
 --------------------------------------------------------
       Center         ----  Spin Dipole Couplings  ----
                      3XX-RR        3YY-RR        3ZZ-RR

 1\1\GINC-SE419\SP\UHF\Aug-CC-pVDZ\C1H1B1Cl1O1(2)\OHZDE\09-Apr-2025\0\\
 #t hf aug-cc-pvdz iop(5/13=1,5/36=2,99/5=2) pseudo=read geom=check gue
 ss=(read,tcheck) scf=(maxcycle=1)\\title\\0,2\B,0,-0.061222,0.792536,-
 0.000029\C,0,1.264363,0.134643,-0.000013\O,0,2.308168,-0.352151,-0.000
 004\Cl,0,-1.508459,-0.231024,0.000015\H,0,-0.101601,1.974078,-0.000006
 \\Version=ES64L-G16RevC.01\State=2-A\HF=-598.3368884\S2=0.760858\S2-1=
 0.\S2A=0.750081\RMSD=8.942e-02\Dipole=0.9298191,-0.040777,-0.0000055\Q
 uadrupole=1.2376214,-0.472682,-0.7649394,0.2049872,-0.0000135,-0.00001

 Normal termination of Gaussian 16 at Wed Apr  9 00:30:44 2025.
