 Gaussian 16, Revision C.01,

 ----------------------------------------------------------------------
 #t hf aug-cc-pvdz symm=none int=(grid=ultrafine) guess=(read,tcheck) s
 table=(opt,rrhf)
 ----------------------------------------------------------------------
 -----
 title
 -----
 Symbolic Z-matrix:
 Charge =  0 Multiplicity = 1

 SCF Done:  E(RHF) =  -1203.60414677     A.U. after   15 cycles
 Normal termination of Gaussian 16 at Tue Apr  8 22:52:31 2025.
 Gaussian 16:  ES64L-G16RevC.01  3-Jul-2019

 ----------------------------------------------------------------------
 #t hf aug-cc-pvdz iop(5/13=1,5/36=2,99/5=2) pseudo=read geom=check gue
 ss=(read,tcheck) scf=(maxcycle=1)
 ----------------------------------------------------------------------
 -----
 title
 -----
 Structure from the checkpoint file:  "BDE49_expt_1732_mol1.chk"
 Charge =  0 Multiplicity = 1

                         Standard orientation:
 ---------------------------------------------------------------------
 Center     Atomic      Atomic             Coordinates (Angstroms)
 Number     Number       Type             X           Y           Z
 ---------------------------------------------------------------------
      1          6           0        2.232373   -0.000001    1.290153
      2          6           0        0.859746   -0.000001    1.096188
      3          6           0        3.067118   -0.000000    0.170966
      4          7           0        2.615594    0.000001   -1.084152
      5          6           0        1.292262    0.000001   -1.259386
      6          6           0        0.370052    0.000000   -0.211536
      7          1           0        2.655442   -0.000002    2.287298
      8          1           0        0.176112   -0.000002    1.937091
      9          1           0        0.946390    0.000002   -2.290445
     10          6           0       -1.092518    0.000000   -0.527631
     11         17           0       -1.921694    1.480605    0.106171
     12         17           0       -1.921694   -1.480605    0.106169
     13          1           0       -1.270428    0.000001   -1.597571
     14          1           0        4.146737   -0.000000    0.290383
 ---------------------------------------------------------------------

 SCF Done:  E(RHF) =  -1205.43467860     A.U. after    2 cycles

 The electronic state is 1-A.
 Alpha  occ. eigenvalues --  -99.90327 -99.90322 -15.75364 -11.52663 -11.50275
 Alpha  occ. eigenvalues --  -11.47159 -11.45678 -11.43757 -11.39885 -10.47660
 Alpha  occ. eigenvalues --  -10.47513  -9.67551  -9.67521  -9.66842  -9.66772
 Alpha  occ. eigenvalues --   -9.66681  -9.66679  -1.48023  -1.39089  -1.28662
 Alpha  occ. eigenvalues --   -1.21128  -1.14868  -1.00585  -0.91482  -0.87718
 Alpha  occ. eigenvalues --   -0.74858  -0.71050  -0.67390  -0.66092  -0.61852
 Alpha  occ. eigenvalues --   -0.60662  -0.57134  -0.55447  -0.52890  -0.52796
 Alpha  occ. eigenvalues --   -0.50449  -0.49612  -0.47152  -0.38288  -0.37286
 Alpha  occ. eigenvalues --   -0.35740
 Alpha virt. eigenvalues --    0.02800   0.03755   0.05095   0.05621   0.05749
 Alpha virt. eigenvalues --    0.06361   0.06820   0.08760   0.09192   0.09735
 Alpha virt. eigenvalues --    0.10725   0.11360   0.12259   0.12917   0.13278

 Mulliken charges:
               1
     1  C   -0.915841
     2  C   -1.304833
     3  C   -1.037482
     4  N   -3.780570
     5  C   -2.186900
     6  C    5.375430
     7  H    1.397786
     8  H    1.811734
     9  H    1.581930
    10  C   -4.479780
    11  Cl   0.190998
    12  Cl   0.190998
    13  H    1.608305
    14  H    1.548226
 Sum of Mulliken charges =   0.00000

 Dipole moment (field-independent basis, Debye):
    X=              1.5440    Y=             -0.0000    Z=              0.6432  Tot=              1.6726

 Test job not archived.
 1\1\GINC-SE100\SP\RHF\Aug-CC-pVDZ\C6H5Cl2N1\OHZDE\08-Apr-2025\0\\#t hf
  aug-cc-pvdz iop(5/13=1,5/36=2,99/5=2) pseudo=read geom=check guess=(r
 ead,tcheck) scf=(maxcycle=1)\\title\\0,1\C,0,2.232373,-0.000001,1.2901
 53\C,0,0.859746,-0.000001,1.096188\C,0,3.067118,0.,0.170966\N,0,2.6155
 94,0.000001,-1.084152\C,0,1.292262,0.000001,-1.259386\C,0,0.370052,0.,
 -0.211536\H,0,2.655442,-0.000002,2.287298\H,0,0.176112,-0.000002,1.937
 091\H,0,0.94639,0.000002,-2.290445\C,0,-1.092518,0.,-0.527631\Cl,0,-1.
 921694,1.480605,0.106171\Cl,0,-1.921694,-1.480605,0.106169\H,0,-1.2704

 Normal termination of Gaussian 16 at Tue Apr  8 22:52:38 2025.
