 Gaussian 16, Revision C.01,

 ----------------------------------------------------------------------
 #t hf aug-cc-pvdz symm=none int=(grid=ultrafine) guess=(read,tcheck) s
 table=(opt,rrhf)
 ----------------------------------------------------------------------
 -----
 title
 -----
 Symbolic Z-matrix:
 Charge =  0 Multiplicity = 1

 SCF Done:  E(RHF) =  -346.643392180     A.U. after   14 cycles
 Normal termination of Gaussian 16 at Wed Apr  9 00:54:01 2025.
 Gaussian 16:  ES64L-G16RevC.01  3-Jul-2019

 ----------------------------------------------------------------------
 #t hf aug-cc-pvdz iop(5/13=1,5/36=2,99/5=2) pseudo=read geom=check gue
 ss=(read,tcheck) scf=(maxcycle=1)
 ----------------------------------------------------------------------
 -----
 title
 -----
 Structure from the checkpoint file:  "BDE49_nonexpt_970_mol1.chk"
 Charge =  0 Multiplicity = 1

                         Standard orientation:
 ---------------------------------------------------------------------
 Center     Atomic      Atomic             Coordinates (Angstroms)
 Number     Number       Type             X           Y           Z
 ---------------------------------------------------------------------
      1          9           0        0.679296    2.118246    0.000000
      2          7           0       -0.285954    1.022312    0.000000
      3          6           0       -0.090143    0.303035    1.198341
      4          6           0       -0.090143   -1.029242    1.237815
      5          6           0       -0.204110   -1.875016   -0.000000
      6          6           0       -0.090143   -1.029242   -1.237815
      7          6           0       -0.090143    0.303035   -1.198341
      8          1           0       -0.024220    0.933734    2.074463
      9          1           0       -0.044564   -1.522051    2.202188
     10          1           0       -0.044564   -1.522051   -2.202188
     11          1           0       -0.024220    0.933734   -2.074463
     12          1           0       -1.157299   -2.425504   -0.000000
     13          1           0        0.570965   -2.653680   -0.000000
 ---------------------------------------------------------------------

 SCF Done:  E(RHF) =  -348.153551687     A.U. after    2 cycles

 The electronic state is 1-A'.
 Alpha  occ. eigenvalues --  -29.25530 -15.81354 -11.48411 -11.45672 -11.43111
 Alpha  occ. eigenvalues --  -11.40227 -11.38143  -1.50239  -1.21928  -1.13462
 Alpha  occ. eigenvalues --   -0.95951  -0.88968  -0.77455  -0.70847  -0.64004
 Alpha  occ. eigenvalues --   -0.61861  -0.60558  -0.60513  -0.56070  -0.48532
 Alpha  occ. eigenvalues --   -0.45676  -0.38729  -0.38344  -0.29818  -0.25267
 Alpha  occ. eigenvalues --   -0.20608
 Alpha virt. eigenvalues --    0.03265   0.05091   0.05485   0.05817   0.06112
 Alpha virt. eigenvalues --    0.06796   0.09586   0.11343   0.11740   0.12482
 Alpha virt. eigenvalues --    0.13573   0.13890   0.14456   0.15055   0.15558

 Mulliken charges:
               1
     1  F   -0.307333
     2  N   -2.186983
     3  C   -1.352381
     4  C    0.233162
     5  C   -3.527394
     6  C    0.233162
     7  C   -1.352381
     8  H    1.491295
     9  H    1.337001
    10  H    1.337001
    11  H    1.491295
    12  H    1.266783
    13  H    1.336774
 Sum of Mulliken charges =   0.00000

 Dipole moment (field-independent basis, Debye):
    X=              0.7093    Y=              0.2997    Z=              0.0000  Tot=              0.7700

 Test job not archived.
 1\1\GINC-SE009\SP\RHF\Aug-CC-pVDZ\C5H6F1N1\OHZDE\09-Apr-2025\0\\#t hf
 aug-cc-pvdz iop(5/13=1,5/36=2,99/5=2) pseudo=read geom=check guess=(re
 ad,tcheck) scf=(maxcycle=1)\\title\\0,1\F,0,0.679296,2.118246,0.\N,0,-
 0.285954,1.022312,0.\C,0,-0.090143,0.303035,1.198341\C,0,-0.090143,-1.
 029242,1.237815\C,0,-0.20411,-1.875016,0.\C,0,-0.090143,-1.029242,-1.2
 37815\C,0,-0.090143,0.303035,-1.198341\H,0,-0.02422,0.933734,2.074463\
 H,0,-0.044564,-1.522051,2.202188\H,0,-0.044564,-1.522051,-2.202188\H,0
 ,-0.02422,0.933734,-2.074463\H,0,-1.157299,-2.425504,0.\H,0,0.570965,-

 Normal termination of Gaussian 16 at Wed Apr  9 00:54:19 2025.
