 Gaussian 16, Revision C.01,

 ----------------------------------------------------------------------
 #t hf aug-cc-pvdz symm=none int=(grid=ultrafine) guess=(read,tcheck) s
 table=(opt,rrhf)
 ----------------------------------------------------------------------
 -----
 title
 -----
 Symbolic Z-matrix:
 Charge =  0 Multiplicity = 1

 SCF Done:  E(RHF) =  -629.222317465     A.U. after   15 cycles
 Normal termination of Gaussian 16 at Tue Apr  8 23:17:20 2025.
 Gaussian 16:  ES64L-G16RevC.01  3-Jul-2019

 ----------------------------------------------------------------------
 #t hf aug-cc-pvdz iop(5/13=1,5/36=2,99/5=2) pseudo=read geom=check gue
 ss=(read,tcheck) scf=(maxcycle=1)
 ----------------------------------------------------------------------
 -----
 title
 -----
 Structure from the checkpoint file:  "BDE49_expt_482_mol1.chk"
 Charge =  0 Multiplicity = 1

                         Standard orientation:
 ---------------------------------------------------------------------
 Center     Atomic      Atomic             Coordinates (Angstroms)
 Number     Number       Type             X           Y           Z
 ---------------------------------------------------------------------
      1          6           0       -2.001421   -1.070371   -0.722458
      2          6           0       -0.691862   -0.620282   -0.745236
      3          6           0       -3.014749   -0.300302   -0.139249
      4          6           0       -2.687493    0.932289    0.426747
      5          6           0       -1.361980    1.367670    0.425892
      6          6           0       -0.345278    0.608568   -0.158173
      7          7           0        0.964589    1.118608   -0.202472
      8          1           0       -2.270533   -2.017754   -1.173874
      9          1           0        0.068247   -1.214817   -1.235705
     10          1           0       -3.443339    1.556463    0.884110
     11          1           0       -1.116186    2.316027    0.892740
     12          6           0        2.171481    0.437216   -0.043469
     13          1           0        1.038012    2.122811   -0.232035
     14          6           0        3.364499    1.096123   -0.390579
     15          6           0        2.255271   -0.865596    0.473881
     16          6           0        3.494132   -1.482129    0.621964
     17          6           0        4.672610   -0.825131    0.276153
     18          6           0        4.594670    0.473903   -0.224885
     19          1           0        1.356403   -1.385071    0.778093
     20          1           0        3.533956   -2.488041    1.025984
     21          1           0        3.315383    2.101182   -0.798491
     22          1           0        5.632303   -1.313123    0.396457
     23          1           0        5.498958    1.006628   -0.498511
     24          8           0       -4.271753   -0.835799   -0.180227
     25          6           0       -5.335338   -0.096406    0.398109
     26          1           0       -5.176954    0.067091    1.470520
     27          1           0       -6.230471   -0.700044    0.256358
     28          1           0       -5.471132    0.871468   -0.098710
 ---------------------------------------------------------------------

 SCF Done:  E(RHF) =  -632.195028815     A.U. after    2 cycles

 The electronic state is 1-A.
 Alpha  occ. eigenvalues --  -21.07040 -15.75300 -11.54077 -11.52338 -11.46266
 Alpha  occ. eigenvalues --  -11.45173 -11.44835 -11.43574 -11.42665 -11.41434
 Alpha  occ. eigenvalues --  -11.40537 -11.39911 -11.39763 -11.36761 -11.35701
 Alpha  occ. eigenvalues --   -1.78365  -1.46017  -1.31863  -1.25561  -1.10492
 Alpha  occ. eigenvalues --   -1.09616  -1.08622  -1.03744  -0.97567  -0.88593
 Alpha  occ. eigenvalues --   -0.86359  -0.85642  -0.81323  -0.71741  -0.70540
 Alpha  occ. eigenvalues --   -0.67815  -0.65946  -0.63734  -0.62267  -0.60323
 Alpha  occ. eigenvalues --   -0.59064  -0.58149  -0.57482  -0.56035  -0.54924
 Alpha  occ. eigenvalues --   -0.52355  -0.51123  -0.48931  -0.46794  -0.45369
 Alpha  occ. eigenvalues --   -0.44209  -0.43378  -0.39068  -0.38435  -0.33662
 Alpha  occ. eigenvalues --   -0.32759  -0.29055  -0.22504
 Alpha virt. eigenvalues --    0.03273   0.04773   0.04855   0.05279   0.05523
 Alpha virt. eigenvalues --    0.05599   0.05954   0.06661   0.06956   0.07302
 Alpha virt. eigenvalues --    0.07581   0.08536   0.09014   0.09821   0.11114

 Mulliken charges:
               1
     1  C   -3.024732
     2  C   -1.425344
     3  C    4.627976
     4  C   -2.451987
     5  C   -1.482244
     6  C    3.920983
     7  N   -6.647270
     8  H    1.960536
     9  H    2.159413
    10  H    1.884404
    11  H    1.893944
    12  C    3.586088
    13  H    0.577957
    14  C   -3.347330
    15  C   -2.295649
    16  C   -0.899677
    17  C   -3.089810
    18  C   -0.120189
    19  H    2.172434
    20  H    1.501585
    21  H    1.811727
    22  H    1.574232
    23  H    1.521603
    24  O   -4.749711
    25  C   -3.871090
    26  H    1.394407
    27  H    1.417873
    28  H    1.399871
 Sum of Mulliken charges =   0.00000

 Dipole moment (field-independent basis, Debye):
    X=             -1.4315    Y=              0.8601    Z=              0.1801  Tot=              1.6797

 Test job not archived.
 1\1\GINC-SE086\SP\RHF\Aug-CC-pVDZ\C13H13N1O1\OHZDE\08-Apr-2025\0\\#t h
 f aug-cc-pvdz iop(5/13=1,5/36=2,99/5=2) pseudo=read geom=check guess=(
 read,tcheck) scf=(maxcycle=1)\\title\\0,1\C,0,2.001421,-1.070371,0.722
 458\C,0,0.691862,-0.620282,0.745236\C,0,3.014749,-0.300302,0.139249\C,
 0,2.687493,0.932289,-0.426747\C,0,1.36198,1.36767,-0.425892\C,0,0.3452
 78,0.608568,0.158173\N,0,-0.964589,1.118608,0.202472\H,0,2.270533,-2.0
 17754,1.173874\H,0,-0.068247,-1.214817,1.235705\H,0,3.443339,1.556463,
 -0.88411\H,0,1.116186,2.316027,-0.89274\C,0,-2.171481,0.437216,0.04346

 Normal termination of Gaussian 16 at Tue Apr  8 23:17:50 2025.
