 Gaussian 16, Revision C.01,

 ----------------------------------------------------------------------
 #t hf aug-cc-pvdz symm=none int=(grid=ultrafine) guess=(read,tcheck) s
 table=opt
 ----------------------------------------------------------------------
 -----
 title
 -----
 Symbolic Z-matrix:
 Charge =  0 Multiplicity = 2

 SCF Done:  E(UHF) =  -609.710528283     A.U. after   18 cycles
 Normal termination of Gaussian 16 at Tue Apr  8 23:22:53 2025.
 Gaussian 16:  ES64L-G16RevC.01  3-Jul-2019

 ----------------------------------------------------------------------
 #t hf aug-cc-pvdz iop(5/13=1,5/36=2,99/5=2) pseudo=read geom=check gue
 ss=(read,tcheck) scf=(maxcycle=1)
 ----------------------------------------------------------------------
 -----
 title
 -----
 Structure from the checkpoint file:  "BDE49_nonexpt_1202_mol3.chk"
 Charge =  0 Multiplicity = 2

                         Standard orientation:
 ---------------------------------------------------------------------
 Center     Atomic      Atomic             Coordinates (Angstroms)
 Number     Number       Type             X           Y           Z
 ---------------------------------------------------------------------
      1         16           0       -1.285345   -0.016221   -0.000001
      2          6           0        0.446497    0.124720    0.000008
      3          9           0        1.059811   -1.076017   -0.000002
      4          8           0        1.043530    1.149422   -0.000002
 ---------------------------------------------------------------------

 SCF Done:  E(UHF) =  -610.686080646     A.U. after    2 cycles

 The electronic state is 2-A.
 Alpha  occ. eigenvalues --  -75.77470 -29.33680 -21.10979 -13.19148 -13.11338
 Alpha  occ. eigenvalues --  -13.08142 -11.57978  -8.11380  -1.78583  -1.24952
 Alpha  occ. eigenvalues --   -1.01248  -0.68754  -0.60475  -0.60211  -0.46126
 Alpha  occ. eigenvalues --   -0.38064  -0.32486  -0.30324  -0.30317  -0.27515
 Alpha virt. eigenvalues --    0.05027   0.09256   0.10478   0.10815   0.11971
 Alpha virt. eigenvalues --    0.12922   0.14483   0.17770   0.19697   0.21225
 Alpha virt. eigenvalues --    0.22663   0.24047   0.26317   0.30681   0.30681

  Beta  occ. eigenvalues --  -75.76442 -29.33623 -21.10817 -13.18629 -13.07506
  Beta  occ. eigenvalues --  -13.05148 -11.58095  -8.10224  -1.78282  -1.19506
  Beta  occ. eigenvalues --   -0.97681  -0.66701  -0.60261  -0.59755  -0.45642
  Beta  occ. eigenvalues --   -0.32410  -0.31832  -0.29229  -0.28654
  Beta virt. eigenvalues --    0.01949   0.05368   0.09569   0.10486   0.11248
  Beta virt. eigenvalues --    0.12916   0.14169   0.15549   0.17889   0.19864
  Beta virt. eigenvalues --    0.21786   0.24695   0.25312   0.26652   0.31104

 Mulliken charges and spin densities:
               1          2
     1  S    0.975923   1.109822
     2  C    0.350769  -0.118063
     3  F    0.891118   0.003324
     4  O   -2.217810   0.004916
 Sum of Mulliken charges =  -0.00000   1.00000

 Dipole moment (field-independent basis, Debye):
    X=             -0.6811    Y=             -3.3692    Z=             -0.0000  Tot=              3.4373
                          Isotropic Fermi Contact Couplings
        Atom                 a.u.       MegaHertz       Gauss      10(-4) cm-1
     1  S(33)              0.32411     111.32468      39.72341      37.13392
     2  C(13)             -0.01013     -11.39027      -4.06433      -3.79938
     3  F(19)              0.00818      34.43017      12.28554      11.48467
     4  O(17)              0.01179      -7.14983      -2.55124      -2.38493
 --------------------------------------------------------
       Center         ----  Spin Dipole Couplings  ----
                      3XX-RR        3YY-RR        3ZZ-RR
 --------------------------------------------------------

 Normal termination of Gaussian 16 at Tue Apr  8 23:22:55 2025.
