 Gaussian 16, Revision C.01,

 ----------------------------------------------------------------------
 #t hf aug-cc-pvdz symm=none int=(grid=ultrafine) guess=(read,tcheck) s
 table=(opt,rrhf)
 ----------------------------------------------------------------------
 -----
 title
 -----
 Symbolic Z-matrix:
 Charge =  0 Multiplicity = 1

 SCF Done:  E(RHF) =  -931.614332142     A.U. after   12 cycles
 Normal termination of Gaussian 16 at Wed Apr  9 00:14:18 2025.
 Gaussian 16:  ES64L-G16RevC.01  3-Jul-2019

 ----------------------------------------------------------------------
 #t hf aug-cc-pvdz iop(5/13=1,5/36=2,99/5=2) pseudo=read geom=check gue
 ss=(read,tcheck) scf=(maxcycle=1)
 ----------------------------------------------------------------------
 -----
 title
 -----
 Structure from the checkpoint file:  "BDE49_nonexpt_2453_mol1.chk"
 Charge =  0 Multiplicity = 1

                         Standard orientation:
 ---------------------------------------------------------------------
 Center     Atomic      Atomic             Coordinates (Angstroms)
 Number     Number       Type             X           Y           Z
 ---------------------------------------------------------------------
      1         14           0        1.066108   -1.256054    0.527690
      2         14           0       -1.060315   -1.253121   -0.499292
      3          5           0       -2.075843    0.449431    0.004789
      4          1           0       -1.804516   -2.488643   -0.148946
      5          1           0       -0.809308   -1.287647   -1.967480
      6          5           0        2.064150    0.441716   -0.003104
      7          1           0        1.889648   -2.441875    0.161150
      8          1           0        0.921051   -1.271960    2.008831
      9          8           0       -1.493414    1.663219    0.190635
     10          1           0       -0.528071    1.687150    0.089731
     11          8           0       -3.426655    0.339354    0.158163
     12          1           0       -3.825658    1.188467    0.390867
     13          8           0        3.387389    0.541609   -0.319159
     14          1           0        3.864295   -0.290635   -0.265478
     15          8           0        1.332875    1.606740   -0.072965
     16          1           0        1.868360    2.370489   -0.328077
 ---------------------------------------------------------------------

 SCF Done:  E(RHF) =  -933.365802459     A.U. after    2 cycles

 The electronic state is 1-A.
 Alpha  occ. eigenvalues --  -76.20301 -76.19700 -21.08381 -21.08120 -21.05082
 Alpha  occ. eigenvalues --  -21.04361  -7.65714  -7.63350  -5.53942  -5.53307
 Alpha  occ. eigenvalues --   -2.16759  -2.16229  -2.16085  -2.15826  -2.15267
 Alpha  occ. eigenvalues --   -2.14374  -1.83214  -1.79842  -1.67701  -1.64201
 Alpha  occ. eigenvalues --   -0.84013  -0.78321  -0.73766  -0.68818  -0.65478
 Alpha  occ. eigenvalues --   -0.61377  -0.55150  -0.53608  -0.50733  -0.48348
 Alpha  occ. eigenvalues --   -0.47135  -0.45713  -0.45280  -0.41587  -0.38980
 Alpha  occ. eigenvalues --   -0.38776  -0.35476  -0.33995  -0.30627
 Alpha virt. eigenvalues --    0.03053   0.03772   0.04347   0.04470   0.05729
 Alpha virt. eigenvalues --    0.06619   0.07394   0.07965   0.08352   0.08696
 Alpha virt. eigenvalues --    0.09008   0.09137   0.09671   0.09956   0.10316

 Mulliken charges:
               1
     1  Si   3.516266
     2  Si   3.201044
     3  B    5.971409
     4  H   -1.820362
     5  H   -1.651090
     6  B    5.355352
     7  H   -1.940328
     8  H   -1.806803
     9  O   -4.651056
    10  H    2.031273
    11  O   -4.287118
    12  H    1.394203
    13  O   -3.813652
    14  H    1.409278
    15  O   -4.224532
    16  H    1.316118
 Sum of Mulliken charges =   0.00000

 Dipole moment (field-independent basis, Debye):
    X=              2.1053    Y=              1.0618    Z=             -0.1446  Tot=              2.3623

 Test job not archived.
 1\1\GINC-SE070\SP\RHF\Aug-CC-pVDZ\B2H8O4Si2\OHZDE\09-Apr-2025\0\\#t hf
  aug-cc-pvdz iop(5/13=1,5/36=2,99/5=2) pseudo=read geom=check guess=(r
 ead,tcheck) scf=(maxcycle=1)\\title\\0,1\Si,0,1.066108,-1.256054,0.527
 69\Si,0,-1.060315,-1.253121,-0.499292\B,0,-2.075843,0.449431,0.004789\
 H,0,-1.804516,-2.488643,-0.148946\H,0,-0.809308,-1.287647,-1.96748\B,0
 ,2.06415,0.441716,-0.003104\H,0,1.889648,-2.441875,0.16115\H,0,0.92105
 1,-1.27196,2.008831\O,0,-1.493414,1.663219,0.190635\H,0,-0.528071,1.68
 715,0.089731\O,0,-3.426655,0.339354,0.158163\H,0,-3.825658,1.188467,0.

 Normal termination of Gaussian 16 at Wed Apr  9 00:14:24 2025.
