 Gaussian 16, Revision C.01,

 ----------------------------------------------------------------------
 #t hf aug-cc-pvdz symm=none int=(grid=ultrafine) guess=(read,tcheck) s
 table=(opt,rrhf)
 ----------------------------------------------------------------------
 -----
 title
 -----
 Symbolic Z-matrix:
 Charge =  0 Multiplicity = 1

 SCF Done:  E(RHF) =  -718.833974824     A.U. after   17 cycles
 Normal termination of Gaussian 16 at Tue Apr  8 23:36:21 2025.
 Gaussian 16:  ES64L-G16RevC.01  3-Jul-2019

 ----------------------------------------------------------------------
 #t hf aug-cc-pvdz iop(5/13=1,5/36=2,99/5=2) pseudo=read geom=check gue
 ss=(read,tcheck) scf=(maxcycle=1)
 ----------------------------------------------------------------------
 -----
 title
 -----
 Structure from the checkpoint file:  "BDE49_nonexpt_1462_mol1.chk"
 Charge =  0 Multiplicity = 1

                         Standard orientation:
 ---------------------------------------------------------------------
 Center     Atomic      Atomic             Coordinates (Angstroms)
 Number     Number       Type             X           Y           Z
 ---------------------------------------------------------------------
      1          6           0       -1.109543   -1.163197   -0.120877
      2          6           0        0.271718   -1.015094   -0.155353
      3          6           0       -1.933889   -0.036488   -0.000938
      4          6           0       -1.354060    1.239115    0.083680
      5          6           0        0.025398    1.374838    0.049674
      6          6           0        0.857484    0.251851   -0.063482
      7          1           0        0.908920   -1.886661   -0.244975
      8          1           0       -1.556628   -2.147748   -0.185770
      9          1           0       -1.990072    2.110666    0.178477
     10          1           0        0.458132    2.368024    0.120286
     11         15           0        2.678639    0.486086   -0.231834
     12          7           0        3.279571   -1.017596    0.296572
     13          1           0        4.145202   -1.311143   -0.129285
     14          1           0        3.216458   -1.287632    1.268796
     15          6           0       -3.355690   -0.184132    0.037707
     16          7           0       -4.504593   -0.303360    0.069742
     17          1           0        2.805052    1.308544    0.923311
 ---------------------------------------------------------------------

 SCF Done:  E(RHF) =  -720.784889841     A.U. after    2 cycles

 The electronic state is 1-A.
 Alpha  occ. eigenvalues -- -105.20967 -15.76163 -15.75911 -11.54718 -11.47140
 Alpha  occ. eigenvalues --  -11.46368 -11.45294 -11.43431 -11.43188 -11.38993
 Alpha  occ. eigenvalues --   -2.78941  -1.58439  -1.52767  -1.46315  -1.38011
 Alpha  occ. eigenvalues --   -1.28471  -1.19479  -1.11998  -1.11773  -0.90457
 Alpha  occ. eigenvalues --   -0.89378  -0.77309  -0.74645  -0.67033  -0.65073
 Alpha  occ. eigenvalues --   -0.61333  -0.60344  -0.57904  -0.55013  -0.50171
 Alpha  occ. eigenvalues --   -0.48458  -0.46779  -0.43303  -0.42301  -0.35555
 Alpha  occ. eigenvalues --   -0.34645  -0.30021  -0.25948  -0.03085
 Alpha virt. eigenvalues --    0.03185   0.04245   0.05538   0.05877   0.06667
 Alpha virt. eigenvalues --    0.06835   0.07465   0.08058   0.08128   0.09730
 Alpha virt. eigenvalues --    0.10288   0.10842   0.11493   0.11940   0.12275

 Mulliken charges:
               1
     1  C   -2.066465
     2  C   -2.673679
     3  C    4.622593
     4  C   -2.358469
     5  C   -3.362182
     6  C    0.676528
     7  H    1.881467
     8  H    1.759180
     9  H    1.717133
    10  H    2.035185
    11  P    3.083416
    12  N   -2.663039
    13  H    0.679987
    14  H    0.537733
    15  C   -0.918440
    16  N   -2.200509
    17  H   -0.750440
 Sum of Mulliken charges =  -0.00000

 Dipole moment (field-independent basis, Debye):
    X=              5.9564    Y=             -0.1248    Z=             -0.1073  Tot=              5.9587

 Test job not archived.
 1\1\GINC-SE048\SP\RHF\Aug-CC-pVDZ\C7H7N2P1\OHZDE\08-Apr-2025\0\\#t hf
 aug-cc-pvdz iop(5/13=1,5/36=2,99/5=2) pseudo=read geom=check guess=(re
 ad,tcheck) scf=(maxcycle=1)\\title\\0,1\C,0,-1.109543,-1.163197,-0.120
 877\C,0,0.271718,-1.015094,-0.155353\C,0,-1.933889,-0.036488,-0.000938
 \C,0,-1.35406,1.239115,0.08368\C,0,0.025398,1.374838,0.049674\C,0,0.85
 7484,0.251851,-0.063482\H,0,0.90892,-1.886661,-0.244975\H,0,-1.556628,
 -2.147748,-0.18577\H,0,-1.990072,2.110666,0.178477\H,0,0.458132,2.3680
 24,0.120286\P,0,2.678639,0.486086,-0.231834\N,0,3.279571,-1.017596,0.2

 Normal termination of Gaussian 16 at Tue Apr  8 23:36:30 2025.
