 Gaussian 16, Revision C.01,

 ----------------------------------------------------------------------
 #t hf aug-cc-pvdz symm=none int=(grid=ultrafine) guess=(read,tcheck) s
 table=(opt,rrhf)
 ----------------------------------------------------------------------
 -----
 title
 -----
 Symbolic Z-matrix:
 Charge =  0 Multiplicity = 1

 SCF Done:  E(RHF) =  -583.480057595     A.U. after   12 cycles
 Normal termination of Gaussian 16 at Tue Apr  8 23:56:02 2025.
 Gaussian 16:  ES64L-G16RevC.01  3-Jul-2019

 ----------------------------------------------------------------------
 #t hf aug-cc-pvdz iop(5/13=1,5/36=2,99/5=2) pseudo=read geom=check gue
 ss=(read,tcheck) scf=(maxcycle=1)
 ----------------------------------------------------------------------
 -----
 title
 -----
 Structure from the checkpoint file:  "BDE49_nonexpt_1959_mol1.chk"
 Charge =  0 Multiplicity = 1

                         Standard orientation:
 ---------------------------------------------------------------------
 Center     Atomic      Atomic             Coordinates (Angstroms)
 Number     Number       Type             X           Y           Z
 ---------------------------------------------------------------------
      1         14           0        2.295690   -0.496321   -0.343693
      2          6           0        0.973894   -0.063462    0.930232
      3          5           0       -0.482331   -0.040249    0.331773
      4          1           0        2.059048   -1.841383   -0.916372
      5          1           0        3.646225   -0.476960    0.270784
      6          8           0       -1.122090    1.072335   -0.145337
      7          8           0       -1.149931   -1.227432    0.257982
      8          6           0       -0.547481    2.372594   -0.130287
      9          1           0       -1.256431    3.048856   -0.609315
     10          1           0        0.395500    2.402770   -0.684433
     11          1           0       -0.370992    2.718848    0.893127
     12          6           0       -2.460304   -1.306867   -0.301145
     13          1           0       -2.758718   -2.355264   -0.277077
     14          1           0       -2.472261   -0.948600   -1.334001
     15          1           0       -3.172471   -0.713244    0.278612
     16          1           0        2.293183    0.486723   -1.457096
     17          1           0        1.258277    0.889283    1.388618
     18          1           0        1.030138   -0.834100    1.706038
 ---------------------------------------------------------------------

 SCF Done:  E(RHF) =  -584.983193239     A.U. after    2 cycles

 The electronic state is 1-A.
 Alpha  occ. eigenvalues --  -76.21004 -21.02390 -21.01366 -11.41192 -11.39795
 Alpha  occ. eigenvalues --  -11.32809  -7.62556  -5.54416  -2.18280  -2.16633
 Alpha  occ. eigenvalues --   -2.16603  -1.83578  -1.68554  -1.08258  -0.99996
 Alpha  occ. eigenvalues --   -0.97081  -0.74859  -0.68959  -0.64085  -0.62174
 Alpha  occ. eigenvalues --   -0.60929  -0.59493  -0.56691  -0.53533  -0.50125
 Alpha  occ. eigenvalues --   -0.46514  -0.45895  -0.45369  -0.39673  -0.38585
 Alpha  occ. eigenvalues --   -0.32835  -0.32770
 Alpha virt. eigenvalues --    0.03379   0.04307   0.04487   0.04684   0.06372
 Alpha virt. eigenvalues --    0.06568   0.06772   0.07036   0.07596   0.08277
 Alpha virt. eigenvalues --    0.08495   0.09120   0.09826   0.10225   0.10431

 Mulliken charges:
               1
     1  Si   5.777234
     2  C   -6.311211
     3  B   10.283347
     4  H   -1.802858
     5  H   -1.860684
     6  O   -4.535489
     7  O   -5.152942
     8  C   -2.856384
     9  H    1.321423
    10  H    1.548893
    11  H    1.417317
    12  C   -2.848812
    13  H    1.307551
    14  H    1.411598
    15  H    1.442204
    16  H   -1.711372
    17  H    1.095263
    18  H    1.474920
 Sum of Mulliken charges =  -0.00000

 Dipole moment (field-independent basis, Debye):
    X=             -0.7610    Y=              1.1427    Z=              0.5017  Tot=              1.4617

 Test job not archived.
 1\1\GINC-SE095\SP\RHF\Aug-CC-pVDZ\C3H11B1O2Si1\OHZDE\08-Apr-2025\0\\#t
  hf aug-cc-pvdz iop(5/13=1,5/36=2,99/5=2) pseudo=read geom=check guess
 =(read,tcheck) scf=(maxcycle=1)\\title\\0,1\Si,0,2.29569,-0.496321,-0.
 343693\C,0,0.973894,-0.063462,0.930232\B,0,-0.482331,-0.040249,0.33177
 3\H,0,2.059048,-1.841383,-0.916372\H,0,3.646225,-0.47696,0.270784\O,0,
 -1.12209,1.072335,-0.145337\O,0,-1.149931,-1.227432,0.257982\C,0,-0.54
 7481,2.372594,-0.130287\H,0,-1.256431,3.048856,-0.609315\H,0,0.3955,2.
 40277,-0.684433\H,0,-0.370992,2.718848,0.893127\C,0,-2.460304,-1.30686

 Normal termination of Gaussian 16 at Tue Apr  8 23:56:09 2025.
