 Gaussian 16, Revision C.01,

 ----------------------------------------------------------------------
 #t hf aug-cc-pvdz symm=none int=(grid=ultrafine) guess=(read,tcheck) s
 table=(opt,rrhf)
 ----------------------------------------------------------------------
 -----
 title
 -----
 Symbolic Z-matrix:
 Charge =  0 Multiplicity = 1

 SCF Done:  E(RHF) =  -420.549542211     A.U. after   12 cycles
 Normal termination of Gaussian 16 at Tue Apr  8 23:28:01 2025.
 Gaussian 16:  ES64L-G16RevC.01  3-Jul-2019

 ----------------------------------------------------------------------
 #t hf aug-cc-pvdz iop(5/13=1,5/36=2,99/5=2) pseudo=read geom=check gue
 ss=(read,tcheck) scf=(maxcycle=1)
 ----------------------------------------------------------------------
 -----
 title
 -----
 Structure from the checkpoint file:  "BDE49_nonexpt_1307_mol1.chk"
 Charge =  0 Multiplicity = 1

                         Standard orientation:
 ---------------------------------------------------------------------
 Center     Atomic      Atomic             Coordinates (Angstroms)
 Number     Number       Type             X           Y           Z
 ---------------------------------------------------------------------
      1         15           0       -1.214491   -0.040478   -0.000000
      2          6           0        0.521650    0.653638   -0.000000
      3          6           0        1.675993   -0.351327   -0.000000
      4          1           0        0.584817    1.312149    0.872924
      5          1           0        0.584817    1.312148   -0.872925
      6          1           0        1.638327   -0.996267    0.882091
      7          1           0        2.644559    0.159598   -0.000001
      8          1           0        1.638327   -0.996269   -0.882090
      9          1           0       -1.029666   -0.999028    1.032699
     10          1           0       -1.029667   -0.999029   -1.032697
 ---------------------------------------------------------------------

 SCF Done:  E(RHF) =  -421.169865096     A.U. after    2 cycles

 The electronic state is 1-A.
 Alpha  occ. eigenvalues -- -105.16958 -11.39954 -11.35843  -2.74029  -1.46104
 Alpha  occ. eigenvalues --   -1.42713  -1.42239  -1.13109  -0.88264  -0.70039
 Alpha  occ. eigenvalues --   -0.61391  -0.55866  -0.49991  -0.49181  -0.25109
 Alpha  occ. eigenvalues --   -0.21108  -0.01948
 Alpha virt. eigenvalues --    0.03963   0.06027   0.06346   0.06413   0.07143
 Alpha virt. eigenvalues --    0.07166   0.09165   0.11602   0.11840   0.12470
 Alpha virt. eigenvalues --    0.13223   0.14988   0.15739   0.16853   0.16992

 Mulliken charges:
               1
     1  P    2.664637
     2  C   -3.943055
     3  C   -3.515465
     4  H    1.259655
     5  H    1.259655
     6  H    1.201593
     7  H    1.189813
     8  H    1.201593
     9  H   -0.659213
    10  H   -0.659213
 Sum of Mulliken charges =  -0.00000

 Dipole moment (field-independent basis, Debye):
    X=             -0.8074    Y=              1.8814    Z=             -0.0000  Tot=              2.0473

 Test job not archived.
 1\1\GINC-SE460\SP\RHF\Aug-CC-pVDZ\C2H7P1\OHZDE\08-Apr-2025\0\\#t hf au
 g-cc-pvdz iop(5/13=1,5/36=2,99/5=2) pseudo=read geom=check guess=(read
 ,tcheck) scf=(maxcycle=1)\\title\\0,1\P,0,-1.214491,-0.040478,0.\C,0,0
 .52165,0.653638,0.\C,0,1.675993,-0.351327,0.\H,0,0.584817,1.312149,0.8
 72924\H,0,0.584817,1.312148,-0.872925\H,0,1.638327,-0.996267,0.882091\
 H,0,2.644559,0.159598,-0.000001\H,0,1.638327,-0.996269,-0.88209\H,0,-1
 .029666,-0.999028,1.032699\H,0,-1.029667,-0.999029,-1.032697\\Version=
 ES64L-G16RevC.01\State=1-A\HF=-421.1698651\RMSD=3.089e-01\Dipole=-0.31

 Normal termination of Gaussian 16 at Tue Apr  8 23:28:04 2025.
