 Gaussian 16, Revision C.01,

 ----------------------------------------------------------------------
 #t hf aug-cc-pvdz symm=none int=(grid=ultrafine) guess=(read,tcheck) s
 table=(opt,rrhf)
 ----------------------------------------------------------------------
 -----
 title
 -----
 Symbolic Z-matrix:
 Charge =  0 Multiplicity = 1

 SCF Done:  E(RHF) =  -721.637090875     A.U. after   15 cycles
 Normal termination of Gaussian 16 at Tue Apr  8 22:52:43 2025.
 Gaussian 16:  ES64L-G16RevC.01  3-Jul-2019

 ----------------------------------------------------------------------
 #t hf aug-cc-pvdz iop(5/13=1,5/36=2,99/5=2) pseudo=read geom=check gue
 ss=(read,tcheck) scf=(maxcycle=1)
 ----------------------------------------------------------------------
 -----
 title
 -----
 Structure from the checkpoint file:  "BDE49_expt_1738_mol1.chk"
 Charge =  0 Multiplicity = 1

                         Standard orientation:
 ---------------------------------------------------------------------
 Center     Atomic      Atomic             Coordinates (Angstroms)
 Number     Number       Type             X           Y           Z
 ---------------------------------------------------------------------
      1          6           0       -1.489424   -1.163237   -0.000006
      2          6           0       -2.187975    0.038951   -0.000001
      3          7           0       -1.555683    1.218241    0.000002
      4          7           0       -0.151237   -1.198760    0.000006
      5          6           0        0.457061   -0.032689    0.000022
      6          6           0       -0.227191    1.188508    0.000008
      7          1           0       -2.003565   -2.118823   -0.000001
      8          1           0       -3.272648    0.059424    0.000003
      9          1           0        0.306513    2.132217   -0.000003
     10         17           0        2.211959   -0.023434   -0.000012
 ---------------------------------------------------------------------

 SCF Done:  E(RHF) =  -723.073374196     A.U. after    2 cycles

 The electronic state is 1-A.
 Alpha  occ. eigenvalues --  -99.90776 -15.78360 -15.78234 -11.50695 -11.48554
 Alpha  occ. eigenvalues --  -11.43816 -11.42106 -10.48151  -9.68175  -9.67234
 Alpha  occ. eigenvalues --   -9.67087  -1.54150  -1.37123  -1.31888  -1.13386
 Alpha  occ. eigenvalues --   -0.95635  -0.92677  -0.75240  -0.69148  -0.67761
 Alpha  occ. eigenvalues --   -0.62297  -0.62272  -0.53895  -0.53758  -0.52328
 Alpha  occ. eigenvalues --   -0.47588  -0.43289  -0.36494  -0.36472
 Alpha virt. eigenvalues --    0.03050   0.05229   0.05720   0.07449   0.08581
 Alpha virt. eigenvalues --    0.08715   0.09282   0.10710   0.10867   0.11753
 Alpha virt. eigenvalues --    0.13087   0.13240   0.13399   0.14132   0.14331

 Mulliken charges:
               1
     1  C    0.756085
     2  C    0.100378
     3  N   -3.658330
     4  N   -3.964504
     5  C    1.056704
     6  C    1.115329
     7  H    1.554629
     8  H    1.506938
     9  H    1.711106
    10  Cl  -0.178334
 Sum of Mulliken charges =   0.00000

 Dipole moment (field-independent basis, Debye):
    X=             -2.2263    Y=             -0.1186    Z=              0.0000  Tot=              2.2295

 Test job not archived.
 1\1\GINC-SE212\SP\RHF\Aug-CC-pVDZ\C4H3Cl1N2\OHZDE\08-Apr-2025\0\\#t hf
  aug-cc-pvdz iop(5/13=1,5/36=2,99/5=2) pseudo=read geom=check guess=(r
 ead,tcheck) scf=(maxcycle=1)\\title\\0,1\C,0,1.489424,-1.163237,0.0000
 06\C,0,2.187975,0.038951,0.000001\N,0,1.555683,1.218241,-0.000002\N,0,
 0.151237,-1.19876,-0.000006\C,0,-0.457061,-0.032689,-0.000022\C,0,0.22
 7191,1.188508,-0.000008\H,0,2.003565,-2.118823,0.000001\H,0,3.272648,0
 .059424,-0.000003\H,0,-0.306513,2.132217,0.000003\Cl,0,-2.211959,-0.02
 3434,0.000012\\Version=ES64L-G16RevC.01\State=1-A\HF=-723.0733742\RMSD

 Normal termination of Gaussian 16 at Tue Apr  8 22:52:47 2025.
