 Gaussian 16, Revision C.01,

 ----------------------------------------------------------------------
 #t hf aug-cc-pvdz symm=none int=(grid=ultrafine) guess=(read,tcheck) s
 table=(opt,rrhf)
 ----------------------------------------------------------------------
 -----
 title
 -----
 Symbolic Z-matrix:
 Charge =  0 Multiplicity = 1

 SCF Done:  E(RHF) =  -1007.79378836     A.U. after   15 cycles
 Normal termination of Gaussian 16 at Wed Apr  9 00:22:38 2025.
 Gaussian 16:  ES64L-G16RevC.01  3-Jul-2019

 ----------------------------------------------------------------------
 #t hf aug-cc-pvdz iop(5/13=1,5/36=2,99/5=2) pseudo=read geom=check gue
 ss=(read,tcheck) scf=(maxcycle=1)
 ----------------------------------------------------------------------
 -----
 title
 -----
 Structure from the checkpoint file:  "BDE49_nonexpt_2666_mol1.chk"
 Charge =  0 Multiplicity = 1

                         Standard orientation:
 ---------------------------------------------------------------------
 Center     Atomic      Atomic             Coordinates (Angstroms)
 Number     Number       Type             X           Y           Z
 ---------------------------------------------------------------------
      1          9           0       -2.207057    0.127083   -0.000360
      2         16           0       -0.790962   -0.859236    0.000356
      3          6           0        0.404615    0.368476    0.000324
      4         16           0        1.908199   -0.277301   -0.000266
      5          8           0        0.059385    1.640992   -0.000036
      6          1           0       -0.915047    1.702069    0.000153
 ---------------------------------------------------------------------

 SCF Done:  E(RHF) =  -1009.05129816     A.U. after    2 cycles

 The electronic state is 1-A.
 Alpha  occ. eigenvalues --  -75.81675 -75.68683 -29.30171 -21.18127 -13.24756
 Alpha  occ. eigenvalues --  -13.22422 -13.16653 -13.11920 -13.02188 -12.99701
 Alpha  occ. eigenvalues --  -11.55170  -8.15653  -8.02916  -1.84354  -1.30938
 Alpha  occ. eigenvalues --   -1.14326  -0.85128  -0.74633  -0.67338  -0.58497
 Alpha  occ. eigenvalues --   -0.54425  -0.43303  -0.42595  -0.37665  -0.34049
 Alpha  occ. eigenvalues --   -0.32534  -0.24274  -0.20059
 Alpha virt. eigenvalues --    0.04013   0.05914   0.06722   0.06956   0.09088
 Alpha virt. eigenvalues --    0.12808   0.13499   0.13766   0.14442   0.15360
 Alpha virt. eigenvalues --    0.16703   0.17947   0.19712   0.21364   0.22207

 Mulliken charges:
               1
     1  F   -0.145031
     2  S    1.367381
     3  C   -0.976812
     4  S    1.698907
     5  O   -2.909361
     6  H    0.964916
 Sum of Mulliken charges =   0.00000

 Dipole moment (field-independent basis, Debye):
    X=             -3.3948    Y=             -0.2588    Z=             -0.0031  Tot=              3.4047

 Test job not archived.
 1\1\GINC-SE071\SP\RHF\Aug-CC-pVDZ\C1H1F1O1S2\OHZDE\09-Apr-2025\0\\#t h
 f aug-cc-pvdz iop(5/13=1,5/36=2,99/5=2) pseudo=read geom=check guess=(
 read,tcheck) scf=(maxcycle=1)\\title\\0,1\F,0,2.207057,0.127083,0.0003
 6\S,0,0.790962,-0.859236,-0.000356\C,0,-0.404615,0.368476,-0.000324\S,
 0,-1.908199,-0.277301,0.000266\O,0,-0.059385,1.640992,0.000036\H,0,0.9
 15047,1.702069,-0.000153\\Version=ES64L-G16RevC.01\State=1-A\HF=-1009.
 0512982\RMSD=1.430e-01\Dipole=1.3356263,-0.1018214,0.0012082\Quadrupol
 e=5.2780561,-1.0002009,-4.2778552,1.9583928,-0.0019649,-0.0009606\PG=C

 Normal termination of Gaussian 16 at Wed Apr  9 00:22:40 2025.
