 Gaussian 16, Revision C.01,

 ----------------------------------------------------------------------
 #t hf aug-cc-pvdz symm=none int=(grid=ultrafine) guess=(read,tcheck) s
 table=(opt,rrhf)
 ----------------------------------------------------------------------
 -----
 title
 -----
 Symbolic Z-matrix:
 Charge =  0 Multiplicity = 1

 SCF Done:  E(RHF) =  -974.252069913     A.U. after   17 cycles
 Normal termination of Gaussian 16 at Tue Apr  8 23:17:01 2025.
 Gaussian 16:  ES64L-G16RevC.01  3-Jul-2019

 ----------------------------------------------------------------------
 #t hf aug-cc-pvdz iop(5/13=1,5/36=2,99/5=2) pseudo=read geom=check gue
 ss=(read,tcheck) scf=(maxcycle=1)
 ----------------------------------------------------------------------
 -----
 title
 -----
 Structure from the checkpoint file:  "BDE49_expt_512_mol1.chk"
 Charge =  0 Multiplicity = 1

                         Standard orientation:
 ---------------------------------------------------------------------
 Center     Atomic      Atomic             Coordinates (Angstroms)
 Number     Number       Type             X           Y           Z
 ---------------------------------------------------------------------
      1          6           0       -2.856127    1.879013    0.348590
      2          6           0       -1.491934    2.122683    0.281371
      3          6           0       -3.368945    0.594899    0.171220
      4          6           0       -2.468142   -0.429303   -0.094850
      5          6           0       -1.098828   -0.216407   -0.185422
      6          6           0       -0.590349    1.076799    0.014790
      7          1           0       -1.110350    3.125257    0.442979
      8          1           0       -3.534253    2.699192    0.555037
      9          1           0       -4.429244    0.393840    0.236589
     10          1           0       -0.443793   -1.038404   -0.433017
     11          7           0        0.766668    1.377018   -0.084366
     12          6           0        1.879259    0.526225   -0.014361
     13          6           0        1.894930   -0.639993    0.764856
     14          6           0        3.044755    0.890087   -0.706526
     15          6           0        3.043169   -1.423782    0.825600
     16          6           0        4.197448   -1.059414    0.136025
     17          6           0        4.191337    0.109441   -0.622945
     18          1           0        5.080684    0.411704   -1.164645
     19          1           0        3.041340    1.787113   -1.317724
     20          1           0        3.035522   -2.321806    1.433348
     21          1           0        5.088084   -1.673654    0.192061
     22          1           0        1.022177   -0.919008    1.340193
     23          1           0        0.976208    2.339645   -0.296050
     24         17           0       -3.079558   -2.060265   -0.347547
 ---------------------------------------------------------------------

 SCF Done:  E(RHF) =  -976.961240509     A.U. after    2 cycles

 The electronic state is 1-A.
 Alpha  occ. eigenvalues --  -99.89158 -15.76837 -11.53789 -11.53521 -11.48145
 Alpha  occ. eigenvalues --  -11.46146 -11.45613 -11.43695 -11.42685 -11.42332
 Alpha  occ. eigenvalues --  -11.40932 -11.40840 -11.38172 -11.36675 -10.46492
 Alpha  occ. eigenvalues --   -9.66528  -9.65671  -9.65468  -1.48136  -1.37829
 Alpha  occ. eigenvalues --   -1.30965  -1.24924  -1.11473  -1.09769  -1.09114
 Alpha  occ. eigenvalues --   -1.03612  -0.89526  -0.88532  -0.86264  -0.83376
 Alpha  occ. eigenvalues --   -0.72761  -0.72149  -0.69409  -0.67321  -0.62420
 Alpha  occ. eigenvalues --   -0.61490  -0.59858  -0.59045  -0.58442  -0.57046
 Alpha  occ. eigenvalues --   -0.56388  -0.53337  -0.50581  -0.50018  -0.48239
 Alpha  occ. eigenvalues --   -0.47296  -0.45430  -0.45211  -0.43186  -0.34400
 Alpha  occ. eigenvalues --   -0.33991  -0.33610  -0.25587
 Alpha virt. eigenvalues --    0.03110   0.04697   0.04802   0.05350   0.05433
 Alpha virt. eigenvalues --    0.05779   0.06665   0.07247   0.07862   0.08663
 Alpha virt. eigenvalues --    0.08828   0.09350   0.10528   0.10709   0.11135

 Mulliken charges:
               1
     1  C    0.702681
     2  C   -3.831968
     3  C   -3.133756
     4  C   -0.170941
     5  C   -1.653707
     6  C    4.404939
     7  H    1.824344
     8  H    1.524594
     9  H    1.719042
    10  H    2.255489
    11  N   -6.757391
    12  C    4.243233
    13  C   -2.443183
    14  C   -3.365966
    15  C   -0.507351
    16  C   -2.819101
    17  C   -0.326135
    18  H    1.517477
    19  H    1.846122
    20  H    1.516105
    21  H    1.573250
    22  H    2.118080
    23  H    0.593593
    24  Cl  -0.829449
 Sum of Mulliken charges =  -0.00000

 Dipole moment (field-independent basis, Debye):
    X=              1.5373    Y=              2.8429    Z=              0.1858  Tot=              3.2373

 Test job not archived.
 1\1\GINC-SE127\SP\RHF\Aug-CC-pVDZ\C12H10Cl1N1\OHZDE\08-Apr-2025\0\\#t
 hf aug-cc-pvdz iop(5/13=1,5/36=2,99/5=2) pseudo=read geom=check guess=
 (read,tcheck) scf=(maxcycle=1)\\title\\0,1\C,0,-2.856127,1.879013,0.34
 859\C,0,-1.491934,2.122683,0.281371\C,0,-3.368945,0.594899,0.17122\C,0
 ,-2.468142,-0.429303,-0.09485\C,0,-1.098828,-0.216407,-0.185422\C,0,-0
 .590349,1.076799,0.01479\H,0,-1.11035,3.125257,0.442979\H,0,-3.534253,
 2.699192,0.555037\H,0,-4.429244,0.39384,0.236589\H,0,-0.443793,-1.0384
 04,-0.433017\N,0,0.766668,1.377018,-0.084366\C,0,1.879259,0.526225,-0.

 Normal termination of Gaussian 16 at Tue Apr  8 23:17:23 2025.
