 Gaussian 16, Revision C.01,

 ----------------------------------------------------------------------
 #t hf aug-cc-pvdz symm=none int=(grid=ultrafine) guess=(read,tcheck) s
 table=(opt,rrhf)
 ----------------------------------------------------------------------
 -----
 title
 -----
 Symbolic Z-matrix:
 Charge =  0 Multiplicity = 1

 SCF Done:  E(RHF) =  -271.984395487     A.U. after   15 cycles
 Normal termination of Gaussian 16 at Wed Apr  9 00:28:02 2025.
 Gaussian 16:  ES64L-G16RevC.01  3-Jul-2019

 ----------------------------------------------------------------------
 #t hf aug-cc-pvdz iop(5/13=1,5/36=2,99/5=2) pseudo=read geom=check gue
 ss=(read,tcheck) scf=(maxcycle=1)
 ----------------------------------------------------------------------
 -----
 title
 -----
 Structure from the checkpoint file:  "BDE49_nonexpt_281_mol1.chk"
 Charge =  0 Multiplicity = 1

                         Standard orientation:
 ---------------------------------------------------------------------
 Center     Atomic      Atomic             Coordinates (Angstroms)
 Number     Number       Type             X           Y           Z
 ---------------------------------------------------------------------
      1          6           0        1.210097    0.275359    0.000000
      2          6           0        1.186991   -1.111800    0.000000
      3          6           0       -0.054149   -1.750374    0.000000
      4          7           0       -1.226897   -1.106331   -0.000000
      5          6           0       -1.181927    0.225948   -0.000000
      6          6           0       -0.000000    0.996464   -0.000000
      7          1           0        2.099990   -1.695538    0.000000
      8          1           0       -0.109780   -2.835969    0.000000
      9          1           0        2.153745    0.811069    0.000000
     10          5           0       -0.048539    2.531392   -0.000000
     11          1           0       -2.144880    0.730544   -0.000000
     12          1           0       -1.096768    3.099375   -0.000000
     13          1           0        0.962591    3.164302   -0.000000
 ---------------------------------------------------------------------

 SCF Done:  E(RHF) =  -273.261796204     A.U. after    2 cycles

 The electronic state is 1-A'.
 Alpha  occ. eigenvalues --  -15.74234 -11.48306 -11.45846 -11.44879 -11.41122
 Alpha  occ. eigenvalues --  -11.37248  -7.63745  -1.45355  -1.20233  -1.12834
 Alpha  occ. eigenvalues --   -0.93283  -0.89477  -0.80833  -0.72276  -0.63018
 Alpha  occ. eigenvalues --   -0.61587  -0.55655  -0.54442  -0.54043  -0.47591
 Alpha  occ. eigenvalues --   -0.43252  -0.37865  -0.35516  -0.35260
 Alpha virt. eigenvalues --    0.03175   0.04042   0.04104   0.04351   0.05563
 Alpha virt. eigenvalues --    0.06119   0.06743   0.08386   0.08715   0.10248
 Alpha virt. eigenvalues --    0.10865   0.12099   0.12274   0.13120   0.13622

 Mulliken charges:
               1
     1  C    0.358624
     2  C   -0.663656
     3  C   -1.299545
     4  N   -3.302243
     5  C   -1.020159
     6  C    0.373148
     7  H    1.423727
     8  H    1.543755
     9  H    1.753089
    10  B    6.171247
    11  H    1.635084
    12  H   -3.483162
    13  H   -3.489909
 Sum of Mulliken charges =   0.00000

 Dipole moment (field-independent basis, Debye):
    X=              1.6380    Y=             -0.6608    Z=              0.0000  Tot=              1.7663

 Test job not archived.
 1\1\GINC-SE166\SP\RHF\Aug-CC-pVDZ\C5H6B1N1\OHZDE\09-Apr-2025\0\\#t hf
 aug-cc-pvdz iop(5/13=1,5/36=2,99/5=2) pseudo=read geom=check guess=(re
 ad,tcheck) scf=(maxcycle=1)\\title\\0,1\C,0,1.210097,0.275359,0.\C,0,1
 .186991,-1.1118,0.\C,0,-0.054149,-1.750374,0.\N,0,-1.226897,-1.106331,
 0.\C,0,-1.181927,0.225948,0.\C,0,0.,0.996464,0.\H,0,2.09999,-1.695538,
 0.\H,0,-0.10978,-2.835969,0.\H,0,2.153745,0.811069,0.\B,0,-0.048539,2.
 531392,0.\H,0,-2.14488,0.730544,0.\H,0,-1.096768,3.099375,0.\H,0,0.962
 591,3.164302,0.\\Version=ES64L-G16RevC.01\State=1-A'\HF=-273.2617962\R

 Normal termination of Gaussian 16 at Wed Apr  9 00:28:06 2025.
