 Gaussian 16, Revision C.01,

 ----------------------------------------------------------------------
 #t hf aug-cc-pvdz symm=none int=(grid=ultrafine) guess=(read,tcheck) s
 table=(opt,rrhf)
 ----------------------------------------------------------------------
 -----
 title
 -----
 Symbolic Z-matrix:
 Charge =  0 Multiplicity = 1

 SCF Done:  E(RHF) =  -609.376155198     A.U. after   16 cycles
 Normal termination of Gaussian 16 at Wed Apr  9 00:31:41 2025.
 Gaussian 16:  ES64L-G16RevC.01  3-Jul-2019

 ----------------------------------------------------------------------
 #t hf aug-cc-pvdz iop(5/13=1,5/36=2,99/5=2) pseudo=read geom=check gue
 ss=(read,tcheck) scf=(maxcycle=1)
 ----------------------------------------------------------------------
 -----
 title
 -----
 Structure from the checkpoint file:  "BDE49_nonexpt_320_mol1.chk"
 Charge =  0 Multiplicity = 1

                         Standard orientation:
 ---------------------------------------------------------------------
 Center     Atomic      Atomic             Coordinates (Angstroms)
 Number     Number       Type             X           Y           Z
 ---------------------------------------------------------------------
      1          6           0        0.007331    1.215949    0.772287
      2          6           0        0.000000    1.203063   -0.617787
      3          6           0       -0.000000   -0.000000    1.445141
      4          6           0       -0.007331   -1.215949    0.772287
      5          6           0       -0.000000   -1.203063   -0.617787
      6          6           0        0.000000    0.000000   -1.343391
      7          1           0       -0.015758   -2.151593   -1.145187
      8          1           0        0.018584    2.137003    1.338189
      9          1           0        0.015758    2.151593   -1.145187
     10          5           0        0.000000    0.000000   -2.925195
     11          8           0        0.688451   -0.927644   -3.648118
     12          8           0       -0.688451    0.927644   -3.648118
     13          7           0       -0.000000   -0.000000    2.927294
     14          8           0       -0.004212   -1.084755    3.492097
     15          8           0        0.004212    1.084755    3.492097
     16          1           0       -0.018584   -2.137003    1.338189
     17          1           0       -1.240116    1.499702   -3.109629
     18          1           0        1.240116   -1.499702   -3.109629
 ---------------------------------------------------------------------

 SCF Done:  E(RHF) =  -612.021514492     A.U. after    2 cycles

 The electronic state is 1-A.
 Alpha  occ. eigenvalues --  -21.10283 -21.10167 -21.07307 -21.07248 -16.00833
 Alpha  occ. eigenvalues --  -11.55843 -11.48610 -11.47768 -11.46164 -11.44858
 Alpha  occ. eigenvalues --  -11.40570  -7.68286  -2.00620  -1.83431  -1.69907
 Alpha  occ. eigenvalues --   -1.67206  -1.38682  -1.19371  -1.13598  -1.01865
 Alpha  occ. eigenvalues --   -0.91432  -0.85435  -0.78905  -0.75321  -0.70055
 Alpha  occ. eigenvalues --   -0.68415  -0.66135  -0.65167  -0.62713  -0.59184
 Alpha  occ. eigenvalues --   -0.58007  -0.54985  -0.54268  -0.50335  -0.49241
 Alpha  occ. eigenvalues --   -0.47223  -0.38056  -0.37124  -0.36969  -0.36463
 Alpha  occ. eigenvalues --   -0.35319  -0.32061  -0.31998
 Alpha virt. eigenvalues --    0.02154   0.03888   0.04900   0.05053   0.05718
 Alpha virt. eigenvalues --    0.05914   0.06385   0.07003   0.07754   0.08702
 Alpha virt. eigenvalues --    0.09207   0.09341   0.10181   0.11705   0.12511

 Mulliken charges:
               1
     1  C   -3.104069
     2  C    2.290965
     3  C    4.105751
     4  C   -3.104069
     5  C    2.290965
     6  C   -5.172818
     7  H    1.717936
     8  H    1.886763
     9  H    1.717936
    10  B    5.435999
    11  O   -4.918937
    12  O   -4.918937
    13  N    3.283153
    14  O   -2.994021
    15  O   -2.994021
    16  H    1.886763
    17  H    1.295320
    18  H    1.295320
 Sum of Mulliken charges =  -0.00000

 Dipole moment (field-independent basis, Debye):
    X=             -0.0000    Y=             -0.0000    Z=             -1.3711  Tot=              1.3711

 Test job not archived.
 1\1\GINC-SE103\SP\RHF\Aug-CC-pVDZ\C6H6B1N1O4\OHZDE\09-Apr-2025\0\\#t h
 f aug-cc-pvdz iop(5/13=1,5/36=2,99/5=2) pseudo=read geom=check guess=(
 read,tcheck) scf=(maxcycle=1)\\title\\0,1\C,0,0.007331,1.215949,0.7722
 87\C,0,0.,1.203063,-0.617787\C,0,0.,0.,1.445141\C,0,-0.007331,-1.21594
 9,0.772287\C,0,0.,-1.203063,-0.617787\C,0,0.,0.,-1.343391\H,0,-0.01575
 8,-2.151593,-1.145187\H,0,0.018584,2.137003,1.338189\H,0,0.015758,2.15
 1593,-1.145187\B,0,0.,0.,-2.925195\O,0,0.688451,-0.927644,-3.648118\O,
 0,-0.688451,0.927644,-3.648118\N,0,0.,0.,2.927294\O,0,-0.004212,-1.084

 Normal termination of Gaussian 16 at Wed Apr  9 00:32:15 2025.
