 Gaussian 16, Revision C.01,

 ----------------------------------------------------------------------
 #t hf aug-cc-pvdz symm=none int=(grid=ultrafine) guess=(read,tcheck) s
 table=(opt,rrhf)
 ----------------------------------------------------------------------
 -----
 title
 -----
 Symbolic Z-matrix:
 Charge =  0 Multiplicity = 1

 SCF Done:  E(RHF) =  -627.357906552     A.U. after   15 cycles
 Normal termination of Gaussian 16 at Tue Apr  8 23:36:48 2025.
 Gaussian 16:  ES64L-G16RevC.01  3-Jul-2019

 ----------------------------------------------------------------------
 #t hf aug-cc-pvdz iop(5/13=1,5/36=2,99/5=2) pseudo=read geom=check gue
 ss=(read,tcheck) scf=(maxcycle=1)
 ----------------------------------------------------------------------
 -----
 title
 -----
 Structure from the checkpoint file:  "BDE49_nonexpt_1499_mol1.chk"
 Charge =  0 Multiplicity = 1

                         Standard orientation:
 ---------------------------------------------------------------------
 Center     Atomic      Atomic             Coordinates (Angstroms)
 Number     Number       Type             X           Y           Z
 ---------------------------------------------------------------------
      1          6           0        1.386178    0.240162   -0.227529
      2          7           0       -1.391043   -0.200295    0.233505
      3          6           0       -1.515076    0.977971    1.089847
      4          1           0       -2.571958    1.146683    1.321349
      5          1           0       -1.109428    1.881920    0.619664
      6          1           0       -0.988607    0.808985    2.031530
      7          8           0        1.089230    1.263943   -0.802746
      8          6           0        2.814183   -0.086920    0.172921
      9          6           0       -2.272561   -0.181869   -0.933541
     10          1           0       -2.154869   -1.106739   -1.500885
     11          1           0       -2.064516    0.663260   -1.603265
     12          1           0       -3.315763   -0.113014   -0.605590
     13          1           0        3.040331   -1.146237    0.021488
     14          1           0        2.945735    0.128837    1.238437
     15          1           0        3.506587    0.531647   -0.399926
     16         15           0        0.058873   -1.066298    0.104859
     17          1           0        0.376504   -1.206423    1.481562
 ---------------------------------------------------------------------

 SCF Done:  E(RHF) =  -628.903166854     A.U. after    2 cycles

 The electronic state is 1-A.
 Alpha  occ. eigenvalues -- -105.19743 -21.05611 -15.71604 -11.47551 -11.39011
 Alpha  occ. eigenvalues --  -11.38868 -11.38362  -2.77694  -1.71083  -1.59612
 Alpha  occ. eigenvalues --   -1.47068  -1.46794  -1.29884  -1.10481  -1.03595
 Alpha  occ. eigenvalues --   -0.89193  -0.76667  -0.68552  -0.62401  -0.60117
 Alpha  occ. eigenvalues --   -0.59482  -0.59062  -0.56460  -0.54611  -0.52110
 Alpha  occ. eigenvalues --   -0.50004  -0.42893  -0.39945  -0.34574  -0.27005
 Alpha  occ. eigenvalues --   -0.18278  -0.02532
 Alpha virt. eigenvalues --    0.03611   0.05161   0.05822   0.05997   0.06760
 Alpha virt. eigenvalues --    0.06936   0.07073   0.07521   0.08027   0.08283
 Alpha virt. eigenvalues --    0.09779   0.11292   0.11793   0.12624   0.13593

 Mulliken charges:
               1
     1  C    1.911525
     2  N   -1.792862
     3  C   -3.786091
     4  H    1.334363
     5  H    1.519800
     6  H    1.454548
     7  O   -3.041575
     8  C   -4.376791
     9  C   -3.635580
    10  H    1.480565
    11  H    1.456866
    12  H    1.362138
    13  H    1.345526
    14  H    1.277313
    15  H    1.246383
    16  P    3.104145
    17  H   -0.860271
 Sum of Mulliken charges =   0.00000

 Dipole moment (field-independent basis, Debye):
    X=             -1.7028    Y=             -0.0980    Z=             -0.3228  Tot=              1.7359

 Test job not archived.
 1\1\GINC-SE454\SP\RHF\Aug-CC-pVDZ\C4H10N1O1P1\OHZDE\08-Apr-2025\0\\#t
 hf aug-cc-pvdz iop(5/13=1,5/36=2,99/5=2) pseudo=read geom=check guess=
 (read,tcheck) scf=(maxcycle=1)\\title\\0,1\C,0,1.386178,0.240162,-0.22
 7529\N,0,-1.391043,-0.200295,0.233505\C,0,-1.515076,0.977971,1.089847\
 H,0,-2.571958,1.146683,1.321349\H,0,-1.109428,1.88192,0.619664\H,0,-0.
 988607,0.808985,2.03153\O,0,1.08923,1.263943,-0.802746\C,0,2.814183,-0
 .08692,0.172921\C,0,-2.272561,-0.181869,-0.933541\H,0,-2.154869,-1.106
 739,-1.500885\H,0,-2.064516,0.66326,-1.603265\H,0,-3.315763,-0.113014,

 Normal termination of Gaussian 16 at Tue Apr  8 23:36:54 2025.
