 Gaussian 16, Revision C.01,

 ----------------------------------------------------------------------
 #t hf aug-cc-pvdz symm=none int=(grid=ultrafine) guess=(read,tcheck) s
 table=(opt,rrhf)
 ----------------------------------------------------------------------
 -----
 title
 -----
 Symbolic Z-matrix:
 Charge =  0 Multiplicity = 1

 SCF Done:  E(RHF) =  -251.229427598     A.U. after   11 cycles
 Normal termination of Gaussian 16 at Wed Apr  9 00:40:48 2025.
 Gaussian 16:  ES64L-G16RevC.01  3-Jul-2019

 ----------------------------------------------------------------------
 #t hf aug-cc-pvdz iop(5/13=1,5/36=2,99/5=2) pseudo=read geom=check gue
 ss=(read,tcheck) scf=(maxcycle=1)
 ----------------------------------------------------------------------
 -----
 title
 -----
 Structure from the checkpoint file:  "BDE49_nonexpt_658_mol1.chk"
 Charge =  0 Multiplicity = 1

                         Standard orientation:
 ---------------------------------------------------------------------
 Center     Atomic      Atomic             Coordinates (Angstroms)
 Number     Number       Type             X           Y           Z
 ---------------------------------------------------------------------
      1          8           0       -0.037783    1.346833    0.000001
      2          5           0        0.008520   -0.031998   -0.000003
      3          1           0       -0.916064    1.732235    0.000003
      4          8           0        1.230581   -0.635866    0.000000
      5          8           0       -1.084757   -0.857780    0.000000
      6          1           0       -1.931505   -0.408868    0.000001
      7          1           0        1.940638    0.011123    0.000001
 ---------------------------------------------------------------------

 SCF Done:  E(RHF) =  -252.247891883     A.U. after    2 cycles

 The electronic state is 1-A.
 Alpha  occ. eigenvalues --  -21.07006 -21.06279 -21.04926  -7.65812  -1.87795
 Alpha  occ. eigenvalues --   -1.66990  -1.65597  -0.77773  -0.68607  -0.58640
 Alpha  occ. eigenvalues --   -0.54296  -0.52378  -0.43891  -0.37176  -0.36503
 Alpha  occ. eigenvalues --   -0.34845
 Alpha virt. eigenvalues --    0.02236   0.04743   0.05293   0.05705   0.07802
 Alpha virt. eigenvalues --    0.08118   0.10145   0.14992   0.19687   0.20842
 Alpha virt. eigenvalues --    0.21760   0.22218   0.22485   0.23790   0.23904

 Mulliken charges:
               1
     1  O   -3.292830
     2  B    7.751611
     3  H    0.937303
     4  O   -3.598289
     5  O   -3.434474
     6  H    0.726583
     7  H    0.910096
 Sum of Mulliken charges =  -0.00000

 Dipole moment (field-independent basis, Debye):
    X=             -1.0801    Y=              1.5172    Z=             -0.0000  Tot=              1.8624

 Test job not archived.
 1\1\GINC-SE339\SP\RHF\Aug-CC-pVDZ\B1H3O3\OHZDE\09-Apr-2025\0\\#t hf au
 g-cc-pvdz iop(5/13=1,5/36=2,99/5=2) pseudo=read geom=check guess=(read
 ,tcheck) scf=(maxcycle=1)\\title\\0,1\O,0,-0.037782,1.346833,0.000001\
 B,0,0.00852,-0.031998,-0.000003\H,0,-0.916063,1.732236,0.000003\O,0,1.
 230581,-0.635867,0.\O,0,-1.084758,-0.857779,0.\H,0,-1.931505,-0.408867
 ,0.000001\H,0,1.940638,0.011122,0.000001\\Version=ES64L-G16RevC.01\Sta
 te=1-A\HF=-252.2478919\RMSD=1.312e-01\Dipole=-0.4249548,0.5968983,-0.0
 00001\Quadrupole=3.705385,-2.385409,-1.319976,-1.0675649,-0.0000041,0.

 Normal termination of Gaussian 16 at Wed Apr  9 00:40:50 2025.
