 Gaussian 16, Revision C.01,

 ----------------------------------------------------------------------
 #t hf aug-cc-pvdz symm=none int=(grid=ultrafine) guess=(read,tcheck) s
 table=(opt,rrhf)
 ----------------------------------------------------------------------
 -----
 title
 -----
 Symbolic Z-matrix:
 Charge =  0 Multiplicity = 1

 SCF Done:  E(RHF) =  -1290.67396913     A.U. after   18 cycles
 Normal termination of Gaussian 16 at Wed Apr  9 00:22:13 2025.
 Gaussian 16:  ES64L-G16RevC.01  3-Jul-2019

 ----------------------------------------------------------------------
 #t hf aug-cc-pvdz iop(5/13=1,5/36=2,99/5=2) pseudo=read geom=check gue
 ss=(read,tcheck) scf=(maxcycle=1)
 ----------------------------------------------------------------------
 -----
 title
 -----
 Structure from the checkpoint file:  "BDE49_nonexpt_2604_mol1.chk"
 Charge =  0 Multiplicity = 1

                         Standard orientation:
 ---------------------------------------------------------------------
 Center     Atomic      Atomic             Coordinates (Angstroms)
 Number     Number       Type             X           Y           Z
 ---------------------------------------------------------------------
      1         17           0       -3.210541   -0.676946    0.923374
      2         16           0       -2.315620   -0.250680   -0.927529
      3          6           0       -0.740424    0.399322   -0.420403
      4          6           0        0.364724   -0.451927   -0.342962
      5          6           0        1.596621    0.094300   -0.009587
      6          6           0        1.762381    1.449725    0.253374
      7          6           0       -0.593572    1.768708   -0.161216
      8          1           0       -1.459899    2.414996   -0.226162
      9          6           0        0.653412    2.287374    0.175790
     10          1           0        0.764170    3.346116    0.375370
     11          1           0        2.744367    1.822290    0.509612
     12          7           0        2.777573   -0.801095    0.068583
     13          8           0        2.604656   -1.983718   -0.183768
     14          8           0        3.845720   -0.295081    0.380037
     15          1           0        0.275591   -1.511411   -0.535908
 ---------------------------------------------------------------------

 SCF Done:  E(RHF) =  -1293.06479911     A.U. after    2 cycles

 The electronic state is 1-A.
 Alpha  occ. eigenvalues --  -99.91489 -75.76284 -21.10680 -21.10557 -16.01314
 Alpha  occ. eigenvalues --  -13.24581 -13.14061 -13.11834 -11.56857 -11.49807
 Alpha  occ. eigenvalues --  -11.49170 -11.47748 -11.46641 -11.42371 -10.48552
 Alpha  occ. eigenvalues --   -9.68342  -9.67730  -9.67614  -8.09961  -2.01088
 Alpha  occ. eigenvalues --   -1.70391  -1.41710  -1.33248  -1.20958  -1.16997
 Alpha  occ. eigenvalues --   -1.06029  -1.01971  -0.90439  -0.83677  -0.76574
 Alpha  occ. eigenvalues --   -0.70805  -0.68929  -0.66080  -0.65299  -0.61681
 Alpha  occ. eigenvalues --   -0.59596  -0.58323  -0.55557  -0.54225  -0.53289
 Alpha  occ. eigenvalues --   -0.51717  -0.42502  -0.38771  -0.38080  -0.36680
 Alpha  occ. eigenvalues --   -0.32515  -0.32483  -0.27303
 Alpha virt. eigenvalues --    0.01866   0.03055   0.04604   0.05033   0.05778
 Alpha virt. eigenvalues --    0.06403   0.06559   0.07660   0.09867   0.10804
 Alpha virt. eigenvalues --    0.11563   0.11879   0.12026   0.12480   0.13036

 Mulliken charges:
               1
     1  Cl  -0.311099
     2  S    0.426125
     3  C    4.129190
     4  C   -3.369079
     5  C    2.436303
     6  C   -3.034549
     7  C   -4.733933
     8  H    1.816947
     9  C    0.039418
    10  H    1.539707
    11  H    1.797492
    12  N    3.421208
    13  O   -2.971193
    14  O   -3.055862
    15  H    1.869326
 Sum of Mulliken charges =  -0.00000

 Dipole moment (field-independent basis, Debye):
    X=              0.0194    Y=              2.9748    Z=             -2.8090  Tot=              4.0915

 Test job not archived.
 1\1\GINC-SE102\SP\RHF\Aug-CC-pVDZ\C6H4Cl1N1O2S1\OHZDE\09-Apr-2025\0\\#
 t hf aug-cc-pvdz iop(5/13=1,5/36=2,99/5=2) pseudo=read geom=check gues
 s=(read,tcheck) scf=(maxcycle=1)\\title\\0,1\Cl,0,-3.210541,-0.676946,
 0.923374\S,0,-2.31562,-0.25068,-0.927529\C,0,-0.740424,0.399322,-0.420
 403\C,0,0.364724,-0.451927,-0.342962\C,0,1.596621,0.0943,-0.009587\C,0
 ,1.762381,1.449725,0.253374\C,0,-0.593572,1.768708,-0.161216\H,0,-1.45
 9899,2.414996,-0.226162\C,0,0.653412,2.287374,0.17579\H,0,0.76417,3.34
 6116,0.37537\H,0,2.744367,1.82229,0.509612\N,0,2.777573,-0.801095,0.06

 Normal termination of Gaussian 16 at Wed Apr  9 00:22:22 2025.
