 Gaussian 16, Revision C.01,

 ----------------------------------------------------------------------
 #t hf aug-cc-pvdz symm=none int=(grid=ultrafine) guess=(read,tcheck) s
 table=(opt,rrhf)
 ----------------------------------------------------------------------
 -----
 title
 -----
 Symbolic Z-matrix:
 Charge =  0 Multiplicity = 1

 SCF Done:  E(RHF) =  -787.577069071     A.U. after   12 cycles
 Normal termination of Gaussian 16 at Tue Apr  8 23:42:49 2025.
 Gaussian 16:  ES64L-G16RevC.01  3-Jul-2019

 ----------------------------------------------------------------------
 #t hf aug-cc-pvdz iop(5/13=1,5/36=2,99/5=2) pseudo=read geom=check gue
 ss=(read,tcheck) scf=(maxcycle=1)
 ----------------------------------------------------------------------
 -----
 title
 -----
 Structure from the checkpoint file:  "BDE49_nonexpt_1655_mol1.chk"
 Charge =  0 Multiplicity = 1

                         Standard orientation:
 ---------------------------------------------------------------------
 Center     Atomic      Atomic             Coordinates (Angstroms)
 Number     Number       Type             X           Y           Z
 ---------------------------------------------------------------------
      1         15           0       -2.401837   -0.094301   -0.358143
      2         14           0       -0.362838   -0.060940    0.668164
      3          6           0        0.805511    1.397018    0.307888
      4          6           0        0.796168   -1.405127   -0.014770
      5          6           0        2.150982   -0.670308   -0.175172
      6          1           0        0.435065   -1.748477   -0.990517
      7          1           0        0.871413   -2.288194    0.623501
      8          6           0        1.880274    0.780956   -0.621876
      9          1           0        2.810290   -1.185481   -0.880583
     10          1           0        2.672881   -0.654214    0.789120
     11          1           0        2.800822    1.372776   -0.625609
     12          1           0        1.508354    0.772587   -1.653575
     13          1           0        1.261568    1.725913    1.248620
     14          1           0        0.319088    2.268730   -0.134236
     15          1           0       -1.922815    0.428595   -1.589399
     16          1           0       -2.804671    1.175539    0.134590
     17          1           0       -0.642321   -0.215322    2.119519
 ---------------------------------------------------------------------

 SCF Done:  E(RHF) =  -788.750177836     A.U. after    2 cycles

 The electronic state is 1-A.
 Alpha  occ. eigenvalues -- -105.16762 -76.20552 -11.41941 -11.39889 -11.35248
 Alpha  occ. eigenvalues --  -11.34073  -5.54393  -2.73459  -2.18346  -2.17588
 Alpha  occ. eigenvalues --   -2.16211  -1.43128  -1.42975  -1.41072  -1.25149
 Alpha  occ. eigenvalues --   -1.04893  -0.93453  -0.81099  -0.75048  -0.66699
 Alpha  occ. eigenvalues --   -0.63750  -0.60320  -0.58456  -0.51471  -0.47399
 Alpha  occ. eigenvalues --   -0.45495  -0.44338  -0.41635  -0.37041  -0.25679
 Alpha  occ. eigenvalues --   -0.14731  -0.03163
 Alpha virt. eigenvalues --    0.03902   0.05687   0.05880   0.05962   0.06024
 Alpha virt. eigenvalues --    0.06133   0.06349   0.06493   0.07165   0.08513
 Alpha virt. eigenvalues --    0.09362   0.09659   0.10081   0.11877   0.12289

 Mulliken charges:
               1
     1  P    1.630868
     2  Si   4.361877
     3  C   -3.578661
     4  C   -3.638782
     5  C   -2.685706
     6  H    1.575792
     7  H    1.294316
     8  C   -2.747781
     9  H    1.259200
    10  H    1.316290
    11  H    1.294742
    12  H    1.323266
    13  H    1.320312
    14  H    1.255237
    15  H   -0.802413
    16  H   -0.877155
    17  H   -2.301401
 Sum of Mulliken charges =  -0.00000

 Dipole moment (field-independent basis, Debye):
    X=             -3.4506    Y=             -3.5684    Z=             -0.9674  Tot=              5.0573

 Test job not archived.
 1\1\GINC-SE116\SP\RHF\Aug-CC-pVDZ\C4H11P1Si1\OHZDE\08-Apr-2025\0\\#t h
 f aug-cc-pvdz iop(5/13=1,5/36=2,99/5=2) pseudo=read geom=check guess=(
 read,tcheck) scf=(maxcycle=1)\\title\\0,1\P,0,-2.401837,-0.094302,-0.3
 58143\Si,0,-0.362838,-0.06094,0.668164\C,0,0.805511,1.397018,0.307888\
 C,0,0.796168,-1.405127,-0.01477\C,0,2.150982,-0.670308,-0.175172\H,0,0
 .435065,-1.748477,-0.990517\H,0,0.871413,-2.288194,0.623501\C,0,1.8802
 74,0.780956,-0.621876\H,0,2.81029,-1.185481,-0.880583\H,0,2.672881,-0.
 654214,0.78912\H,0,2.800822,1.372776,-0.625609\H,0,1.508354,0.772587,-

 Normal termination of Gaussian 16 at Tue Apr  8 23:42:57 2025.
