 Gaussian 16, Revision C.01,

 ----------------------------------------------------------------------
 #t hf aug-cc-pvdz symm=none int=(grid=ultrafine) guess=(read,tcheck) s
 table=(opt,rrhf)
 ----------------------------------------------------------------------
 -----
 title
 -----
 Symbolic Z-matrix:
 Charge =  0 Multiplicity = 1

 SCF Done:  E(RHF) =  -519.009682157     A.U. after   14 cycles
 Normal termination of Gaussian 16 at Wed Apr  9 00:08:43 2025.
 Gaussian 16:  ES64L-G16RevC.01  3-Jul-2019

 ----------------------------------------------------------------------
 #t hf aug-cc-pvdz iop(5/13=1,5/36=2,99/5=2) pseudo=read geom=check gue
 ss=(read,tcheck) scf=(maxcycle=1)
 ----------------------------------------------------------------------
 -----
 title
 -----
 Structure from the checkpoint file:  "BDE49_nonexpt_2280_mol1.chk"
 Charge =  0 Multiplicity = 1

                         Standard orientation:
 ---------------------------------------------------------------------
 Center     Atomic      Atomic             Coordinates (Angstroms)
 Number     Number       Type             X           Y           Z
 ---------------------------------------------------------------------
      1          6           0       -2.077962   -0.782473   -0.365701
      2          6           0       -1.325845    0.099512    0.646468
      3          1           0       -1.439470   -1.584208   -0.746234
      4          1           0       -2.418851   -0.202074   -1.227753
      5          1           0       -2.957808   -1.248486    0.086625
      6         14           0        0.193210    0.960835   -0.031281
      7          1           0       -1.989646    0.881885    1.037588
      8          1           0       -1.018908   -0.491645    1.516253
      9          8           0        1.325731   -0.119834   -0.669050
     10          8           0        1.807922   -0.937926    0.452124
     11          1           0        1.769201   -1.810422    0.038668
     12          1           0        0.820239    1.796125    1.017336
     13          1           0       -0.116074    1.766980   -1.233744
 ---------------------------------------------------------------------

 SCF Done:  E(RHF) =  -520.193352351     A.U. after    2 cycles

 The electronic state is 1-A.
 Alpha  occ. eigenvalues --  -76.22891 -21.12588 -21.08378 -11.39743 -11.34965
 Alpha  occ. eigenvalues --   -5.56721  -2.23224  -2.19706  -2.18699  -1.89900
 Alpha  occ. eigenvalues --   -1.40231  -1.15240  -0.89939  -0.72016  -0.63020
 Alpha  occ. eigenvalues --   -0.61483  -0.57934  -0.51763  -0.51323  -0.48836
 Alpha  occ. eigenvalues --   -0.47750  -0.46150  -0.39526  -0.36068  -0.29470
 Alpha virt. eigenvalues --    0.03495   0.05257   0.05489   0.05979   0.06305
 Alpha virt. eigenvalues --    0.06621   0.07471   0.07587   0.08332   0.09989
 Alpha virt. eigenvalues --    0.11313   0.13294   0.14536   0.15123   0.15280

 Mulliken charges:
               1
     1  C   -3.392727
     2  C   -4.244177
     3  H    1.316212
     4  H    1.281067
     5  H    1.138086
     6  Si   6.552705
     7  H    1.362446
     8  H    1.396587
     9  O   -1.455648
    10  O   -1.156672
    11  H    0.979395
    12  H   -1.938277
    13  H   -1.838998
 Sum of Mulliken charges =   0.00000

 Dipole moment (field-independent basis, Debye):
    X=             -0.7629    Y=             -1.1952    Z=              0.3172  Tot=              1.4530

 Test job not archived.
 1\1\GINC-SE344\SP\RHF\Aug-CC-pVDZ\C2H8O2Si1\OHZDE\09-Apr-2025\0\\#t hf
  aug-cc-pvdz iop(5/13=1,5/36=2,99/5=2) pseudo=read geom=check guess=(r
 ead,tcheck) scf=(maxcycle=1)\\title\\0,1\C,0,-2.077962,-0.782473,-0.36
 5701\C,0,-1.325845,0.099512,0.646468\H,0,-1.43947,-1.584208,-0.746234\
 H,0,-2.418851,-0.202074,-1.227753\H,0,-2.957808,-1.248486,0.086625\Si,
 0,0.19321,0.960835,-0.031281\H,0,-1.989646,0.881885,1.037588\H,0,-1.01
 8908,-0.491645,1.516253\O,0,1.325731,-0.119834,-0.66905\O,0,1.807922,-
 0.937926,0.452124\H,0,1.769201,-1.810422,0.038668\H,0,0.820239,1.79612

 Normal termination of Gaussian 16 at Wed Apr  9 00:08:47 2025.
