 Gaussian 16, Revision C.01,

 ----------------------------------------------------------------------
 #t hf aug-cc-pvdz symm=none int=(grid=ultrafine) guess=(read,tcheck) s
 table=(opt,rrhf)
 ----------------------------------------------------------------------
 -----
 title
 -----
 Symbolic Z-matrix:
 Charge =  0 Multiplicity = 1

 SCF Done:  E(RHF) =  -1112.58033573     A.U. after   14 cycles
 Normal termination of Gaussian 16 at Tue Apr  8 23:30:14 2025.
 Gaussian 16:  ES64L-G16RevC.01  3-Jul-2019

 ----------------------------------------------------------------------
 #t hf aug-cc-pvdz iop(5/13=1,5/36=2,99/5=2) pseudo=read geom=check gue
 ss=(read,tcheck) scf=(maxcycle=1)
 ----------------------------------------------------------------------
 -----
 title
 -----
 Structure from the checkpoint file:  "BDE49_nonexpt_1255_mol1.chk"
 Charge =  0 Multiplicity = 1

                         Standard orientation:
 ---------------------------------------------------------------------
 Center     Atomic      Atomic             Coordinates (Angstroms)
 Number     Number       Type             X           Y           Z
 ---------------------------------------------------------------------
      1         17           0       -0.812658    2.092392    0.000000
      2         15           0        1.031974    1.017552    0.000000
      3          6           0        0.747606   -0.162475    1.423172
      4          6           0       -0.462835   -1.095075    1.274517
      5          6           0       -0.462995   -1.954621   -0.000000
      6          6           0        0.747606    0.585405    2.763213
      7          6           0       -1.650978   -2.924426   -0.000000
      8          1           0        1.632560    1.217724    2.873244
      9          1           0       -0.134686    1.223720    2.854613
     10          1           0        0.734775   -0.125380    3.595031
     11          1           0       -1.637252   -3.568586    0.883913
     12          1           0       -1.637252   -3.568586   -0.883913
     13          6           0       -0.462835   -1.095075   -1.274517
     14          6           0        0.747606   -0.162475   -1.423172
     15          6           0        0.747606    0.585405   -2.763213
     16          1           0        1.632560    1.217724   -2.873244
     17          1           0       -0.134686    1.223720   -2.854613
     18          1           0        0.734775   -0.125380   -3.595031
     19          1           0       -2.600336   -2.378860   -0.000000
     20          1           0        1.664145   -0.772193    1.373503
     21          1           0       -1.382250   -0.499043    1.311068
     22          1           0       -0.491456   -1.756818    2.149575
     23          1           0        0.459563   -2.553912   -0.000000
     24          1           0       -1.382250   -0.499043   -1.311068
     25          1           0       -0.491456   -1.756818   -2.149575
     26          1           0        1.664145   -0.772193   -1.373503
 ---------------------------------------------------------------------

 SCF Done:  E(RHF) =  -1114.64566506     A.U. after    2 cycles

 The electronic state is 1-A'.
 Alpha  occ. eigenvalues -- -105.20910 -99.86873 -11.44956 -11.44518 -11.42219
 Alpha  occ. eigenvalues --  -11.40435 -11.39337 -11.37801 -11.37036 -11.35149
 Alpha  occ. eigenvalues --  -10.44125  -9.64102  -9.63616  -9.63529  -2.78625
 Alpha  occ. eigenvalues --   -1.52641  -1.50933  -1.47531  -1.29991  -1.21036
 Alpha  occ. eigenvalues --   -1.16188  -1.12817  -1.00246  -0.99760  -0.87580
 Alpha  occ. eigenvalues --   -0.81818  -0.81025  -0.70665  -0.63819  -0.61881
 Alpha  occ. eigenvalues --   -0.60577  -0.57590  -0.57542  -0.56014  -0.55013
 Alpha  occ. eigenvalues --   -0.54113  -0.53253  -0.51047  -0.50871  -0.50669
 Alpha  occ. eigenvalues --   -0.49196  -0.46258  -0.44556  -0.40787  -0.40688
 Alpha  occ. eigenvalues --   -0.37375  -0.17917  -0.02328
 Alpha virt. eigenvalues --    0.04245   0.04733   0.05040   0.05179   0.05428
 Alpha virt. eigenvalues --    0.05616   0.06234   0.06580   0.07073   0.07173
 Alpha virt. eigenvalues --    0.08017   0.08114   0.08590   0.08868   0.09732

 Mulliken charges:
               1
     1  Cl  -1.517991
     2  P    6.615849
     3  C   -1.173026
     4  C   -4.202191
     5  C   -0.542946
     6  C   -5.044862
     7  C   -5.017613
     8  H    1.423252
     9  H    1.178028
    10  H    1.145640
    11  H    1.220515
    12  H    1.220515
    13  C   -4.202191
    14  C   -1.173026
    15  C   -5.044862
    16  H    1.423252
    17  H    1.178028
    18  H    1.145640
    19  H    1.390196
    20  H    1.194425
    21  H    1.360155
    22  H    1.491068
    23  H    1.886498
    24  H    1.360155
    25  H    1.491068
    26  H    1.194425
 Sum of Mulliken charges =  -0.00000

 Dipole moment (field-independent basis, Debye):
    X=              1.5088    Y=             -1.7567    Z=             -0.0000  Tot=              2.3157

 Test job not archived.
 1\1\GINC-SE044\SP\RHF\Aug-CC-pVDZ\C8H16Cl1P1\OHZDE\08-Apr-2025\0\\#t h
 f aug-cc-pvdz iop(5/13=1,5/36=2,99/5=2) pseudo=read geom=check guess=(
 read,tcheck) scf=(maxcycle=1)\\title\\0,1\Cl,0,-0.812658,-2.092392,0.\
 P,0,1.031974,-1.017552,0.\C,0,0.747606,0.162475,-1.423172\C,0,-0.46283
 5,1.095075,-1.274517\C,0,-0.462995,1.954621,0.\C,0,0.747606,-0.585405,
 -2.763213\C,0,-1.650978,2.924426,0.\H,0,1.63256,-1.217724,-2.873244\H,
 0,-0.134686,-1.22372,-2.854613\H,0,0.734775,0.12538,-3.595031\H,0,-1.6
 37252,3.568586,-0.883913\H,0,-1.637252,3.568586,0.883913\C,0,-0.462835

 Normal termination of Gaussian 16 at Tue Apr  8 23:30:26 2025.
