 Gaussian 16, Revision C.01,

 ----------------------------------------------------------------------
 #t hf aug-cc-pvdz symm=none int=(grid=ultrafine) guess=(read,tcheck) s
 table=opt
 ----------------------------------------------------------------------
 -----
 title
 -----
 Symbolic Z-matrix:
 Charge =  0 Multiplicity = 2

 SCF Done:  E(UHF) =  -754.328505918     A.U. after   21 cycles
 Normal termination of Gaussian 16 at Tue Apr  8 23:33:28 2025.
 Gaussian 16:  ES64L-G16RevC.01  3-Jul-2019

 ----------------------------------------------------------------------
 #t hf aug-cc-pvdz iop(5/13=1,5/36=2,99/5=2) pseudo=read geom=check gue
 ss=(read,tcheck) scf=(maxcycle=1)
 ----------------------------------------------------------------------
 -----
 title
 -----
 Structure from the checkpoint file:  "BDE49_nonexpt_1399_mol2.chk"
 Charge =  0 Multiplicity = 2

                         Standard orientation:
 ---------------------------------------------------------------------
 Center     Atomic      Atomic             Coordinates (Angstroms)
 Number     Number       Type             X           Y           Z
 ---------------------------------------------------------------------
      1          6           0        1.285302   -0.527002    0.151065
      2         15           0       -0.000036   -1.859554    0.000049
      3          6           0       -1.285297   -0.526965   -0.151364
      4          7           0       -0.696781    0.728091   -0.133094
      5          7           0        0.696809    0.728064    0.132997
      6          8           0       -2.488218   -0.711207   -0.167510
      7          8           0        2.488209   -0.711315    0.167605
      8          6           0        1.457602    1.875113   -0.353973
      9          1           0        1.239899    2.062222   -1.410902
     10          1           0        2.508705    1.621118   -0.235158
     11          1           0        1.234460    2.768309    0.231059
     12          6           0       -1.457559    1.875068    0.354068
     13          1           0       -2.508667    1.621106    0.235208
     14          1           0       -1.234410    2.768357   -0.230820
     15          1           0       -1.239855    2.062005    1.411027
 ---------------------------------------------------------------------

 SCF Done:  E(UHF) =  -756.303131714     A.U. after    2 cycles

 The electronic state is 2-A.
 Alpha  occ. eigenvalues -- -105.21902 -21.06637 -21.06611 -15.79629 -15.78994
 Alpha  occ. eigenvalues --  -11.51253 -11.49730 -11.42221 -11.41928  -2.81004
 Alpha  occ. eigenvalues --   -1.75186  -1.73647  -1.58828  -1.51588  -1.51426
 Alpha  occ. eigenvalues --   -1.48965  -1.28166  -1.08066  -0.99221  -0.88474
 Alpha  occ. eigenvalues --   -0.77815  -0.69492  -0.67971  -0.64691  -0.62067
 Alpha  occ. eigenvalues --   -0.60367  -0.59215  -0.55944  -0.52288  -0.51530
 Alpha  occ. eigenvalues --   -0.51337  -0.45557  -0.40471  -0.36260  -0.28374
 Alpha  occ. eigenvalues --   -0.16881  -0.08251  -0.02189
 Alpha virt. eigenvalues --    0.03390   0.05222   0.05334   0.05719   0.06528
 Alpha virt. eigenvalues --    0.08184   0.08673   0.08807   0.09440   0.09466
 Alpha virt. eigenvalues --    0.11551   0.11577   0.12662   0.13198   0.13383

  Beta  occ. eigenvalues -- -105.21289 -21.05955 -21.05929 -15.79724 -15.79088
  Beta  occ. eigenvalues --  -11.51611 -11.50087 -11.42228 -11.41935  -2.79102
  Beta  occ. eigenvalues --   -1.74246  -1.72464  -1.58174  -1.50538  -1.48964
  Beta  occ. eigenvalues --   -1.28216  -1.25586  -1.08036  -0.99325  -0.87680
  Beta  occ. eigenvalues --   -0.76276  -0.69809  -0.68284  -0.64372  -0.61982
  Beta  occ. eigenvalues --   -0.60448  -0.58723  -0.55894  -0.52251  -0.51237
  Beta  occ. eigenvalues --   -0.50786  -0.45598  -0.38964  -0.34552  -0.26963
  Beta  occ. eigenvalues --   -0.17717  -0.06830
  Beta virt. eigenvalues --    0.03441   0.05165   0.05345   0.05761   0.06597
  Beta virt. eigenvalues --    0.07457   0.08272   0.08865   0.09153   0.09533
  Beta virt. eigenvalues --    0.11732   0.11791   0.12034   0.13189   0.13475

 Mulliken charges and spin densities:
               1          2
     1  C    2.165945  -0.242048
     2  P    4.453553   1.049616
     3  C    2.165530  -0.242032
     4  N   -2.051157  -0.049889
     5  N   -2.050667  -0.049807
     6  O   -2.897089   0.207480
     7  O   -2.897224   0.207468
     8  C   -3.683785   0.049829
     9  H    1.380622   0.007070
    10  H    1.387330   0.000104
    11  H    1.471404   0.002622
    12  C   -3.683852   0.049817
    13  H    1.387327   0.000098
    14  H    1.471435   0.002614
    15  H    1.380627   0.007056
 Sum of Mulliken charges =  -0.00000   1.00000

 Dipole moment (field-independent basis, Debye):
    X=             -0.0004    Y=             -1.7888    Z=              0.0024  Tot=              1.7888
                          Isotropic Fermi Contact Couplings
        Atom                 a.u.       MegaHertz       Gauss      10(-4) cm-1
     1  C(13)             -0.01662     -18.68290      -6.66652      -6.23195
     2  P(31)              0.23947     433.69611     154.75356     144.66545
     3  C(13)             -0.01662     -18.68570      -6.66752      -6.23288
     4  N(14)             -0.00725      -2.34208      -0.83571      -0.78123
     5  N(14)             -0.00724      -2.33860      -0.83447      -0.78007
     6  O(17)              0.04042     -24.50111      -8.74261      -8.17269
     7  O(17)              0.04041     -24.49853      -8.74168      -8.17183
     8  C(13)             -0.00090      -1.01046      -0.36056      -0.33705

 Normal termination of Gaussian 16 at Tue Apr  8 23:33:35 2025.
