 Gaussian 16, Revision C.01,

 ----------------------------------------------------------------------
 #t hf aug-cc-pvdz symm=none int=(grid=ultrafine) guess=(read,tcheck) s
 table=(opt,rrhf)
 ----------------------------------------------------------------------
 -----
 title
 -----
 Symbolic Z-matrix:
 Charge =  0 Multiplicity = 1

 SCF Done:  E(RHF) =  -722.258888293     A.U. after   12 cycles
 Normal termination of Gaussian 16 at Wed Apr  9 00:32:14 2025.
 Gaussian 16:  ES64L-G16RevC.01  3-Jul-2019

 ----------------------------------------------------------------------
 #t hf aug-cc-pvdz iop(5/13=1,5/36=2,99/5=2) pseudo=read geom=check gue
 ss=(read,tcheck) scf=(maxcycle=1)
 ----------------------------------------------------------------------
 -----
 title
 -----
 Structure from the checkpoint file:  "BDE49_nonexpt_363_mol1.chk"
 Charge =  0 Multiplicity = 1

                         Standard orientation:
 ---------------------------------------------------------------------
 Center     Atomic      Atomic             Coordinates (Angstroms)
 Number     Number       Type             X           Y           Z
 ---------------------------------------------------------------------
      1          9           0        1.005358    1.330841   -0.000018
      2          9           0        2.175370   -0.601876    0.000032
      3          5           0        1.000842    0.014551   -0.000010
      4          6           0       -0.300325   -0.859722    0.000005
      5         17           0       -1.834890    0.091078   -0.000008
      6          1           0       -0.317845   -1.511706    0.876100
      7          1           0       -0.317846   -1.511730   -0.876073
 ---------------------------------------------------------------------

 SCF Done:  E(RHF) =  -723.476248267     A.U. after    2 cycles

 The electronic state is 1-A.
 Alpha  occ. eigenvalues --  -99.89264 -29.27313 -29.26861 -11.42245 -10.46471
 Alpha  occ. eigenvalues --   -9.66307  -9.65637  -9.65563  -7.71759  -1.35087
 Alpha  occ. eigenvalues --   -1.18536  -0.98171  -0.77414  -0.66616  -0.65068
 Alpha  occ. eigenvalues --   -0.60481  -0.51288  -0.50515  -0.47797  -0.47070
 Alpha  occ. eigenvalues --   -0.45124  -0.35518  -0.34684  -0.28526
 Alpha virt. eigenvalues --    0.01939   0.03500   0.04999   0.05398   0.06672
 Alpha virt. eigenvalues --    0.08544   0.09681   0.13767   0.14726   0.15574
 Alpha virt. eigenvalues --    0.15752   0.16631   0.17526   0.17724   0.18147

 Mulliken charges:
               1
     1  F   -0.267858
     2  F   -0.025311
     3  B    2.435695
     4  C   -4.792232
     5  Cl   0.022706
     6  H    1.313496
     7  H    1.313504
 Sum of Mulliken charges =   0.00000

 Dipole moment (field-independent basis, Debye):
    X=              3.8318    Y=              0.3333    Z=              0.0000  Tot=              3.8462

 Test job not archived.
 1\1\GINC-SE106\SP\RHF\Aug-CC-pVDZ\C1H2B1Cl1F2\OHZDE\09-Apr-2025\0\\#t
 hf aug-cc-pvdz iop(5/13=1,5/36=2,99/5=2) pseudo=read geom=check guess=
 (read,tcheck) scf=(maxcycle=1)\\title\\0,1\F,0,1.005358,1.330841,-0.00
 0018\F,0,2.17537,-0.601876,0.000032\B,0,1.000842,0.014551,-0.00001\C,0
 ,-0.300325,-0.859722,0.000005\Cl,0,-1.83489,0.091078,-0.000008\H,0,-0.
 317845,-1.511706,0.8761\H,0,-0.317846,-1.51173,-0.876073\\Version=ES64
 L-G16RevC.01\State=1-A\HF=-723.4762483\RMSD=2.614e-01\Dipole=1.5075351
 ,0.1311326,0.0000162\Quadrupole=-0.3670397,2.4498878,-2.0828481,-1.480

 Normal termination of Gaussian 16 at Wed Apr  9 00:32:17 2025.
