 Gaussian 16, Revision C.01,

 ----------------------------------------------------------------------
 #t hf aug-cc-pvdz symm=none int=(grid=ultrafine) guess=(read,tcheck) s
 table=(opt,rrhf)
 ----------------------------------------------------------------------
 -----
 title
 -----
 Symbolic Z-matrix:
 Charge =  0 Multiplicity = 1

 SCF Done:  E(RHF) =  -673.399870442     A.U. after   15 cycles
 Normal termination of Gaussian 16 at Wed Apr  9 00:05:26 2025.
 Gaussian 16:  ES64L-G16RevC.01  3-Jul-2019

 ----------------------------------------------------------------------
 #t hf aug-cc-pvdz iop(5/13=1,5/36=2,99/5=2) pseudo=read geom=check gue
 ss=(read,tcheck) scf=(maxcycle=1)
 ----------------------------------------------------------------------
 -----
 title
 -----
 Structure from the checkpoint file:  "BDE49_nonexpt_2120_mol1.chk"
 Charge =  0 Multiplicity = 1

                         Standard orientation:
 ---------------------------------------------------------------------
 Center     Atomic      Atomic             Coordinates (Angstroms)
 Number     Number       Type             X           Y           Z
 ---------------------------------------------------------------------
      1          7           0        0.104370   -1.717276   -0.201348
      2          7           0       -0.389509   -0.941770    0.635493
      3         14           0        1.824944   -1.443261   -0.650272
      4          6           0        2.682212   -0.006645    0.202258
      5          6           0        2.175389    1.395603   -0.184104
      6          1           0        3.754276   -0.095018   -0.022293
      7          1           0        2.587430   -0.151109    1.285407
      8          6           0        2.950893    2.523311    0.504873
      9          1           0        1.114945    1.472989    0.073175
     10          1           0        2.241524    1.523915   -1.270850
     11          1           0        2.872926    2.445107    1.593618
     12          1           0        2.568796    3.505801    0.212898
     13          1           0        4.013753    2.487733    0.245591
     14          6           0       -1.790701   -1.248478    0.987364
     15          6           0       -2.671069   -0.003939    0.835225
     16          1           0       -1.764483   -1.547150    2.042054
     17          1           0       -2.148064   -2.091145    0.383909
     18          6           0       -2.885561    0.428112   -0.619817
     19          1           0       -2.219217    0.816713    1.403818
     20          1           0       -3.640582   -0.211873    1.302038
     21          6           0       -3.783497    1.661539   -0.747723
     22          1           0       -3.322749   -0.405830   -1.181622
     23          1           0       -1.915560    0.632165   -1.085418
     24          1           0       -4.774332    1.476746   -0.320747
     25          1           0       -3.921430    1.946628   -1.794051
     26          1           0       -3.353112    2.520419   -0.223394
     27          1           0        1.801655   -1.274473   -2.122926
     28          1           0        2.484989   -2.729656   -0.324871
 ---------------------------------------------------------------------

 SCF Done:  E(RHF) =  -675.490172821     A.U. after    2 cycles

 The electronic state is 1-A.
 Alpha  occ. eigenvalues --  -76.21515 -15.78893 -15.75321 -11.43425 -11.41106
 Alpha  occ. eigenvalues --  -11.40591 -11.37534 -11.37250 -11.34662 -11.34290
 Alpha  occ. eigenvalues --   -5.55392  -2.20791  -2.18613  -2.17546  -1.51244
 Alpha  occ. eigenvalues --   -1.23609  -1.20318  -1.10096  -0.99860  -0.96471
 Alpha  occ. eigenvalues --   -0.86546  -0.84435  -0.80654  -0.71864  -0.64260
 Alpha  occ. eigenvalues --   -0.63704  -0.62592  -0.59797  -0.58263  -0.56752
 Alpha  occ. eigenvalues --   -0.55585  -0.53579  -0.52920  -0.51165  -0.49680
 Alpha  occ. eigenvalues --   -0.48219  -0.46862  -0.46264  -0.45909  -0.44659
 Alpha  occ. eigenvalues --   -0.44452  -0.40998  -0.38915  -0.29040
 Alpha virt. eigenvalues --    0.04026   0.04722   0.05111   0.05207   0.05598
 Alpha virt. eigenvalues --    0.05746   0.05798   0.06032   0.06452   0.06535
 Alpha virt. eigenvalues --    0.06927   0.07448   0.07654   0.08147   0.08800

 Mulliken charges:
               1
     1  N   -1.261176
     2  N   -0.814559
     3  Si   5.904521
     4  C   -4.152316
     5  C   -2.993615
     6  H    1.451009
     7  H    1.676502
     8  C   -4.072988
     9  H    1.954325
    10  H    1.565130
    11  H    1.305391
    12  H    1.183378
    13  H    1.284022
    14  C   -3.116392
    15  C   -2.359279
    16  H    1.510915
    17  H    1.704377
    18  C   -2.970384
    19  H    1.661706
    20  H    1.413246
    21  C   -3.968886
    22  H    1.506712
    23  H    1.826023
    24  H    1.301618
    25  H    1.108037
    26  H    1.336711
    27  H   -1.946837
    28  H   -2.037192
 Sum of Mulliken charges =  -0.00000

 Dipole moment (field-independent basis, Debye):
    X=             -0.2333    Y=              1.0853    Z=              0.6767  Tot=              1.3001

 Test job not archived.
 1\1\GINC-SE328\SP\RHF\Aug-CC-pVDZ\C7H18N2Si1\OHZDE\09-Apr-2025\0\\#t h
 f aug-cc-pvdz iop(5/13=1,5/36=2,99/5=2) pseudo=read geom=check guess=(
 read,tcheck) scf=(maxcycle=1)\\title\\0,1\N,0,0.10437,-1.717276,-0.201
 348\N,0,-0.389509,-0.94177,0.635493\Si,0,1.824944,-1.443261,-0.650272\
 C,0,2.682212,-0.006645,0.202258\C,0,2.175389,1.395603,-0.184104\H,0,3.
 754276,-0.095018,-0.022293\H,0,2.58743,-0.151109,1.285407\C,0,2.950893
 ,2.523311,0.504873\H,0,1.114945,1.472989,0.073175\H,0,2.241524,1.52391
 5,-1.27085\H,0,2.872926,2.445107,1.593618\H,0,2.568796,3.505801,0.2128

 Normal termination of Gaussian 16 at Wed Apr  9 00:05:46 2025.
