 Gaussian 16, Revision C.01,

 ----------------------------------------------------------------------
 #t hf aug-cc-pvdz symm=none int=(grid=ultrafine) guess=(read,tcheck) s
 table=(opt,rrhf)
 ----------------------------------------------------------------------
 -----
 title
 -----
 Symbolic Z-matrix:
 Charge =  0 Multiplicity = 1

 SCF Done:  E(RHF) =  -691.034443510     A.U. after   14 cycles
 Normal termination of Gaussian 16 at Tue Apr  8 23:18:12 2025.
 Gaussian 16:  ES64L-G16RevC.01  3-Jul-2019

 ----------------------------------------------------------------------
 #t hf aug-cc-pvdz iop(5/13=1,5/36=2,99/5=2) pseudo=read geom=check gue
 ss=(read,tcheck) scf=(maxcycle=1)
 ----------------------------------------------------------------------
 -----
 title
 -----
 Structure from the checkpoint file:  "BDE49_nonexpt_1038_mol1.chk"
 Charge =  0 Multiplicity = 1

                         Standard orientation:
 ---------------------------------------------------------------------
 Center     Atomic      Atomic             Coordinates (Angstroms)
 Number     Number       Type             X           Y           Z
 ---------------------------------------------------------------------
      1         17           0       -2.640597   -0.309507    0.042061
      2          8           0       -0.963877   -0.226706   -0.400500
      3          6           0       -0.314136    0.888829    0.231257
      4          6           0        1.147061    0.812169   -0.195642
      5          1           0       -0.777255    1.822761   -0.103587
      6          6           0        1.896573   -0.411998    0.343367
      7          1           0        1.630615    1.732718    0.154391
      8          1           0        1.193585    0.832185   -1.289965
      9          6           0        3.358557   -0.455341   -0.107625
     10          1           0        1.380042   -1.318919    0.017602
     11          1           0        1.849239   -0.406471    1.438971
     12          1           0        3.434646   -0.495683   -1.198534
     13          1           0        3.870322   -1.334321    0.292457
     14          1           0        3.906551    0.430247    0.229862
     15          1           0       -0.414911    0.810788    1.319621
 ---------------------------------------------------------------------

 SCF Done:  E(RHF) =  -692.402954796     A.U. after    2 cycles

 The electronic state is 1-A.
 Alpha  occ. eigenvalues --  -99.92885 -21.10641 -11.45184 -11.41421 -11.38387
 Alpha  occ. eigenvalues --  -11.35214 -10.49637  -9.69580  -9.68726  -9.68610
 Alpha  occ. eigenvalues --   -1.77503  -1.26607  -1.20628  -1.05556  -0.91419
 Alpha  occ. eigenvalues --   -0.83419  -0.66979  -0.65720  -0.62214  -0.59980
 Alpha  occ. eigenvalues --   -0.56922  -0.55612  -0.52935  -0.51370  -0.47281
 Alpha  occ. eigenvalues --   -0.46215  -0.43618  -0.42525  -0.34169
 Alpha virt. eigenvalues --    0.03596   0.04770   0.05384   0.05479   0.05759
 Alpha virt. eigenvalues --    0.06267   0.06495   0.07267   0.07840   0.08923
 Alpha virt. eigenvalues --    0.10528   0.10801   0.12719   0.13945   0.14361

 Mulliken charges:
               1
     1  Cl   0.477422
     2  O   -1.848539
     3  C   -1.480317
     4  C   -2.944051
     5  H    1.265910
     6  C   -2.832033
     7  H    1.417618
     8  H    1.589912
     9  C   -3.898058
    10  H    1.552621
    11  H    1.448800
    12  H    1.298328
    13  H    1.107804
    14  H    1.279739
    15  H    1.564843
 Sum of Mulliken charges =  -0.00000

 Dipole moment (field-independent basis, Debye):
    X=              3.0311    Y=              0.8642    Z=             -0.0873  Tot=              3.1531

 Test job not archived.
 1\1\GINC-SE454\SP\RHF\Aug-CC-pVDZ\C4H9Cl1O1\OHZDE\08-Apr-2025\0\\#t hf
  aug-cc-pvdz iop(5/13=1,5/36=2,99/5=2) pseudo=read geom=check guess=(r
 ead,tcheck) scf=(maxcycle=1)\\title\\0,1\Cl,0,-2.640597,-0.309507,0.04
 2061\O,0,-0.963877,-0.226706,-0.4005\C,0,-0.314136,0.888829,0.231257\C
 ,0,1.147061,0.812169,-0.195642\H,0,-0.777255,1.822761,-0.103587\C,0,1.
 896573,-0.411998,0.343367\H,0,1.630615,1.732718,0.154391\H,0,1.193585,
 0.832185,-1.289965\C,0,3.358557,-0.455341,-0.107625\H,0,1.380042,-1.31
 8919,0.017602\H,0,1.849239,-0.406471,1.438971\H,0,3.434646,-0.495683,-

 Normal termination of Gaussian 16 at Tue Apr  8 23:18:17 2025.
