 Gaussian 16, Revision C.01,

 ----------------------------------------------------------------------
 #t hf aug-cc-pvdz symm=none int=(grid=ultrafine) guess=(read,tcheck) s
 table=(opt,rrhf)
 ----------------------------------------------------------------------
 -----
 title
 -----
 Symbolic Z-matrix:
 Charge =  0 Multiplicity = 1

 SCF Done:  E(RHF) =  -1307.04347794     A.U. after   17 cycles
 Normal termination of Gaussian 16 at Tue Apr  8 23:47:23 2025.
 Gaussian 16:  ES64L-G16RevC.01  3-Jul-2019

 ----------------------------------------------------------------------
 #t hf aug-cc-pvdz iop(5/13=1,5/36=2,99/5=2) pseudo=read geom=check gue
 ss=(read,tcheck) scf=(maxcycle=1)
 ----------------------------------------------------------------------
 -----
 title
 -----
 Structure from the checkpoint file:  "BDE49_nonexpt_1716_mol1.chk"
 Charge =  0 Multiplicity = 1

                         Standard orientation:
 ---------------------------------------------------------------------
 Center     Atomic      Atomic             Coordinates (Angstroms)
 Number     Number       Type             X           Y           Z
 ---------------------------------------------------------------------
      1          6           0       -4.509092   -0.315456    0.095255
      2          6           0       -4.022348    0.988320   -0.004523
      3          6           0       -2.654390    1.216380   -0.061787
      4          6           0       -3.623944   -1.391198    0.139448
      5          6           0       -2.252851   -1.168768    0.080377
      6          6           0       -1.758101    0.137465   -0.024750
      7          1           0       -5.577630   -0.492525    0.140936
      8          1           0       -4.710540    1.824735   -0.037774
      9          1           0       -2.257835    2.220571   -0.137595
     10          1           0       -4.001410   -2.403244    0.224343
     11          1           0       -1.571574   -2.008727    0.130960
     12          6           0       -0.307548    0.452575   -0.093054
     13         16           0        0.792460   -0.956774   -0.385294
     14         15           0        2.736259   -0.093095   -0.012838
     15          8           0        3.746101   -1.007083   -0.536004
     16          8           0        0.105667    1.596804   -0.000025
     17          8           0        2.660004    1.363385   -0.584606
     18          1           0        1.773000    1.760934   -0.391787
     19          8           0        2.779616    0.161043    1.569373
     20          1           0        3.061296   -0.626053    2.052500
 ---------------------------------------------------------------------

 SCF Done:  E(RHF) =  -1309.96678694     A.U. after    2 cycles

 The electronic state is 1-A.
 Alpha  occ. eigenvalues -- -105.33113 -75.72402 -21.12688 -21.10938 -21.09384
 Alpha  occ. eigenvalues --  -21.03558 -13.17843 -13.14520 -13.06435 -11.55996
 Alpha  occ. eigenvalues --  -11.54553 -11.46759 -11.46260 -11.44633 -11.43681
 Alpha  occ. eigenvalues --  -11.39753  -8.06710  -2.95479  -2.01642  -1.92507
 Alpha  occ. eigenvalues --   -1.78989  -1.76446  -1.54026  -1.40369  -1.37573
 Alpha  occ. eigenvalues --   -1.26012  -1.17792  -1.12489  -1.10273  -0.93416
 Alpha  occ. eigenvalues --   -0.89475  -0.80177  -0.73443  -0.71132  -0.66124
 Alpha  occ. eigenvalues --   -0.63845  -0.61357  -0.61026  -0.60058  -0.57009
 Alpha  occ. eigenvalues --   -0.54967  -0.51236  -0.50087  -0.48917  -0.46829
 Alpha  occ. eigenvalues --   -0.44340  -0.42669  -0.36101  -0.36012  -0.35243
 Alpha  occ. eigenvalues --   -0.35115  -0.30343  -0.29702  -0.27766  -0.23773
 Alpha  occ. eigenvalues --   -0.15802
 Alpha virt. eigenvalues --    0.02301   0.04328   0.04468   0.04946   0.05865
 Alpha virt. eigenvalues --    0.06254   0.06609   0.07727   0.08686   0.09664
 Alpha virt. eigenvalues --    0.10324   0.11073   0.11382   0.11909   0.12130

 Mulliken charges:
               1
     1  C   -2.840393
     2  C   -1.145815
     3  C   -3.372113
     4  C   -2.542447
     5  C    0.444079
     6  C    4.218107
     7  H    1.529704
     8  H    1.489572
     9  H    1.731103
    10  H    1.486383
    11  H    2.017594
    12  C    0.662872
    13  S   -1.295642
    14  P    7.804745
    15  O   -2.844868
    16  O   -3.909083
    17  O   -3.312527
    18  H    1.625267
    19  O   -2.607278
    20  H    0.860739
 Sum of Mulliken charges =  -0.00000

 Dipole moment (field-independent basis, Debye):
    X=             -3.3317    Y=              0.3741    Z=              1.7023  Tot=              3.7600

 Test job not archived.
 1\1\GINC-SE424\SP\RHF\Aug-CC-pVDZ\C7H7O4P1S1\OHZDE\08-Apr-2025\0\\#t h
 f aug-cc-pvdz iop(5/13=1,5/36=2,99/5=2) pseudo=read geom=check guess=(
 read,tcheck) scf=(maxcycle=1)\\title\\0,1\C,0,-4.509092,-0.315456,0.09
 5255\C,0,-4.022348,0.98832,-0.004523\C,0,-2.65439,1.21638,-0.061787\C,
 0,-3.623944,-1.391198,0.139448\C,0,-2.252851,-1.168768,0.080377\C,0,-1
 .758101,0.137465,-0.02475\H,0,-5.57763,-0.492525,0.140936\H,0,-4.71054
 ,1.824735,-0.037774\H,0,-2.257835,2.220571,-0.137595\H,0,-4.00141,-2.4
 03244,0.224343\H,0,-1.571574,-2.008727,0.13096\C,0,-0.307548,0.452575,

 Normal termination of Gaussian 16 at Tue Apr  8 23:47:37 2025.
