 Gaussian 16, Revision C.01,

 ----------------------------------------------------------------------
 #t hf aug-cc-pvdz symm=none int=(grid=ultrafine) guess=(read,tcheck) s
 table=opt
 ----------------------------------------------------------------------
 -----
 title
 -----
 Symbolic Z-matrix:
 Charge =  0 Multiplicity = 2

 SCF Done:  E(UHF) =  -458.432945110     A.U. after   19 cycles
 Normal termination of Gaussian 16 at Tue Apr  8 23:47:17 2025.
 Gaussian 16:  ES64L-G16RevC.01  3-Jul-2019

 ----------------------------------------------------------------------
 #t hf aug-cc-pvdz iop(5/13=1,5/36=2,99/5=2) pseudo=read geom=check gue
 ss=(read,tcheck) scf=(maxcycle=1)
 ----------------------------------------------------------------------
 -----
 title
 -----
 Structure from the checkpoint file:  "BDE49_nonexpt_1781_mol2.chk"
 Charge =  0 Multiplicity = 2

                         Standard orientation:
 ---------------------------------------------------------------------
 Center     Atomic      Atomic             Coordinates (Angstroms)
 Number     Number       Type             X           Y           Z
 ---------------------------------------------------------------------
      1         14           0        1.385941   -0.094667   -0.090975
      2          6           0       -0.519815    0.147574    0.003216
      3          7           0       -1.310861   -0.967223   -0.015697
      4          1           0       -0.928737   -1.889648    0.111239
      5          1           0       -2.311169   -0.844391    0.065456
      6          8           0       -0.971775    1.280066    0.018522
      7          1           0        1.852735   -1.370448    0.519702
      8          1           0        2.053110    1.074417    0.519658
 ---------------------------------------------------------------------

 SCF Done:  E(UHF) =  -459.293874729     A.U. after    2 cycles

 The electronic state is 2-A.
 Alpha  occ. eigenvalues --  -76.24550 -21.03763 -15.78655 -11.46788  -5.58001
 Alpha  occ. eigenvalues --   -2.21490  -2.20356  -2.18699  -1.70428  -1.34407
 Alpha  occ. eigenvalues --   -0.87534  -0.76450  -0.70065  -0.57771  -0.54212
 Alpha  occ. eigenvalues --   -0.48934  -0.47599  -0.34178  -0.30638  -0.25734
 Alpha virt. eigenvalues --    0.03269   0.05078   0.05700   0.06770   0.06812
 Alpha virt. eigenvalues --    0.07688   0.09332   0.10948   0.13617   0.14090
 Alpha virt. eigenvalues --    0.14684   0.16008   0.16550   0.17244   0.17712

  Beta  occ. eigenvalues --  -76.23982 -21.03486 -15.78643 -11.46870  -5.57117
  Beta  occ. eigenvalues --   -2.20790  -2.19680  -2.15024  -1.69946  -1.34298
  Beta  occ. eigenvalues --   -0.85851  -0.74835  -0.68773  -0.57322  -0.53841
  Beta  occ. eigenvalues --   -0.48412  -0.47254  -0.32887  -0.27701
  Beta virt. eigenvalues --    0.02780   0.03415   0.05369   0.05793   0.07058
  Beta virt. eigenvalues --    0.07710   0.08761   0.09603   0.11918   0.13961
  Beta virt. eigenvalues --    0.14857   0.15615   0.16966   0.17429   0.17944

 Mulliken charges and spin densities:
               1          2
     1  Si   3.755382   1.033036
     2  C    2.553499  -0.098700
     3  N   -2.481079   0.006025
     4  H    0.795067  -0.005911
     5  H    0.669521  -0.002034
     6  O   -2.505327   0.081571
     7  H   -1.378889  -0.011268
     8  H   -1.408175  -0.002719
 Sum of Mulliken charges =  -0.00000   1.00000

 Dipole moment (field-independent basis, Debye):
    X=             -0.3848    Y=             -2.0054    Z=             -0.0195  Tot=              2.0421
                          Isotropic Fermi Contact Couplings
        Atom                 a.u.       MegaHertz       Gauss      10(-4) cm-1
     1  Si(29)             0.45525    -404.59166    -144.36836    -134.95725
     2  C(13)              0.00115       1.29779       0.46308       0.43290
     3  N(14)             -0.00204      -0.65951      -0.23533      -0.21999
     4  H(1)              -0.00009      -0.41188      -0.14697      -0.13739
     5  H(1)              -0.00022      -0.97333      -0.34731      -0.32467
     6  O(17)              0.01591      -9.64608      -3.44196      -3.21758
     7  H(1)               0.00153       6.83017       2.43718       2.27830
     8  H(1)               0.00184       8.22200       2.93381       2.74256

 1\1\GINC-SE403\SP\UHF\Aug-CC-pVDZ\C1H4N1O1Si1(2)\OHZDE\08-Apr-2025\0\\
 #t hf aug-cc-pvdz iop(5/13=1,5/36=2,99/5=2) pseudo=read geom=check gue
 ss=(read,tcheck) scf=(maxcycle=1)\\title\\0,2\Si,0,1.385941,-0.094667,
 -0.090975\C,0,-0.519815,0.147574,0.003216\N,0,-1.310861,-0.967223,-0.0
 15697\H,0,-0.928737,-1.889648,0.111239\H,0,-2.311169,-0.844391,0.06545
 6\O,0,-0.971775,1.280066,0.018522\H,0,1.852735,-1.370448,0.519702\H,0,
 2.05311,1.074417,0.519658\\Version=ES64L-G16RevC.01\State=2-A\HF=-459.
 2938747\S2=0.760475\S2-1=0.\S2A=0.750052\RMSD=8.302e-02\Dipole=-0.1513

 Normal termination of Gaussian 16 at Tue Apr  8 23:47:19 2025.
