 Gaussian 16, Revision C.01,

 ----------------------------------------------------------------------
 #t hf aug-cc-pvdz symm=none int=(grid=ultrafine) guess=(read,tcheck) s
 table=(opt,rrhf)
 ----------------------------------------------------------------------
 -----
 title
 -----
 Symbolic Z-matrix:
 Charge =  0 Multiplicity = 1

 SCF Done:  E(RHF) =  -597.982535775     A.U. after   12 cycles
 Normal termination of Gaussian 16 at Tue Apr  8 22:45:27 2025.
 Gaussian 16:  ES64L-G16RevC.01  3-Jul-2019

 ----------------------------------------------------------------------
 #t hf aug-cc-pvdz iop(5/13=1,5/36=2,99/5=2) pseudo=read geom=check gue
 ss=(read,tcheck) scf=(maxcycle=1)
 ----------------------------------------------------------------------
 -----
 title
 -----
 Structure from the checkpoint file:  "BDE49_expt_1505_mol1.chk"
 Charge =  0 Multiplicity = 1

                         Standard orientation:
 ---------------------------------------------------------------------
 Center     Atomic      Atomic             Coordinates (Angstroms)
 Number     Number       Type             X           Y           Z
 ---------------------------------------------------------------------
      1          6           0        0.577808    0.575129    0.000005
      2          1           0        0.678746    1.166567    0.907444
      3          9           0        1.506397   -0.422153   -0.000003
      4          1           0        0.678745    1.166583   -0.907424
      5         17           0       -1.081289   -0.116738   -0.000001
 ---------------------------------------------------------------------

 SCF Done:  E(RHF) =  -598.756023775     A.U. after    2 cycles

 The electronic state is 1-A.
 Alpha  occ. eigenvalues --  -99.89739 -29.29253 -11.50325 -10.47092  -9.66820
 Alpha  occ. eigenvalues --   -9.66117  -9.66115  -1.36457  -1.11860  -0.73899
 Alpha  occ. eigenvalues --   -0.71373  -0.65689  -0.50911  -0.50778  -0.40549
 Alpha  occ. eigenvalues --   -0.29987  -0.28306
 Alpha virt. eigenvalues --    0.03459   0.05592   0.07115   0.10050   0.12657
 Alpha virt. eigenvalues --    0.14998   0.15287   0.15538   0.16833   0.19247
 Alpha virt. eigenvalues --    0.22958   0.25247   0.25763   0.28288   0.29634

 Mulliken charges:
               1
     1  C   -3.432407
     2  H    1.491866
     3  F    0.559506
     4  H    1.491866
     5  Cl  -0.110832
 Sum of Mulliken charges =  -0.00000

 Dipole moment (field-independent basis, Debye):
    X=              3.3958    Y=             -0.1744    Z=             -0.0000  Tot=              3.4002

 Test job not archived.
 1\1\GINC-SE141\SP\RHF\Aug-CC-pVDZ\C1H2Cl1F1\OHZDE\08-Apr-2025\0\\#t hf
  aug-cc-pvdz iop(5/13=1,5/36=2,99/5=2) pseudo=read geom=check guess=(r
 ead,tcheck) scf=(maxcycle=1)\\title\\0,1\C,0,0.577808,0.575129,0.00000
 5\H,0,0.678746,1.166567,0.907444\F,0,1.506397,-0.422153,-0.000003\H,0,
 0.678745,1.166583,-0.907424\Cl,0,-1.081289,-0.116738,-0.000001\\Versio
 n=ES64L-G16RevC.01\State=1-A\HF=-598.7560238\RMSD=5.985e-02\Dipole=1.3
 359926,-0.0686198,-0.0000003\Quadrupole=0.9903032,-0.3454099,-0.644893
 2,0.1083429,0.0000024,0.0000017\PG=C01 [X(C1H2Cl1F1)]\\@

 Normal termination of Gaussian 16 at Tue Apr  8 22:45:29 2025.
