 Gaussian 16, Revision C.01,

 ----------------------------------------------------------------------
 #t hf aug-cc-pvdz symm=none int=(grid=ultrafine) guess=(read,tcheck) s
 table=(opt,rrhf)
 ----------------------------------------------------------------------
 -----
 title
 -----
 Symbolic Z-matrix:
 Charge =  0 Multiplicity = 1

 SCF Done:  E(RHF) =  -368.138408345     A.U. after   12 cycles

 1\1\GINC-SE396\Stability\RHF\Aug-CC-pVDZ\C2H6Si1\OHZDE\08-Apr-2025\0\\
 #t hf aug-cc-pvdz symm=none int=(grid=ultrafine) guess=(read,tcheck) s
 table=(opt,rrhf)\\title\\0,1\Si,0,1.081925,0.077537,0.\C,0,-0.684154,-
 0.527658,0.\C,0,-1.746001,0.281609,0.\H,0,-0.861363,-1.60306,0.000001\
 H,0,-1.643697,1.36332,-0.000001\H,0,-2.764211,-0.098589,0.\H,0,1.08868
 5,1.559249,-0.000001\H,0,1.80728,-0.415072,-1.196547\H,0,1.807279,-0.4
 1507,1.196548\\Version=ES64L-G16RevC.01\HF=-368.1384083\RMSD=2.871e-09
 \Dipole=-0.2849203,-0.0415919,0.\Quadrupole=0.7846927,0.9358097,-1.720

 Normal termination of Gaussian 16 at Tue Apr  8 23:58:21 2025.
 Gaussian 16:  ES64L-G16RevC.01  3-Jul-2019

 ----------------------------------------------------------------------
 #t hf aug-cc-pvdz iop(5/13=1,5/36=2,99/5=2) pseudo=read geom=check gue
 ss=(read,tcheck) scf=(maxcycle=1)
 ----------------------------------------------------------------------
 -----
 title
 -----
 Structure from the checkpoint file:  "BDE49_nonexpt_2044_mol1.chk"
 Charge =  0 Multiplicity = 1

                         Standard orientation:
 ---------------------------------------------------------------------
 Center     Atomic      Atomic             Coordinates (Angstroms)
 Number     Number       Type             X           Y           Z
 ---------------------------------------------------------------------
      1         14           0        1.081925    0.077537    0.000000
      2          6           0       -0.684154   -0.527658    0.000000
      3          6           0       -1.746001    0.281609    0.000000
      4          1           0       -0.861363   -1.603060    0.000001
      5          1           0       -1.643697    1.363320   -0.000001
      6          1           0       -2.764211   -0.098590    0.000000
      7          1           0        1.088685    1.559249   -0.000001
      8          1           0        1.807280   -0.415072   -1.196547
      9          1           0        1.807279   -0.415070    1.196548
 ---------------------------------------------------------------------

 SCF Done:  E(RHF) =  -368.695789909     A.U. after    2 cycles

 The electronic state is 1-A.
 Alpha  occ. eigenvalues --  -76.21304 -11.41270 -11.36649  -5.54839  -2.19019
 Alpha  occ. eigenvalues --   -2.17291  -2.16794  -1.14265  -0.83910  -0.74178
 Alpha  occ. eigenvalues --   -0.62467  -0.54403  -0.47425  -0.46743  -0.41730
 Alpha  occ. eigenvalues --   -0.37076
 Alpha virt. eigenvalues --    0.03616   0.05219   0.05459   0.06254   0.06793
 Alpha virt. eigenvalues --    0.07399   0.08217   0.09429   0.10465   0.10486
 Alpha virt. eigenvalues --    0.14123   0.14683   0.15480   0.15556   0.16621

 Mulliken charges:
               1
     1  Si   5.973161
     2  C   -2.429369
     3  C   -2.425640
     4  H    1.169592
     5  H    1.376957
     6  H    1.354673
     7  H   -1.560052
     8  H   -1.729662
     9  H   -1.729662
 Sum of Mulliken charges =  -0.00000

 Dipole moment (field-independent basis, Debye):
    X=             -1.0711    Y=             -0.1002    Z=              0.0000  Tot=              1.0758

 Test job not archived.
 1\1\GINC-SE396\SP\RHF\Aug-CC-pVDZ\C2H6Si1\OHZDE\08-Apr-2025\0\\#t hf a
 ug-cc-pvdz iop(5/13=1,5/36=2,99/5=2) pseudo=read geom=check guess=(rea
 d,tcheck) scf=(maxcycle=1)\\title\\0,1\Si,0,1.081925,0.077537,0.\C,0,-
 0.684154,-0.527658,0.\C,0,-1.746001,0.281609,0.\H,0,-0.861363,-1.60306
 ,0.000001\H,0,-1.643697,1.36332,-0.000001\H,0,-2.764211,-0.098589,0.\H
 ,0,1.088685,1.559249,-0.000001\H,0,1.80728,-0.415072,-1.196547\H,0,1.8
 07279,-0.41507,1.196548\\Version=ES64L-G16RevC.01\State=1-A\HF=-368.69
 57899\RMSD=3.619e-01\Dipole=-0.421407,-0.0394272,0.0000001\Quadrupole=

 Normal termination of Gaussian 16 at Tue Apr  8 23:58:24 2025.
