 Gaussian 16, Revision C.01,

 ----------------------------------------------------------------------
 #t hf aug-cc-pvdz symm=none int=(grid=ultrafine) guess=(read,tcheck) s
 table=(opt,rrhf)
 ----------------------------------------------------------------------
 -----
 title
 -----
 Symbolic Z-matrix:
 Charge =  0 Multiplicity = 1

 SCF Done:  E(RHF) =  -479.975393239     A.U. after   13 cycles
 Normal termination of Gaussian 16 at Wed Apr  9 00:06:29 2025.
 Gaussian 16:  ES64L-G16RevC.01  3-Jul-2019

 ----------------------------------------------------------------------
 #t hf aug-cc-pvdz iop(5/13=1,5/36=2,99/5=2) pseudo=read geom=check gue
 ss=(read,tcheck) scf=(maxcycle=1)
 ----------------------------------------------------------------------
 -----
 title
 -----
 Structure from the checkpoint file:  "BDE49_nonexpt_2237_mol1.chk"
 Charge =  0 Multiplicity = 1

                         Standard orientation:
 ---------------------------------------------------------------------
 Center     Atomic      Atomic             Coordinates (Angstroms)
 Number     Number       Type             X           Y           Z
 ---------------------------------------------------------------------
      1         14           0       -0.404051    0.524850    0.013806
      2          8           0        0.778731   -0.679801   -0.023372
      3          8           0        2.072699    0.007879   -0.093626
      4          1           0        2.496919   -0.363667    0.691677
      5          6           0       -2.012712   -0.420541   -0.001785
      6          1           0       -2.103639   -1.024091   -0.907981
      7          1           0       -2.853609    0.279402    0.026775
      8          1           0       -2.093115   -1.082698    0.863626
      9          1           0       -0.271795    1.406820   -1.165873
     10          1           0       -0.253224    1.334952    1.245191
 ---------------------------------------------------------------------

 SCF Done:  E(RHF) =  -480.957165317     A.U. after    2 cycles

 The electronic state is 1-A.
 Alpha  occ. eigenvalues --  -76.23225 -21.12645 -21.08395 -11.35380  -5.57033
 Alpha  occ. eigenvalues --   -2.23178  -2.20179  -2.18614  -1.90030  -1.40181
 Alpha  occ. eigenvalues --   -1.04253  -0.72445  -0.62580  -0.57049  -0.56629
 Alpha  occ. eigenvalues --   -0.51348  -0.48971  -0.46453  -0.41510  -0.35811
 Alpha  occ. eigenvalues --   -0.30075
 Alpha virt. eigenvalues --    0.03576   0.04866   0.05817   0.06404   0.07135
 Alpha virt. eigenvalues --    0.07924   0.08473   0.09235   0.10379   0.14095
 Alpha virt. eigenvalues --    0.15017   0.15316   0.16781   0.17053   0.18164

 Mulliken charges:
               1
     1  Si   6.078620
     2  O   -1.333389
     3  O   -1.136172
     4  H    1.008077
     5  C   -4.786210
     6  H    1.285990
     7  H    1.264211
     8  H    1.280003
     9  H   -1.814234
    10  H   -1.846895
 Sum of Mulliken charges =  -0.00000

 Dipole moment (field-independent basis, Debye):
    X=             -0.2091    Y=             -0.5084    Z=              0.5721  Tot=              0.7934

 Test job not archived.
 1\1\GINC-SE335\SP\RHF\Aug-CC-pVDZ\C1H6O2Si1\OHZDE\09-Apr-2025\0\\#t hf
  aug-cc-pvdz iop(5/13=1,5/36=2,99/5=2) pseudo=read geom=check guess=(r
 ead,tcheck) scf=(maxcycle=1)\\title\\0,1\Si,0,-0.404051,0.52485,0.0138
 06\O,0,0.778731,-0.679801,-0.023372\O,0,2.072699,0.007879,-0.093626\H,
 0,2.496919,-0.363667,0.691677\C,0,-2.012712,-0.420541,-0.001785\H,0,-2
 .103639,-1.024091,-0.907981\H,0,-2.853609,0.279402,0.026775\H,0,-2.093
 115,-1.082698,0.863626\H,0,-0.271795,1.40682,-1.165873\H,0,-0.253224,1
 .334952,1.245191\\Version=ES64L-G16RevC.01\State=1-A\HF=-480.9571653\R

 Normal termination of Gaussian 16 at Wed Apr  9 00:06:32 2025.
