 Gaussian 16, Revision C.01,

 ----------------------------------------------------------------------
 #t hf aug-cc-pvdz symm=none int=(grid=ultrafine) guess=(read,tcheck) s
 table=(opt,rrhf)
 ----------------------------------------------------------------------
 -----
 title
 -----
 Symbolic Z-matrix:
 Charge =  0 Multiplicity = 1

 SCF Done:  E(RHF) =  -457.399929334     A.U. after   15 cycles
 Normal termination of Gaussian 16 at Tue Apr  8 22:45:45 2025.
 Gaussian 16:  ES64L-G16RevC.01  3-Jul-2019

 ----------------------------------------------------------------------
 #t hf aug-cc-pvdz iop(5/13=1,5/36=2,99/5=2) pseudo=read geom=check gue
 ss=(read,tcheck) scf=(maxcycle=1)
 ----------------------------------------------------------------------
 -----
 title
 -----
 Structure from the checkpoint file:  "BDE49_expt_1457_mol1.chk"
 Charge =  0 Multiplicity = 1

                         Standard orientation:
 ---------------------------------------------------------------------
 Center     Atomic      Atomic             Coordinates (Angstroms)
 Number     Number       Type             X           Y           Z
 ---------------------------------------------------------------------
      1          8           0       -1.081779   -0.614406   -0.347845
      2          6           0       -2.104410    0.164946    0.128063
      3          6           0        0.259233   -0.265672   -0.169619
      4          8           0       -1.955549    1.201619    0.710949
      5          6           0        0.745009    1.025749   -0.356938
      6          6           0        1.116705   -1.318354    0.135629
      7          6           0        2.481893   -1.077837    0.258843
      8          6           0        2.984680    0.209361    0.080231
      9          6           0        2.113869    1.252305   -0.227192
     10          1           0        2.497941    2.256169   -0.368241
     11          1           0        0.070135    1.837382   -0.584144
     12          1           0        3.150348   -1.897714    0.495367
     13          1           0        4.047303    0.398138    0.178393
     14          1           0        0.702946   -2.310818    0.265931
     15          6           0       -3.422423   -0.490742   -0.193592
     16          1           0       -3.480656   -1.465296    0.296424
     17          1           0       -3.502026   -0.660926   -1.269314
     18          1           0       -4.234708    0.146823    0.148204
 ---------------------------------------------------------------------

 SCF Done:  E(RHF) =  -459.472393591     A.U. after    2 cycles

 The electronic state is 1-A.
 Alpha  occ. eigenvalues --  -21.10414 -21.05871 -11.53767 -11.53470 -11.45981
 Alpha  occ. eigenvalues --  -11.43113 -11.41242 -11.40721 -11.40096 -11.36901
 Alpha  occ. eigenvalues --   -1.85369  -1.68035  -1.32717  -1.12936  -1.09841
 Alpha  occ. eigenvalues --   -1.06517  -0.88080  -0.87078  -0.77664  -0.69981
 Alpha  occ. eigenvalues --   -0.66205  -0.63325  -0.62867  -0.60499  -0.58683
 Alpha  occ. eigenvalues --   -0.57336  -0.54513  -0.52593  -0.49034  -0.48230
 Alpha  occ. eigenvalues --   -0.45903  -0.42165  -0.37334  -0.33637  -0.29933
 Alpha  occ. eigenvalues --   -0.29000
 Alpha virt. eigenvalues --    0.03194   0.04772   0.04926   0.05621   0.06165
 Alpha virt. eigenvalues --    0.06611   0.07003   0.07389   0.09804   0.10726
 Alpha virt. eigenvalues --    0.10831   0.11280   0.12264   0.13279   0.13741

 Mulliken charges:
               1
     1  O   -4.887792
     2  C    4.462968
     3  C    6.082629
     4  O   -2.985706
     5  C   -3.717771
     6  C   -3.444035
     7  C   -0.254397
     8  C   -2.486305
     9  C   -0.393960
    10  H    1.470145
    11  H    1.812406
    12  H    1.491641
    13  H    1.548819
    14  H    1.784627
    15  C   -4.295228
    16  H    1.278688
    17  H    1.318593
    18  H    1.214678
 Sum of Mulliken charges =   0.00000

 Dipole moment (field-independent basis, Debye):
    X=              0.0668    Y=             -0.8677    Z=             -0.4875  Tot=              0.9975

 Test job not archived.
 1\1\GINC-SE090\SP\RHF\Aug-CC-pVDZ\C8H8O2\OHZDE\08-Apr-2025\0\\#t hf au
 g-cc-pvdz iop(5/13=1,5/36=2,99/5=2) pseudo=read geom=check guess=(read
 ,tcheck) scf=(maxcycle=1)\\title\\0,1\O,0,1.081779,0.614406,-0.347845\
 C,0,2.10441,-0.164946,0.128063\C,0,-0.259233,0.265672,-0.169619\O,0,1.
 955549,-1.201619,0.710949\C,0,-0.745009,-1.025749,-0.356938\C,0,-1.116
 705,1.318354,0.135629\C,0,-2.481893,1.077837,0.258843\C,0,-2.98468,-0.
 209361,0.080231\C,0,-2.113869,-1.252305,-0.227192\H,0,-2.497941,-2.256
 169,-0.368241\H,0,-0.070135,-1.837382,-0.584144\H,0,-3.150348,1.897714

 Normal termination of Gaussian 16 at Tue Apr  8 22:45:53 2025.
