 Gaussian 16, Revision C.01,

 ----------------------------------------------------------------------
 #t hf aug-cc-pvdz symm=none int=(grid=ultrafine) guess=(read,tcheck) s
 table=opt
 ----------------------------------------------------------------------
 -----
 title
 -----
 Symbolic Z-matrix:
 Charge =  0 Multiplicity = 2

 SCF Done:  E(UHF) =  -1056.26948046     A.U. after   16 cycles

 1\1\GINC-SE453\Stability\UHF\Aug-CC-pVDZ\C1Cl2F1\OHZDE\08-Apr-2025\0\\
 #t hf aug-cc-pvdz symm=none int=(grid=ultrafine) guess=(read,tcheck) s
 table=opt\\title\\0,2\C,0,0.159667,0.442142,0.\Cl,0,0.159667,-0.460836
 ,1.481572\Cl,0,0.159667,-0.460836,-1.481572\F,0,-0.709632,1.446173,0.\
 \Version=ES64L-G16RevC.01\HF=-1056.2694805\S2=0.761789\S2-1=0.\S2A=0.7
 50115\RMSD=6.225e-09\Dipole=0.1454103,-0.133698,0.\Quadrupole=-0.47668
 46,-0.4871395,0.9638241,0.604333,0.,0.\PG=Unknown\\@
 The archive entry for this job was punched.

 Normal termination of Gaussian 16 at Tue Apr  8 22:30:18 2025.
 Gaussian 16:  ES64L-G16RevC.01  3-Jul-2019

 ----------------------------------------------------------------------
 #t hf aug-cc-pvdz iop(5/13=1,5/36=2,99/5=2) pseudo=read geom=check gue
 ss=(read,tcheck) scf=(maxcycle=1)
 ----------------------------------------------------------------------
 -----
 title
 -----
 Structure from the checkpoint file:  "BDE49_expt_1005_mol2.chk"
 Charge =  0 Multiplicity = 2

                         Standard orientation:
 ---------------------------------------------------------------------
 Center     Atomic      Atomic             Coordinates (Angstroms)
 Number     Number       Type             X           Y           Z
 ---------------------------------------------------------------------
      1          6           0        0.159667    0.442142    0.000000
      2         17           0        0.159667   -0.460836    1.481572
      3         17           0        0.159667   -0.460836   -1.481572
      4          9           0       -0.709632    1.446173   -0.000000
 ---------------------------------------------------------------------

 SCF Done:  E(UHF) =  -1057.24165279     A.U. after    2 cycles

 The electronic state is 2-A'.
 Alpha  occ. eigenvalues --  -99.93485 -99.93465 -29.33949 -11.55406 -10.50976
 Alpha  occ. eigenvalues --  -10.50902  -9.70756  -9.70582  -9.69930  -9.69861
 Alpha  occ. eigenvalues --   -9.69854  -9.69792  -1.46202  -1.33453  -1.10816
 Alpha  occ. eigenvalues --   -0.79153  -0.72974  -0.70292  -0.56510  -0.56093
 Alpha  occ. eigenvalues --   -0.53278  -0.48799  -0.43811  -0.33602  -0.26671
 Alpha virt. eigenvalues --    0.03128   0.06904   0.07386   0.10084   0.10549
 Alpha virt. eigenvalues --    0.13228   0.13873   0.14907   0.16065   0.18039
 Alpha virt. eigenvalues --    0.18187   0.18455   0.21627   0.23391   0.25824

  Beta  occ. eigenvalues --  -99.93406 -99.93386 -29.33567 -11.52551 -10.50887
  Beta  occ. eigenvalues --  -10.50814  -9.70751  -9.70529  -9.69819  -9.69754
  Beta  occ. eigenvalues --   -9.69576  -9.69552  -1.43700  -1.32780  -1.06246
  Beta  occ. eigenvalues --   -0.76900  -0.71396  -0.61480  -0.55639  -0.54804
  Beta  occ. eigenvalues --   -0.53133  -0.43786  -0.38636  -0.33551
  Beta virt. eigenvalues --    0.03215   0.05326   0.07805   0.08350   0.10680
  Beta virt. eigenvalues --    0.10901   0.13360   0.13972   0.14953   0.16856
  Beta virt. eigenvalues --    0.18430   0.18535   0.19843   0.21771   0.24423

 Mulliken charges and spin densities:
               1          2
     1  C   -1.533821   0.912537
     2  Cl   0.257165  -0.019882
     3  Cl   0.257165  -0.019882
     4  F    1.019491   0.127228
 Sum of Mulliken charges =  -0.00000   1.00000

 Dipole moment (field-independent basis, Debye):
    X=             -2.0689    Y=              3.3805    Z=              0.0000  Tot=              3.9634
                          Isotropic Fermi Contact Couplings
        Atom                 a.u.       MegaHertz       Gauss      10(-4) cm-1
     1  C(13)              0.28802     323.78541     115.53469     108.00319
     2  Cl(35)             0.09003      39.47649      14.08619      13.16794
     3  Cl(35)             0.09003      39.47649      14.08619      13.16794
     4  F(19)              0.03332     140.17957      50.01956      46.75887
 --------------------------------------------------------
       Center         ----  Spin Dipole Couplings  ----
                      3XX-RR        3YY-RR        3ZZ-RR
 --------------------------------------------------------

 Normal termination of Gaussian 16 at Tue Apr  8 22:30:19 2025.
