 Gaussian 16, Revision C.01,

 ----------------------------------------------------------------------
 #t hf aug-cc-pvdz symm=none int=(grid=ultrafine) guess=(read,tcheck) s
 table=(opt,rrhf)
 ----------------------------------------------------------------------
 -----
 title
 -----
 Symbolic Z-matrix:
 Charge =  0 Multiplicity = 1

 SCF Done:  E(RHF) =  -436.647887863     A.U. after   14 cycles
 Normal termination of Gaussian 16 at Wed Apr  9 00:53:50 2025.
 Gaussian 16:  ES64L-G16RevC.01  3-Jul-2019

 ----------------------------------------------------------------------
 #t hf aug-cc-pvdz iop(5/13=1,5/36=2,99/5=2) pseudo=read geom=check gue
 ss=(read,tcheck) scf=(maxcycle=1)
 ----------------------------------------------------------------------
 -----
 title
 -----
 Structure from the checkpoint file:  "BDE49_nonexpt_973_mol1.chk"
 Charge =  0 Multiplicity = 1

                         Standard orientation:
 ---------------------------------------------------------------------
 Center     Atomic      Atomic             Coordinates (Angstroms)
 Number     Number       Type             X           Y           Z
 ---------------------------------------------------------------------
      1          9           0       -0.138065    1.630579   -0.042930
      2          8           0        1.150975   -1.619857    0.026469
      3          8           0       -1.153540   -0.347741   -0.474014
      4          7           0       -0.232323    0.196032    0.354153
      5          7           0        2.086220    0.470901   -0.020205
      6          6           0        1.077684   -0.420009    0.055943
      7          6           0       -2.459414   -0.295327    0.129910
      8          1           0        1.893812    1.454961   -0.098098
      9          1           0        3.015542    0.111441   -0.157833
     10          1           0       -3.110081   -0.820839   -0.566875
     11          1           0       -2.442972   -0.798709    1.097415
     12          1           0       -2.780089    0.742197    0.239368
 ---------------------------------------------------------------------

 SCF Done:  E(RHF) =  -438.448302838     A.U. after    2 cycles

 The electronic state is 1-A.
 Alpha  occ. eigenvalues --  -29.26891 -21.11284 -21.05314 -15.87113 -15.79908
 Alpha  occ. eigenvalues --  -11.53181 -11.42469  -1.89684  -1.73119  -1.40322
 Alpha  occ. eigenvalues --   -1.26714  -0.99490  -0.87274  -0.76422  -0.75698
 Alpha  occ. eigenvalues --   -0.67444  -0.64963  -0.61799  -0.55605  -0.53160
 Alpha  occ. eigenvalues --   -0.52558  -0.43693  -0.41116  -0.35537  -0.34816
 Alpha  occ. eigenvalues --   -0.29722  -0.24819  -0.23615
 Alpha virt. eigenvalues --    0.03723   0.04708   0.06204   0.06554   0.06641
 Alpha virt. eigenvalues --    0.10534   0.11303   0.12660   0.12966   0.14751
 Alpha virt. eigenvalues --    0.15306   0.15849   0.16421   0.16699   0.17004

 Mulliken charges:
               1
     1  F   -0.308088
     2  O   -2.844215
     3  O   -2.849063
     4  N    0.883251
     5  N   -2.526322
     6  C    5.206542
     7  C   -2.720715
     8  H    0.588440
     9  H    0.710945
    10  H    1.233169
    11  H    1.312412
    12  H    1.313645
 Sum of Mulliken charges =  -0.00000

 Dipole moment (field-independent basis, Debye):
    X=              0.1599    Y=              3.1611    Z=             -0.5122  Tot=              3.2063

 Test job not archived.
 1\1\GINC-SE129\SP\RHF\Aug-CC-pVDZ\C2H5F1N2O2\OHZDE\09-Apr-2025\0\\#t h
 f aug-cc-pvdz iop(5/13=1,5/36=2,99/5=2) pseudo=read geom=check guess=(
 read,tcheck) scf=(maxcycle=1)\\title\\0,1\F,0,-0.138065,1.630579,-0.04
 293\O,0,1.150975,-1.619857,0.026469\O,0,-1.15354,-0.347741,-0.474014\N
 ,0,-0.232323,0.196032,0.354153\N,0,2.08622,0.470901,-0.020205\C,0,1.07
 7684,-0.420009,0.055943\C,0,-2.459414,-0.295327,0.12991\H,0,1.893812,1
 .454961,-0.098098\H,0,3.015542,0.111441,-0.157833\H,0,-3.110081,-0.820
 839,-0.566875\H,0,-2.442972,-0.798709,1.097415\H,0,-2.780089,0.742197,

 Normal termination of Gaussian 16 at Wed Apr  9 00:53:54 2025.
