 Gaussian 16, Revision C.01,

 ----------------------------------------------------------------------
 #t hf aug-cc-pvdz symm=none int=(grid=ultrafine) guess=(read,tcheck) s
 table=(opt,rrhf)
 ----------------------------------------------------------------------
 -----
 title
 -----
 Symbolic Z-matrix:
 Charge =  0 Multiplicity = 1

 SCF Done:  E(RHF) =  -594.499715643     A.U. after   13 cycles
 Normal termination of Gaussian 16 at Wed Apr  9 00:44:08 2025.
 Gaussian 16:  ES64L-G16RevC.01  3-Jul-2019

 ----------------------------------------------------------------------
 #t hf aug-cc-pvdz iop(5/13=1,5/36=2,99/5=2) pseudo=read geom=check gue
 ss=(read,tcheck) scf=(maxcycle=1)
 ----------------------------------------------------------------------
 -----
 title
 -----
 Structure from the checkpoint file:  "BDE49_nonexpt_749_mol1.chk"
 Charge =  0 Multiplicity = 1

                         Standard orientation:
 ---------------------------------------------------------------------
 Center     Atomic      Atomic             Coordinates (Angstroms)
 Number     Number       Type             X           Y           Z
 ---------------------------------------------------------------------
      1          6           0        1.665574   -0.204112    0.467121
      2          5           0       -1.166309    0.269877    0.002536
      3          8           0       -2.489542   -0.053522    0.012952
      4          8           0       -0.848169    1.585287    0.066164
      5          6           0        2.411131    0.630207   -0.262950
      6          1           0        3.247117    1.169949    0.169725
      7          1           0        2.228520    0.789217   -1.322169
      8          1           0        0.104492    1.727468    0.120321
      9          1           0       -2.666535   -0.993142   -0.068910
     10         15           0        0.224567   -1.109784   -0.215199
     11          1           0        1.908580   -0.355619    1.515511
     12          1           0       -0.117665   -1.851192    0.942874
 ---------------------------------------------------------------------

 SCF Done:  E(RHF) =  -595.792265993     A.U. after    2 cycles

 The electronic state is 1-A.
 Alpha  occ. eigenvalues -- -105.17078 -21.06402 -21.05614 -11.43357 -11.39112
 Alpha  occ. eigenvalues --   -7.65364  -2.74980  -1.81526  -1.66139  -1.49074
 Alpha  occ. eigenvalues --   -1.46082  -1.43457  -1.13576  -0.83769  -0.75863
 Alpha  occ. eigenvalues --   -0.72070  -0.62259  -0.57231  -0.55119  -0.49965
 Alpha  occ. eigenvalues --   -0.48699  -0.47112  -0.39258  -0.36631  -0.25434
 Alpha  occ. eigenvalues --   -0.14858  -0.02952
 Alpha virt. eigenvalues --    0.03440   0.04338   0.05346   0.06011   0.06442
 Alpha virt. eigenvalues --    0.07477   0.08250   0.08809   0.09603   0.09989
 Alpha virt. eigenvalues --    0.11068   0.11190   0.11795   0.13363   0.14576

 Mulliken charges:
               1
     1  C   -1.991443
     2  B    5.460741
     3  O   -3.761853
     4  O   -3.712707
     5  C   -3.557254
     6  H    1.193726
     7  H    1.385330
     8  H    1.776089
     9  H    1.335753
    10  P    1.545121
    11  H    1.231351
    12  H   -0.904853
 Sum of Mulliken charges =   0.00000

 Dipole moment (field-independent basis, Debye):
    X=              1.6556    Y=             -1.9405    Z=             -1.8976  Tot=              3.1792

 Test job not archived.
 1\1\GINC-SE109\SP\RHF\Aug-CC-pVDZ\C2H6B1O2P1\OHZDE\09-Apr-2025\0\\#t h
 f aug-cc-pvdz iop(5/13=1,5/36=2,99/5=2) pseudo=read geom=check guess=(
 read,tcheck) scf=(maxcycle=1)\\title\\0,1\C,0,1.665574,-0.204112,0.467
 121\B,0,-1.166309,0.269877,0.002536\O,0,-2.489542,-0.053522,0.012952\O
 ,0,-0.848169,1.585287,0.066164\C,0,2.411131,0.630207,-0.26295\H,0,3.24
 7117,1.169949,0.169725\H,0,2.22852,0.789217,-1.322169\H,0,0.104492,1.7
 27468,0.120321\H,0,-2.666535,-0.993142,-0.06891\P,0,0.224567,-1.109784
 ,-0.215199\H,0,1.90858,-0.355619,1.515511\H,0,-0.117665,-1.851192,0.94

 Normal termination of Gaussian 16 at Wed Apr  9 00:44:13 2025.
