 Gaussian 16, Revision C.01,

 ----------------------------------------------------------------------
 #t hf aug-cc-pvdz symm=none int=(grid=ultrafine) guess=(read,tcheck) s
 table=(opt,rrhf)
 ----------------------------------------------------------------------
 -----
 title
 -----
 Symbolic Z-matrix:
 Charge =  0 Multiplicity = 1

 SCF Done:  E(RHF) =  -131.943448076     A.U. after   11 cycles
 Normal termination of Gaussian 16 at Tue Apr  8 23:03:39 2025.
 Gaussian 16:  ES64L-G16RevC.01  3-Jul-2019

 ----------------------------------------------------------------------
 #t hf aug-cc-pvdz iop(5/13=1,5/36=2,99/5=2) pseudo=read geom=check gue
 ss=(read,tcheck) scf=(maxcycle=1)
 ----------------------------------------------------------------------
 -----
 title
 -----
 Structure from the checkpoint file:  "BDE49_expt_298_mol1.chk"
 Charge =  0 Multiplicity = 1

                         Standard orientation:
 ---------------------------------------------------------------------
 Center     Atomic      Atomic             Coordinates (Angstroms)
 Number     Number       Type             X           Y           Z
 ---------------------------------------------------------------------
      1          6           0       -1.175720   -0.000001   -0.000001
      2          6           0        0.280806    0.000004    0.000004
      3          1           0       -1.553403   -0.476393    0.906927
      4          1           0       -1.553387   -0.547233   -0.866034
      5          1           0       -1.553375    1.023628   -0.040902
      6          7           0        1.432807   -0.000003   -0.000001
 ---------------------------------------------------------------------

 SCF Done:  E(RHF) =  -132.555937650     A.U. after    2 cycles

 The electronic state is 1-A.
 Alpha  occ. eigenvalues --  -15.75835 -11.45611 -11.42162  -1.31518  -1.11923
 Alpha  occ. eigenvalues --   -0.69745  -0.62544  -0.62544  -0.51641  -0.43390
 Alpha  occ. eigenvalues --   -0.43390
 Alpha virt. eigenvalues --    0.02087   0.05819   0.05819   0.08257   0.11727
 Alpha virt. eigenvalues --    0.12505   0.12505   0.13041   0.15114   0.15114
 Alpha virt. eigenvalues --    0.19489   0.19489   0.20899   0.24427   0.25709

 Mulliken charges:
               1
     1  C   -3.613088
     2  C    2.110801
     3  H    1.267121
     4  H    1.267118
     5  H    1.267113
     6  N   -2.299064
 Sum of Mulliken charges =  -0.00000

 Dipole moment (field-independent basis, Debye):
    X=             -3.5877    Y=             -0.0000    Z=             -0.0000  Tot=              3.5877

 Test job not archived.
 1\1\GINC-SE070\SP\RHF\Aug-CC-pVDZ\C2H3N1\OHZDE\08-Apr-2025\0\\#t hf au
 g-cc-pvdz iop(5/13=1,5/36=2,99/5=2) pseudo=read geom=check guess=(read
 ,tcheck) scf=(maxcycle=1)\\title\\0,1\C,0,1.17572,0.000001,-0.000001\C
 ,0,-0.280806,-0.000004,0.000004\H,0,1.553403,0.498566,0.894929\H,0,1.5
 53387,0.525756,-0.879238\H,0,1.553375,-1.024324,-0.015701\N,0,-1.43280
 7,0.000003,-0.000001\\Version=ES64L-G16RevC.01\State=1-A\HF=-132.55593
 76\RMSD=1.906e-01\Dipole=1.4115006,0.0000015,-0.0000005\Quadrupole=-1.
 2910588,0.6455422,0.6455166,0.0000255,0.0000034,-0.0000021\PG=C01 [X(C

 Normal termination of Gaussian 16 at Tue Apr  8 23:03:40 2025.
