 Gaussian 16, Revision C.01,

 ----------------------------------------------------------------------
 #t hf aug-cc-pvdz symm=none int=(grid=ultrafine) guess=(read,tcheck) s
 table=(opt,rrhf)
 ----------------------------------------------------------------------
 -----
 title
 -----
 Symbolic Z-matrix:
 Charge =  0 Multiplicity = 1

 SCF Done:  E(RHF) =  -703.133319364     A.U. after   15 cycles
 Normal termination of Gaussian 16 at Tue Apr  8 23:16:25 2025.
 Gaussian 16:  ES64L-G16RevC.01  3-Jul-2019

 ----------------------------------------------------------------------
 #t hf aug-cc-pvdz iop(5/13=1,5/36=2,99/5=2) pseudo=read geom=check gue
 ss=(read,tcheck) scf=(maxcycle=1)
 ----------------------------------------------------------------------
 -----
 title
 -----
 Structure from the checkpoint file:  "BDE49_expt_860_mol1.chk"
 Charge =  0 Multiplicity = 1

                         Standard orientation:
 ---------------------------------------------------------------------
 Center     Atomic      Atomic             Coordinates (Angstroms)
 Number     Number       Type             X           Y           Z
 ---------------------------------------------------------------------
      1          6           0       -1.842537    0.015792    0.005051
      2          6           0       -1.148576   -1.196119   -0.000573
      3          6           0        0.243288   -1.201046   -0.008411
      4          6           0       -1.135331    1.220797   -0.001895
      5          6           0        0.252849    1.207525   -0.012196
      6          6           0        0.956849   -0.001653   -0.004887
      7          1           0       -1.688369    2.152051   -0.004415
      8          1           0        0.800034    2.142114   -0.026739
      9         16           0        2.753837   -0.013731   -0.073656
     10          1           0        2.984538    0.038943    1.251914
     11          1           0       -1.693703   -2.135601   -0.001378
     12          1           0        0.779001   -2.142235   -0.017029
     13          8           0       -3.203931    0.086988    0.012732
     14          1           0       -3.570703   -0.803264    0.011754
 ---------------------------------------------------------------------

 SCF Done:  E(RHF) =  -704.761203633     A.U. after    2 cycles

 The electronic state is 1-A.
 Alpha  occ. eigenvalues --  -75.69138 -21.11352 -13.17264 -13.11840 -13.06021
 Alpha  occ. eigenvalues --  -11.52759 -11.46547 -11.44183 -11.43130 -11.41185
 Alpha  occ. eigenvalues --  -11.37689  -8.03003  -1.76807  -1.34395  -1.15175
 Alpha  occ. eigenvalues --   -1.10706  -1.01962  -0.89133  -0.83866  -0.70812
 Alpha  occ. eigenvalues --   -0.65942  -0.63219  -0.59256  -0.56747  -0.55234
 Alpha  occ. eigenvalues --   -0.51069  -0.48135  -0.44365  -0.42751  -0.38394
 Alpha  occ. eigenvalues --   -0.34420  -0.28018  -0.24545
 Alpha virt. eigenvalues --    0.02920   0.04735   0.04834   0.05690   0.06338
 Alpha virt. eigenvalues --    0.06878   0.08192   0.09906   0.10361   0.11715
 Alpha virt. eigenvalues --    0.12429   0.12607   0.13252   0.13834   0.14204

 Mulliken charges:
               1
     1  C    5.097777
     2  C   -4.058280
     3  C   -1.762425
     4  C   -2.831121
     5  C   -1.968026
     6  C    1.419511
     7  H    1.785888
     8  H    1.836100
     9  S   -0.683601
    10  H    1.135182
    11  H    1.683697
    12  H    1.771459
    13  O   -4.454979
    14  H    1.028818
 Sum of Mulliken charges =  -0.00000

 Dipole moment (field-independent basis, Debye):
    X=             -1.2594    Y=             -0.6258    Z=             -0.8511  Tot=              1.6438

 Test job not archived.
 1\1\GINC-SE071\SP\RHF\Aug-CC-pVDZ\C6H6O1S1\OHZDE\08-Apr-2025\0\\#t hf
 aug-cc-pvdz iop(5/13=1,5/36=2,99/5=2) pseudo=read geom=check guess=(re
 ad,tcheck) scf=(maxcycle=1)\\title\\0,1\C,0,-1.842537,0.015792,0.00505
 1\C,0,-1.148576,-1.196119,-0.000573\C,0,0.243288,-1.201046,-0.008411\C
 ,0,-1.135331,1.220797,-0.001895\C,0,0.252849,1.207525,-0.012196\C,0,0.
 956849,-0.001653,-0.004887\H,0,-1.688369,2.152051,-0.004415\H,0,0.8000
 34,2.142114,-0.026739\S,0,2.753837,-0.013731,-0.073656\H,0,2.984538,0.
 038943,1.251914\H,0,-1.693703,-2.135601,-0.001378\H,0,0.779001,-2.1422

 Normal termination of Gaussian 16 at Tue Apr  8 23:16:31 2025.
