 Gaussian 16, Revision C.01,

 ----------------------------------------------------------------------
 #t hf aug-cc-pvdz symm=none int=(grid=ultrafine) guess=(read,tcheck) s
 table=(opt,rrhf)
 ----------------------------------------------------------------------
 -----
 title
 -----
 Symbolic Z-matrix:
 Charge =  0 Multiplicity = 1

 SCF Done:  E(RHF) =  -420.553762887     A.U. after   11 cycles
 Normal termination of Gaussian 16 at Tue Apr  8 23:28:00 2025.
 Gaussian 16:  ES64L-G16RevC.01  3-Jul-2019

 ----------------------------------------------------------------------
 #t hf aug-cc-pvdz iop(5/13=1,5/36=2,99/5=2) pseudo=read geom=check gue
 ss=(read,tcheck) scf=(maxcycle=1)
 ----------------------------------------------------------------------
 -----
 title
 -----
 Structure from the checkpoint file:  "BDE49_nonexpt_1301_mol1.chk"
 Charge =  0 Multiplicity = 1

                         Standard orientation:
 ---------------------------------------------------------------------
 Center     Atomic      Atomic             Coordinates (Angstroms)
 Number     Number       Type             X           Y           Z
 ---------------------------------------------------------------------
      1         15           0        0.037772   -0.664218    0.000000
      2          6           0        0.037772    0.527759    1.430724
      3          1           0       -0.700979    1.325796    1.326418
      4          1           0        1.030521    0.976036    1.519965
      5          1           0       -0.160887   -0.020774    2.354443
      6          6           0        0.037772    0.527759   -1.430724
      7          1           0       -1.357167   -0.931945   -0.000000
      8          1           0        1.030521    0.976036   -1.519965
      9          1           0       -0.700979    1.325796   -1.326418
     10          1           0       -0.160887   -0.020774   -2.354443
 ---------------------------------------------------------------------

 SCF Done:  E(RHF) =  -421.180737404     A.U. after    2 cycles

 The electronic state is 1-A'.
 Alpha  occ. eigenvalues -- -105.16089 -11.36597 -11.36587  -2.73930  -1.46093
 Alpha  occ. eigenvalues --   -1.44415  -1.42051  -1.03258  -0.96379  -0.66100
 Alpha  occ. eigenvalues --   -0.57158  -0.56269  -0.55270  -0.54473  -0.23700
 Alpha  occ. eigenvalues --   -0.20046  -0.01210
 Alpha virt. eigenvalues --    0.04659   0.05333   0.06271   0.06530   0.07328
 Alpha virt. eigenvalues --    0.07686   0.07711   0.10376   0.11394   0.12381
 Alpha virt. eigenvalues --    0.14871   0.16488   0.17474   0.17550   0.18120

 Mulliken charges:
               1
     1  P    5.041460
     2  C   -5.607162
     3  H    1.089737
     4  H    1.085854
     5  H    1.154091
     6  C   -5.607162
     7  H   -0.486500
     8  H    1.085854
     9  H    1.089737
    10  H    1.154091
 Sum of Mulliken charges =  -0.00000

 Dipole moment (field-independent basis, Debye):
    X=             -0.2111    Y=             -1.5434    Z=              0.0000  Tot=              1.5578

 Test job not archived.
 1\1\GINC-SE403\SP\RHF\Aug-CC-pVDZ\C2H7P1\OHZDE\08-Apr-2025\0\\#t hf au
 g-cc-pvdz iop(5/13=1,5/36=2,99/5=2) pseudo=read geom=check guess=(read
 ,tcheck) scf=(maxcycle=1)\\title\\0,1\P,0,0.037772,-0.664218,0.\C,0,0.
 037772,0.527759,1.430724\H,0,-0.700979,1.325796,1.326418\H,0,1.030521,
 0.976036,1.519965\H,0,-0.160887,-0.020774,2.354443\C,0,0.037772,0.5277
 59,-1.430724\H,0,-1.357167,-0.931945,0.\H,0,1.030521,0.976036,-1.51996
 5\H,0,-0.700979,1.325796,-1.326418\H,0,-0.160887,-0.020774,-2.354443\\
 Version=ES64L-G16RevC.01\State=1-A'\HF=-421.1807374\RMSD=3.074e-01\Dip

 Normal termination of Gaussian 16 at Tue Apr  8 23:28:02 2025.
