 Gaussian 16, Revision C.01,

 ----------------------------------------------------------------------
 #t hf aug-cc-pvdz symm=none int=(grid=ultrafine) guess=(read,tcheck) s
 table=(opt,rrhf)
 ----------------------------------------------------------------------
 -----
 title
 -----
 Symbolic Z-matrix:
 Charge =  0 Multiplicity = 1

 SCF Done:  E(RHF) =  -844.962543359     A.U. after   12 cycles
 Normal termination of Gaussian 16 at Wed Apr  9 00:15:08 2025.
 Gaussian 16:  ES64L-G16RevC.01  3-Jul-2019

 ----------------------------------------------------------------------
 #t hf aug-cc-pvdz iop(5/13=1,5/36=2,99/5=2) pseudo=read geom=check gue
 ss=(read,tcheck) scf=(maxcycle=1)
 ----------------------------------------------------------------------
 -----
 title
 -----
 Structure from the checkpoint file:  "BDE49_nonexpt_2481_mol1.chk"
 Charge =  0 Multiplicity = 1

                         Standard orientation:
 ---------------------------------------------------------------------
 Center     Atomic      Atomic             Coordinates (Angstroms)
 Number     Number       Type             X           Y           Z
 ---------------------------------------------------------------------
      1          6           0        0.054433   -0.990964    0.803034
      2          6           0        1.233858   -0.016328    0.813081
      3          6           0        2.204758   -0.178767   -0.360850
      4          1           0        1.778335   -0.171978    1.754350
      5          1           0        0.861725    1.013857    0.843186
      6          6           0        3.380458    0.800096   -0.300154
      7          1           0        1.660090   -0.042672   -1.300089
      8          1           0        2.584473   -1.208005   -0.370798
      9          1           0        3.032521    1.837422   -0.324690
     10          1           0        4.057936    0.658460   -1.146228
     11          1           0        3.962894    0.668200    0.617239
     12         16           0       -1.128085   -0.794073   -0.616313
     13          1           0       -0.517242   -0.928598    1.730839
     14          1           0        0.408503   -2.020796    0.712118
     15         14           0       -2.359679    0.830045    0.069814
     16          1           0       -3.425154    0.971120   -0.944731
     17          1           0       -1.616544    2.107024    0.186068
     18          1           0       -2.943722    0.516280    1.395691
 ---------------------------------------------------------------------

 SCF Done:  E(RHF) =  -846.182904561     A.U. after    2 cycles

 The electronic state is 1-A.
 Alpha  occ. eigenvalues --  -76.23857 -75.66609 -13.10923 -13.06942 -13.02958
 Alpha  occ. eigenvalues --  -11.43620 -11.40942 -11.38040 -11.34885  -8.00735
 Alpha  occ. eigenvalues --   -5.57157  -2.19457  -2.19237  -2.18970  -1.26520
 Alpha  occ. eigenvalues --   -1.13659  -1.01999  -0.89969  -0.82649  -0.75393
 Alpha  occ. eigenvalues --   -0.64763  -0.61490  -0.58861  -0.55776  -0.52180
 Alpha  occ. eigenvalues --   -0.48964  -0.48362  -0.46979  -0.46105  -0.43627
 Alpha  occ. eigenvalues --   -0.39828  -0.32547  -0.25388
 Alpha virt. eigenvalues --    0.03875   0.04190   0.04525   0.05264   0.05736
 Alpha virt. eigenvalues --    0.06090   0.06267   0.06526   0.07679   0.08359
 Alpha virt. eigenvalues --    0.08748   0.09209   0.10312   0.10592   0.11071

 Mulliken charges:
               1
     1  C   -3.764152
     2  C   -2.168773
     3  C   -3.272176
     4  H    1.332726
     5  H    1.822780
     6  C   -3.816839
     7  H    1.671828
     8  H    1.443075
     9  H    1.330056
    10  H    1.124237
    11  H    1.295803
    12  S   -0.901969
    13  H    1.290067
    14  H    1.618640
    15  Si   6.122994
    16  H   -1.749847
    17  H   -1.663164
    18  H   -1.715286
 Sum of Mulliken charges =  -0.00000

 Dipole moment (field-independent basis, Debye):
    X=              1.1568    Y=             -1.3984    Z=             -0.5084  Tot=              1.8848

 Test job not archived.
 1\1\GINC-SE460\SP\RHF\Aug-CC-pVDZ\C4H12S1Si1\OHZDE\09-Apr-2025\0\\#t h
 f aug-cc-pvdz iop(5/13=1,5/36=2,99/5=2) pseudo=read geom=check guess=(
 read,tcheck) scf=(maxcycle=1)\\title\\0,1\C,0,0.054433,-0.990964,0.803
 034\C,0,1.233858,-0.016328,0.813081\C,0,2.204758,-0.178767,-0.36085\H,
 0,1.778335,-0.171978,1.75435\H,0,0.861725,1.013857,0.843186\C,0,3.3804
 58,0.800096,-0.300154\H,0,1.66009,-0.042672,-1.300089\H,0,2.584473,-1.
 208005,-0.370798\H,0,3.032521,1.837422,-0.32469\H,0,4.057936,0.65846,-
 1.146228\H,0,3.962894,0.6682,0.617239\S,0,-1.128085,-0.794073,-0.61631

 Normal termination of Gaussian 16 at Wed Apr  9 00:15:14 2025.
