 Gaussian 16, Revision C.01,

 ----------------------------------------------------------------------
 #t hf aug-cc-pvdz symm=none int=(grid=ultrafine) guess=(read,tcheck) s
 table=(opt,rrhf)
 ----------------------------------------------------------------------
 -----
 title
 -----
 Symbolic Z-matrix:
 Charge =  0 Multiplicity = 1

 SCF Done:  E(RHF) =  -530.608652643     A.U. after   13 cycles
 Normal termination of Gaussian 16 at Wed Apr  9 00:54:22 2025.
 Gaussian 16:  ES64L-G16RevC.01  3-Jul-2019

 ----------------------------------------------------------------------
 #t hf aug-cc-pvdz iop(5/13=1,5/36=2,99/5=2) pseudo=read geom=check gue
 ss=(read,tcheck) scf=(maxcycle=1)
 ----------------------------------------------------------------------
 -----
 title
 -----
 Structure from the checkpoint file:  "BDE49_nonexpt_990_mol1.chk"
 Charge =  0 Multiplicity = 1

                         Standard orientation:
 ---------------------------------------------------------------------
 Center     Atomic      Atomic             Coordinates (Angstroms)
 Number     Number       Type             X           Y           Z
 ---------------------------------------------------------------------
      1         16           0        1.659353    0.146084    0.000000
      2          7           0        0.000000    0.482857    0.000000
      3          6           0       -0.889696   -0.424312    0.000000
      4          6           0       -2.347406   -0.077638    0.000000
      5          1           0       -0.633212   -1.493266    0.000000
      6          1           0       -2.478477    1.004280    0.000000
      7          1           0       -2.842851   -0.501129    0.880689
      8          1           0       -2.842851   -0.501129   -0.880689
      9          1           0        1.670351   -1.214394    0.000000
 ---------------------------------------------------------------------

 SCF Done:  E(RHF) =  -531.476565944     A.U. after    2 cycles

 The electronic state is 1-A'.
 Alpha  occ. eigenvalues --  -75.71092 -15.76026 -13.18724 -13.11059 -13.02486
 Alpha  occ. eigenvalues --  -11.44895 -11.38463  -8.05016  -1.41031  -1.13975
 Alpha  occ. eigenvalues --   -1.00925  -0.80833  -0.64506  -0.58976  -0.58468
 Alpha  occ. eigenvalues --   -0.53711  -0.46755  -0.42247  -0.37806  -0.23221
 Alpha virt. eigenvalues --    0.03225   0.04317   0.05998   0.06111   0.07073
 Alpha virt. eigenvalues --    0.09093   0.09699   0.11437   0.12076   0.14527
 Alpha virt. eigenvalues --    0.14632   0.15361   0.16267   0.16532   0.18637

 Mulliken charges:
               1
     1  S   -0.108504
     2  N   -2.839984
     3  C    0.270829
     4  C   -3.370865
     5  H    1.532771
     6  H    1.270279
     7  H    1.206360
     8  H    1.206360
     9  H    0.832753
 Sum of Mulliken charges =   0.00000

 Dipole moment (field-independent basis, Debye):
    X=             -0.1187    Y=             -0.4258    Z=             -0.0000  Tot=              0.4421

 Test job not archived.
 1\1\GINC-SE343\SP\RHF\Aug-CC-pVDZ\C2H5N1S1\OHZDE\09-Apr-2025\0\\#t hf
 aug-cc-pvdz iop(5/13=1,5/36=2,99/5=2) pseudo=read geom=check guess=(re
 ad,tcheck) scf=(maxcycle=1)\\title\\0,1\S,0,1.659353,0.146083,0.\N,0,0
 .,0.482857,0.\C,0,-0.889696,-0.424312,0.\C,0,-2.347406,-0.077637,0.\H,
 0,-0.633213,-1.493266,0.\H,0,-2.478477,1.004281,0.\H,0,-2.842851,-0.50
 1128,0.880689\H,0,-2.842851,-0.501128,-0.880689\H,0,1.670351,-1.214395
 ,0.\\Version=ES64L-G16RevC.01\State=1-A'\HF=-531.4765659\RMSD=1.841e-0
 1\Dipole=-0.0466867,-0.1675346,0.\Quadrupole=2.5728293,-0.0375373,-2.5

 Normal termination of Gaussian 16 at Wed Apr  9 00:54:25 2025.
