 Gaussian 16, Revision C.01,

 ----------------------------------------------------------------------
 #t hf aug-cc-pvdz symm=none int=(grid=ultrafine) guess=(read,tcheck) s
 table=opt
 ----------------------------------------------------------------------
 -----
 title
 -----
 Symbolic Z-matrix:
 Charge =  0 Multiplicity = 2

 SCF Done:  E(UHF) =  -324.498541782     A.U. after   20 cycles
 Normal termination of Gaussian 16 at Tue Apr  8 23:05:53 2025.
 Gaussian 16:  ES64L-G16RevC.01  3-Jul-2019

 ----------------------------------------------------------------------
 #t hf aug-cc-pvdz iop(5/13=1,5/36=2,99/5=2) pseudo=read geom=check gue
 ss=(read,tcheck) scf=(maxcycle=1)
 ----------------------------------------------------------------------
 -----
 title
 -----
 Structure from the checkpoint file:  "BDE49_expt_357_mol2.chk"
 Charge =  0 Multiplicity = 2

                         Standard orientation:
 ---------------------------------------------------------------------
 Center     Atomic      Atomic             Coordinates (Angstroms)
 Number     Number       Type             X           Y           Z
 ---------------------------------------------------------------------
      1          7           0       -0.074459   -0.568157   -0.006862
      2          6           0        1.225292   -0.069196   -0.142888
      3          6           0       -1.284376    0.099632   -0.029848
      4          8           0       -1.396335    1.308502   -0.143655
      5          6           0       -2.503227   -0.801955    0.098027
      6          1           0       -2.270621   -1.862397    0.219542
      7          1           0       -3.125664   -0.675101   -0.790867
      8          1           0       -3.092157   -0.470063    0.955692
      9          6           0        2.306474   -1.097128   -0.032683
     10          1           0        2.551689   -1.340361    1.015982
     11          1           0        3.227518   -0.737136   -0.497156
     12          1           0        2.033749   -2.036179   -0.527297
     13          6           0        1.530822    1.366402    0.132138
     14          1           0        2.514364    1.616562   -0.274167
     15          1           0        1.566648    1.571117    1.216248
     16          1           0        0.779128    2.030845   -0.287744
     17          1           0       -0.142674   -1.574737    0.018563
 ---------------------------------------------------------------------

 SCF Done:  E(UHF) =  -326.015527471     A.U. after    2 cycles

 The electronic state is 2-A.
 Alpha  occ. eigenvalues --  -21.02025 -15.77421 -11.50431 -11.42557 -11.39041
 Alpha  occ. eigenvalues --  -11.38490 -11.35471  -1.70237  -1.42117  -1.17686
 Alpha  occ. eigenvalues --   -1.07461  -1.01821  -0.86658  -0.76777  -0.67269
 Alpha  occ. eigenvalues --   -0.63822  -0.62128  -0.59560  -0.57244  -0.54838
 Alpha  occ. eigenvalues --   -0.53811  -0.50439  -0.49620  -0.47807  -0.47163
 Alpha  occ. eigenvalues --   -0.37687  -0.28218  -0.22417
 Alpha virt. eigenvalues --    0.03075   0.04646   0.05310   0.05886   0.06107
 Alpha virt. eigenvalues --    0.06306   0.06750   0.07557   0.08336   0.08925
 Alpha virt. eigenvalues --    0.10319   0.12105   0.12648   0.13019   0.14147

  Beta  occ. eigenvalues --  -21.01668 -15.77544 -11.50442 -11.41013 -11.39063
  Beta  occ. eigenvalues --  -11.38581 -11.35125  -1.69590  -1.40522  -1.15379
  Beta  occ. eigenvalues --   -1.07333  -1.01671  -0.84598  -0.75339  -0.66503
  Beta  occ. eigenvalues --   -0.61497  -0.60921  -0.57262  -0.56971  -0.54218
  Beta  occ. eigenvalues --   -0.52842  -0.49567  -0.48770  -0.47356  -0.46490
  Beta  occ. eigenvalues --   -0.33637  -0.27912
  Beta virt. eigenvalues --    0.03005   0.04619   0.05248   0.05754   0.06117
  Beta virt. eigenvalues --    0.06306   0.06759   0.07563   0.08351   0.08909
  Beta virt. eigenvalues --    0.10170   0.11981   0.12556   0.12995   0.13130

 Mulliken charges and spin densities:
               1          2
     1  N   -3.664827   0.003926
     2  C    2.233185   1.526478
     3  C    5.521855  -0.034887
     4  O   -3.392241   0.108546
     5  C   -4.934618  -0.005403
     6  H    1.439084   0.001547
     7  H    1.256990   0.001753
     8  H    1.231777   0.000984
     9  C   -4.287999  -0.328156
    10  H    1.197084   0.042056
    11  H    1.282445  -0.001046
    12  H    1.302141   0.006029
    13  C   -3.872612  -0.384149
    14  H    1.236213   0.005329
    15  H    1.186792   0.039046
    16  H    1.432869   0.008524
    17  H    0.831863   0.009425
 Sum of Mulliken charges =  -0.00000   1.00000

 Dipole moment (field-independent basis, Debye):
    X=              0.6477    Y=             -2.1916    Z=              0.2418  Tot=              2.2981
                          Isotropic Fermi Contact Couplings
        Atom                 a.u.       MegaHertz       Gauss      10(-4) cm-1
     1  N(14)             -0.02532      -8.18022      -2.91891      -2.72863
     2  C(13)              0.16106     181.05928      64.60645      60.39487
     3  C(13)             -0.00087      -0.97766      -0.34885      -0.32611
     4  O(17)              0.02189     -13.27222      -4.73586      -4.42714
     5  C(13)             -0.00296      -3.32489      -1.18640      -1.10907
     6  H(1)              -0.00003      -0.12077      -0.04310      -0.04029
     7  H(1)               0.00071       3.17259       1.13206       1.05826
     8  H(1)               0.00050       2.25703       0.80537       0.75287

 Normal termination of Gaussian 16 at Tue Apr  8 23:06:00 2025.
