 Gaussian 16, Revision C.01,

 ----------------------------------------------------------------------
 #t hf aug-cc-pvdz symm=none int=(grid=ultrafine) guess=(read,tcheck) s
 table=(opt,rrhf)
 ----------------------------------------------------------------------
 -----
 title
 -----
 Symbolic Z-matrix:
 Charge =  0 Multiplicity = 1

 SCF Done:  E(RHF) =  -1030.51954549     A.U. after   16 cycles
 Normal termination of Gaussian 16 at Wed Apr  9 00:54:32 2025.
 Gaussian 16:  ES64L-G16RevC.01  3-Jul-2019

 ----------------------------------------------------------------------
 #t hf aug-cc-pvdz iop(5/13=1,5/36=2,99/5=2) pseudo=read geom=check gue
 ss=(read,tcheck) scf=(maxcycle=1)
 ----------------------------------------------------------------------
 -----
 title
 -----
 Structure from the checkpoint file:  "BDE49_nonexpt_960_mol1.chk"
 Charge =  0 Multiplicity = 1

                         Standard orientation:
 ---------------------------------------------------------------------
 Center     Atomic      Atomic             Coordinates (Angstroms)
 Number     Number       Type             X           Y           Z
 ---------------------------------------------------------------------
      1          9           0       -1.424537    1.090948    1.567243
      2          9           0       -1.424463   -1.090820    1.567346
      3         16           0       -1.125723   -0.000036   -0.755239
      4          8           0       -1.516042    1.266044   -1.307187
      5          8           0       -1.516028   -1.266155   -1.307107
      6          7           0       -1.977637    0.000013    0.891833
      7          6           0        1.255632    1.221417   -0.203491
      8          6           0        2.611381    1.211636    0.105867
      9          6           0        3.284421    0.000022    0.261144
     10          6           0        2.611394   -1.211609    0.105947
     11          6           0        1.255645   -1.221426   -0.203410
     12          6           0        0.597928   -0.000013   -0.353684
     13          1           0        0.714407    2.148012   -0.338553
     14          1           0        3.141977    2.148814    0.222615
     15          1           0        4.341351    0.000035    0.501405
     16          1           0        3.142000   -2.148774    0.222757
     17          1           0        0.714430   -2.148036   -0.338410
 ---------------------------------------------------------------------

 SCF Done:  E(RHF) =  -1033.42176434     A.U. after    2 cycles

 The electronic state is 1-A.
 Alpha  occ. eigenvalues --  -75.93724 -29.32164 -29.32134 -21.08914 -21.08892
 Alpha  occ. eigenvalues --  -15.91531 -13.57502 -13.46807 -13.39830 -11.56258
 Alpha  occ. eigenvalues --  -11.48062 -11.47940 -11.45843 -11.44550 -11.40915
 Alpha  occ. eigenvalues --   -8.28957  -1.87553  -1.69436  -1.52366  -1.38728
 Alpha  occ. eigenvalues --   -1.16904  -1.13589  -1.01372  -0.91104  -0.88097
 Alpha  occ. eigenvalues --   -0.85191  -0.78095  -0.73534  -0.68029  -0.66994
 Alpha  occ. eigenvalues --   -0.62686  -0.62206  -0.61152  -0.54609  -0.50803
 Alpha  occ. eigenvalues --   -0.50097  -0.49541  -0.47526  -0.44441  -0.43696
 Alpha  occ. eigenvalues --   -0.41829  -0.40753  -0.39761  -0.37957  -0.36778
 Alpha  occ. eigenvalues --   -0.32167  -0.31376  -0.22630  -0.22458
 Alpha virt. eigenvalues --    0.02518   0.04514   0.04597   0.06079   0.06144
 Alpha virt. eigenvalues --    0.06840   0.09217   0.09693   0.10197   0.11566
 Alpha virt. eigenvalues --    0.12267   0.12488   0.12744   0.12825   0.13762

 Mulliken charges:
               1
     1  F   -0.190968
     2  F   -0.190965
     3  S    5.553257
     4  O   -2.799002
     5  O   -2.799005
     6  N   -0.341882
     7  C   -3.054277
     8  C   -0.476865
     9  C   -2.511533
    10  C   -0.476869
    11  C   -3.054317
    12  C    2.164128
    13  H    1.796681
    14  H    1.509825
    15  H    1.565288
    16  H    1.509825
    17  H    1.796679
 Sum of Mulliken charges =  -0.00000

 Dipole moment (field-independent basis, Debye):
    X=              4.9742    Y=              0.0002    Z=              2.9126  Tot=              5.7641

 Test job not archived.
 1\1\GINC-SE396\SP\RHF\Aug-CC-pVDZ\C6H5F2N1O2S1\OHZDE\09-Apr-2025\0\\#t
  hf aug-cc-pvdz iop(5/13=1,5/36=2,99/5=2) pseudo=read geom=check guess
 =(read,tcheck) scf=(maxcycle=1)\\title\\0,1\F,0,-1.424537,1.090948,1.5
 67243\F,0,-1.424463,-1.09082,1.567346\S,0,-1.125723,-0.000036,-0.75523
 9\O,0,-1.516042,1.266044,-1.307187\O,0,-1.516028,-1.266155,-1.307107\N
 ,0,-1.977637,0.000013,0.891833\C,0,1.255632,1.221417,-0.203491\C,0,2.6
 11381,1.211636,0.105867\C,0,3.284421,0.000022,0.261144\C,0,2.611394,-1
 .211609,0.105947\C,0,1.255645,-1.221426,-0.20341\C,0,0.597928,-0.00001

 Normal termination of Gaussian 16 at Wed Apr  9 00:54:43 2025.
