 Gaussian 16, Revision C.01,

 ----------------------------------------------------------------------
 #t hf aug-cc-pvdz symm=none int=(grid=ultrafine) guess=(read,tcheck) s
 table=(opt,rrhf)
 ----------------------------------------------------------------------
 -----
 title
 -----
 Symbolic Z-matrix:
 Charge =  0 Multiplicity = 1

 SCF Done:  E(RHF) =  -369.343574516     A.U. after   10 cycles

 1\1\GINC-SE461\Stability\RHF\Aug-CC-pVDZ\C2H8Si1\OHZDE\08-Apr-2025\0\\
 #t hf aug-cc-pvdz symm=none int=(grid=ultrafine) guess=(read,tcheck) s
 table=(opt,rrhf)\\title\\0,1\Si,0,0.,0.547311,-0.000001\C,0,-1.555794,
 -0.510552,0.000001\H,0,-2.454428,0.112442,-0.000001\H,0,-1.594088,-1.1
 53366,0.884345\H,0,-1.594088,-1.153368,-0.884341\C,0,1.555794,-0.51055
 2,0.\H,0,0.,1.426424,1.19803\H,0,0.,1.426421,-1.198034\H,0,1.594089,-1
 .153365,0.884345\H,0,2.454428,0.112442,-0.000002\H,0,1.594087,-1.15336
 9,-0.884341\\Version=ES64L-G16RevC.01\HF=-369.3435745\RMSD=7.424e-09\D

 Normal termination of Gaussian 16 at Tue Apr  8 22:45:30 2025.
 Gaussian 16:  ES64L-G16RevC.01  3-Jul-2019

 ----------------------------------------------------------------------
 #t hf aug-cc-pvdz iop(5/13=1,5/36=2,99/5=2) pseudo=read geom=check gue
 ss=(read,tcheck) scf=(maxcycle=1)
 ----------------------------------------------------------------------
 -----
 title
 -----
 Structure from the checkpoint file:  "BDE49_expt_1537_mol1.chk"
 Charge =  0 Multiplicity = 1

                         Standard orientation:
 ---------------------------------------------------------------------
 Center     Atomic      Atomic             Coordinates (Angstroms)
 Number     Number       Type             X           Y           Z
 ---------------------------------------------------------------------
      1         14           0        0.000000    0.547311   -0.000001
      2          6           0       -1.555794   -0.510552    0.000001
      3          1           0       -2.454428    0.112442   -0.000001
      4          1           0       -1.594088   -1.153366    0.884345
      5          1           0       -1.594088   -1.153368   -0.884341
      6          6           0        1.555794   -0.510552    0.000000
      7          1           0        0.000000    1.426424    1.198030
      8          1           0        0.000000    1.426421   -1.198034
      9          1           0        1.594089   -1.153365    0.884345
     10          1           0        2.454428    0.112442   -0.000002
     11          1           0        1.594087   -1.153369   -0.884341
 ---------------------------------------------------------------------

 SCF Done:  E(RHF) =  -369.944463432     A.U. after    2 cycles

 The electronic state is 1-A.
 Alpha  occ. eigenvalues --  -76.19730 -11.34448 -11.34374  -5.53443  -2.17306
 Alpha  occ. eigenvalues --   -2.16248  -2.15506  -1.05818  -1.00720  -0.70636
 Alpha  occ. eigenvalues --   -0.56745  -0.56346  -0.54476  -0.54365  -0.44795
 Alpha  occ. eigenvalues --   -0.41950  -0.39623
 Alpha virt. eigenvalues --    0.03339   0.04822   0.05554   0.05884   0.07121
 Alpha virt. eigenvalues --    0.07154   0.07631   0.08253   0.08486   0.09166
 Alpha virt. eigenvalues --    0.12158   0.13820   0.15831   0.15973   0.16960

 Mulliken charges:
               1
     1  Si   5.990322
     2  C   -4.923233
     3  H    1.255460
     4  H    1.271099
     5  H    1.271100
     6  C   -4.923233
     7  H   -1.869587
     8  H   -1.869587
     9  H    1.271099
    10  H    1.255460
    11  H    1.271100
 Sum of Mulliken charges =  -0.00000

 Dipole moment (field-independent basis, Debye):
    X=             -0.0000    Y=             -0.8844    Z=             -0.0000  Tot=              0.8844

 Test job not archived.
 1\1\GINC-SE461\SP\RHF\Aug-CC-pVDZ\C2H8Si1\OHZDE\08-Apr-2025\0\\#t hf a
 ug-cc-pvdz iop(5/13=1,5/36=2,99/5=2) pseudo=read geom=check guess=(rea
 d,tcheck) scf=(maxcycle=1)\\title\\0,1\Si,0,0.,0.547311,-0.000001\C,0,
 -1.555794,-0.510552,0.000001\H,0,-2.454428,0.112442,-0.000001\H,0,-1.5
 94088,-1.153366,0.884345\H,0,-1.594088,-1.153368,-0.884341\C,0,1.55579
 4,-0.510552,0.\H,0,0.,1.426424,1.19803\H,0,0.,1.426421,-1.198034\H,0,1
 .594089,-1.153365,0.884345\H,0,2.454428,0.112442,-0.000002\H,0,1.59408
 7,-1.153369,-0.884341\\Version=ES64L-G16RevC.01\State=1-A\HF=-369.9444

 Normal termination of Gaussian 16 at Tue Apr  8 22:45:33 2025.
