 Gaussian 16, Revision C.01,

 ----------------------------------------------------------------------
 #t hf aug-cc-pvdz symm=none int=(grid=ultrafine) guess=(read,tcheck) s
 table=(opt,rrhf)
 ----------------------------------------------------------------------
 -----
 title
 -----
 Symbolic Z-matrix:
 Charge =  0 Multiplicity = 1

 SCF Done:  E(RHF) =  -409.374145018     A.U. after   12 cycles
 Normal termination of Gaussian 16 at Wed Apr  9 00:31:02 2025.
 Gaussian 16:  ES64L-G16RevC.01  3-Jul-2019

 ----------------------------------------------------------------------
 #t hf aug-cc-pvdz iop(5/13=1,5/36=2,99/5=2) pseudo=read geom=check gue
 ss=(read,tcheck) scf=(maxcycle=1)
 ----------------------------------------------------------------------
 -----
 title
 -----
 Structure from the checkpoint file:  "BDE49_nonexpt_333_mol1.chk"
 Charge =  0 Multiplicity = 1

                         Standard orientation:
 ---------------------------------------------------------------------
 Center     Atomic      Atomic             Coordinates (Angstroms)
 Number     Number       Type             X           Y           Z
 ---------------------------------------------------------------------
      1          6           0       -1.851275   -1.322756   -0.031520
      2          6           0       -0.355403   -1.219841   -0.360921
      3          6           0       -2.587185   -0.006195   -0.317034
      4          1           0       -1.966838   -1.578060    1.029866
      5          1           0       -2.306707   -2.140623   -0.600061
      6          6           0       -1.931526    1.174555    0.412373
      7          1           0       -3.640529   -0.088759   -0.029799
      8          1           0       -2.574008    0.186529   -1.398006
      9          6           0       -0.433234    1.278179    0.088465
     10          1           0       -2.052315    1.042095    1.495183
     11          1           0       -2.439780    2.109625    0.154086
     12          6           0        0.323239   -0.035867    0.373508
     13          1           0        0.006866    2.104792    0.659929
     14          1           0       -0.325694    1.537786   -0.975795
     15          1           0       -0.237724   -1.088202   -1.445661
     16          1           0        0.156996   -2.151240   -0.106377
     17          5           0        1.876061    0.016724    0.065707
     18          1           0        0.234410   -0.242914    1.451765
     19          8           0        2.519959    1.088919   -0.502037
     20          8           0        2.640091   -1.072207    0.377938
     21          1           0        3.565234   -0.937705    0.145102
     22          1           0        1.931689    1.820911   -0.705204
 ---------------------------------------------------------------------

 SCF Done:  E(RHF) =  -411.302986018     A.U. after    2 cycles

 The electronic state is 1-A.
 Alpha  occ. eigenvalues --  -21.05604 -21.04546 -11.43716 -11.42439 -11.41562
 Alpha  occ. eigenvalues --  -11.37563 -11.36218 -11.33096  -7.62700  -1.81262
 Alpha  occ. eigenvalues --   -1.64717  -1.31058  -1.10568  -1.09751  -0.89428
 Alpha  occ. eigenvalues --   -0.87981  -0.78748  -0.73301  -0.66454  -0.62548
 Alpha  occ. eigenvalues --   -0.61232  -0.60700  -0.59833  -0.54271  -0.52079
 Alpha  occ. eigenvalues --   -0.49375  -0.47611  -0.46540  -0.44917  -0.44497
 Alpha  occ. eigenvalues --   -0.43559  -0.40788  -0.37384  -0.35809  -0.33223
 Alpha virt. eigenvalues --    0.03758   0.04784   0.04939   0.05044   0.05601
 Alpha virt. eigenvalues --    0.05749   0.05788   0.06044   0.06400   0.08206
 Alpha virt. eigenvalues --    0.08627   0.08789   0.08984   0.09468   0.09716

 Mulliken charges:
               1
     1  C   -3.069003
     2  C   -2.447832
     3  C   -2.839789
     4  H    1.378011
     5  H    1.248589
     6  C   -3.029327
     7  H    1.342977
     8  H    1.404848
     9  C   -2.833404
    10  H    1.316085
    11  H    1.193759
    12  C   -2.347810
    13  H    1.150836
    14  H    1.216211
    15  H    1.210293
    16  H    1.540912
    17  B    7.477423
    18  H    2.133439
    19  O   -4.246771
    20  O   -4.466288
    21  H    1.082574
    22  H    1.584268
 Sum of Mulliken charges =   0.00000

 Dipole moment (field-independent basis, Debye):
    X=             -0.4185    Y=              0.6740    Z=             -0.2160  Tot=              0.8223

 Test job not archived.
 1\1\GINC-SE462\SP\RHF\Aug-CC-pVDZ\C6H13B1O2\OHZDE\09-Apr-2025\0\\#t hf
  aug-cc-pvdz iop(5/13=1,5/36=2,99/5=2) pseudo=read geom=check guess=(r
 ead,tcheck) scf=(maxcycle=1)\\title\\0,1\C,0,-1.851275,-1.322756,-0.03
 152\C,0,-0.355403,-1.219841,-0.360921\C,0,-2.587185,-0.006195,-0.31703
 4\H,0,-1.966838,-1.57806,1.029866\H,0,-2.306707,-2.140623,-0.600061\C,
 0,-1.931526,1.174555,0.412373\H,0,-3.640529,-0.088759,-0.029799\H,0,-2
 .574008,0.186529,-1.398006\C,0,-0.433234,1.278179,0.088465\H,0,-2.0523
 15,1.042095,1.495183\H,0,-2.43978,2.109625,0.154086\C,0,0.323239,-0.03

 Normal termination of Gaussian 16 at Wed Apr  9 00:31:12 2025.
