 Gaussian 16, Revision C.01,

 ----------------------------------------------------------------------
 #t hf aug-cc-pvdz symm=none int=(grid=ultrafine) guess=(read,tcheck) s
 table=opt
 ----------------------------------------------------------------------
 -----
 title
 -----
 Symbolic Z-matrix:
 Charge =  0 Multiplicity = 2

 SCF Done:  E(UHF) =  -280.864061414     A.U. after   16 cycles
 Normal termination of Gaussian 16 at Wed Apr  9 00:32:46 2025.
 Gaussian 16:  ES64L-G16RevC.01  3-Jul-2019

 ----------------------------------------------------------------------
 #t hf aug-cc-pvdz iop(5/13=1,5/36=2,99/5=2) pseudo=read geom=check gue
 ss=(read,tcheck) scf=(maxcycle=1)
 ----------------------------------------------------------------------
 -----
 title
 -----
 Structure from the checkpoint file:  "BDE49_nonexpt_371_mol2.chk"
 Charge =  0 Multiplicity = 2

                         Standard orientation:
 ---------------------------------------------------------------------
 Center     Atomic      Atomic             Coordinates (Angstroms)
 Number     Number       Type             X           Y           Z
 ---------------------------------------------------------------------
      1          9           0        2.094320   -1.173432    0.050132
      2          5           0        0.916251   -0.800480   -0.413587
      3          6           0        0.075993    0.352608    0.249369
      4          6           0       -1.383401    0.426705   -0.230435
      5          6           0        0.832019    1.685822    0.020280
      6          1           0        0.886488    1.933342   -1.044073
      7          1           0        1.852260    1.645146    0.409302
      8          1           0        0.311442    2.505773    0.523396
      9          1           0        0.082756    0.147862    1.332980
     10          6           0       -2.202764   -0.820568    0.110655
     11          1           0       -1.393974    0.585859   -1.314863
     12          1           0       -1.859437    1.308885    0.214371
     13          1           0       -1.770511   -1.714055   -0.351229
     14          1           0       -3.232622   -0.728948   -0.244338
     15          1           0       -2.237626   -0.987982    1.191985
 ---------------------------------------------------------------------

 SCF Done:  E(UHF) =  -282.109493402     A.U. after    2 cycles

 The electronic state is 2-A.
 Alpha  occ. eigenvalues --  -29.25524 -11.41736 -11.39926 -11.37333 -11.34309
 Alpha  occ. eigenvalues --   -7.66735  -1.26826  -1.09269  -0.97745  -0.91242
 Alpha  occ. eigenvalues --   -0.80705  -0.66043  -0.59866  -0.58464  -0.57535
 Alpha  occ. eigenvalues --   -0.51853  -0.50187  -0.47800  -0.47077  -0.46107
 Alpha  occ. eigenvalues --   -0.43762  -0.40374  -0.35895  -0.20410
 Alpha virt. eigenvalues --    0.03905   0.04100   0.04407   0.05321   0.06202
 Alpha virt. eigenvalues --    0.06418   0.06915   0.07135   0.07856   0.08586
 Alpha virt. eigenvalues --    0.09427   0.10356   0.12885   0.13431   0.14125

  Beta  occ. eigenvalues --  -29.25220 -11.41668 -11.39863 -11.37278 -11.34177
  Beta  occ. eigenvalues --   -7.64940  -1.26115  -1.08895  -0.95551  -0.90653
  Beta  occ. eigenvalues --   -0.79508  -0.65362  -0.59164  -0.58385  -0.57352
  Beta  occ. eigenvalues --   -0.51642  -0.49731  -0.46595  -0.46390  -0.43595
  Beta  occ. eigenvalues --   -0.40276  -0.39838  -0.33285
  Beta virt. eigenvalues --    0.03607   0.04046   0.04501   0.05337   0.06198
  Beta virt. eigenvalues --    0.06249   0.06919   0.07076   0.07526   0.08646
  Beta virt. eigenvalues --    0.09036   0.09739   0.12220   0.13315   0.13668

 Mulliken charges and spin densities:
               1          2
     1  F   -0.769830  -0.120406
     2  B    0.875612   1.120182
     3  C   -1.322357   0.086488
     4  C   -2.604523  -0.142668
     5  C   -4.316938   0.055982
     6  H    1.238926   0.012607
     7  H    1.176827   0.005742
     8  H    1.271483   0.001429
     9  H    1.464753   0.004564
    10  C   -3.828409   0.008731
    11  H    1.556242  -0.022649
    12  H    1.399802  -0.012559
    13  H    1.481458  -0.000294
    14  H    1.059227   0.002395
    15  H    1.317725   0.000456
 Sum of Mulliken charges =   0.00000   1.00000

 Dipole moment (field-independent basis, Debye):
    X=              2.5733    Y=             -0.2156    Z=              1.6674  Tot=              3.0738
                          Isotropic Fermi Contact Couplings
        Atom                 a.u.       MegaHertz       Gauss      10(-4) cm-1
     1  F(19)              0.05883     247.52700      88.32379      82.56612
     2  B(11)              0.16617     238.34377      85.04698      79.50292
     3  C(13)              0.07074      79.51998      28.37471      26.52501
     4  C(13)              0.00578       6.49741       2.31844       2.16730
     5  C(13)             -0.00137      -1.54163      -0.55009      -0.51423
     6  H(1)              -0.00028      -1.22995      -0.43888      -0.41027
     7  H(1)              -0.00004      -0.17237      -0.06150      -0.05750
     8  H(1)               0.00075       3.36423       1.20044       1.12219

 Normal termination of Gaussian 16 at Wed Apr  9 00:32:56 2025.
