 Gaussian 16, Revision C.01,

 ----------------------------------------------------------------------
 #t hf aug-cc-pvdz symm=none int=(grid=ultrafine) guess=(read,tcheck) s
 table=(opt,rrhf)
 ----------------------------------------------------------------------
 -----
 title
 -----
 Symbolic Z-matrix:
 Charge =  0 Multiplicity = 1

 SCF Done:  E(RHF) =  -803.541924721     A.U. after   17 cycles
 Normal termination of Gaussian 16 at Tue Apr  8 22:43:44 2025.
 Gaussian 16:  ES64L-G16RevC.01  3-Jul-2019

 ----------------------------------------------------------------------
 #t hf aug-cc-pvdz iop(5/13=1,5/36=2,99/5=2) pseudo=read geom=check gue
 ss=(read,tcheck) scf=(maxcycle=1)
 ----------------------------------------------------------------------
 -----
 title
 -----
 Structure from the checkpoint file:  "BDE49_expt_1402_mol1.chk"
 Charge =  0 Multiplicity = 1

                         Standard orientation:
 ---------------------------------------------------------------------
 Center     Atomic      Atomic             Coordinates (Angstroms)
 Number     Number       Type             X           Y           Z
 ---------------------------------------------------------------------
      1          6           0        2.304945   -0.934502   -0.000006
      2          6           0        1.855194    0.385285   -0.000005
      3          6           0        0.495456    0.658106   -0.000002
      4          6           0        1.380032   -1.971190   -0.000005
      5          6           0        0.011996   -1.701065   -0.000002
      6          6           0       -0.451939   -0.381953    0.000000
      7          1           0        3.368112   -1.141156   -0.000008
      8          1           0        2.554847    1.211436   -0.000006
      9         17           0       -0.054486    2.319423    0.000000
     10          1           0        1.714967   -3.001949   -0.000006
     11          1           0       -0.692613   -2.521542   -0.000001
     12          8           0       -1.757920   -0.022257    0.000002
     13          6           0       -2.746405   -1.043321    0.000012
     14          1           0       -3.703104   -0.524418    0.000018
     15          1           0       -2.674128   -1.671336    0.894704
     16          1           0       -2.674142   -1.671339   -0.894679
 ---------------------------------------------------------------------

 SCF Done:  E(RHF) =  -805.393256142     A.U. after    2 cycles

 The electronic state is 1-A.
 Alpha  occ. eigenvalues --  -99.88605 -21.08271 -11.53950 -11.47597 -11.45497
 Alpha  occ. eigenvalues --  -11.42986 -11.42299 -11.41554 -11.37660 -10.45960
 Alpha  occ. eigenvalues --   -9.65997  -9.65188  -9.64903  -1.80096  -1.37897
 Alpha  occ. eigenvalues --   -1.27379  -1.10065  -1.08774  -0.99757  -0.87932
 Alpha  occ. eigenvalues --   -0.84754  -0.71939  -0.66781  -0.65160  -0.63428
 Alpha  occ. eigenvalues --   -0.61805  -0.59468  -0.57348  -0.55268  -0.51232
 Alpha  occ. eigenvalues --   -0.49954  -0.49033  -0.45533  -0.42045  -0.39952
 Alpha  occ. eigenvalues --   -0.33977  -0.27230
 Alpha virt. eigenvalues --    0.03105   0.04808   0.05110   0.05675   0.06108
 Alpha virt. eigenvalues --    0.06737   0.08194   0.08609   0.09244   0.10112
 Alpha virt. eigenvalues --    0.11904   0.12376   0.12672   0.13173   0.13699

 Mulliken charges:
               1
     1  C   -0.839926
     2  C   -1.291672
     3  C   -2.819170
     4  C   -1.151758
     5  C   -2.304607
     6  C    6.229075
     7  H    1.549920
     8  H    1.765353
     9  Cl  -0.727922
    10  H    1.538112
    11  H    1.866733
    12  O   -4.547258
    13  C   -3.485661
    14  H    1.477809
    15  H    1.370485
    16  H    1.370487
 Sum of Mulliken charges =  -0.00000

 Dipole moment (field-independent basis, Debye):
    X=             -0.5644    Y=             -2.6225    Z=              0.0000  Tot=              2.6825

 Test job not archived.
 1\1\GINC-SE059\SP\RHF\Aug-CC-pVDZ\C7H7Cl1O1\OHZDE\08-Apr-2025\0\\#t hf
  aug-cc-pvdz iop(5/13=1,5/36=2,99/5=2) pseudo=read geom=check guess=(r
 ead,tcheck) scf=(maxcycle=1)\\title\\0,1\C,0,2.304946,-0.934501,-0.000
 006\C,0,1.855194,0.385286,-0.000005\C,0,0.495456,0.658106,-0.000002\C,
 0,1.380033,-1.971189,-0.000005\C,0,0.011997,-1.701065,-0.000002\C,0,-0
 .451939,-0.381953,0.\H,0,3.368113,-1.141154,-0.000008\H,0,2.554846,1.2
 11437,-0.000006\Cl,0,-0.054487,2.319423,0.\H,0,1.714969,-3.001948,-0.0
 00006\H,0,-0.692611,-2.521543,-0.000001\O,0,-1.75792,-0.022258,0.00000

 Normal termination of Gaussian 16 at Tue Apr  8 22:43:52 2025.
