 Gaussian 16, Revision C.01,

 ----------------------------------------------------------------------
 #t hf aug-cc-pvdz symm=none int=(grid=ultrafine) guess=(read,tcheck) s
 table=(opt,rrhf)
 ----------------------------------------------------------------------
 -----
 title
 -----
 Symbolic Z-matrix:
 Charge =  0 Multiplicity = 1

 SCF Done:  E(RHF) =  -1069.19136312     A.U. after   14 cycles
 Normal termination of Gaussian 16 at Wed Apr  9 00:22:09 2025.
 Gaussian 16:  ES64L-G16RevC.01  3-Jul-2019

 ----------------------------------------------------------------------
 #t hf aug-cc-pvdz iop(5/13=1,5/36=2,99/5=2) pseudo=read geom=check gue
 ss=(read,tcheck) scf=(maxcycle=1)
 ----------------------------------------------------------------------
 -----
 title
 -----
 Structure from the checkpoint file:  "BDE49_nonexpt_2649_mol1.chk"
 Charge =  0 Multiplicity = 1

                         Standard orientation:
 ---------------------------------------------------------------------
 Center     Atomic      Atomic             Coordinates (Angstroms)
 Number     Number       Type             X           Y           Z
 ---------------------------------------------------------------------
      1          9           0       -2.290400    0.123040    0.000154
      2         16           0       -0.891175   -0.748928   -0.000170
      3          6           0        0.280266    0.541128   -0.000057
      4          8           0        0.167503    1.710468   -0.000043
      5         17           0        1.873575   -0.356178    0.000119
 ---------------------------------------------------------------------

 SCF Done:  E(RHF) =  -1070.45424267     A.U. after    2 cycles

 The electronic state is 1-A.
 Alpha  occ. eigenvalues --  -99.93720 -75.82085 -29.31519 -21.13625 -13.27130
 Alpha  occ. eigenvalues --  -13.22547 -13.12370 -11.58725 -10.50962  -9.70743
 Alpha  occ. eigenvalues --   -9.70098  -9.69979  -8.16261  -1.79304  -1.37512
 Alpha  occ. eigenvalues --   -1.26888  -0.90382  -0.71401  -0.66447  -0.62851
 Alpha  occ. eigenvalues --   -0.58942  -0.53876  -0.51103  -0.43852  -0.38472
 Alpha  occ. eigenvalues --   -0.36396  -0.32940  -0.23070
 Alpha virt. eigenvalues --    0.04457   0.06451   0.06919   0.08709   0.10451
 Alpha virt. eigenvalues --    0.11654   0.12757   0.12948   0.14434   0.16172
 Alpha virt. eigenvalues --    0.16212   0.16910   0.19432   0.21047   0.25031

 Mulliken charges:
               1
     1  F   -0.107872
     2  S    1.728484
     3  C    0.322353
     4  O   -2.015699
     5  Cl   0.072735
 Sum of Mulliken charges =  -0.00000

 Dipole moment (field-independent basis, Debye):
    X=             -6.0212    Y=              0.2323    Z=              0.0002  Tot=              6.0256

 Test job not archived.
 1\1\GINC-SE132\SP\RHF\Aug-CC-pVDZ\C1Cl1F1O1S1\OHZDE\09-Apr-2025\0\\#t
 hf aug-cc-pvdz iop(5/13=1,5/36=2,99/5=2) pseudo=read geom=check guess=
 (read,tcheck) scf=(maxcycle=1)\\title\\0,1\F,0,-2.2904,0.123041,0.0001
 54\S,0,-0.891175,-0.748928,-0.00017\C,0,0.280266,0.541128,-0.000057\O,
 0,0.167503,1.710468,-0.000043\Cl,0,1.873575,-0.356178,0.000119\\Versio
 n=ES64L-G16RevC.01\State=1-A\HF=-1070.4542427\RMSD=7.338e-02\Dipole=-2
 .3689102,0.0914074,0.0000674\Quadrupole=3.6041537,-0.7089418,-2.895211
 9,0.6775461,-0.0003783,0.0003389\PG=C01 [X(C1Cl1F1O1S1)]\\@

 Normal termination of Gaussian 16 at Wed Apr  9 00:22:11 2025.
