 Gaussian 16, Revision C.01,

 ----------------------------------------------------------------------
 #t hf aug-cc-pvdz symm=none int=(grid=ultrafine) guess=(read,tcheck) s
 table=(opt,rrhf)
 ----------------------------------------------------------------------
 -----
 title
 -----
 Symbolic Z-matrix:
 Charge =  0 Multiplicity = 1

 SCF Done:  E(RHF) =  -1216.48559023     A.U. after   13 cycles
 Normal termination of Gaussian 16 at Wed Apr  9 00:21:49 2025.
 Gaussian 16:  ES64L-G16RevC.01  3-Jul-2019

 ----------------------------------------------------------------------
 #t hf aug-cc-pvdz iop(5/13=1,5/36=2,99/5=2) pseudo=read geom=check gue
 ss=(read,tcheck) scf=(maxcycle=1)
 ----------------------------------------------------------------------
 -----
 title
 -----
 Structure from the checkpoint file:  "BDE49_nonexpt_256_mol1.chk"
 Charge =  0 Multiplicity = 1

                         Standard orientation:
 ---------------------------------------------------------------------
 Center     Atomic      Atomic             Coordinates (Angstroms)
 Number     Number       Type             X           Y           Z
 ---------------------------------------------------------------------
      1          6           0        1.901264   -1.162313   -0.828681
      2          6           0        3.264948   -0.457121   -0.841466
      3          6           0        3.602190    0.144142    0.529757
      4          6           0        2.484005    1.073941    1.019971
      5          6           0        1.122152    0.364905    1.027314
      6          6           0       -0.581840   -0.974596   -0.312507
      7          6           0        0.770064   -0.234970   -0.347090
      8          5           0       -1.886506   -0.139633   -0.121680
      9         17           0       -2.048541    1.515674   -0.725583
     10         17           0       -3.314894   -0.856352    0.639518
     11          1           0        1.950958   -2.036737   -0.165386
     12          1           0        1.665521   -1.544519   -1.828287
     13          1           0        3.249743    0.343242   -1.592465
     14          1           0        4.046103   -1.158514   -1.151886
     15          1           0        4.552431    0.685631    0.483196
     16          1           0        3.740866   -0.667664    1.255644
     17          1           0        2.429291    1.951494    0.363198
     18          1           0        2.714402    1.450431    2.021746
     19          1           0        0.341015    1.064168    1.345136
     20          1           0        1.138738   -0.443831    1.770985
     21          1           0       -0.552976   -1.782518    0.427899
     22          1           0       -0.733227   -1.488081   -1.278406
     23          1           0        0.691354    0.592667   -1.063652
 ---------------------------------------------------------------------

 SCF Done:  E(RHF) =  -1218.49098199     A.U. after    2 cycles

 The electronic state is 1-A.
 Alpha  occ. eigenvalues --  -99.89586 -99.89522 -11.44052 -11.43818 -11.42207
 Alpha  occ. eigenvalues --  -11.40025 -11.37865 -11.36605 -11.33911 -10.46984
 Alpha  occ. eigenvalues --  -10.46724  -9.66964  -9.66767  -9.66540  -9.66365
 Alpha  occ. eigenvalues --   -9.66312  -9.66153  -7.70950  -1.40330  -1.32474
 Alpha  occ. eigenvalues --   -1.29198  -1.15590  -1.10309  -1.01959  -0.88506
 Alpha  occ. eigenvalues --   -0.86598  -0.78519  -0.77508  -0.66853  -0.63742
 Alpha  occ. eigenvalues --   -0.62810  -0.62263  -0.61007  -0.59730  -0.57371
 Alpha  occ. eigenvalues --   -0.54074  -0.52736  -0.51966  -0.51097  -0.49333
 Alpha  occ. eigenvalues --   -0.48733  -0.46908  -0.45843  -0.44156  -0.43841
 Alpha  occ. eigenvalues --   -0.38517  -0.37728
 Alpha virt. eigenvalues --    0.03590   0.04020   0.04126   0.04190   0.05119
 Alpha virt. eigenvalues --    0.05397   0.05546   0.05645   0.06218   0.07031
 Alpha virt. eigenvalues --    0.07817   0.08443   0.08569   0.09248   0.09615

 Mulliken charges:
               1
     1  C   -2.951603
     2  C   -3.111131
     3  C   -2.652667
     4  C   -2.977153
     5  C   -3.598392
     6  C   -4.629856
     7  C    0.649646
     8  B    3.074697
     9  Cl  -1.373889
    10  Cl  -1.642142
    11  H    1.363699
    12  H    1.452424
    13  H    1.415918
    14  H    1.293533
    15  H    1.350134
    16  H    1.377958
    17  H    1.402409
    18  H    1.239535
    19  H    1.434736
    20  H    1.430318
    21  H    1.754879
    22  H    1.747708
    23  H    1.949240
 Sum of Mulliken charges =  -0.00000

 Dipole moment (field-independent basis, Debye):
    X=              1.8990    Y=             -0.5849    Z=             -0.2627  Tot=              2.0043

 Test job not archived.
 1\1\GINC-SE284\SP\RHF\Aug-CC-pVDZ\C7H13B1Cl2\OHZDE\09-Apr-2025\0\\#t h
 f aug-cc-pvdz iop(5/13=1,5/36=2,99/5=2) pseudo=read geom=check guess=(
 read,tcheck) scf=(maxcycle=1)\\title\\0,1\C,0,1.901264,-1.162313,-0.82
 8681\C,0,3.264948,-0.457121,-0.841466\C,0,3.60219,0.144142,0.529757\C,
 0,2.484005,1.073941,1.019971\C,0,1.122152,0.364905,1.027314\C,0,-0.581
 84,-0.974596,-0.312507\C,0,0.770064,-0.23497,-0.34709\B,0,-1.886506,-0
 .139633,-0.12168\Cl,0,-2.048541,1.515674,-0.725583\Cl,0,-3.314894,-0.8
 56352,0.639518\H,0,1.950958,-2.036737,-0.165386\H,0,1.665521,-1.544519

 Normal termination of Gaussian 16 at Wed Apr  9 00:22:05 2025.
