 Gaussian 16, Revision C.01,

 ----------------------------------------------------------------------
 #t hf aug-cc-pvdz symm=none int=(grid=ultrafine) guess=(read,tcheck) s
 table=opt
 ----------------------------------------------------------------------
 -----
 title
 -----
 Symbolic Z-matrix:
 Charge =  0 Multiplicity = 2

 SCF Done:  E(UHF) =  -204.026346646     A.U. after   18 cycles
 Normal termination of Gaussian 16 at Tue Apr  8 23:36:20 2025.
 Gaussian 16:  ES64L-G16RevC.01  3-Jul-2019

 ----------------------------------------------------------------------
 #t hf aug-cc-pvdz iop(5/13=1,5/36=2,99/5=2) pseudo=read geom=check gue
 ss=(read,tcheck) scf=(maxcycle=1)
 ----------------------------------------------------------------------
 -----
 title
 -----
 Structure from the checkpoint file:  "BDE49_nonexpt_148_mol2.chk"
 Charge =  0 Multiplicity = 2

                         Standard orientation:
 ---------------------------------------------------------------------
 Center     Atomic      Atomic             Coordinates (Angstroms)
 Number     Number       Type             X           Y           Z
 ---------------------------------------------------------------------
      1          5           0        0.552036    1.730146   -0.000017
      2          5           0        0.472421    0.119591   -0.000118
      3          8           0       -0.646978   -0.668879   -0.000135
      4          6           0        1.874418   -0.633560   -0.000277
      5          1           0        2.754143    0.016360   -0.000728
      6          1           0        1.939840   -1.281940   -0.881966
      7          1           0        1.940357   -1.281368    0.881796
      8          6           0       -1.948581   -0.095132    0.000409
      9          1           0       -2.675268   -0.908441   -0.003291
     10          1           0       -2.106825    0.523031   -0.890572
     11          1           0       -2.108744    0.516633    0.895422
     12          1           0        0.755016    2.890227    0.000305
 ---------------------------------------------------------------------

 SCF Done:  E(UHF) =  -204.954376535     A.U. after    2 cycles

 The electronic state is 2-A.
 Alpha  occ. eigenvalues --  -21.02216 -11.40630 -11.32516  -7.62766  -7.59113
 Alpha  occ. eigenvalues --   -1.76042  -1.07967  -0.97430  -0.84038  -0.66123
 Alpha  occ. eigenvalues --   -0.61208  -0.60225  -0.56789  -0.54130  -0.50139
 Alpha  occ. eigenvalues --   -0.43207  -0.38917  -0.35005  -0.26916
 Alpha virt. eigenvalues --    0.01670   0.02739   0.03802   0.04019   0.06736
 Alpha virt. eigenvalues --    0.07369   0.07912   0.08191   0.08749   0.09357
 Alpha virt. eigenvalues --    0.09864   0.10416   0.11033   0.11713   0.12759

  Beta  occ. eigenvalues --  -21.02063 -11.40640 -11.32558  -7.61596  -7.59153
  Beta  occ. eigenvalues --   -1.75702  -1.07486  -0.97397  -0.78670  -0.65323
  Beta  occ. eigenvalues --   -0.60866  -0.60191  -0.56635  -0.53688  -0.49908
  Beta  occ. eigenvalues --   -0.43149  -0.36757  -0.34366
  Beta virt. eigenvalues --    0.01923   0.02682   0.02791   0.03871   0.06873
  Beta virt. eigenvalues --    0.06991   0.07726   0.07985   0.08373   0.08779
  Beta virt. eigenvalues --    0.09943   0.10041   0.11397   0.11872   0.11950

 Mulliken charges and spin densities:
               1          2
     1  B   -0.976430   0.878653
     2  B    6.652970   0.174776
     3  O   -3.713643   0.043331
     4  C   -5.722696  -0.027412
     5  H    1.335826  -0.006538
     6  H    0.888223   0.013321
     7  H    0.887776   0.013342
     8  C   -2.515476   0.005249
     9  H    1.292516  -0.004014
    10  H    1.480141  -0.010142
    11  H    1.480404  -0.010217
    12  H   -1.089613  -0.070350
 Sum of Mulliken charges =   0.00000   1.00000

 Dipole moment (field-independent basis, Debye):
    X=             -0.6642    Y=              0.3811    Z=              0.0007  Tot=              0.7657
                          Isotropic Fermi Contact Couplings
        Atom                 a.u.       MegaHertz       Gauss      10(-4) cm-1
     1  B(11)              0.04595      65.91590      23.52043      21.98718
     2  B(11)             -0.01702     -24.41646      -8.71240      -8.14446
     3  O(17)              0.01063      -6.44326      -2.29912      -2.14924
     4  C(13)             -0.00678      -7.62289      -2.72004      -2.54272
     5  H(1)              -0.00017      -0.77798      -0.27760      -0.25950
     6  H(1)               0.00242      10.83703       3.86692       3.61484
     7  H(1)               0.00243      10.84147       3.86851       3.61633
     8  C(13)             -0.00227      -2.55095      -0.91024      -0.85091

 Normal termination of Gaussian 16 at Tue Apr  8 23:36:24 2025.
