 Gaussian 16, Revision C.01,

 ----------------------------------------------------------------------
 #t hf aug-cc-pvdz symm=none int=(grid=ultrafine) guess=(read,tcheck) s
 table=(opt,rrhf)
 ----------------------------------------------------------------------
 -----
 title
 -----
 Symbolic Z-matrix:
 Charge =  0 Multiplicity = 1

 SCF Done:  E(RHF) =  -461.797108060     A.U. after   13 cycles
 Normal termination of Gaussian 16 at Wed Apr  9 00:43:26 2025.
 Gaussian 16:  ES64L-G16RevC.01  3-Jul-2019

 ----------------------------------------------------------------------
 #t hf aug-cc-pvdz iop(5/13=1,5/36=2,99/5=2) pseudo=read geom=check gue
 ss=(read,tcheck) scf=(maxcycle=1)
 ----------------------------------------------------------------------
 -----
 title
 -----
 Structure from the checkpoint file:  "BDE49_nonexpt_724_mol1.chk"
 Charge =  0 Multiplicity = 1

                         Standard orientation:
 ---------------------------------------------------------------------
 Center     Atomic      Atomic             Coordinates (Angstroms)
 Number     Number       Type             X           Y           Z
 ---------------------------------------------------------------------
      1         15           0        0.734010   -0.592262   -0.097933
      2          6           0       -0.996207   -0.301331    0.512888
      3          5           0        1.801902    0.889551    0.123016
      4          7           0       -1.785952    0.513711   -0.405539
      5          1           0       -0.876061    0.101574    1.531020
      6          1           0       -1.480536   -1.276153    0.612206
      7          1           0       -1.405772    1.452675   -0.466325
      8          1           0       -2.746124    0.588306   -0.081089
      9          1           0        2.737535    1.042598   -0.594806
     10          1           0        1.658558    1.571583    1.089211
     11          1           0        0.571647   -0.832397   -1.474863
 ---------------------------------------------------------------------

 SCF Done:  E(RHF) =  -462.582782027     A.U. after    2 cycles

 The electronic state is 1-A.
 Alpha  occ. eigenvalues -- -105.15278 -15.74132 -11.40046  -7.61445  -2.73870
 Alpha  occ. eigenvalues --   -1.52930  -1.46685  -1.40879  -1.31074  -0.94961
 Alpha  occ. eigenvalues --   -0.81588  -0.67477  -0.62784  -0.60729  -0.54138
 Alpha  occ. eigenvalues --   -0.49214  -0.37380  -0.22702  -0.12880  -0.04507
 Alpha virt. eigenvalues --    0.03407   0.04144   0.04558   0.05943   0.06750
 Alpha virt. eigenvalues --    0.07433   0.08062   0.09245   0.10095   0.10467
 Alpha virt. eigenvalues --    0.12253   0.12557   0.12957   0.14117   0.15889

 Mulliken charges:
               1
     1  P    2.823252
     2  C   -3.349823
     3  B    4.101938
     4  N   -2.141642
     5  H    1.385561
     6  H    1.296664
     7  H    0.675252
     8  H    0.544890
     9  H   -2.671453
    10  H   -2.029413
    11  H   -0.635226
 Sum of Mulliken charges =  -0.00000

 Dipole moment (field-independent basis, Debye):
    X=             -3.7432    Y=             -7.6621    Z=              1.5297  Tot=              8.6637

 Test job not archived.
 1\1\GINC-SE084\SP\RHF\Aug-CC-pVDZ\C1H7B1N1P1\OHZDE\09-Apr-2025\0\\#t h
 f aug-cc-pvdz iop(5/13=1,5/36=2,99/5=2) pseudo=read geom=check guess=(
 read,tcheck) scf=(maxcycle=1)\\title\\0,1\P,0,0.73401,-0.592262,-0.097
 933\C,0,-0.996207,-0.301331,0.512888\B,0,1.801902,0.889551,0.123016\N,
 0,-1.785952,0.513711,-0.405539\H,0,-0.876061,0.101574,1.53102\H,0,-1.4
 80536,-1.276153,0.612206\H,0,-1.405772,1.452675,-0.466325\H,0,-2.74612
 4,0.588306,-0.081089\H,0,2.737535,1.042598,-0.594806\H,0,1.658558,1.57
 1583,1.089211\H,0,0.571647,-0.832397,-1.474863\\Version=ES64L-G16RevC.

 Normal termination of Gaussian 16 at Wed Apr  9 00:43:31 2025.
