 Gaussian 16, Revision C.01,

 ----------------------------------------------------------------------
 #t hf aug-cc-pvdz symm=none int=(grid=ultrafine) guess=(read,tcheck) s
 table=(opt,rrhf)
 ----------------------------------------------------------------------
 -----
 title
 -----
 Symbolic Z-matrix:
 Charge =  0 Multiplicity = 1

 SCF Done:  E(RHF) =  -1085.41453447     A.U. after   14 cycles
 Normal termination of Gaussian 16 at Wed Apr  9 00:19:42 2025.
 Gaussian 16:  ES64L-G16RevC.01  3-Jul-2019

 ----------------------------------------------------------------------
 #t hf aug-cc-pvdz iop(5/13=1,5/36=2,99/5=2) pseudo=read geom=check gue
 ss=(read,tcheck) scf=(maxcycle=1)
 ----------------------------------------------------------------------
 -----
 title
 -----
 Structure from the checkpoint file:  "BDE49_nonexpt_2588_mol1.chk"
 Charge =  0 Multiplicity = 1

                         Standard orientation:
 ---------------------------------------------------------------------
 Center     Atomic      Atomic             Coordinates (Angstroms)
 Number     Number       Type             X           Y           Z
 ---------------------------------------------------------------------
      1         17           0        2.367226    0.218701    0.254996
      2         16           0        0.702583   -0.904477   -0.276112
      3          6           0       -0.659769    0.265830    0.198652
      4          8           0       -1.750915   -0.473437   -0.260754
      5          8           0       -0.561816    1.526082   -0.353523
      6          6           0       -2.990215   -0.144595    0.375916
      7          1           0       -2.960355   -0.395915    1.442077
      8          1           0       -3.755513   -0.742528   -0.115531
      9          1           0       -3.217127    0.917981    0.252473
     10          1           0       -0.482999    1.423862   -1.311909
     11          1           0       -0.666415    0.401737    1.282553
 ---------------------------------------------------------------------

 SCF Done:  E(RHF) =  -1086.87926932     A.U. after    2 cycles

 The electronic state is 1-A.
 Alpha  occ. eigenvalues --  -99.90370 -75.73892 -21.10508 -21.08117 -13.16580
 Alpha  occ. eigenvalues --  -13.10498 -13.06320 -11.49207 -11.42652 -10.47499
 Alpha  occ. eigenvalues --   -9.67274  -9.66628  -9.66510  -8.07678  -1.84133
 Alpha  occ. eigenvalues --   -1.70411  -1.33353  -1.11848  -1.00670  -0.89947
 Alpha  occ. eigenvalues --   -0.68671  -0.66031  -0.65070  -0.59496  -0.57018
 Alpha  occ. eigenvalues --   -0.54720  -0.54229  -0.51021  -0.47720  -0.40085
 Alpha  occ. eigenvalues --   -0.32951  -0.32562  -0.25888
 Alpha virt. eigenvalues --    0.03251   0.05282   0.05528   0.05571   0.06159
 Alpha virt. eigenvalues --    0.06384   0.07416   0.11589   0.12278   0.13161
 Alpha virt. eigenvalues --    0.13899   0.14576   0.14995   0.15836   0.16241

 Mulliken charges:
               1
     1  Cl  -0.435496
     2  S    0.623141
     3  C    1.516407
     4  O   -2.757082
     5  O   -2.545397
     6  C   -2.868384
     7  H    1.300737
     8  H    1.270984
     9  H    1.326602
    10  H    0.683013
    11  H    1.885473
 Sum of Mulliken charges =   0.00000

 Dipole moment (field-independent basis, Debye):
    X=             -3.6990    Y=             -1.7713    Z=             -0.7183  Tot=              4.1636

 Test job not archived.
 1\1\GINC-SE419\SP\RHF\Aug-CC-pVDZ\C2H5Cl1O2S1\OHZDE\09-Apr-2025\0\\#t
 hf aug-cc-pvdz iop(5/13=1,5/36=2,99/5=2) pseudo=read geom=check guess=
 (read,tcheck) scf=(maxcycle=1)\\title\\0,1\Cl,0,2.367226,0.218701,0.25
 4996\S,0,0.702583,-0.904477,-0.276112\C,0,-0.659769,0.26583,0.198652\O
 ,0,-1.750915,-0.473437,-0.260754\O,0,-0.561816,1.526082,-0.353523\C,0,
 -2.990215,-0.144595,0.375916\H,0,-2.960355,-0.395915,1.442077\H,0,-3.7
 55513,-0.742528,-0.115531\H,0,-3.217127,0.917981,0.252473\H,0,-0.48299
 9,1.423862,-1.311909\H,0,-0.666415,0.401737,1.282553\\Version=ES64L-G1

 Normal termination of Gaussian 16 at Wed Apr  9 00:19:45 2025.
