 Gaussian 16, Revision C.01,

 ----------------------------------------------------------------------
 #t hf aug-cc-pvdz symm=none int=(grid=ultrafine) guess=(read,tcheck) s
 table=(opt,rrhf)
 ----------------------------------------------------------------------
 -----
 title
 -----
 Symbolic Z-matrix:
 Charge =  0 Multiplicity = 1

 SCF Done:  E(RHF) =  -841.979504687     A.U. after   13 cycles
 Normal termination of Gaussian 16 at Tue Apr  8 23:45:12 2025.
 Gaussian 16:  ES64L-G16RevC.01  3-Jul-2019

 ----------------------------------------------------------------------
 #t hf aug-cc-pvdz iop(5/13=1,5/36=2,99/5=2) pseudo=read geom=check gue
 ss=(read,tcheck) scf=(maxcycle=1)
 ----------------------------------------------------------------------
 -----
 title
 -----
 Structure from the checkpoint file:  "BDE49_nonexpt_1740_mol1.chk"
 Charge =  0 Multiplicity = 1

                         Standard orientation:
 ---------------------------------------------------------------------
 Center     Atomic      Atomic             Coordinates (Angstroms)
 Number     Number       Type             X           Y           Z
 ---------------------------------------------------------------------
      1         14           0       -0.022194    0.814538   -0.000000
      2         17           0       -1.585373   -0.528841   -0.000009
      3          6           0        1.566312   -0.129140    0.000003
      4          7           0        2.572288   -0.697337    0.000018
      5          1           0       -0.070906    1.621481    1.226051
      6          1           0       -0.070925    1.621493   -1.226041
 ---------------------------------------------------------------------

 SCF Done:  E(RHF) =  -842.775072564     A.U. after    2 cycles

 The electronic state is 1-A.
 Alpha  occ. eigenvalues --  -99.91300 -76.31524 -15.79108 -11.41535 -10.48751
 Alpha  occ. eigenvalues --   -9.68605  -9.67942  -9.67905  -5.65010  -2.28441
 Alpha  occ. eigenvalues --   -2.27141  -2.26686  -1.32503  -1.30990  -0.87801
 Alpha  occ. eigenvalues --   -0.66787  -0.58962  -0.58647  -0.56208  -0.51601
 Alpha  occ. eigenvalues --   -0.50828  -0.47256  -0.46575
 Alpha virt. eigenvalues --    0.03485   0.04195   0.05270   0.05480   0.08658
 Alpha virt. eigenvalues --    0.09277   0.09513   0.10914   0.11305   0.12460
 Alpha virt. eigenvalues --    0.13342   0.14320   0.15218   0.16274   0.16839

 Mulliken charges:
               1
     1  Si   5.591020
     2  Cl  -0.832938
     3  C    0.590034
     4  N   -1.982098
     5  H   -1.683003
     6  H   -1.683014
 Sum of Mulliken charges =  -0.00000

 Dipole moment (field-independent basis, Debye):
    X=             -1.2618    Y=              1.9048    Z=             -0.0000  Tot=              2.2848

 Test job not archived.
 1\1\GINC-SE250\SP\RHF\Aug-CC-pVDZ\C1H2Cl1N1Si1\OHZDE\08-Apr-2025\0\\#t
  hf aug-cc-pvdz iop(5/13=1,5/36=2,99/5=2) pseudo=read geom=check guess
 =(read,tcheck) scf=(maxcycle=1)\\title\\0,1\Si,0,-0.022194,0.814538,0.
 \Cl,0,-1.585373,-0.528841,-0.000009\C,0,1.566312,-0.12914,0.000003\N,0
 ,2.572288,-0.697337,0.000018\H,0,-0.070906,1.621481,1.226051\H,0,-0.07
 0925,1.621493,-1.226041\\Version=ES64L-G16RevC.01\State=1-A\HF=-842.77
 50726\RMSD=8.906e-02\Dipole=-0.496432,0.7493887,-0.000008\Quadrupole=-
 3.2378351,2.1575922,1.0802428,1.7751112,-0.0000453,0.0000054\PG=C01 [X

 Normal termination of Gaussian 16 at Tue Apr  8 23:45:14 2025.
