 Gaussian 16, Revision C.01,

 ----------------------------------------------------------------------
 #t hf aug-cc-pvdz symm=none int=(grid=ultrafine) guess=(read,tcheck) s
 table=(opt,rrhf)
 ----------------------------------------------------------------------
 -----
 title
 -----
 Symbolic Z-matrix:
 Charge =  0 Multiplicity = 1

 SCF Done:  E(RHF) =  -164.295025276     A.U. after   12 cycles
 Normal termination of Gaussian 16 at Wed Apr  9 00:34:45 2025.
 Gaussian 16:  ES64L-G16RevC.01  3-Jul-2019

 ----------------------------------------------------------------------
 #t hf aug-cc-pvdz iop(5/13=1,5/36=2,99/5=2) pseudo=read geom=check gue
 ss=(read,tcheck) scf=(maxcycle=1)
 ----------------------------------------------------------------------
 -----
 title
 -----
 Structure from the checkpoint file:  "BDE49_nonexpt_455_mol1.chk"
 Charge =  0 Multiplicity = 1

                         Standard orientation:
 ---------------------------------------------------------------------
 Center     Atomic      Atomic             Coordinates (Angstroms)
 Number     Number       Type             X           Y           Z
 ---------------------------------------------------------------------
      1          1           0       -1.715450   -0.550813    1.031147
      2          1           0       -1.715454   -0.550791   -1.031140
      3          5           0       -1.249125   -0.184049    0.000006
      4          6           0        0.087800    0.660078    0.000010
      5          9           0        0.945537   -0.491399   -0.000015
      6          1           0        0.319956    1.241973    0.893226
      7          1           0        0.319942    1.242003   -0.893189
 ---------------------------------------------------------------------

 SCF Done:  E(RHF) =  -164.965866501     A.U. after    2 cycles

 The electronic state is 1-A.
 Alpha  occ. eigenvalues --  -29.25174 -11.40777  -7.62256  -1.18486  -0.81971
 Alpha  occ. eigenvalues --   -0.66279  -0.64210  -0.50703  -0.47440  -0.36043
 Alpha  occ. eigenvalues --   -0.25125  -0.24751
 Alpha virt. eigenvalues --    0.03068   0.03509   0.04321   0.05615   0.08201
 Alpha virt. eigenvalues --    0.09367   0.11209   0.12658   0.14179   0.15562
 Alpha virt. eigenvalues --    0.16465   0.17679   0.18702   0.24134   0.25347

 Mulliken charges:
               1
     1  H   -2.768977
     2  H   -2.768980
     3  B    7.095842
     4  C   -4.264056
     5  F    0.004470
     6  H    1.350850
     7  H    1.350851
 Sum of Mulliken charges =  -0.00000

 Dipole moment (field-independent basis, Debye):
    X=              1.5238    Y=             -0.2866    Z=             -0.0000  Tot=              1.5505

 Test job not archived.
 1\1\GINC-SE074\SP\RHF\Aug-CC-pVDZ\C1H4B1F1\OHZDE\09-Apr-2025\0\\#t hf
 aug-cc-pvdz iop(5/13=1,5/36=2,99/5=2) pseudo=read geom=check guess=(re
 ad,tcheck) scf=(maxcycle=1)\\title\\0,1\H,0,-1.71545,-0.550814,1.03114
 7\H,0,-1.715454,-0.550792,-1.03114\B,0,-1.249125,-0.184049,0.000006\C,
 0,0.0878,0.660078,0.00001\F,0,0.945537,-0.491399,-0.000015\H,0,0.31995
 6,1.241973,0.893226\H,0,0.319942,1.242003,-0.893189\\Version=ES64L-G16
 RevC.01\State=1-A\HF=-164.9658665\RMSD=1.770e-01\Dipole=0.5995159,-0.1
 127647,-0.000007\Quadrupole=0.0263878,0.2237724,-0.2501602,-1.0752736,

 Normal termination of Gaussian 16 at Wed Apr  9 00:34:47 2025.
