 Gaussian 16, Revision C.01,

 ----------------------------------------------------------------------
 #t hf aug-cc-pvdz symm=none int=(grid=ultrafine) guess=(read,tcheck) s
 table=(opt,rrhf)
 ----------------------------------------------------------------------
 -----
 title
 -----
 Symbolic Z-matrix:
 Charge =  0 Multiplicity = 1

 SCF Done:  E(RHF) =  -1124.43584627     A.U. after   15 cycles
 Normal termination of Gaussian 16 at Wed Apr  9 00:20:08 2025.
 Gaussian 16:  ES64L-G16RevC.01  3-Jul-2019

 ----------------------------------------------------------------------
 #t hf aug-cc-pvdz iop(5/13=1,5/36=2,99/5=2) pseudo=read geom=check gue
 ss=(read,tcheck) scf=(maxcycle=1)
 ----------------------------------------------------------------------
 -----
 title
 -----
 Structure from the checkpoint file:  "BDE49_nonexpt_2586_mol1.chk"
 Charge =  0 Multiplicity = 1

                         Standard orientation:
 ---------------------------------------------------------------------
 Center     Atomic      Atomic             Coordinates (Angstroms)
 Number     Number       Type             X           Y           Z
 ---------------------------------------------------------------------
      1         17           0        2.435608   -0.093387   -0.380417
      2         16           0        0.791006   -0.850124    0.642631
      3          6           0       -0.596608   -0.143249   -0.387683
      4          8           0       -0.562095    1.212331   -0.615897
      5          8           0       -1.680717   -0.578383    0.380729
      6          6           0       -0.578406    2.063928    0.538962
      7          1           0       -0.733532    3.071291    0.157234
      8          1           0        0.375280    2.013094    1.069351
      9          1           0       -1.390216    1.790736    1.215650
     10          6           0       -2.869286   -0.829653   -0.375479
     11          1           0       -3.639573   -1.102443    0.343871
     12          1           0       -2.717973   -1.657443   -1.077069
     13          1           0       -3.178092    0.065910   -0.922590
     14          1           0       -0.569017   -0.609319   -1.374908
 ---------------------------------------------------------------------

 SCF Done:  E(RHF) =  -1126.10548414     A.U. after    2 cycles

 The electronic state is 1-A.
 Alpha  occ. eigenvalues --  -99.90021 -75.73420 -21.07771 -21.07262 -13.17187
 Alpha  occ. eigenvalues --  -13.10604 -13.08256 -11.49112 -11.42651 -11.41010
 Alpha  occ. eigenvalues --  -10.47136  -9.66950  -9.66305  -9.66181  -8.07161
 Alpha  occ. eigenvalues --   -1.84693  -1.71971  -1.32938  -1.12058  -1.02101
 Alpha  occ. eigenvalues --   -0.99920  -0.85321  -0.69937  -0.66015  -0.64015
 Alpha  occ. eigenvalues --   -0.61378  -0.60669  -0.56167  -0.55169  -0.53916
 Alpha  occ. eigenvalues --   -0.52635  -0.47134  -0.46089  -0.38425  -0.32260
 Alpha  occ. eigenvalues --   -0.30119  -0.25818
 Alpha virt. eigenvalues --    0.03078   0.04832   0.05303   0.05653   0.05840
 Alpha virt. eigenvalues --    0.06308   0.06459   0.07109   0.08714   0.11091
 Alpha virt. eigenvalues --    0.12234   0.13291   0.14238   0.14875   0.14907

 Mulliken charges:
               1
     1  Cl  -0.462413
     2  S    0.510708
     3  C    1.624939
     4  O   -3.109092
     5  O   -2.773920
     6  C   -3.036789
     7  H    1.256213
     8  H    1.550259
     9  H    1.329805
    10  C   -2.876572
    11  H    1.325097
    12  H    1.329360
    13  H    1.355039
    14  H    1.977363
 Sum of Mulliken charges =  -0.00000

 Dipole moment (field-independent basis, Debye):
    X=             -3.8255    Y=             -1.0132    Z=              1.5318  Tot=              4.2436

 Test job not archived.
 1\1\GINC-SE336\SP\RHF\Aug-CC-pVDZ\C3H7Cl1O2S1\OHZDE\09-Apr-2025\0\\#t
 hf aug-cc-pvdz iop(5/13=1,5/36=2,99/5=2) pseudo=read geom=check guess=
 (read,tcheck) scf=(maxcycle=1)\\title\\0,1\Cl,0,2.435608,-0.093387,-0.
 380417\S,0,0.791006,-0.850124,0.642631\C,0,-0.596608,-0.143249,-0.3876
 83\O,0,-0.562095,1.212331,-0.615897\O,0,-1.680717,-0.578383,0.380729\C
 ,0,-0.578406,2.063928,0.538962\H,0,-0.733532,3.071291,0.157234\H,0,0.3
 7528,2.013094,1.069351\H,0,-1.390216,1.790736,1.21565\C,0,-2.869286,-0
 .829653,-0.375479\H,0,-3.639573,-1.102443,0.343871\H,0,-2.717973,-1.65

 Normal termination of Gaussian 16 at Wed Apr  9 00:20:13 2025.
