 Gaussian 16, Revision C.01,

 ----------------------------------------------------------------------
 #t hf aug-cc-pvdz symm=none int=(grid=ultrafine) guess=(read,tcheck) s
 table=(opt,rrhf)
 ----------------------------------------------------------------------
 -----
 title
 -----
 Symbolic Z-matrix:
 Charge =  0 Multiplicity = 1

 SCF Done:  E(RHF) =  -1420.16167380     A.U. after   12 cycles
 Normal termination of Gaussian 16 at Wed Apr  9 00:15:34 2025.
 Gaussian 16:  ES64L-G16RevC.01  3-Jul-2019

 ----------------------------------------------------------------------
 #t hf aug-cc-pvdz iop(5/13=1,5/36=2,99/5=2) pseudo=read geom=check gue
 ss=(read,tcheck) scf=(maxcycle=1)
 ----------------------------------------------------------------------
 -----
 title
 -----
 Structure from the checkpoint file:  "BDE49_nonexpt_2445_mol1.chk"
 Charge =  0 Multiplicity = 1

                         Standard orientation:
 ---------------------------------------------------------------------
 Center     Atomic      Atomic             Coordinates (Angstroms)
 Number     Number       Type             X           Y           Z
 ---------------------------------------------------------------------
      1         14           0        1.156489   -1.026827   -1.022209
      2         14           0       -0.867305   -1.260969    0.188543
      3         15           0       -2.059667    0.677780    0.335670
      4          1           0       -0.559588   -1.682094    1.581175
      5          1           0       -1.680907   -2.348329   -0.429455
      6         15           0        2.796133    0.318649   -0.182090
      7          1           0        0.849381   -0.526970   -2.388949
      8          1           0        1.746488   -2.383821   -1.170742
      9          6           0       -2.630571    0.841922   -1.435726
     10          1           0       -3.100688   -0.065174   -1.824135
     11          1           0       -1.782714    1.101486   -2.073095
     12          1           0       -3.351592    1.661546   -1.493077
     13          6           0       -3.620887    0.018013    1.122474
     14          1           0       -3.411812   -0.271842    2.154411
     15          1           0       -4.042653   -0.839101    0.591417
     16          1           0       -4.365140    0.818714    1.145548
     17          6           0        2.816592   -0.205749    1.610086
     18          1           0        3.164663   -1.238634    1.682782
     19          1           0        1.845416   -0.122970    2.102894
     20          1           0        3.534062    0.423000    2.143925
     21          6           0        1.904818    1.953965   -0.053399
     22          1           0        1.694742    2.328822   -1.057781
     23          1           0        2.574369    2.669802    0.431108
     24          1           0        0.970702    1.909359    0.510989
 ---------------------------------------------------------------------

 SCF Done:  E(RHF) =  -1421.72129087     A.U. after    2 cycles

 The electronic state is 1-A.
 Alpha  occ. eigenvalues -- -105.15755-105.15348 -76.21723 -76.21555 -11.37685
 Alpha  occ. eigenvalues --  -11.37515 -11.37089 -11.36895  -5.55218  -5.55043
 Alpha  occ. eigenvalues --   -2.73950  -2.73536  -2.17692  -2.17335  -2.17123
 Alpha  occ. eigenvalues --   -2.17060  -2.16972  -2.15801  -1.46555  -1.46042
 Alpha  occ. eigenvalues --   -1.45645  -1.45025  -1.41656  -1.40753  -1.03785
 Alpha  occ. eigenvalues --   -1.03112  -0.96972  -0.96548  -0.78944  -0.71148
 Alpha  occ. eigenvalues --   -0.62312  -0.60398  -0.57633  -0.57161  -0.56943
 Alpha  occ. eigenvalues --   -0.56428  -0.55943  -0.55505  -0.55150  -0.54707
 Alpha  occ. eigenvalues --   -0.47838  -0.47101  -0.37801  -0.20738  -0.20270
 Alpha  occ. eigenvalues --   -0.15890  -0.14438  -0.01897  -0.01334
 Alpha virt. eigenvalues --    0.04454   0.04799   0.05538   0.05999   0.06217
 Alpha virt. eigenvalues --    0.06303   0.06653   0.06684   0.06900   0.07298
 Alpha virt. eigenvalues --    0.07847   0.08197   0.08432   0.08707   0.09212

 Mulliken charges:
               1
     1  Si   4.209959
     2  Si   3.296404
     3  P    6.246479
     4  H   -2.026233
     5  H   -1.965930
     6  P    4.742538
     7  H   -1.960810
     8  H   -2.198463
     9  C   -6.547758
    10  H    1.247063
    11  H    1.233279
    12  H    1.241188
    13  C   -6.488013
    14  H    1.261625
    15  H    1.267427
    16  H    0.967680
    17  C   -6.257538
    18  H    1.194543
    19  H    1.471057
    20  H    1.086409
    21  C   -6.311486
    22  H    1.284580
    23  H    1.066598
    24  H    1.939401
 Sum of Mulliken charges =   0.00000

 Dipole moment (field-independent basis, Debye):
    X=              3.4560    Y=              8.7914    Z=              2.0946  Tot=              9.6757

 Test job not archived.
 1\1\GINC-SE403\SP\RHF\Aug-CC-pVDZ\C4H16P2Si2\OHZDE\09-Apr-2025\0\\#t h
 f aug-cc-pvdz iop(5/13=1,5/36=2,99/5=2) pseudo=read geom=check guess=(
 read,tcheck) scf=(maxcycle=1)\\title\\0,1\Si,0,1.156489,-1.026827,-1.0
 22209\Si,0,-0.867305,-1.260969,0.188543\P,0,-2.059667,0.67778,0.33567\
 H,0,-0.559588,-1.682094,1.581175\H,0,-1.680907,-2.348329,-0.429455\P,0
 ,2.796133,0.318649,-0.18209\H,0,0.849381,-0.52697,-2.388949\H,0,1.7464
 88,-2.383821,-1.170742\C,0,-2.630571,0.841922,-1.435726\H,0,-3.100688,
 -0.065174,-1.824135\H,0,-1.782714,1.101486,-2.073095\H,0,-3.351592,1.6

 Normal termination of Gaussian 16 at Wed Apr  9 00:15:49 2025.
