 Gaussian 16, Revision C.01,

 ----------------------------------------------------------------------
 #t hf aug-cc-pvdz symm=none int=(grid=ultrafine) guess=(read,tcheck) s
 table=(opt,rrhf)
 ----------------------------------------------------------------------
 -----
 title
 -----
 Symbolic Z-matrix:
 Charge =  0 Multiplicity = 1

 SCF Done:  E(RHF) =  -841.441918811     A.U. after   16 cycles
 Normal termination of Gaussian 16 at Tue Apr  8 22:50:49 2025.
 Gaussian 16:  ES64L-G16RevC.01  3-Jul-2019

 ----------------------------------------------------------------------
 #t hf aug-cc-pvdz iop(5/13=1,5/36=2,99/5=2) pseudo=read geom=check gue
 ss=(read,tcheck) scf=(maxcycle=1)
 ----------------------------------------------------------------------
 -----
 title
 -----
 Structure from the checkpoint file:  "BDE49_expt_1679_mol1.chk"
 Charge =  0 Multiplicity = 1

                         Standard orientation:
 ---------------------------------------------------------------------
 Center     Atomic      Atomic             Coordinates (Angstroms)
 Number     Number       Type             X           Y           Z
 ---------------------------------------------------------------------
      1          6           0        0.987858   -1.208970   -0.000015
      2          6           0       -0.402605   -1.162476   -0.000057
      3          6           0       -1.079836    0.062385   -0.000070
      4          6           0       -0.332700    1.247657   -0.000034
      5          6           0        1.053909    1.217846    0.000009
      6          6           0        1.703018   -0.015745    0.000018
      7          1           0        1.512731   -2.155293   -0.000007
      8          1           0       -0.952379   -2.095466   -0.000081
      9          1           0        1.631438    2.133162    0.000035
     10         17           0        3.454398   -0.064831    0.000072
     11          6           0       -2.577458    0.169382   -0.000123
     12          8           0       -3.116659    1.257832    0.000036
     13          6           0       -3.401554   -1.105113    0.000013
     14          1           0       -3.182315   -1.713650   -0.882231
     15          1           0       -4.456066   -0.835284    0.000108
     16          1           0       -3.182141   -1.713589    0.882257
     17          1           0       -0.866552    2.189795   -0.000044
 ---------------------------------------------------------------------

 SCF Done:  E(RHF) =  -843.457208498     A.U. after    2 cycles

 The electronic state is 1-A.
 Alpha  occ. eigenvalues --  -99.90532 -21.05402 -11.53953 -11.51166 -11.47534
 Alpha  occ. eigenvalues --  -11.46517 -11.44524 -11.43561 -11.40499 -11.39170
 Alpha  occ. eigenvalues --  -10.47885  -9.67913  -9.67016  -9.66836  -1.71457
 Alpha  occ. eigenvalues --   -1.41376  -1.29681  -1.14543  -1.12065  -1.07572
 Alpha  occ. eigenvalues --   -0.90911  -0.89761  -0.79014  -0.72158  -0.66369
 Alpha  occ. eigenvalues --   -0.63486  -0.62884  -0.60717  -0.60653  -0.58294
 Alpha  occ. eigenvalues --   -0.55876  -0.53193  -0.51337  -0.49844  -0.47520
 Alpha  occ. eigenvalues --   -0.45743  -0.43853  -0.35630  -0.33325  -0.29226
 Alpha virt. eigenvalues --    0.02785   0.04655   0.05657   0.05935   0.05972
 Alpha virt. eigenvalues --    0.07090   0.07411   0.07737   0.07822   0.08865
 Alpha virt. eigenvalues --    0.10332   0.10457   0.11636   0.11682   0.12642

 Mulliken charges:
               1
     1  C   -2.038756
     2  C    2.591604
     3  C    1.669722
     4  C   -1.961233
     5  C   -1.833432
     6  C   -3.037897
     7  H    1.727729
     8  H    1.929948
     9  H    1.724341
    10  Cl  -0.891793
    11  C    3.707903
    12  O   -3.822046
    13  C   -5.333009
    14  H    1.260339
    15  H    1.128263
    16  H    1.260385
    17  H    1.917932
 Sum of Mulliken charges =   0.00000

 Dipole moment (field-independent basis, Debye):
    X=             -1.3029    Y=             -0.9891    Z=              0.0000  Tot=              1.6358

 Test job not archived.
 1\1\GINC-SE424\SP\RHF\Aug-CC-pVDZ\C8H7Cl1O1\OHZDE\08-Apr-2025\0\\#t hf
  aug-cc-pvdz iop(5/13=1,5/36=2,99/5=2) pseudo=read geom=check guess=(r
 ead,tcheck) scf=(maxcycle=1)\\title\\0,1\C,0,0.987858,-1.20897,-0.0000
 15\C,0,-0.402605,-1.162476,-0.000057\C,0,-1.079836,0.062385,-0.00007\C
 ,0,-0.3327,1.247657,-0.000034\C,0,1.053909,1.217846,0.000009\C,0,1.703
 018,-0.015745,0.000018\H,0,1.512731,-2.155293,-0.000007\H,0,-0.952379,
 -2.095466,-0.000081\H,0,1.631438,2.133162,0.000035\Cl,0,3.454398,-0.06
 4831,0.000072\C,0,-2.577458,0.169382,-0.000123\O,0,-3.116659,1.257832,

 Normal termination of Gaussian 16 at Tue Apr  8 22:50:58 2025.
