 Gaussian 16, Revision C.01,

 ----------------------------------------------------------------------
 #t hf aug-cc-pvdz symm=none int=(grid=ultrafine) guess=(read,tcheck) s
 table=(opt,rrhf)
 ----------------------------------------------------------------------
 -----
 title
 -----
 Symbolic Z-matrix:
 Charge =  0 Multiplicity = 1

 SCF Done:  E(RHF) =  -1682.35951403     A.U. after   16 cycles
 Normal termination of Gaussian 16 at Tue Apr  8 23:13:50 2025.
 Gaussian 16:  ES64L-G16RevC.01  3-Jul-2019

 ----------------------------------------------------------------------
 #t hf aug-cc-pvdz iop(5/13=1,5/36=2,99/5=2) pseudo=read geom=check gue
 ss=(read,tcheck) scf=(maxcycle=1)
 ----------------------------------------------------------------------
 -----
 title
 -----
 Structure from the checkpoint file:  "BDE49_expt_773_mol1.chk"
 Charge =  0 Multiplicity = 1

                         Standard orientation:
 ---------------------------------------------------------------------
 Center     Atomic      Atomic             Coordinates (Angstroms)
 Number     Number       Type             X           Y           Z
 ---------------------------------------------------------------------
      1          6           0        0.000000    1.186335    0.000000
      2          6           0       -1.189607    0.445554    0.000000
      3          6           0       -1.206616   -0.942540    0.000000
      4          6           0        0.007277   -1.617164    0.000000
      5          6           0        1.213802   -0.925772    0.000000
      6          6           0        1.201950    0.463040    0.000000
      7          8           0        0.037783    2.532049    0.000000
      8          1           0       -0.868818    2.869337    0.000000
      9         17           0        0.018249   -3.368685    0.000000
     10         17           0        2.709628    1.336776    0.000000
     11         17           0       -2.704644    1.334965    0.000000
     12          1           0       -2.144846   -1.478618    0.000000
     13          1           0        2.155599   -1.455781    0.000000
 ---------------------------------------------------------------------

 SCF Done:  E(RHF) =  -1684.47141453     A.U. after    2 cycles

 The electronic state is 1-A'.
 Alpha  occ. eigenvalues --  -99.92772 -99.91034 -99.90830 -21.13079 -11.55912
 Alpha  occ. eigenvalues --  -11.51348 -11.49603 -11.48482 -11.47205 -11.43111
 Alpha  occ. eigenvalues --  -10.50123 -10.48376 -10.48200  -9.70113  -9.69397
 Alpha  occ. eigenvalues --   -9.69059  -9.68390  -9.68199  -9.67505  -9.67343
 Alpha  occ. eigenvalues --   -9.67326  -9.67116  -1.79710  -1.44681  -1.36736
 Alpha  occ. eigenvalues --   -1.35235  -1.24662  -1.11359  -1.09097  -0.92120
 Alpha  occ. eigenvalues --   -0.89072  -0.74853  -0.72447  -0.70001  -0.63655
 Alpha  occ. eigenvalues --   -0.63291  -0.63041  -0.59269  -0.58037  -0.57365
 Alpha  occ. eigenvalues --   -0.56015  -0.52432  -0.51301  -0.49970  -0.49275
 Alpha  occ. eigenvalues --   -0.46297  -0.45421  -0.36814  -0.30460
 Alpha virt. eigenvalues --    0.02846   0.04315   0.05344   0.06127   0.07065
 Alpha virt. eigenvalues --    0.07099   0.07946   0.09605   0.10093   0.10717
 Alpha virt. eigenvalues --    0.11479   0.12182   0.12298   0.12795   0.13192

 Mulliken charges:
               1
     1  C    6.816736
     2  C   -3.898779
     3  C    0.704509
     4  C   -0.950745
     5  C    0.333636
     6  C   -0.950877
     7  O   -4.469141
     8  H    1.145860
     9  Cl  -0.776165
    10  Cl  -0.707823
    11  Cl  -0.777951
    12  H    1.749783
    13  H    1.780957
 Sum of Mulliken charges =  -0.00000

 Dipole moment (field-independent basis, Debye):
    X=             -0.6282    Y=              0.8834    Z=              0.0000  Tot=              1.0840

 Test job not archived.
 1\1\GINC-SE174\SP\RHF\Aug-CC-pVDZ\C6H3Cl3O1\OHZDE\08-Apr-2025\0\\#t hf
  aug-cc-pvdz iop(5/13=1,5/36=2,99/5=2) pseudo=read geom=check guess=(r
 ead,tcheck) scf=(maxcycle=1)\\title\\0,1\C,0,0.,1.186335,0.\C,0,-1.189
 607,0.445554,0.\C,0,-1.206616,-0.94254,0.\C,0,0.007277,-1.617164,0.\C,
 0,1.213802,-0.925772,0.\C,0,1.20195,0.46304,0.\O,0,0.037783,2.532049,0
 .\H,0,-0.868818,2.869337,0.\Cl,0,0.01825,-3.368685,0.\Cl,0,2.709628,1.
 336776,0.\Cl,0,-2.704644,1.334965,0.\H,0,-2.144846,-1.478618,0.\H,0,2.
 155599,-1.455781,0.\\Version=ES64L-G16RevC.01\State=1-A'\HF=-1684.4714

 Normal termination of Gaussian 16 at Tue Apr  8 23:13:57 2025.
