 Gaussian 16, Revision C.01,

 ----------------------------------------------------------------------
 #t hf aug-cc-pvdz symm=none int=(grid=ultrafine) guess=(read,tcheck) s
 table=(opt,rrhf)
 ----------------------------------------------------------------------
 -----
 title
 -----
 Symbolic Z-matrix:
 Charge =  0 Multiplicity = 1

 SCF Done:  E(RHF) =  -533.297333470     A.U. after   15 cycles
 Normal termination of Gaussian 16 at Tue Apr  8 23:30:06 2025.
 Gaussian 16:  ES64L-G16RevC.01  3-Jul-2019

 ----------------------------------------------------------------------
 #t hf aug-cc-pvdz iop(5/13=1,5/36=2,99/5=2) pseudo=read geom=check gue
 ss=(read,tcheck) scf=(maxcycle=1)
 ----------------------------------------------------------------------
 -----
 title
 -----
 Structure from the checkpoint file:  "BDE49_nonexpt_1339_mol1.chk"
 Charge =  0 Multiplicity = 1

                         Standard orientation:
 ---------------------------------------------------------------------
 Center     Atomic      Atomic             Coordinates (Angstroms)
 Number     Number       Type             X           Y           Z
 ---------------------------------------------------------------------
      1         15           0        0.747151   -0.784447   -0.263935
      2          6           0        2.019976    0.453734    0.264609
      3          1           0        1.790322    0.911340    1.226715
      4          1           0        2.056889    1.237837   -0.492671
      5          1           0        2.995703   -0.033719    0.308318
      6          6           0       -0.804765    0.262806   -0.042321
      7          6           0       -2.108723   -0.476885    0.191532
      8          1           0       -2.200686   -1.331338   -0.484498
      9          1           0       -2.945666    0.207669    0.049323
     10          1           0       -2.129894   -0.865216    1.214782
     11          8           0       -0.751309    1.464784   -0.160924
     12          1           0        0.597599   -1.516071    0.941536
 ---------------------------------------------------------------------

 SCF Done:  E(RHF) =  -534.381070119     A.U. after    2 cycles

 The electronic state is 1-A.
 Alpha  occ. eigenvalues -- -105.18032 -21.06064 -11.48071 -11.39165 -11.37586
 Alpha  occ. eigenvalues --   -2.76026  -1.71540  -1.48783  -1.46337  -1.44040
 Alpha  occ. eigenvalues --   -1.10914  -1.00994  -0.78265  -0.67209  -0.59705
 Alpha  occ. eigenvalues --   -0.58018  -0.57009  -0.56473  -0.52461  -0.43313
 Alpha  occ. eigenvalues --   -0.39813  -0.23991  -0.17074  -0.02364
 Alpha virt. eigenvalues --    0.03927   0.04958   0.06382   0.06498   0.06701
 Alpha virt. eigenvalues --    0.07265   0.08146   0.09622   0.10815   0.11089
 Alpha virt. eigenvalues --    0.12894   0.13906   0.14388   0.14990   0.15722

 Mulliken charges:
               1
     1  P    4.526419
     2  C   -5.697732
     3  H    1.104904
     4  H    1.234812
     5  H    1.242404
     6  C    1.330012
     7  C   -4.149149
     8  H    1.308073
     9  H    1.254099
    10  H    1.246659
    11  O   -2.961184
    12  H   -0.439315
 Sum of Mulliken charges =   0.00000

 Dipole moment (field-independent basis, Debye):
    X=              0.3723    Y=             -0.8191    Z=             -0.6534  Tot=              1.1120

 Test job not archived.
 1\1\GINC-SE090\SP\RHF\Aug-CC-pVDZ\C3H7O1P1\OHZDE\08-Apr-2025\0\\#t hf
 aug-cc-pvdz iop(5/13=1,5/36=2,99/5=2) pseudo=read geom=check guess=(re
 ad,tcheck) scf=(maxcycle=1)\\title\\0,1\P,0,0.747151,-0.784447,-0.2639
 35\C,0,2.019976,0.453734,0.264609\H,0,1.790322,0.91134,1.226715\H,0,2.
 056889,1.237837,-0.492671\H,0,2.995703,-0.033719,0.308318\C,0,-0.80476
 5,0.262806,-0.042321\C,0,-2.108723,-0.476885,0.191532\H,0,-2.200686,-1
 .331338,-0.484498\H,0,-2.945666,0.207669,0.049323\H,0,-2.129894,-0.865
 216,1.214782\O,0,-0.751309,1.464784,-0.160924\H,0,0.597599,-1.516071,0

 Normal termination of Gaussian 16 at Tue Apr  8 23:30:09 2025.
