 Gaussian 16, Revision C.01,

 ----------------------------------------------------------------------
 #t hf aug-cc-pvdz symm=none int=(grid=ultrafine) guess=(read,tcheck) s
 table=(opt,rrhf)
 ----------------------------------------------------------------------
 -----
 title
 -----
 Symbolic Z-matrix:
 Charge =  0 Multiplicity = 1

 SCF Done:  E(RHF) =  -877.290045274     A.U. after   16 cycles
 Normal termination of Gaussian 16 at Tue Apr  8 23:11:54 2025.
 Gaussian 16:  ES64L-G16RevC.01  3-Jul-2019

 ----------------------------------------------------------------------
 #t hf aug-cc-pvdz iop(5/13=1,5/36=2,99/5=2) pseudo=read geom=check gue
 ss=(read,tcheck) scf=(maxcycle=1)
 ----------------------------------------------------------------------
 -----
 title
 -----
 Structure from the checkpoint file:  "BDE49_expt_607_mol1.chk"
 Charge =  0 Multiplicity = 1

                         Standard orientation:
 ---------------------------------------------------------------------
 Center     Atomic      Atomic             Coordinates (Angstroms)
 Number     Number       Type             X           Y           Z
 ---------------------------------------------------------------------
      1          6           0       -1.850332    0.887639    0.000002
      2          6           0       -2.680013   -0.226030    0.000050
      3          6           0       -2.127820   -1.505066    0.000070
      4          6           0        1.571529   -0.901938   -0.000013
      5          8           0        1.966981   -2.044764   -0.000327
      6          8           0        2.420309    0.141601    0.000386
      7          1           0        3.310339   -0.241898    0.000300
      8          6           0       -0.462939    0.738338   -0.000009
      9          6           0       -0.750339   -1.650349    0.000041
     10          6           0        0.116093   -0.544103    0.000016
     11          1           0       -2.765654   -2.380557    0.000100
     12          1           0       -0.292818   -2.630995    0.000034
     13          1           0       -3.755320   -0.089476    0.000067
     14          1           0       -2.267280    1.886033   -0.000031
     15         17           0        0.457373    2.228897   -0.000111
 ---------------------------------------------------------------------

 SCF Done:  E(RHF) =  -879.392245543     A.U. after    2 cycles

 The electronic state is 1-A.
 Alpha  occ. eigenvalues --  -99.89936 -21.12685 -21.05554 -11.54665 -11.54096
 Alpha  occ. eigenvalues --  -11.48706 -11.46192 -11.44405 -11.43462 -11.39651
 Alpha  occ. eigenvalues --  -10.47329  -9.67346  -9.66570  -9.66260  -1.83927
 Alpha  occ. eigenvalues --   -1.65928  -1.41009  -1.29249  -1.14238  -1.09797
 Alpha  occ. eigenvalues --   -0.94174  -0.88618  -0.82097  -0.72757  -0.67302
 Alpha  occ. eigenvalues --   -0.64763  -0.62991  -0.60673  -0.60186  -0.58587
 Alpha  occ. eigenvalues --   -0.55444  -0.51660  -0.50358  -0.49691  -0.48042
 Alpha  occ. eigenvalues --   -0.43556  -0.36561  -0.34796  -0.33076  -0.30912
 Alpha virt. eigenvalues --    0.02910   0.04918   0.05109   0.05905   0.07314
 Alpha virt. eigenvalues --    0.07653   0.07971   0.09529   0.09741   0.10870
 Alpha virt. eigenvalues --    0.11803   0.12170   0.12433   0.13200   0.13540

 Mulliken charges:
               1
     1  C   -2.328380
     2  C   -1.701073
     3  C   -2.577406
     4  C    6.624095
     5  O   -3.441370
     6  O   -3.519917
     7  H    1.169076
     8  C   -0.108852
     9  C   -2.067934
    10  C    2.487325
    11  H    1.464395
    12  H    1.718399
    13  H    1.537888
    14  H    1.693292
    15  Cl  -0.949538
 Sum of Mulliken charges =   0.00000

 Dipole moment (field-independent basis, Debye):
    X=             -1.7695    Y=             -0.6537    Z=              0.0004  Tot=              1.8864

 Test job not archived.
 1\1\GINC-SE060\SP\RHF\Aug-CC-pVDZ\C7H5Cl1O2\OHZDE\08-Apr-2025\0\\#t hf
  aug-cc-pvdz iop(5/13=1,5/36=2,99/5=2) pseudo=read geom=check guess=(r
 ead,tcheck) scf=(maxcycle=1)\\title\\0,1\C,0,-1.850332,0.887638,0.0000
 02\C,0,-2.680013,-0.226031,0.00005\C,0,-2.127819,-1.505067,0.00007\C,0
 ,1.57153,-0.901937,-0.000013\O,0,1.966982,-2.044763,-0.000327\O,0,2.42
 0309,0.141602,0.000386\H,0,3.310339,-0.241896,0.0003\C,0,-0.462939,0.7
 38338,-0.000009\C,0,-0.750338,-1.650349,0.000041\C,0,0.116093,-0.54410
 3,0.000016\H,0,-2.765653,-2.380558,0.0001\H,0,-0.292817,-2.630995,0.00

 Normal termination of Gaussian 16 at Tue Apr  8 23:12:02 2025.
