 Gaussian 16, Revision C.01,

 ----------------------------------------------------------------------
 #t hf aug-cc-pvdz symm=none int=(grid=ultrafine) guess=(read,tcheck) s
 table=(opt,rrhf)
 ----------------------------------------------------------------------
 -----
 title
 -----
 Symbolic Z-matrix:
 Charge =  0 Multiplicity = 1

 SCF Done:  E(RHF) =  -584.887886460     A.U. after   14 cycles
 Normal termination of Gaussian 16 at Wed Apr  9 00:43:33 2025.
 Gaussian 16:  ES64L-G16RevC.01  3-Jul-2019

 ----------------------------------------------------------------------
 #t hf aug-cc-pvdz iop(5/13=1,5/36=2,99/5=2) pseudo=read geom=check gue
 ss=(read,tcheck) scf=(maxcycle=1)
 ----------------------------------------------------------------------
 -----
 title
 -----
 Structure from the checkpoint file:  "BDE49_nonexpt_681_mol1.chk"
 Charge =  0 Multiplicity = 1

                         Standard orientation:
 ---------------------------------------------------------------------
 Center     Atomic      Atomic             Coordinates (Angstroms)
 Number     Number       Type             X           Y           Z
 ---------------------------------------------------------------------
      1          8           0       -1.399928    0.000001   -0.680472
      2          7           0       -0.288210    0.000002    0.260477
      3          5           0       -2.630600    0.000008   -0.105513
      4          9           0       -3.671424   -0.000011   -0.926198
      5          9           0       -2.846060    0.000006    1.198119
      6          6           0        0.448376    1.196897    0.129155
      7          6           0        1.777806    1.232422    0.215552
      8          6           0        2.636660    0.000000    0.365492
      9          6           0        1.777804   -1.232421    0.215561
     10          6           0        0.448374   -1.196895    0.129164
     11          6           0        3.812701   -0.000004   -0.633602
     12          1           0       -0.164597   -2.082054    0.024102
     13          1           0       -0.164594    2.082056    0.024087
     14          1           0        2.269462    2.198967    0.200128
     15          1           0        3.444275   -0.000008   -1.662462
     16          1           0        4.441544   -0.883799   -0.493897
     17          1           0        2.269459   -2.198968    0.200143
     18          1           0        4.441545    0.883791   -0.493903
     19          1           0        3.079836    0.000003    1.374596
 ---------------------------------------------------------------------

 SCF Done:  E(RHF) =  -587.342274400     A.U. after    2 cycles

 The electronic state is 1-A.
 Alpha  occ. eigenvalues --  -29.25973 -29.25658 -21.07485 -15.79796 -11.49941
 Alpha  occ. eigenvalues --  -11.46952 -11.43730 -11.40534 -11.39840 -11.37037
 Alpha  occ. eigenvalues --   -7.72437  -1.87366  -1.42093  -1.23295  -1.13039
 Alpha  occ. eigenvalues --   -1.07840  -1.01517  -0.88953  -0.88496  -0.79253
 Alpha  occ. eigenvalues --   -0.72500  -0.69236  -0.64895  -0.64503  -0.61261
 Alpha  occ. eigenvalues --   -0.60190  -0.56738  -0.56588  -0.53285  -0.53018
 Alpha  occ. eigenvalues --   -0.49544  -0.46480  -0.45118  -0.43760  -0.43533
 Alpha  occ. eigenvalues --   -0.39094  -0.35392  -0.34453  -0.32073  -0.26984
 Alpha  occ. eigenvalues --   -0.25574
 Alpha virt. eigenvalues --    0.00930   0.03334   0.03879   0.04883   0.05335
 Alpha virt. eigenvalues --    0.05661   0.05849   0.06212   0.06791   0.07449
 Alpha virt. eigenvalues --    0.07594   0.09392   0.11436   0.12198   0.12512

 Mulliken charges:
               1
     1  O   -3.547501
     2  N   -0.584476
     3  B    2.481307
     4  F   -0.275505
     5  F   -0.941913
     6  C   -1.462295
     7  C    0.299844
     8  C   -2.900372
     9  C    0.299853
    10  C   -1.462303
    11  C   -3.715986
    12  H    1.742285
    13  H    1.742288
    14  H    1.402652
    15  H    1.509942
    16  H    1.218686
    17  H    1.402652
    18  H    1.218686
    19  H    1.572154
 Sum of Mulliken charges =   0.00000

 Dipole moment (field-independent basis, Debye):
    X=             -0.9658    Y=             -0.0000    Z=              1.5752  Tot=              1.8477

 Test job not archived.
 1\1\GINC-SE253\SP\RHF\Aug-CC-pVDZ\C6H8B1F2N1O1\OHZDE\09-Apr-2025\0\\#t
  hf aug-cc-pvdz iop(5/13=1,5/36=2,99/5=2) pseudo=read geom=check guess
 =(read,tcheck) scf=(maxcycle=1)\\title\\0,1\O,0,-1.399928,0.000001,-0.
 680472\N,0,-0.28821,0.000002,0.260477\B,0,-2.6306,0.000008,-0.105513\F
 ,0,-3.671424,-0.000011,-0.926198\F,0,-2.84606,0.000006,1.198119\C,0,0.
 448376,1.196897,0.129155\C,0,1.777806,1.232422,0.215552\C,0,2.63666,0.
 ,0.365492\C,0,1.777804,-1.232421,0.215561\C,0,0.448374,-1.196895,0.129
 164\C,0,3.812701,-0.000004,-0.633602\H,0,-0.164597,-2.082054,0.024102\

 Normal termination of Gaussian 16 at Wed Apr  9 00:43:44 2025.
