 Gaussian 16, Revision C.01,

 ----------------------------------------------------------------------
 #t hf aug-cc-pvdz symm=none int=(grid=ultrafine) guess=(read,tcheck) s
 table=(opt,rrhf)
 ----------------------------------------------------------------------
 -----
 title
 -----
 Symbolic Z-matrix:
 Charge =  0 Multiplicity = 1

 SCF Done:  E(RHF) =  -556.965540828     A.U. after   13 cycles
 Normal termination of Gaussian 16 at Tue Apr  8 23:51:36 2025.
 Gaussian 16:  ES64L-G16RevC.01  3-Jul-2019

 ----------------------------------------------------------------------
 #t hf aug-cc-pvdz iop(5/13=1,5/36=2,99/5=2) pseudo=read geom=check gue
 ss=(read,tcheck) scf=(maxcycle=1)
 ----------------------------------------------------------------------
 -----
 title
 -----
 Structure from the checkpoint file:  "BDE49_nonexpt_1881_mol1.chk"
 Charge =  0 Multiplicity = 1

                         Standard orientation:
 ---------------------------------------------------------------------
 Center     Atomic      Atomic             Coordinates (Angstroms)
 Number     Number       Type             X           Y           Z
 ---------------------------------------------------------------------
      1          6           0        0.817435    0.333255    0.867996
      2         14           0        2.154034   -0.332709   -0.307445
      3          6           0       -0.524924    0.467954    0.203964
      4          8           0       -0.900435    1.423867   -0.428176
      5          8           0       -1.268243   -0.650436    0.374791
      6          1           0        3.420197   -0.458611    0.450457
      7          1           0        2.350605    0.597613   -1.439870
      8          1           0        1.762366   -1.663037   -0.824014
      9          6           0       -2.558412   -0.640823   -0.262821
     10          1           0       -3.005164   -1.604545   -0.028823
     11          1           0       -2.452179   -0.517988   -1.341766
     12          1           0       -3.172050    0.172372    0.127680
     13          1           0        1.133019    1.322002    1.207386
     14          1           0        0.751556   -0.339644    1.725422
 ---------------------------------------------------------------------

 SCF Done:  E(RHF) =  -558.308249762     A.U. after    2 cycles

 The electronic state is 1-A.
 Alpha  occ. eigenvalues --  -76.22608 -21.09073 -21.04613 -11.52401 -11.41525
 Alpha  occ. eigenvalues --  -11.38469  -5.56054  -2.19751  -2.18382  -2.18256
 Alpha  occ. eigenvalues --   -1.83939  -1.65872  -1.12346  -1.00216  -0.78520
 Alpha  occ. eigenvalues --   -0.74033  -0.66869  -0.63227  -0.62273  -0.55296
 Alpha  occ. eigenvalues --   -0.53501  -0.52029  -0.47520  -0.47235  -0.42578
 Alpha  occ. eigenvalues --   -0.40610  -0.32302  -0.29483
 Alpha virt. eigenvalues --    0.03608   0.04590   0.05119   0.05694   0.05914
 Alpha virt. eigenvalues --    0.06433   0.07382   0.07790   0.08855   0.09981
 Alpha virt. eigenvalues --    0.10290   0.11184   0.13606   0.14324   0.14533

 Mulliken charges:
               1
     1  C   -5.087089
     2  Si   5.963655
     3  C    6.553814
     4  O   -3.217754
     5  O   -3.125234
     6  H   -1.674870
     7  H   -1.715158
     8  H   -1.675612
     9  C   -2.830035
    10  H    1.319421
    11  H    1.299243
    12  H    1.317094
    13  H    1.370846
    14  H    1.501678
 Sum of Mulliken charges =  -0.00000

 Dipole moment (field-independent basis, Debye):
    X=             -0.4213    Y=             -1.0645    Z=              0.8249  Tot=              1.4111

 Test job not archived.
 1\1\GINC-SE423\SP\RHF\Aug-CC-pVDZ\C3H8O2Si1\OHZDE\08-Apr-2025\0\\#t hf
  aug-cc-pvdz iop(5/13=1,5/36=2,99/5=2) pseudo=read geom=check guess=(r
 ead,tcheck) scf=(maxcycle=1)\\title\\0,1\C,0,0.817435,0.333255,0.86799
 6\Si,0,2.154034,-0.332709,-0.307445\C,0,-0.524924,0.467954,0.203964\O,
 0,-0.900435,1.423867,-0.428176\O,0,-1.268243,-0.650436,0.374791\H,0,3.
 420197,-0.458611,0.450457\H,0,2.350605,0.597613,-1.43987\H,0,1.762366,
 -1.663037,-0.824014\C,0,-2.558412,-0.640823,-0.262821\H,0,-3.005164,-1
 .604545,-0.028823\H,0,-2.452179,-0.517988,-1.341766\H,0,-3.17205,0.172

 Normal termination of Gaussian 16 at Tue Apr  8 23:51:41 2025.
