 Gaussian 16, Revision C.01,

 ----------------------------------------------------------------------
 #t hf aug-cc-pvdz symm=none int=(grid=ultrafine) guess=(read,tcheck) s
 table=(opt,rrhf)
 ----------------------------------------------------------------------
 -----
 title
 -----
 Symbolic Z-matrix:
 Charge =  0 Multiplicity = 1

 SCF Done:  E(RHF) =  -899.884272479     A.U. after   14 cycles
 Normal termination of Gaussian 16 at Tue Apr  8 23:15:55 2025.
 Gaussian 16:  ES64L-G16RevC.01  3-Jul-2019

 ----------------------------------------------------------------------
 #t hf aug-cc-pvdz iop(5/13=1,5/36=2,99/5=2) pseudo=read geom=check gue
 ss=(read,tcheck) scf=(maxcycle=1)
 ----------------------------------------------------------------------
 -----
 title
 -----
 Structure from the checkpoint file:  "BDE49_expt_694_mol1.chk"
 Charge =  0 Multiplicity = 1

                         Standard orientation:
 ---------------------------------------------------------------------
 Center     Atomic      Atomic             Coordinates (Angstroms)
 Number     Number       Type             X           Y           Z
 ---------------------------------------------------------------------
      1          6           0       -1.392194   -0.699199   -0.045246
      2          6           0       -0.079838   -1.447411    0.027117
      3          6           0        0.944126   -0.605412    0.001755
      4          6           0        0.534416    0.851312   -0.094923
      5          7           0       -0.901455    0.650228   -0.459595
      6          6           0       -2.327735   -1.234541   -1.139204
      7          1           0       -1.805436   -1.269854   -2.096112
      8          1           0       -3.187624   -0.568454   -1.243353
      9          1           0       -2.693046   -2.236342   -0.893549
     10          6           0       -2.114861   -0.729725    1.319983
     11          1           0       -1.486138   -0.348953    2.128200
     12          1           0       -2.382112   -1.758567    1.572793
     13          1           0       -3.040074   -0.149112    1.281574
     14          6           0        0.767384    1.581336    1.244835
     15          1           0        0.273275    1.079626    2.080154
     16          1           0        0.411131    2.612162    1.184108
     17          1           0        1.836103    1.611106    1.466375
     18          6           0        1.223657    1.614701   -1.233312
     19          1           0        1.125019    1.065100   -2.170204
     20          1           0        2.283583    1.776183   -1.022596
     21          1           0        0.738002    2.585734   -1.353070
     22          8           0       -1.746220    1.717914   -0.093195
     23          1           0       -1.764390    1.765644    0.876471
     24         17           0        2.627062   -1.054148    0.092180
     25          1           0       -0.018116   -2.525024    0.098840
 ---------------------------------------------------------------------

 SCF Done:  E(RHF) =  -902.278262266     A.U. after    2 cycles

 The electronic state is 1-A.
 Alpha  occ. eigenvalues --  -99.89835 -21.08847 -15.73852 -11.51217 -11.47210
 Alpha  occ. eigenvalues --  -11.45181 -11.41761 -11.40465 -11.39731 -11.38821
 Alpha  occ. eigenvalues --  -11.36304 -10.47188  -9.67391  -9.66459  -9.66232
 Alpha  occ. eigenvalues --   -1.77987  -1.43386  -1.31549  -1.22436  -1.08513
 Alpha  occ. eigenvalues --   -1.07773  -1.01741  -1.01555  -0.90389  -0.79258
 Alpha  occ. eigenvalues --   -0.77788  -0.69004  -0.64731  -0.62705  -0.62213
 Alpha  occ. eigenvalues --   -0.60847  -0.60056  -0.56983  -0.55982  -0.55151
 Alpha  occ. eigenvalues --   -0.54255  -0.53782  -0.52645  -0.50091  -0.48017
 Alpha  occ. eigenvalues --   -0.46184  -0.45985  -0.43915  -0.41646  -0.35845
 Alpha  occ. eigenvalues --   -0.32556  -0.30805
 Alpha virt. eigenvalues --    0.03733   0.04755   0.05036   0.05318   0.05421
 Alpha virt. eigenvalues --    0.05927   0.06010   0.06852   0.07097   0.07703
 Alpha virt. eigenvalues --    0.08186   0.08299   0.08560   0.09194   0.10634

 Mulliken charges:
               1
     1  C    0.784423
     2  C   -1.502180
     3  C    2.022323
     4  C    4.446171
     5  N   -0.849413
     6  C   -4.818374
     7  H    1.312801
     8  H    1.333504
     9  H    1.205782
    10  C   -3.892319
    11  H    1.268597
    12  H    1.197661
    13  H    1.322459
    14  C   -4.703381
    15  H    1.102748
    16  H    1.339389
    17  H    1.098771
    18  C   -5.767170
    19  H    1.249366
    20  H    1.096164
    21  H    1.334909
    22  O   -2.838844
    23  H    0.871942
    24  Cl  -0.403090
    25  H    1.787759
 Sum of Mulliken charges =  -0.00000

 Dipole moment (field-independent basis, Debye):
    X=             -1.7907    Y=              0.0474    Z=              0.8507  Tot=              1.9831

 Test job not archived.
 1\1\GINC-SE403\SP\RHF\Aug-CC-pVDZ\C8H14Cl1N1O1\OHZDE\08-Apr-2025\0\\#t
  hf aug-cc-pvdz iop(5/13=1,5/36=2,99/5=2) pseudo=read geom=check guess
 =(read,tcheck) scf=(maxcycle=1)\\title\\0,1\C,0,-1.392194,-0.699199,-0
 .045246\C,0,-0.079838,-1.447411,0.027117\C,0,0.944126,-0.605412,0.0017
 55\C,0,0.534416,0.851312,-0.094923\N,0,-0.901455,0.650228,-0.459595\C,
 0,-2.327735,-1.234542,-1.139204\H,0,-1.805436,-1.269854,-2.096112\H,0,
 -3.187624,-0.568455,-1.243353\H,0,-2.693045,-2.236343,-0.893549\C,0,-2
 .114861,-0.729726,1.319983\H,0,-1.486138,-0.348953,2.1282\H,0,-2.38211

 Normal termination of Gaussian 16 at Tue Apr  8 23:16:14 2025.
