 Gaussian 16, Revision C.01,

 ----------------------------------------------------------------------
 #t hf aug-cc-pvdz symm=none int=(grid=ultrafine) guess=(read,tcheck) s
 table=(opt,rrhf)
 ----------------------------------------------------------------------
 -----
 title
 -----
 Symbolic Z-matrix:
 Charge =  0 Multiplicity = 1

 SCF Done:  E(RHF) =  -1084.26876906     A.U. after   14 cycles
 Normal termination of Gaussian 16 at Wed Apr  9 00:17:38 2025.
 Gaussian 16:  ES64L-G16RevC.01  3-Jul-2019

 ----------------------------------------------------------------------
 #t hf aug-cc-pvdz iop(5/13=1,5/36=2,99/5=2) pseudo=read geom=check gue
 ss=(read,tcheck) scf=(maxcycle=1)
 ----------------------------------------------------------------------
 -----
 title
 -----
 Structure from the checkpoint file:  "BDE49_nonexpt_2552_mol1.chk"
 Charge =  0 Multiplicity = 1

                         Standard orientation:
 ---------------------------------------------------------------------
 Center     Atomic      Atomic             Coordinates (Angstroms)
 Number     Number       Type             X           Y           Z
 ---------------------------------------------------------------------
      1         17           0       -2.301556    0.375818    0.000623
      2         16           0       -0.738382   -0.960210   -0.000217
      3          6           0        0.659043    0.192028   -0.000566
      4          8           0        0.615069    1.382853   -0.000262
      5          8           0        1.748048   -0.586458   -0.000272
      6          6           0        3.017302    0.110214    0.000037
      7          1           0        3.770326   -0.673114    0.000243
      8          1           0        3.103399    0.731502    0.891665
      9          1           0        3.103845    0.731463   -0.891577
 ---------------------------------------------------------------------

 SCF Done:  E(RHF) =  -1085.69703614     A.U. after    2 cycles

 The electronic state is 1-A.
 Alpha  occ. eigenvalues --  -99.91861 -75.76514 -21.12423 -21.08362 -13.18553
 Alpha  occ. eigenvalues --  -13.13195 -13.07570 -11.54969 -11.43897 -10.49028
 Alpha  occ. eigenvalues --   -9.68763  -9.68111  -9.67967  -8.10408  -1.87182
 Alpha  occ. eigenvalues --   -1.69996  -1.35516  -1.13634  -1.02858  -0.78252
 Alpha  occ. eigenvalues --   -0.69540  -0.65851  -0.61106  -0.58694  -0.57376
 Alpha  occ. eigenvalues --   -0.55097  -0.54364  -0.50603  -0.43300  -0.35276
 Alpha  occ. eigenvalues --   -0.30431  -0.27843
 Alpha virt. eigenvalues --    0.02862   0.04043   0.05509   0.06282   0.06827
 Alpha virt. eigenvalues --    0.08672   0.11920   0.11944   0.12490   0.13345
 Alpha virt. eigenvalues --    0.13671   0.14467   0.15168   0.15359   0.17229

 Mulliken charges:
               1
     1  Cl  -0.343547
     2  S    1.042675
     3  C    3.073018
     4  O   -2.340530
     5  O   -2.527079
     6  C   -2.849903
     7  H    1.340615
     8  H    1.302371
     9  H    1.302380
 Sum of Mulliken charges =  -0.00000

 Dipole moment (field-independent basis, Debye):
    X=              3.3114    Y=             -2.9382    Z=              0.0001  Tot=              4.4270

 Test job not archived.
 1\1\GINC-SE455\SP\RHF\Aug-CC-pVDZ\C2H3Cl1O2S1\OHZDE\09-Apr-2025\0\\#t
 hf aug-cc-pvdz iop(5/13=1,5/36=2,99/5=2) pseudo=read geom=check guess=
 (read,tcheck) scf=(maxcycle=1)\\title\\0,1\Cl,0,2.301556,0.375818,-0.0
 00623\S,0,0.738382,-0.96021,0.000217\C,0,-0.659043,0.192028,0.000566\O
 ,0,-0.615069,1.382853,0.000262\O,0,-1.748048,-0.586458,0.000272\C,0,-3
 .017302,0.110214,-0.000037\H,0,-3.770326,-0.673114,-0.000243\H,0,-3.10
 3399,0.731502,-0.891665\H,0,-3.103845,0.731463,0.891577\\Version=ES64L
 -G16RevC.01\State=1-A\HF=-1085.6970361\RMSD=6.238e-02\Dipole=-1.302824

 Normal termination of Gaussian 16 at Wed Apr  9 00:17:41 2025.
