 Gaussian 16, Revision C.01,

 ----------------------------------------------------------------------
 #t hf aug-cc-pvdz symm=none int=(grid=ultrafine) guess=(read,tcheck) s
 table=(opt,rrhf)
 ----------------------------------------------------------------------
 -----
 title
 -----
 Symbolic Z-matrix:
 Charge =  0 Multiplicity = 1

 SCF Done:  E(RHF) =  -408.165852642     A.U. after   13 cycles
 Normal termination of Gaussian 16 at Tue Apr  8 23:38:36 2025.
 Gaussian 16:  ES64L-G16RevC.01  3-Jul-2019

 ----------------------------------------------------------------------
 #t hf aug-cc-pvdz iop(5/13=1,5/36=2,99/5=2) pseudo=read geom=check gue
 ss=(read,tcheck) scf=(maxcycle=1)
 ----------------------------------------------------------------------
 -----
 title
 -----
 Structure from the checkpoint file:  "BDE49_nonexpt_149_mol1.chk"
 Charge =  0 Multiplicity = 1

                         Standard orientation:
 ---------------------------------------------------------------------
 Center     Atomic      Atomic             Coordinates (Angstroms)
 Number     Number       Type             X           Y           Z
 ---------------------------------------------------------------------
      1          5           0        0.705919   -1.281489   -0.386278
      2          5           0       -0.705932   -1.281483    0.386162
      3          5           0       -2.107505   -0.424520   -0.028690
      4          8           0       -2.445258    0.802834    0.451409
      5          6           0       -3.120287   -1.075338   -1.055468
      6          1           0       -3.276570   -2.144623   -0.879466
      7          1           0       -2.714222   -0.994290   -2.072279
      8          1           0       -4.091116   -0.571160   -1.041913
      9          6           0       -1.655211    1.522060    1.392592
     10          1           0       -2.133101    1.481190    2.374697
     11          1           0       -1.599526    2.564666    1.073181
     12          1           0       -0.640129    1.117774    1.470234
     13          5           0        2.107479   -0.424546    0.028710
     14          8           0        2.445261    0.802808   -0.451370
     15          6           0        3.120213   -1.075382    1.055523
     16          1           0        2.713651   -0.995491    2.072220
     17          1           0        4.090710   -0.570546    1.042774
     18          1           0        3.277310   -2.144417    0.878693
     19          6           0        1.655304    1.522075   -1.392590
     20          1           0        2.133953    1.482264   -2.374366
     21          1           0        1.598543    2.564420   -1.072506
     22          1           0        0.640604    1.117028   -1.471269
     23          1           0       -0.817363   -2.026157    1.326534
     24          1           0        0.817311   -2.026092   -1.326706
 ---------------------------------------------------------------------

 SCF Done:  E(RHF) =  -410.045976939     A.U. after    2 cycles

 The electronic state is 1-A.
 Alpha  occ. eigenvalues --  -21.02830 -21.02819 -11.42012 -11.41628 -11.32905
 Alpha  occ. eigenvalues --  -11.32797  -7.59519  -7.59363  -7.57113  -7.56239
 Alpha  occ. eigenvalues --   -1.76703  -1.76529  -1.08480  -1.07578  -0.98179
 Alpha  occ. eigenvalues --   -0.97923  -0.93921  -0.77227  -0.66756  -0.62411
 Alpha  occ. eigenvalues --   -0.61451  -0.61346  -0.61062  -0.61009  -0.55462
 Alpha  occ. eigenvalues --   -0.55376  -0.53928  -0.53470  -0.48374  -0.47603
 Alpha  occ. eigenvalues --   -0.43453  -0.43037  -0.42960  -0.38207  -0.36606
 Alpha  occ. eigenvalues --   -0.33242  -0.30039
 Alpha virt. eigenvalues --    0.01146   0.01624   0.02316   0.03284   0.06347
 Alpha virt. eigenvalues --    0.06467   0.06679   0.06782   0.07347   0.07580
 Alpha virt. eigenvalues --    0.07724   0.07871   0.08043   0.08693   0.08724

 Mulliken charges:
               1
     1  B    0.429209
     2  B    0.431719
     3  B    9.102666
     4  O   -4.546072
     5  C   -6.832548
     6  H    0.860318
     7  H    0.822124
     8  H    1.348850
     9  C   -2.765324
    10  H    1.339997
    11  H    1.342711
    12  H    1.952134
    13  B    9.103853
    14  O   -4.546792
    15  C   -6.832257
    16  H    0.822356
    17  H    1.348892
    18  H    0.859815
    19  C   -2.765225
    20  H    1.339869
    21  H    1.342820
    22  H    1.951947
    23  H   -3.056034
    24  H   -3.055028
 Sum of Mulliken charges =  -0.00000

 Dipole moment (field-independent basis, Debye):
    X=              0.0000    Y=              1.3730    Z=             -0.0001  Tot=              1.3730

 Test job not archived.
 1\1\GINC-SE362\SP\RHF\Aug-CC-pVDZ\C4H14B4O2\OHZDE\08-Apr-2025\0\\#t hf
  aug-cc-pvdz iop(5/13=1,5/36=2,99/5=2) pseudo=read geom=check guess=(r
 ead,tcheck) scf=(maxcycle=1)\\title\\0,1\B,0,0.705919,1.281489,0.38627
 8\B,0,-0.705932,1.281483,-0.386162\B,0,-2.107505,0.42452,0.02869\O,0,-
 2.445258,-0.802834,-0.451409\C,0,-3.120287,1.075338,1.055468\H,0,-3.27
 657,2.144623,0.879466\H,0,-2.714222,0.99429,2.072279\H,0,-4.091116,0.5
 7116,1.041913\C,0,-1.655211,-1.52206,-1.392592\H,0,-2.133101,-1.48119,
 -2.374697\H,0,-1.599526,-2.564666,-1.073181\H,0,-0.640129,-1.117774,-1

 Normal termination of Gaussian 16 at Tue Apr  8 23:38:47 2025.
