 Gaussian 16, Revision C.01,

 ----------------------------------------------------------------------
 #t hf aug-cc-pvdz symm=none int=(grid=ultrafine) guess=(read,tcheck) s
 table=(opt,rrhf)
 ----------------------------------------------------------------------
 -----
 title
 -----
 Symbolic Z-matrix:
 Charge =  0 Multiplicity = 1

 SCF Done:  E(RHF) =  -327.062771240     A.U. after   15 cycles
 Normal termination of Gaussian 16 at Wed Apr  9 00:38:20 2025.
 Gaussian 16:  ES64L-G16RevC.01  3-Jul-2019

 ----------------------------------------------------------------------
 #t hf aug-cc-pvdz iop(5/13=1,5/36=2,99/5=2) pseudo=read geom=check gue
 ss=(read,tcheck) scf=(maxcycle=1)
 ----------------------------------------------------------------------
 -----
 title
 -----
 Structure from the checkpoint file:  "BDE49_nonexpt_561_mol1.chk"
 Charge =  0 Multiplicity = 1

                         Standard orientation:
 ---------------------------------------------------------------------
 Center     Atomic      Atomic             Coordinates (Angstroms)
 Number     Number       Type             X           Y           Z
 ---------------------------------------------------------------------
      1          6           0        0.001345    1.114285   -0.000008
      2          6           0        1.379910    1.279657   -0.000002
      3          6           0        2.202577    0.154731    0.000006
      4          7           0        1.722499   -1.091206    0.000009
      5          6           0        0.400540   -1.243648    0.000004
      6          6           0       -0.515839   -0.183457   -0.000004
      7          1           0        1.813410    2.272865   -0.000004
      8          1           0        3.283530    0.255874    0.000011
      9          1           0       -0.660532    1.970217   -0.000015
     10          5           0       -3.004527    0.390237   -0.000003
     11          1           0        0.032990   -2.269285    0.000006
     12          7           0       -1.898477   -0.467501   -0.000011
     13          1           0       -2.857978    1.569887    0.000040
     14          1           0       -4.085995   -0.106268    0.000026
     15          1           0       -2.082143   -1.462934   -0.000017
 ---------------------------------------------------------------------

 SCF Done:  E(RHF) =  -328.600986246     A.U. after    2 cycles

 The electronic state is 1-A.
 Alpha  occ. eigenvalues --  -15.74552 -15.74372 -11.49882 -11.45647 -11.43668
 Alpha  occ. eigenvalues --  -11.42711 -11.38363  -7.61949  -1.48032  -1.37933
 Alpha  occ. eigenvalues --   -1.17579  -1.10200  -0.92014  -0.89836  -0.80539
 Alpha  occ. eigenvalues --   -0.73424  -0.69194  -0.61668  -0.59614  -0.56659
 Alpha  occ. eigenvalues --   -0.56233  -0.53027  -0.49202  -0.47500  -0.46220
 Alpha  occ. eigenvalues --   -0.36635  -0.36015  -0.30418
 Alpha virt. eigenvalues --    0.03098   0.03429   0.03916   0.04050   0.05665
 Alpha virt. eigenvalues --    0.06178   0.07628   0.09025   0.09589   0.10149
 Alpha virt. eigenvalues --    0.11393   0.11688   0.12395   0.12559   0.12626

 Mulliken charges:
               1
     1  C    0.003863
     2  C   -1.187802
     3  C   -0.996680
     4  N   -3.624990
     5  C   -1.658608
     6  C    5.031789
     7  H    1.415964
     8  H    1.534076
     9  H    2.008446
    10  B    7.262835
    11  H    1.677687
    12  N   -5.571136
    13  H   -3.297767
    14  H   -3.955639
    15  H    1.357963
 Sum of Mulliken charges =   0.00000

 Dipole moment (field-independent basis, Debye):
    X=             -0.6185    Y=              0.5859    Z=             -0.0001  Tot=              0.8519

 Test job not archived.
 1\1\GINC-SE332\SP\RHF\Aug-CC-pVDZ\C5H7B1N2\OHZDE\09-Apr-2025\0\\#t hf
 aug-cc-pvdz iop(5/13=1,5/36=2,99/5=2) pseudo=read geom=check guess=(re
 ad,tcheck) scf=(maxcycle=1)\\title\\0,1\C,0,-0.001345,1.114285,0.00000
 8\C,0,-1.37991,1.279657,0.000002\C,0,-2.202577,0.154731,-0.000006\N,0,
 -1.722499,-1.091206,-0.000009\C,0,-0.40054,-1.243648,-0.000004\C,0,0.5
 15839,-0.183457,0.000004\H,0,-1.81341,2.272865,0.000004\H,0,-3.28353,0
 .255874,-0.000011\H,0,0.660532,1.970217,0.000015\B,0,3.004527,0.390237
 ,0.000003\H,0,-0.03299,-2.269285,-0.000006\N,0,1.898477,-0.467501,0.00

 Normal termination of Gaussian 16 at Wed Apr  9 00:38:25 2025.
