 Gaussian 16, Revision C.01,

 ----------------------------------------------------------------------
 #t hf aug-cc-pvdz symm=none int=(grid=ultrafine) guess=(read,tcheck) s
 table=opt
 ----------------------------------------------------------------------
 -----
 title
 -----
 Symbolic Z-matrix:
 Charge =  0 Multiplicity = 2

 SCF Done:  E(UHF) =  -785.789867462     A.U. after   19 cycles
 Normal termination of Gaussian 16 at Wed Apr  9 00:33:12 2025.
 Gaussian 16:  ES64L-G16RevC.01  3-Jul-2019

 ----------------------------------------------------------------------
 #t hf aug-cc-pvdz iop(5/13=1,5/36=2,99/5=2) pseudo=read geom=check gue
 ss=(read,tcheck) scf=(maxcycle=1)
 ----------------------------------------------------------------------
 -----
 title
 -----
 Structure from the checkpoint file:  "BDE49_nonexpt_403_mol2.chk"
 Charge =  0 Multiplicity = 2

                         Standard orientation:
 ---------------------------------------------------------------------
 Center     Atomic      Atomic             Coordinates (Angstroms)
 Number     Number       Type             X           Y           Z
 ---------------------------------------------------------------------
      1          9           0       -2.469759   -0.919102   -0.080506
      2          5           0       -1.192224   -1.065611   -0.215254
      3         16           0       -0.030543    0.433514    0.063996
      4          8           0        0.226882    0.449129    1.487258
      5          8           0        1.313127   -0.015936   -0.710675
      6          6           0        2.183046   -0.981539   -0.069989
      7          1           0        3.064595   -1.027814   -0.705729
      8          1           0        1.701889   -1.961913   -0.030772
      9          1           0        2.448255   -0.646086    0.931423
     10          8           0       -0.494431    1.590407   -0.651344
 ---------------------------------------------------------------------

 SCF Done:  E(UHF) =  -787.594754592     A.U. after    2 cycles

 The electronic state is 2-A.
 Alpha  occ. eigenvalues --  -75.92211 -29.31949 -21.11262 -21.07413 -21.07255
 Alpha  occ. eigenvalues --  -13.55071 -13.45411 -13.37116 -11.44511  -8.27339
 Alpha  occ. eigenvalues --   -7.76347  -1.92105  -1.74572  -1.67749  -1.10913
 Alpha  occ. eigenvalues --   -1.04076  -0.90214  -0.69413  -0.66874  -0.63687
 Alpha  occ. eigenvalues --   -0.60393  -0.55754  -0.51518  -0.50699  -0.46681
 Alpha  occ. eigenvalues --   -0.45242  -0.43989  -0.41566  -0.39791  -0.38541
 Alpha  occ. eigenvalues --   -0.37469  -0.24322
 Alpha virt. eigenvalues --    0.02378   0.03126   0.03644   0.06217   0.06591
 Alpha virt. eigenvalues --    0.07692   0.08694   0.08942   0.12889   0.13333
 Alpha virt. eigenvalues --    0.13722   0.14505   0.15756   0.15992   0.17240

  Beta  occ. eigenvalues --  -75.92073 -29.31697 -21.11294 -21.07325 -21.07025
  Beta  occ. eigenvalues --  -13.55034 -13.45333 -13.36470 -11.44499  -8.27143
  Beta  occ. eigenvalues --   -7.74303  -1.91863  -1.74433  -1.67342  -1.08846
  Beta  occ. eigenvalues --   -1.02757  -0.88851  -0.68999  -0.66407  -0.63405
  Beta  occ. eigenvalues --   -0.59956  -0.52282  -0.50133  -0.47388  -0.45656
  Beta  occ. eigenvalues --   -0.44546  -0.42721  -0.40918  -0.38495  -0.37354
  Beta  occ. eigenvalues --   -0.35453
  Beta virt. eigenvalues --    0.01452   0.03284   0.03610   0.05502   0.06534
  Beta virt. eigenvalues --    0.07139   0.07742   0.09542   0.10635   0.13254
  Beta virt. eigenvalues --    0.13481   0.14309   0.14966   0.15925   0.16332

 Mulliken charges and spin densities:
               1          2
     1  F   -0.011235  -0.046155
     2  B    0.503328   0.946547
     3  S    6.063321   0.012625
     4  O   -2.484347   0.041436
     5  O   -2.875239   0.002954
     6  C   -2.840187  -0.009115
     7  H    1.261252  -0.001852
     8  H    1.527379  -0.009875
     9  H    1.385035  -0.003382
    10  O   -2.529307   0.066816
 Sum of Mulliken charges =  -0.00000   1.00000

 Dipole moment (field-independent basis, Debye):
    X=             -2.3845    Y=             -1.2964    Z=             -0.0432  Tot=              2.7145
                          Isotropic Fermi Contact Couplings
        Atom                 a.u.       MegaHertz       Gauss      10(-4) cm-1
     1  F(19)              0.03313     139.37986      49.73420      46.49212
     2  B(11)              0.20863     299.25690     106.78230      99.82136
     3  S(33)              0.43297     148.71336      53.06463      49.60544
     4  O(17)              0.00842      -5.10656      -1.82215      -1.70337
     5  O(17)             -0.00402       2.43770       0.86983       0.81313
     6  C(13)              0.00211       2.36670       0.84450       0.78944
     7  H(1)               0.00030       1.35153       0.48226       0.45082
     8  H(1)               0.00023       1.01263       0.36133       0.33778

 Normal termination of Gaussian 16 at Wed Apr  9 00:33:16 2025.
