 Gaussian 16, Revision C.01,

 ----------------------------------------------------------------------
 #t hf aug-cc-pvdz symm=none int=(grid=ultrafine) guess=(read,tcheck) s
 table=(opt,rrhf)
 ----------------------------------------------------------------------
 -----
 title
 -----
 Symbolic Z-matrix:
 Charge =  0 Multiplicity = 1

 SCF Done:  E(RHF) =  -370.303931409     A.U. after   12 cycles
 Normal termination of Gaussian 16 at Wed Apr  9 00:37:50 2025.
 Gaussian 16:  ES64L-G16RevC.01  3-Jul-2019

 ----------------------------------------------------------------------
 #t hf aug-cc-pvdz iop(5/13=1,5/36=2,99/5=2) pseudo=read geom=check gue
 ss=(read,tcheck) scf=(maxcycle=1)
 ----------------------------------------------------------------------
 -----
 title
 -----
 Structure from the checkpoint file:  "BDE49_nonexpt_537_mol1.chk"
 Charge =  0 Multiplicity = 1

                         Standard orientation:
 ---------------------------------------------------------------------
 Center     Atomic      Atomic             Coordinates (Angstroms)
 Number     Number       Type             X           Y           Z
 ---------------------------------------------------------------------
      1          5           0        1.343175    1.109698   -0.000000
      2          1           0        2.377038    1.698334   -0.000000
      3          8           0        0.784764    0.790079    1.200595
      4          8           0        0.784764    0.790079   -1.200595
      5          6           0       -0.636703   -0.783833    0.000000
      6          6           0       -0.459940    0.063387   -1.260229
      7          6           0       -0.459940    0.063387    1.260229
      8          6           0       -0.459940   -0.750635    2.544529
      9          1           0        0.341600   -1.493596    2.523962
     10          1           0       -1.414372   -1.268250    2.675040
     11          1           0       -0.297469   -0.096804    3.403534
     12          1           0       -1.263718    0.809185    1.306519
     13          1           0        0.105516   -1.591507   -0.000000
     14          1           0       -1.627981   -1.247673    0.000000
     15          6           0       -0.459940   -0.750635   -2.544529
     16          1           0       -1.263718    0.809185   -1.306519
     17          1           0        0.341600   -1.493596   -2.523962
     18          1           0       -0.297469   -0.096804   -3.403534
     19          1           0       -1.414372   -1.268250   -2.675040
 ---------------------------------------------------------------------

 SCF Done:  E(RHF) =  -372.020742119     A.U. after    2 cycles

 The electronic state is 1-A'.
 Alpha  occ. eigenvalues --  -21.01933 -21.01897 -11.47019 -11.45711 -11.41471
 Alpha  occ. eigenvalues --  -11.38479 -11.36245  -7.62772  -1.84730  -1.68856
 Alpha  occ. eigenvalues --   -1.23982  -1.10745  -1.01883  -0.86999  -0.86739
 Alpha  occ. eigenvalues --   -0.73263  -0.64603  -0.64280  -0.61479  -0.60429
 Alpha  occ. eigenvalues --   -0.55603  -0.54774  -0.52285  -0.51028  -0.50850
 Alpha  occ. eigenvalues --   -0.48017  -0.45960  -0.42504  -0.36659  -0.33746
 Alpha  occ. eigenvalues --   -0.32262
 Alpha virt. eigenvalues --    0.03568   0.04652   0.04915   0.05120   0.05322
 Alpha virt. eigenvalues --    0.05693   0.05960   0.06106   0.06410   0.07866
 Alpha virt. eigenvalues --    0.08269   0.08899   0.09044   0.10724   0.13267

 Mulliken charges:
               1
     1  B    9.378357
     2  H   -4.503812
     3  O   -5.024352
     4  O   -5.024352
     5  C   -4.272108
     6  C    1.908811
     7  C    1.908811
     8  C   -3.994760
     9  H    1.249491
    10  H    1.251056
    11  H    1.153979
    12  H    1.749271
    13  H    1.322448
    14  H    1.488123
    15  C   -3.994760
    16  H    1.749271
    17  H    1.249491
    18  H    1.153979
    19  H    1.251056
 Sum of Mulliken charges =   0.00000

 Dipole moment (field-independent basis, Debye):
    X=             -1.8405    Y=             -1.0536    Z=             -0.0000  Tot=              2.1207

 Test job not archived.
 1\1\GINC-SE253\SP\RHF\Aug-CC-pVDZ\C5H11B1O2\OHZDE\09-Apr-2025\0\\#t hf
  aug-cc-pvdz iop(5/13=1,5/36=2,99/5=2) pseudo=read geom=check guess=(r
 ead,tcheck) scf=(maxcycle=1)\\title\\0,1\B,0,1.343175,1.109698,0.\H,0,
 2.377038,1.698334,0.\O,0,0.784764,0.790079,1.200595\O,0,0.784764,0.790
 079,-1.200595\C,0,-0.636703,-0.783833,0.\C,0,-0.45994,0.063387,-1.2602
 29\C,0,-0.45994,0.063387,1.260229\C,0,-0.45994,-0.750635,2.544529\H,0,
 0.3416,-1.493596,2.523962\H,0,-1.414372,-1.26825,2.67504\H,0,-0.297469
 ,-0.096804,3.403534\H,0,-1.263718,0.809185,1.306519\H,0,0.105516,-1.59

 Normal termination of Gaussian 16 at Wed Apr  9 00:37:55 2025.
