 Gaussian 16, Revision C.01,

 ----------------------------------------------------------------------
 #t hf aug-cc-pvdz symm=none int=(grid=ultrafine) guess=(read,tcheck) s
 table=(opt,rrhf)
 ----------------------------------------------------------------------
 -----
 title
 -----
 Symbolic Z-matrix:
 Charge =  0 Multiplicity = 1

 SCF Done:  E(RHF) =  -727.093807143     A.U. after   15 cycles
 Normal termination of Gaussian 16 at Wed Apr  9 00:24:29 2025.
 Gaussian 16:  ES64L-G16RevC.01  3-Jul-2019

 ----------------------------------------------------------------------
 #t hf aug-cc-pvdz iop(5/13=1,5/36=2,99/5=2) pseudo=read geom=check gue
 ss=(read,tcheck) scf=(maxcycle=1)
 ----------------------------------------------------------------------
 -----
 title
 -----
 Structure from the checkpoint file:  "BDE49_nonexpt_2693_mol1.chk"
 Charge =  0 Multiplicity = 1

                         Standard orientation:
 ---------------------------------------------------------------------
 Center     Atomic      Atomic             Coordinates (Angstroms)
 Number     Number       Type             X           Y           Z
 ---------------------------------------------------------------------
      1          9           0        2.482151    0.000004    1.036341
      2         16           0        1.892978   -0.000003   -0.548800
      3          6           0        0.154869   -0.000001   -0.239541
      4          6           0       -0.538870    1.213521   -0.131001
      5          1           0        0.007262    2.144751   -0.216007
      6          6           0       -1.912694    1.210326    0.085845
      7          1           0       -2.449448    2.148139    0.170039
      8          6           0       -2.597400    0.000001    0.193919
      9          6           0       -0.538872   -1.213522   -0.130998
     10          1           0        0.007260   -2.144753   -0.216001
     11          6           0       -1.912695   -1.210325    0.085847
     12          1           0       -2.449451   -2.148136    0.170044
     13          1           0       -3.668656    0.000002    0.361230
 ---------------------------------------------------------------------

 SCF Done:  E(RHF) =  -728.756213233     A.U. after    2 cycles

 The electronic state is 1-A.
 Alpha  occ. eigenvalues --  -75.75509 -29.25322 -13.23201 -13.17395 -13.12082
 Alpha  occ. eigenvalues --  -11.53277 -11.45384 -11.45208 -11.43337 -11.42391
 Alpha  occ. eigenvalues --  -11.38542  -8.09391  -1.37816  -1.21329  -1.11315
 Alpha  occ. eigenvalues --   -1.06960  -0.88617  -0.86602  -0.73569  -0.68167
 Alpha  occ. eigenvalues --   -0.63517  -0.60464  -0.59542  -0.55275  -0.51934
 Alpha  occ. eigenvalues --   -0.47292  -0.44596  -0.38940  -0.37303  -0.34880
 Alpha  occ. eigenvalues --   -0.30573  -0.26472  -0.16842
 Alpha virt. eigenvalues --    0.02862   0.04866   0.04904   0.05565   0.06440
 Alpha virt. eigenvalues --    0.07703   0.09442   0.10366   0.10521   0.12062
 Alpha virt. eigenvalues --    0.12416   0.13628   0.13717   0.14104   0.14378

 Mulliken charges:
               1
     1  F   -0.228542
     2  S    0.250860
     3  C    3.067175
     4  C   -3.628218
     5  H    1.692422
     6  C   -0.737028
     7  H    1.521761
     8  C   -2.299869
     9  C   -3.628183
    10  H    1.692421
    11  C   -0.736984
    12  H    1.521762
    13  H    1.512420
 Sum of Mulliken charges =   0.00000

 Dipole moment (field-independent basis, Debye):
    X=             -0.0791    Y=              0.0000    Z=              1.9768  Tot=              1.9784

 Test job not archived.
 1\1\GINC-SE162\SP\RHF\Aug-CC-pVDZ\C6H5F1S1\OHZDE\09-Apr-2025\0\\#t hf
 aug-cc-pvdz iop(5/13=1,5/36=2,99/5=2) pseudo=read geom=check guess=(re
 ad,tcheck) scf=(maxcycle=1)\\title\\0,1\F,0,2.482151,0.000004,1.036341
 \S,0,1.892978,-0.000003,-0.5488\C,0,0.154869,-0.000001,-0.239541\C,0,-
 0.53887,1.213521,-0.131001\H,0,0.007262,2.144751,-0.216007\C,0,-1.9126
 94,1.210326,0.085845\H,0,-2.449448,2.148139,0.170039\C,0,-2.5974,0.000
 001,0.193919\C,0,-0.538872,-1.213522,-0.130998\H,0,0.00726,-2.144753,-
 0.216001\C,0,-1.912695,-1.210325,0.085847\H,0,-2.449451,-2.148136,0.17

 Normal termination of Gaussian 16 at Wed Apr  9 00:24:33 2025.
