 Gaussian 16, Revision C.01,

 ----------------------------------------------------------------------
 #t hf aug-cc-pvdz symm=none int=(grid=ultrafine) guess=(read,tcheck) s
 table=(opt,rrhf)
 ----------------------------------------------------------------------
 -----
 title
 -----
 Symbolic Z-matrix:
 Charge =  0 Multiplicity = 1

 SCF Done:  E(RHF) =  -779.753211554     A.U. after   18 cycles
 Normal termination of Gaussian 16 at Tue Apr  8 23:39:51 2025.
 Gaussian 16:  ES64L-G16RevC.01  3-Jul-2019

 ----------------------------------------------------------------------
 #t hf aug-cc-pvdz iop(5/13=1,5/36=2,99/5=2) pseudo=read geom=check gue
 ss=(read,tcheck) scf=(maxcycle=1)
 ----------------------------------------------------------------------
 -----
 title
 -----
 Structure from the checkpoint file:  "BDE49_nonexpt_1495_mol1.chk"
 Charge =  0 Multiplicity = 1

                         Standard orientation:
 ---------------------------------------------------------------------
 Center     Atomic      Atomic             Coordinates (Angstroms)
 Number     Number       Type             X           Y           Z
 ---------------------------------------------------------------------
      1          6           0       -0.893845   -1.578182   -0.033138
      2          6           0       -2.225998   -1.915762    0.007513
      3          6           0       -3.216682   -0.911045    0.059825
      4          6           0       -2.850406    0.412527    0.062907
      5          6           0       -1.484911    0.795206    0.017352
      6          6           0       -0.475590   -0.220628   -0.025896
      7          1           0       -0.152360   -2.367568   -0.079990
      8          1           0       -2.519449   -2.959472   -0.002895
      9          1           0       -4.264215   -1.188471    0.093703
     10          1           0       -3.605896    1.190805    0.097739
     11          6           0        0.903876    0.168609   -0.059748
     12          6           0        1.227612    1.508691   -0.081022
     13          6           0       -1.098018    2.160908    0.007869
     14          6           0        0.227448    2.507075   -0.045320
     15          1           0       -1.869269    2.923399    0.038855
     16          1           0        0.519825    3.551382   -0.057940
     17          1           0        2.271149    1.796763   -0.124717
     18          7           0        3.623468   -0.220240    0.215847
     19         15           0        2.227462   -1.115631   -0.194869
     20          1           0        1.918095   -1.772898    1.030706
     21          1           0        3.769185    0.081812    1.169751
     22          1           0        4.475808   -0.543998   -0.215162
 ---------------------------------------------------------------------

 SCF Done:  E(RHF) =  -782.047439089     A.U. after    2 cycles

 The electronic state is 1-A.
 Alpha  occ. eigenvalues -- -105.19265 -15.74556 -11.52224 -11.49184 -11.44941
 Alpha  occ. eigenvalues --  -11.44339 -11.42683 -11.41822 -11.41391 -11.41214
 Alpha  occ. eigenvalues --  -11.39001 -11.36138  -2.77153  -1.56916  -1.51756
 Alpha  occ. eigenvalues --   -1.44513  -1.38323  -1.23270  -1.18131  -1.12883
 Alpha  occ. eigenvalues --   -1.07832  -1.03437  -0.88918  -0.87182  -0.83882
 Alpha  occ. eigenvalues --   -0.72826  -0.71713  -0.68406  -0.66653  -0.65259
 Alpha  occ. eigenvalues --   -0.59466  -0.57549  -0.54495  -0.53503  -0.53210
 Alpha  occ. eigenvalues --   -0.50690  -0.45242  -0.44474  -0.42016  -0.41176
 Alpha  occ. eigenvalues --   -0.38646  -0.31301  -0.28582  -0.27908  -0.23284
 Alpha  occ. eigenvalues --   -0.01613
 Alpha virt. eigenvalues --    0.03641   0.04594   0.05172   0.05724   0.06311
 Alpha virt. eigenvalues --    0.06529   0.06866   0.07103   0.07932   0.08851
 Alpha virt. eigenvalues --    0.09188   0.09387   0.10515   0.11312   0.12017

 Mulliken charges:
               1
     1  C   -2.345259
     2  C   -5.252887
     3  C   -3.984882
     4  C   -3.031537
     5  C    6.812653
     6  C    5.296909
     7  H    2.374773
     8  H    1.448857
     9  H    1.484240
    10  H    1.657164
    11  C    0.349664
    12  C   -3.647090
    13  C   -4.444646
    14  C   -3.159108
    15  H    1.751544
    16  H    1.567246
    17  H    1.949715
    18  N   -2.869760
    19  P    3.679226
    20  H   -0.902057
    21  H    0.511491
    22  H    0.753746
 Sum of Mulliken charges =   0.00000

 Dipole moment (field-independent basis, Debye):
    X=              0.1683    Y=              0.5922    Z=              0.1667  Tot=              0.6378

 Test job not archived.
 1\1\GINC-SE284\SP\RHF\Aug-CC-pVDZ\C10H10N1P1\OHZDE\08-Apr-2025\0\\#t h
 f aug-cc-pvdz iop(5/13=1,5/36=2,99/5=2) pseudo=read geom=check guess=(
 read,tcheck) scf=(maxcycle=1)\\title\\0,1\C,0,-0.893845,-1.578182,-0.0
 33138\C,0,-2.225998,-1.915762,0.007513\C,0,-3.216682,-0.911045,0.05982
 5\C,0,-2.850406,0.412527,0.062907\C,0,-1.484911,0.795206,0.017352\C,0,
 -0.47559,-0.220628,-0.025896\H,0,-0.15236,-2.367568,-0.07999\H,0,-2.51
 9449,-2.959472,-0.002895\H,0,-4.264215,-1.188471,0.093703\H,0,-3.60589
 6,1.190805,0.097739\C,0,0.903876,0.168609,-0.059748\C,0,1.227612,1.508

 Normal termination of Gaussian 16 at Tue Apr  8 23:40:07 2025.
