 Gaussian 16, Revision C.01,

 ----------------------------------------------------------------------
 #t hf aug-cc-pvdz symm=none int=(grid=ultrafine) guess=(read,tcheck) s
 table=(opt,rrhf)
 ----------------------------------------------------------------------
 -----
 title
 -----
 Symbolic Z-matrix:
 Charge =  0 Multiplicity = 1

 SCF Done:  E(RHF) =  -695.953737785     A.U. after   15 cycles
 Normal termination of Gaussian 16 at Wed Apr  9 00:48:45 2025.
 Gaussian 16:  ES64L-G16RevC.01  3-Jul-2019

 ----------------------------------------------------------------------
 #t hf aug-cc-pvdz iop(5/13=1,5/36=2,99/5=2) pseudo=read geom=check gue
 ss=(read,tcheck) scf=(maxcycle=1)
 ----------------------------------------------------------------------
 -----
 title
 -----
 Structure from the checkpoint file:  "BDE49_nonexpt_828_mol1.chk"
 Charge =  0 Multiplicity = 1

                         Standard orientation:
 ---------------------------------------------------------------------
 Center     Atomic      Atomic             Coordinates (Angstroms)
 Number     Number       Type             X           Y           Z
 ---------------------------------------------------------------------
      1          6           0        2.318241    1.270464    0.600367
      2          6           0        1.035555    0.764646    0.802736
      3          6           0        3.232898    0.558640   -0.173553
      4          6           0        2.858783   -0.657965   -0.739733
      5          6           0        1.574904   -1.160132   -0.533720
      6          6           0        0.635850   -0.462126    0.242102
      7          1           0        1.301409   -2.110275   -0.981025
      8          1           0        4.231679    0.949562   -0.332693
      9          1           0        3.567337   -1.217085   -1.341136
     10          1           0        2.604367    2.215881    1.048315
     11          1           0        0.342058    1.330405    1.419512
     12          5           0       -2.428343    0.297868   -0.213437
     13          8           0       -3.766431    0.087137   -0.089255
     14          8           0       -2.003905    1.453187   -0.812318
     15          1           0       -1.045232    1.519907   -0.872457
     16          1           0       -4.285935    0.810649   -0.463961
     17         14           0       -1.124175   -1.102105    0.493603
     18          1           0       -1.248550   -2.392030   -0.232097
     19          1           0       -1.361667   -1.370633    1.935676
 ---------------------------------------------------------------------

 SCF Done:  E(RHF) =  -697.940956283     A.U. after    2 cycles

 The electronic state is 1-A.
 Alpha  occ. eigenvalues --  -76.19980 -21.06427 -21.05745 -11.51735 -11.43614
 Alpha  occ. eigenvalues --  -11.42918 -11.41097 -11.40788 -11.36539  -7.63701
 Alpha  occ. eigenvalues --   -5.53724  -2.18626  -2.17289  -2.16200  -1.80843
 Alpha  occ. eigenvalues --   -1.65453  -1.34062  -1.09536  -1.09421  -0.86901
 Alpha  occ. eigenvalues --   -0.86590  -0.79610  -0.73141  -0.69327  -0.64201
 Alpha  occ. eigenvalues --   -0.62397  -0.58908  -0.57275  -0.54869  -0.53167
 Alpha  occ. eigenvalues --   -0.50638  -0.49104  -0.46019  -0.44794  -0.43220
 Alpha  occ. eigenvalues --   -0.39452  -0.36538  -0.35063  -0.33600  -0.32482
 Alpha virt. eigenvalues --    0.02976   0.04357   0.04780   0.05032   0.05485
 Alpha virt. eigenvalues --    0.05751   0.06460   0.07455   0.07682   0.08625
 Alpha virt. eigenvalues --    0.08867   0.09269   0.09688   0.10214   0.10668

 Mulliken charges:
               1
     1  C   -1.190977
     2  C   -1.961495
     3  C   -2.004216
     4  C   -0.777234
     5  C   -2.714181
     6  C   -0.258392
     7  H    1.816325
     8  H    1.524938
     9  H    1.573498
    10  H    1.527749
    11  H    2.017503
    12  B    5.844428
    13  O   -4.090632
    14  O   -4.477024
    15  H    1.646484
    16  H    1.374136
    17  Si   4.050438
    18  H   -1.849897
    19  H   -2.051451
 Sum of Mulliken charges =   0.00000

 Dipole moment (field-independent basis, Debye):
    X=              1.5411    Y=              1.1595    Z=             -0.6467  Tot=              2.0341

 Test job not archived.
 1\1\GINC-SE219\SP\RHF\Aug-CC-pVDZ\C6H9B1O2Si1\OHZDE\09-Apr-2025\0\\#t
 hf aug-cc-pvdz iop(5/13=1,5/36=2,99/5=2) pseudo=read geom=check guess=
 (read,tcheck) scf=(maxcycle=1)\\title\\0,1\C,0,-2.318241,-1.270464,0.6
 00367\C,0,-1.035555,-0.764646,0.802736\C,0,-3.232898,-0.55864,-0.17355
 3\C,0,-2.858783,0.657965,-0.739733\C,0,-1.574904,1.160132,-0.53372\C,0
 ,-0.63585,0.462126,0.242102\H,0,-1.301409,2.110275,-0.981025\H,0,-4.23
 1679,-0.949562,-0.332693\H,0,-3.567337,1.217085,-1.341136\H,0,-2.60436
 7,-2.215881,1.048315\H,0,-0.342058,-1.330405,1.419512\B,0,2.428343,-0.

 Normal termination of Gaussian 16 at Wed Apr  9 00:48:55 2025.
