 Gaussian 16, Revision C.01,

 ----------------------------------------------------------------------
 #t hf aug-cc-pvdz symm=none int=(grid=ultrafine) guess=(read,tcheck) s
 table=(opt,rrhf)
 ----------------------------------------------------------------------
 -----
 title
 -----
 Symbolic Z-matrix:
 Charge =  0 Multiplicity = 1

 SCF Done:  E(RHF) =  -1958.28547850     A.U. after   11 cycles
 Normal termination of Gaussian 16 at Wed Apr  9 00:09:33 2025.
 Gaussian 16:  ES64L-G16RevC.01  3-Jul-2019

 ----------------------------------------------------------------------
 #t hf aug-cc-pvdz iop(5/13=1,5/36=2,99/5=2) pseudo=read geom=check gue
 ss=(read,tcheck) scf=(maxcycle=1)
 ----------------------------------------------------------------------
 -----
 title
 -----
 Structure from the checkpoint file:  "BDE49_nonexpt_2319_mol1.chk"
 Charge =  0 Multiplicity = 1

                         Standard orientation:
 ---------------------------------------------------------------------
 Center     Atomic      Atomic             Coordinates (Angstroms)
 Number     Number       Type             X           Y           Z
 ---------------------------------------------------------------------
      1         14           0        2.303532   -0.000078   -0.000085
      2         14           0       -0.044068   -0.000003   -0.000008
      3         17           0       -0.783230   -1.493790   -1.226027
      4          1           0        2.768567    0.228487   -1.385027
      5         17           0       -0.783054    1.808739   -0.680617
      6          1           0        2.768607    1.085026    0.890326
      7         17           0       -0.783022   -0.314867    1.906737
      8          1           0        2.768534   -1.313782    0.494420
 ---------------------------------------------------------------------

 SCF Done:  E(RHF) =  -1959.32330830     A.U. after    2 cycles

 The electronic state is 1-A.
 Alpha  occ. eigenvalues --  -99.90628 -99.90628 -99.90627 -76.34321 -76.24741
 Alpha  occ. eigenvalues --  -10.48099 -10.48099 -10.48010  -9.67941  -9.67917
 Alpha  occ. eigenvalues --   -9.67917  -9.67436  -9.67436  -9.67297  -9.67247
 Alpha  occ. eigenvalues --   -9.67247  -9.67150  -5.67899  -5.58195  -2.29558
 Alpha  occ. eigenvalues --   -2.29558  -2.27918  -2.20288  -2.20288  -2.19237
 Alpha  occ. eigenvalues --   -1.33861  -1.29801  -1.29801  -0.83743  -0.75833
 Alpha  occ. eigenvalues --   -0.62030  -0.62030  -0.59097  -0.56615  -0.56615
 Alpha  occ. eigenvalues --   -0.53504  -0.53504  -0.51685  -0.49764  -0.49763
 Alpha  occ. eigenvalues --   -0.39858
 Alpha virt. eigenvalues --    0.03113   0.04844   0.05521   0.05521   0.05842
 Alpha virt. eigenvalues --    0.07260   0.07260   0.07754   0.08215   0.08215
 Alpha virt. eigenvalues --    0.09802   0.09802   0.12086   0.12968   0.12968

 Mulliken charges:
               1
     1  Si   5.205079
     2  Si   1.727321
     3  Cl  -0.836656
     4  H   -1.474186
     5  Cl  -0.836651
     6  H   -1.474120
     7  Cl  -0.836649
     8  H   -1.474139
 Sum of Mulliken charges =  -0.00000

 Dipole moment (field-independent basis, Debye):
    X=              2.3753    Y=             -0.0001    Z=             -0.0001  Tot=              2.3753

 Test job not archived.
 1\1\GINC-SE398\SP\RHF\Aug-CC-pVDZ\Cl3H3Si2\OHZDE\09-Apr-2025\0\\#t hf
 aug-cc-pvdz iop(5/13=1,5/36=2,99/5=2) pseudo=read geom=check guess=(re
 ad,tcheck) scf=(maxcycle=1)\\title\\0,1\Si,0,2.303532,0.000078,0.00008
 5\Si,0,-0.044068,0.000003,0.000008\Cl,0,-0.78323,1.496125,1.223176\H,0
 ,2.768567,-0.225846,1.385461\Cl,0,-0.783055,-1.807438,0.684064\H,0,2.7
 68607,-1.086722,-0.888255\Cl,0,-0.783021,0.311231,-1.907334\H,0,2.7685
 35,1.312836,-0.496923\\Version=ES64L-G16RevC.01\State=1-A\HF=-1959.323
 3083\RMSD=5.175e-02\Dipole=0.9345034,0.0000411,0.0000456\Quadrupole=1.

 Normal termination of Gaussian 16 at Wed Apr  9 00:09:36 2025.
