 Gaussian 16, Revision C.01,

 ----------------------------------------------------------------------
 #t hf aug-cc-pvdz symm=none int=(grid=ultrafine) guess=(read,tcheck) s
 table=(opt,rrhf)
 ----------------------------------------------------------------------
 -----
 title
 -----
 Symbolic Z-matrix:
 Charge =  0 Multiplicity = 1

 SCF Done:  E(RHF) =  -587.381391119     A.U. after   12 cycles
 Normal termination of Gaussian 16 at Tue Apr  8 23:14:49 2025.
 Gaussian 16:  ES64L-G16RevC.01  3-Jul-2019

 ----------------------------------------------------------------------
 #t hf aug-cc-pvdz iop(5/13=1,5/36=2,99/5=2) pseudo=read geom=check gue
 ss=(read,tcheck) scf=(maxcycle=1)
 ----------------------------------------------------------------------
 -----
 title
 -----
 Structure from the checkpoint file:  "BDE49_expt_840_mol1.chk"
 Charge =  0 Multiplicity = 1

                         Standard orientation:
 ---------------------------------------------------------------------
 Center     Atomic      Atomic             Coordinates (Angstroms)
 Number     Number       Type             X           Y           Z
 ---------------------------------------------------------------------
      1          6           0        1.570500   -0.000000   -0.109085
      2         16           0       -0.191276    0.000000    0.203807
      3          1           0        2.003400    0.902637    0.321921
      4          1           0        1.693048   -0.000000   -1.193103
      5          1           0        2.003400   -0.902638    0.321922
      6          8           0       -0.741662   -1.263928   -0.226595
      7          8           0       -0.741661    1.263928   -0.226595
      8          1           0       -0.195848    0.000000    1.568371
 ---------------------------------------------------------------------

 SCF Done:  E(RHF) =  -588.486544992     A.U. after    2 cycles

 The electronic state is 1-A.
 Alpha  occ. eigenvalues --  -75.89981 -21.05499 -21.05483 -13.52769 -13.41354
 Alpha  occ. eigenvalues --  -13.32616 -11.43229  -8.24972  -1.83755  -1.65491
 Alpha  occ. eigenvalues --   -1.16439  -0.94072  -0.68865  -0.64072  -0.60509
 Alpha  occ. eigenvalues --   -0.56929  -0.44941  -0.41225  -0.40301  -0.38198
 Alpha  occ. eigenvalues --   -0.36271
 Alpha virt. eigenvalues --    0.02378   0.03901   0.05052   0.06106   0.09973
 Alpha virt. eigenvalues --    0.11181   0.11433   0.13244   0.13890   0.15707
 Alpha virt. eigenvalues --    0.15760   0.18186   0.21381   0.21877   0.22085

 Mulliken charges:
               1
     1  C   -4.446014
     2  S    3.631773
     3  H    1.290251
     4  H    1.327725
     5  H    1.290251
     6  O   -2.253872
     7  O   -2.253872
     8  H    1.413759
 Sum of Mulliken charges =   0.00000

 Dipole moment (field-independent basis, Debye):
    X=              2.0091    Y=             -0.0000    Z=              0.5698  Tot=              2.0883

 Test job not archived.
 1\1\GINC-SE073\SP\RHF\Aug-CC-pVDZ\C1H4O2S1\OHZDE\08-Apr-2025\0\\#t hf
 aug-cc-pvdz iop(5/13=1,5/36=2,99/5=2) pseudo=read geom=check guess=(re
 ad,tcheck) scf=(maxcycle=1)\\title\\0,1\C,0,-1.5705,0.,-0.109085\S,0,0
 .191276,0.,0.203807\H,0,-2.0034,-0.902638,0.321921\H,0,-1.693048,0.,-1
 .193103\H,0,-2.0034,0.902637,0.321922\O,0,0.741662,1.263928,-0.226595\
 O,0,0.741662,-1.263928,-0.226595\H,0,0.195848,0.,1.568371\\Version=ES6
 4L-G16RevC.01\State=1-A\HF=-588.486545\RMSD=1.101e-01\Dipole=-0.790421
 4,0.,0.2241871\Quadrupole=0.9824883,-2.1757757,1.1932874,0.0000002,0.7

 Normal termination of Gaussian 16 at Tue Apr  8 23:14:51 2025.
