 Gaussian 16, Revision C.01,

 ----------------------------------------------------------------------
 #t hf aug-cc-pvdz symm=none int=(grid=ultrafine) guess=(read,tcheck) s
 table=(opt,rrhf)
 ----------------------------------------------------------------------
 -----
 title
 -----
 Symbolic Z-matrix:
 Charge =  0 Multiplicity = 1

 SCF Done:  E(RHF) =  -896.644920295     A.U. after   12 cycles
 Normal termination of Gaussian 16 at Tue Apr  8 23:01:37 2025.
 Gaussian 16:  ES64L-G16RevC.01  3-Jul-2019

 ----------------------------------------------------------------------
 #t hf aug-cc-pvdz iop(5/13=1,5/36=2,99/5=2) pseudo=read geom=check gue
 ss=(read,tcheck) scf=(maxcycle=1)
 ----------------------------------------------------------------------
 -----
 title
 -----
 Structure from the checkpoint file:  "BDE49_expt_1974_mol1.chk"
 Charge =  0 Multiplicity = 1

                         Standard orientation:
 ---------------------------------------------------------------------
 Center     Atomic      Atomic             Coordinates (Angstroms)
 Number     Number       Type             X           Y           Z
 ---------------------------------------------------------------------
      1         16           0        0.000000    0.867163    0.000000
      2          6           0       -1.726850    0.317937    0.000000
      3         17           0        0.975537   -0.971937    0.000000
      4          1           0       -2.306892    1.245879    0.000000
      5          1           0       -1.958067   -0.252590    0.898655
      6          1           0       -1.958067   -0.252590   -0.898655
 ---------------------------------------------------------------------

 SCF Done:  E(RHF) =  -897.321216033     A.U. after    2 cycles

 The electronic state is 1-A'.
 Alpha  occ. eigenvalues --  -99.90377 -75.73897 -13.12934 -13.09048 -13.05611
 Alpha  occ. eigenvalues --  -11.41526 -10.47511  -9.67233  -9.66603  -9.66511
 Alpha  occ. eigenvalues --   -8.07642  -1.34135  -1.15968  -0.94270  -0.62574
 Alpha  occ. eigenvalues --   -0.61132  -0.56655  -0.54312  -0.53092  -0.41318
 Alpha  occ. eigenvalues --   -0.25069
 Alpha virt. eigenvalues --    0.02194   0.04490   0.06018   0.06149   0.07145
 Alpha virt. eigenvalues --    0.12207   0.13644   0.14250   0.14452   0.15378
 Alpha virt. eigenvalues --    0.15918   0.17207   0.18623   0.18792   0.22563

 Mulliken charges:
               1
     1  S    0.755493
     2  C   -4.504502
     3  Cl  -0.410814
     4  H    1.333651
     5  H    1.413086
     6  H    1.413086
 Sum of Mulliken charges =   0.00000

 Dipole moment (field-independent basis, Debye):
    X=             -1.9248    Y=              3.0232    Z=             -0.0000  Tot=              3.5839

 Test job not archived.
 1\1\GINC-SE038\SP\RHF\Aug-CC-pVDZ\C1H3Cl1S1\OHZDE\08-Apr-2025\0\\#t hf
  aug-cc-pvdz iop(5/13=1,5/36=2,99/5=2) pseudo=read geom=check guess=(r
 ead,tcheck) scf=(maxcycle=1)\\title\\0,1\S,0,0.,0.867163,0.\C,0,-1.726
 85,0.317937,0.\Cl,0,0.975537,-0.971937,0.\H,0,-2.306892,1.245879,0.\H,
 0,-1.958067,-0.25259,0.898655\H,0,-1.958067,-0.25259,-0.898655\\Versio
 n=ES64L-G16RevC.01\State=1-A'\HF=-897.321216\RMSD=6.211e-02\Dipole=-0.
 7572618,1.1894188,0.\Quadrupole=0.6728337,1.9219341,-2.5947678,-0.4814
 858,0.,0.\PG=CS [SG(C1H1Cl1S1),X(H2)]\\@

 Normal termination of Gaussian 16 at Tue Apr  8 23:01:39 2025.
