 Gaussian 16, Revision C.01,

 ----------------------------------------------------------------------
 #t hf aug-cc-pvdz symm=none int=(grid=ultrafine) guess=(read,tcheck) s
 table=(opt,rrhf)
 ----------------------------------------------------------------------
 -----
 title
 -----
 Symbolic Z-matrix:
 Charge =  0 Multiplicity = 1

 SCF Done:  E(RHF) =  -1201.06258742     A.U. after   15 cycles
 Normal termination of Gaussian 16 at Tue Apr  8 23:54:05 2025.
 Gaussian 16:  ES64L-G16RevC.01  3-Jul-2019

 ----------------------------------------------------------------------
 #t hf aug-cc-pvdz iop(5/13=1,5/36=2,99/5=2) pseudo=read geom=check gue
 ss=(read,tcheck) scf=(maxcycle=1)
 ----------------------------------------------------------------------
 -----
 title
 -----
 Structure from the checkpoint file:  "BDE49_nonexpt_1938_mol1.chk"
 Charge =  0 Multiplicity = 1

                         Standard orientation:
 ---------------------------------------------------------------------
 Center     Atomic      Atomic             Coordinates (Angstroms)
 Number     Number       Type             X           Y           Z
 ---------------------------------------------------------------------
      1          6           0       -0.694218    0.539712    1.016558
      2         14           0        0.559492    1.407331   -0.117726
      3          6           0        2.039404    0.306398   -0.534398
      4          1           0        1.091121    2.605459    0.577341
      5          1           0       -0.079857    1.826131   -1.385024
      6         16           0        2.319327   -1.174163    0.070524
      7          1           0        2.772732    0.718464   -1.235639
      8          6           0       -1.414513   -0.572859    0.346221
      9         16           0       -2.869618   -0.479543   -0.372364
     10          1           0       -0.877001   -1.522442    0.332410
     11          1           0       -1.391675    1.318096    1.338663
     12          1           0       -0.127573    0.171466    1.879570
 ---------------------------------------------------------------------

 SCF Done:  E(RHF) =  -1202.21593650     A.U. after    2 cycles

 The electronic state is 1-A.
 Alpha  occ. eigenvalues --  -76.24681 -75.70332 -75.67034 -13.15717 -13.15180
 Alpha  occ. eigenvalues --  -13.05835 -13.01873 -13.00716 -12.98661 -11.48085
 Alpha  occ. eigenvalues --  -11.45029 -11.39451  -8.04357  -8.01185  -5.58347
 Alpha  occ. eigenvalues --   -2.22570  -2.21252  -2.20518  -1.24834  -1.20239
 Alpha  occ. eigenvalues --   -1.04796  -0.88388  -0.81656  -0.73769  -0.64473
 Alpha  occ. eigenvalues --   -0.58588  -0.55393  -0.50761  -0.48743  -0.44431
 Alpha  occ. eigenvalues --   -0.43624  -0.37652  -0.31736  -0.23627  -0.21725
 Alpha virt. eigenvalues --    0.02515   0.03811   0.04177   0.04830   0.05585
 Alpha virt. eigenvalues --    0.06232   0.06774   0.06967   0.07613   0.08511
 Alpha virt. eigenvalues --    0.08599   0.09947   0.10795   0.11345   0.13147

 Mulliken charges:
               1
     1  C   -3.828950
     2  Si   6.411048
     3  C   -3.779969
     4  H   -1.827296
     5  H   -1.869555
     6  S    0.807306
     7  H    1.299875
     8  C   -2.205895
     9  S    0.966735
    10  H    1.306958
    11  H    1.401334
    12  H    1.318407
 Sum of Mulliken charges =  -0.00000

 Dipole moment (field-independent basis, Debye):
    X=              0.3344    Y=             -1.5755    Z=              0.4990  Tot=              1.6861

 Test job not archived.
 1\1\GINC-SE109\SP\RHF\Aug-CC-pVDZ\C3H6S2Si1\OHZDE\08-Apr-2025\0\\#t hf
  aug-cc-pvdz iop(5/13=1,5/36=2,99/5=2) pseudo=read geom=check guess=(r
 ead,tcheck) scf=(maxcycle=1)\\title\\0,1\C,0,-0.694218,0.539712,1.0165
 58\Si,0,0.559492,1.407331,-0.117726\C,0,2.039404,0.306398,-0.534398\H,
 0,1.091121,2.605459,0.577341\H,0,-0.079857,1.826131,-1.385024\S,0,2.31
 9327,-1.174163,0.070524\H,0,2.772732,0.718464,-1.235639\C,0,-1.414513,
 -0.572859,0.346221\S,0,-2.869618,-0.479543,-0.372364\H,0,-0.877001,-1.
 522442,0.33241\H,0,-1.391675,1.318096,1.338663\H,0,-0.127573,0.171466,

 Normal termination of Gaussian 16 at Tue Apr  8 23:54:11 2025.
