 Gaussian 16, Revision C.01,

 ----------------------------------------------------------------------
 #t hf aug-cc-pvdz symm=none int=(grid=ultrafine) guess=(read,tcheck) s
 table=opt
 ----------------------------------------------------------------------
 -----
 title
 -----
 Symbolic Z-matrix:
 Charge =  0 Multiplicity = 2

 SCF Done:  E(UHF) =  -367.091445442     A.U. after   19 cycles
 Normal termination of Gaussian 16 at Tue Apr  8 23:28:58 2025.
 Gaussian 16:  ES64L-G16RevC.01  3-Jul-2019

 ----------------------------------------------------------------------
 #t hf aug-cc-pvdz iop(5/13=1,5/36=2,99/5=2) pseudo=read geom=check gue
 ss=(read,tcheck) scf=(maxcycle=1)
 ----------------------------------------------------------------------
 -----
 title
 -----
 Structure from the checkpoint file:  "BDE49_nonexpt_132_mol2.chk"
 Charge =  0 Multiplicity = 2

                         Standard orientation:
 ---------------------------------------------------------------------
 Center     Atomic      Atomic             Coordinates (Angstroms)
 Number     Number       Type             X           Y           Z
 ---------------------------------------------------------------------
      1          5           0       -1.339109   -0.177009    0.069561
      2         15           0        0.471298    0.016601   -0.111563
      3          1           0        1.031155   -1.027468    0.650948
      4          1           0        0.873402    1.125418    0.672764
      5          1           0       -2.278486    0.538074    0.001923
 ---------------------------------------------------------------------

 SCF Done:  E(UHF) =  -367.378538141     A.U. after    2 cycles

 The electronic state is 2-A.
 Alpha  occ. eigenvalues -- -105.17606  -7.64881  -2.75332  -1.52414  -1.44902
 Alpha  occ. eigenvalues --   -1.41004  -0.82872  -0.65273  -0.35144  -0.26855
 Alpha  occ. eigenvalues --   -0.16677  -0.06354
 Alpha virt. eigenvalues --    0.04348   0.04491   0.05155   0.06947   0.08295
 Alpha virt. eigenvalues --    0.10148   0.10276   0.12022   0.13543   0.14527
 Alpha virt. eigenvalues --    0.18100   0.20074   0.21862   0.25315   0.26216

  Beta  occ. eigenvalues -- -105.17656  -7.63151  -2.75435  -1.52260  -1.45072
  Beta  occ. eigenvalues --   -1.41578  -0.79651  -0.62969  -0.25503  -0.18269
  Beta  occ. eigenvalues --   -0.05128
  Beta virt. eigenvalues --    0.03836   0.04418   0.04600   0.06638   0.08936
  Beta virt. eigenvalues --    0.09251   0.10347   0.11537   0.12234   0.14348
  Beta virt. eigenvalues --    0.16339   0.18269   0.20607   0.22488   0.26946

 Mulliken charges and spin densities:
               1          2
     1  B    0.140632   1.169399
     2  P    2.004820  -0.120608
     3  H   -0.507335  -0.055713
     4  H   -0.606057   0.041338
     5  H   -1.032060  -0.034416
 Sum of Mulliken charges =   0.00000   1.00000

 Dipole moment (field-independent basis, Debye):
    X=              7.0654    Y=              1.4817    Z=             -5.2603  Tot=              8.9323
                          Isotropic Fermi Contact Couplings
        Atom                 a.u.       MegaHertz       Gauss      10(-4) cm-1
     1  B(11)              0.07913     113.50384      40.50099      37.86081
     2  P(31)             -0.05072     -91.85821     -32.77729     -30.64060
     3  H(1)               0.00238      10.65100       3.80054       3.55279
     4  H(1)               0.01411      63.07904      22.50817      21.04090
     5  H(1)              -0.00896     -40.05661     -14.29319     -13.36145
 --------------------------------------------------------
       Center         ----  Spin Dipole Couplings  ----
                      3XX-RR        3YY-RR        3ZZ-RR

 Normal termination of Gaussian 16 at Tue Apr  8 23:28:59 2025.
