 Gaussian 16, Revision C.01,

 ----------------------------------------------------------------------
 #t hf aug-cc-pvdz symm=none int=(grid=ultrafine) guess=(read,tcheck) s
 table=(opt,rrhf)
 ----------------------------------------------------------------------
 -----
 title
 -----
 Symbolic Z-matrix:
 Charge =  0 Multiplicity = 1

 SCF Done:  E(RHF) =  -629.886828710     A.U. after   12 cycles
 Normal termination of Gaussian 16 at Tue Apr  8 23:50:25 2025.
 Gaussian 16:  ES64L-G16RevC.01  3-Jul-2019

 ----------------------------------------------------------------------
 #t hf aug-cc-pvdz iop(5/13=1,5/36=2,99/5=2) pseudo=read geom=check gue
 ss=(read,tcheck) scf=(maxcycle=1)
 ----------------------------------------------------------------------
 -----
 title
 -----
 Structure from the checkpoint file:  "BDE49_nonexpt_1860_mol1.chk"
 Charge =  0 Multiplicity = 1

                         Standard orientation:
 ---------------------------------------------------------------------
 Center     Atomic      Atomic             Coordinates (Angstroms)
 Number     Number       Type             X           Y           Z
 ---------------------------------------------------------------------
      1         14           0       -0.810570    0.163842    0.418990
      2          6           0        1.047495   -0.243639    0.441287
      3          8           0        1.847056    0.883292    0.162147
      4          1           0        1.386650    1.408190   -0.506547
      5          8           0       -1.668584   -1.148225   -0.061151
      6          1           0       -1.179959   -1.742221   -0.642621
      7          8           0        1.180769   -1.263001   -0.557222
      8          1           0        2.121560   -1.453303   -0.658346
      9          8           0       -0.815804    1.418352   -0.660238
     10          1           0       -1.386465    0.585490    1.707855
     11          1           0       -1.633987    1.863940   -0.888783
     12          1           0        1.407708   -0.617392    1.406577
 ---------------------------------------------------------------------

 SCF Done:  E(RHF) =  -631.465797802     A.U. after    2 cycles

 The electronic state is 1-A.
 Alpha  occ. eigenvalues --  -76.24428 -21.08532 -21.08168 -21.07642 -21.07638
 Alpha  occ. eigenvalues --  -11.42458  -5.58925  -2.27216  -2.23297  -2.21602
 Alpha  occ. eigenvalues --   -1.77875  -1.68794  -1.65405  -1.64160  -0.93514
 Alpha  occ. eigenvalues --   -0.75608  -0.68174  -0.61892  -0.60347  -0.55529
 Alpha  occ. eigenvalues --   -0.52876  -0.50416  -0.46728  -0.43396  -0.40043
 Alpha  occ. eigenvalues --   -0.36890  -0.36043  -0.34530  -0.29937
 Alpha virt. eigenvalues --    0.03696   0.05412   0.05846   0.06448   0.06747
 Alpha virt. eigenvalues --    0.07070   0.07559   0.08626   0.08730   0.13217
 Alpha virt. eigenvalues --    0.13711   0.14789   0.15911   0.18594   0.18919

 Mulliken charges:
               1
     1  Si   6.396065
     2  C    0.991683
     3  O   -2.719202
     4  H    0.830970
     5  O   -3.010451
     6  H    1.238207
     7  O   -2.408531
     8  H    0.713374
     9  O   -2.789441
    10  H   -1.904864
    11  H    1.115145
    12  H    1.547045
 Sum of Mulliken charges =  -0.00000

 Dipole moment (field-independent basis, Debye):
    X=             -0.2095    Y=              0.1134    Z=             -0.7049  Tot=              0.7440

 Test job not archived.
 1\1\GINC-SE365\SP\RHF\Aug-CC-pVDZ\C1H6O4Si1\OHZDE\08-Apr-2025\0\\#t hf
  aug-cc-pvdz iop(5/13=1,5/36=2,99/5=2) pseudo=read geom=check guess=(r
 ead,tcheck) scf=(maxcycle=1)\\title\\0,1\Si,0,-0.81057,0.163842,0.4189
 9\C,0,1.047495,-0.243639,0.441287\O,0,1.847056,0.883292,0.162147\H,0,1
 .38665,1.40819,-0.506547\O,0,-1.668584,-1.148225,-0.061151\H,0,-1.1799
 59,-1.742221,-0.642621\O,0,1.180769,-1.263001,-0.557222\H,0,2.12156,-1
 .453303,-0.658346\O,0,-0.815804,1.418352,-0.660238\H,0,-1.386465,0.585
 49,1.707855\H,0,-1.633987,1.86394,-0.888783\H,0,1.407708,-0.617392,1.4

 Normal termination of Gaussian 16 at Tue Apr  8 23:50:28 2025.
