 Gaussian 16, Revision C.01,

 ----------------------------------------------------------------------
 #t hf aug-cc-pvdz symm=none int=(grid=ultrafine) guess=(read,tcheck) s
 table=opt
 ----------------------------------------------------------------------
 -----
 title
 -----
 Symbolic Z-matrix:
 Charge =  0 Multiplicity = 2

 SCF Done:  E(UHF) =  -497.504780208     A.U. after   18 cycles
 Normal termination of Gaussian 16 at Wed Apr  9 00:11:46 2025.
 Gaussian 16:  ES64L-G16RevC.01  3-Jul-2019

 ----------------------------------------------------------------------
 #t hf aug-cc-pvdz iop(5/13=1,5/36=2,99/5=2) pseudo=read geom=check gue
 ss=(read,tcheck) scf=(maxcycle=1)
 ----------------------------------------------------------------------
 -----
 title
 -----
 Structure from the checkpoint file:  "BDE49_nonexpt_2388_mol2.chk"
 Charge =  0 Multiplicity = 2

                         Standard orientation:
 ---------------------------------------------------------------------
 Center     Atomic      Atomic             Coordinates (Angstroms)
 Number     Number       Type             X           Y           Z
 ---------------------------------------------------------------------
      1         14           0        1.852735   -0.007770   -0.068775
      2          7           0        0.222382   -0.672506   -0.001537
      3          1           0        2.079904    0.945886    1.043418
      4          1           0        2.721900   -1.206561    0.074500
      5          6           0       -0.880934    0.159834   -0.015495
      6          8           0       -0.740776    1.367965   -0.062211
      7          1           0        0.055391   -1.669715   -0.015736
      8          6           0       -2.237424   -0.516916    0.045372
      9          1           0       -2.347661   -1.243129   -0.765076
     10          1           0       -3.013932    0.240418   -0.037410
     11          1           0       -2.354204   -1.051804    0.992344
 ---------------------------------------------------------------------

 SCF Done:  E(UHF) =  -498.572444300     A.U. after    2 cycles

 The electronic state is 2-A.
 Alpha  occ. eigenvalues --  -76.24642 -21.03326 -15.75629 -11.50209 -11.39438
 Alpha  occ. eigenvalues --   -5.58057  -2.22732  -2.19942  -2.18844  -1.71254
 Alpha  occ. eigenvalues --   -1.34153  -1.09522  -0.82291  -0.75498  -0.66029
 Alpha  occ. eigenvalues --   -0.61699  -0.59902  -0.51843  -0.50047  -0.47875
 Alpha  occ. eigenvalues --   -0.47302  -0.35507  -0.30127  -0.27046
 Alpha virt. eigenvalues --    0.03096   0.04829   0.05367   0.05818   0.06769
 Alpha virt. eigenvalues --    0.07087   0.08003   0.08415   0.10211   0.11121
 Alpha virt. eigenvalues --    0.12381   0.13807   0.14490   0.14879   0.16027

  Beta  occ. eigenvalues --  -76.24086 -21.03293 -15.75430 -11.50210 -11.39439
  Beta  occ. eigenvalues --   -5.57160  -2.22035  -2.19316  -2.15502  -1.71168
  Beta  occ. eigenvalues --   -1.33596  -1.09428  -0.81092  -0.73292  -0.65328
  Beta  occ. eigenvalues --   -0.61408  -0.59350  -0.50871  -0.49620  -0.47471
  Beta  occ. eigenvalues --   -0.46244  -0.34134  -0.29672
  Beta virt. eigenvalues --    0.03018   0.04150   0.05002   0.05604   0.05919
  Beta virt. eigenvalues --    0.06836   0.07739   0.08208   0.09929   0.10403
  Beta virt. eigenvalues --    0.11401   0.12893   0.14014   0.14625   0.15648

 Mulliken charges and spin densities:
               1          2
     1  Si   3.525262   1.005038
     2  N   -2.959443  -0.089638
     3  H   -1.451245   0.035315
     4  H   -1.487313   0.008299
     5  C    4.823104   0.075787
     6  O   -3.010998  -0.008271
     7  H    0.860553  -0.006551
     8  C   -3.958722  -0.022680
     9  H    1.212706   0.003504
    10  H    1.217330  -0.002747
    11  H    1.228766   0.001944
 Sum of Mulliken charges =   0.00000   1.00000

 Dipole moment (field-independent basis, Debye):
    X=             -0.7777    Y=             -1.9343    Z=             -0.3009  Tot=              2.1064
                          Isotropic Fermi Contact Couplings
        Atom                 a.u.       MegaHertz       Gauss      10(-4) cm-1
     1  Si(29)             0.58349    -518.56164    -185.03569    -172.97354
     2  N(14)              0.02950       9.53054       3.40073       3.17905
     3  H(1)               0.01378      61.60600      21.98255      20.54955
     4  H(1)               0.00865      38.66612      13.79703      12.89763
     5  C(13)             -0.00107      -1.20356      -0.42946      -0.40146
     6  O(17)              0.00219      -1.32743      -0.47366      -0.44278
     7  H(1)               0.00011       0.47993       0.17125       0.16009
     8  C(13)              0.00051       0.57143       0.20390       0.19061

 1\1\GINC-SE080\SP\UHF\Aug-CC-pVDZ\C2H6N1O1Si1(2)\OHZDE\09-Apr-2025\0\\
 #t hf aug-cc-pvdz iop(5/13=1,5/36=2,99/5=2) pseudo=read geom=check gue
 ss=(read,tcheck) scf=(maxcycle=1)\\title\\0,2\Si,0,1.852735,-0.00777,-
 0.068775\N,0,0.222382,-0.672506,-0.001537\H,0,2.079904,0.945886,1.0434
 18\H,0,2.7219,-1.206561,0.0745\C,0,-0.880934,0.159834,-0.015495\O,0,-0
 .740776,1.367965,-0.062211\H,0,0.055391,-1.669715,-0.015736\C,0,-2.237
 424,-0.516916,0.045372\H,0,-2.347661,-1.243129,-0.765076\H,0,-3.013932
 ,0.240418,-0.03741\H,0,-2.354204,-1.051804,0.992344\\Version=ES64L-G16

 Normal termination of Gaussian 16 at Wed Apr  9 00:11:49 2025.
