 Gaussian 16, Revision C.01,

 ----------------------------------------------------------------------
 #t hf aug-cc-pvdz symm=none int=(grid=ultrafine) guess=(read,tcheck) s
 table=(opt,rrhf)
 ----------------------------------------------------------------------
 -----
 title
 -----
 Symbolic Z-matrix:
 Charge =  0 Multiplicity = 1

 SCF Done:  E(RHF) =  -663.586890910     A.U. after   14 cycles
 Normal termination of Gaussian 16 at Tue Apr  8 23:52:34 2025.
 Gaussian 16:  ES64L-G16RevC.01  3-Jul-2019

 ----------------------------------------------------------------------
 #t hf aug-cc-pvdz iop(5/13=1,5/36=2,99/5=2) pseudo=read geom=check gue
 ss=(read,tcheck) scf=(maxcycle=1)
 ----------------------------------------------------------------------
 -----
 title
 -----
 Structure from the checkpoint file:  "BDE49_nonexpt_1915_mol1.chk"
 Charge =  0 Multiplicity = 1

                         Standard orientation:
 ---------------------------------------------------------------------
 Center     Atomic      Atomic             Coordinates (Angstroms)
 Number     Number       Type             X           Y           Z
 ---------------------------------------------------------------------
      1         14           0       -0.410939   -1.567831    0.217789
      2          6           0        1.330320   -1.290968   -0.467307
      3          7           0        1.985847   -0.162628    0.158946
      4          6           0        1.994941    1.035938    0.066012
      5          8           0        2.100190    2.202651    0.067816
      6          7           0       -1.338333   -0.162513   -0.103962
      7          1           0       -0.355604   -1.796889    1.674796
      8          1           0       -1.019750   -2.725077   -0.473099
      9          6           0       -2.200316    0.670024   -0.068978
     10          8           0       -3.021502    1.499081   -0.066273
     11          1           0        1.290847   -1.168709   -1.555525
     12          1           0        1.925879   -2.187528   -0.270811
 ---------------------------------------------------------------------

 SCF Done:  E(RHF) =  -665.321886130     A.U. after    2 cycles

 The electronic state is 1-A.
 Alpha  occ. eigenvalues --  -76.26710 -21.12681 -21.11634 -15.77365 -15.77018
 Alpha  occ. eigenvalues --  -11.60187 -11.57696 -11.42545  -5.60449  -2.26145
 Alpha  occ. eigenvalues --   -2.23530  -2.22346  -1.77485  -1.76332  -1.40921
 Alpha  occ. eigenvalues --   -1.36484  -1.05973  -0.85990  -0.72179  -0.67516
 Alpha  occ. eigenvalues --   -0.64804  -0.62572  -0.61288  -0.60646  -0.59854
 Alpha  occ. eigenvalues --   -0.58606  -0.54807  -0.50594  -0.48838  -0.37342
 Alpha  occ. eigenvalues --   -0.36875  -0.35766  -0.31651
 Alpha virt. eigenvalues --    0.02956   0.04491   0.04795   0.05814   0.06716
 Alpha virt. eigenvalues --    0.07545   0.08650   0.09511   0.10327   0.11156
 Alpha virt. eigenvalues --    0.11981   0.12362   0.12710   0.12877   0.13328

 Mulliken charges:
               1
     1  Si   5.507831
     2  C   -3.127177
     3  N   -2.410829
     4  C    4.061488
     5  O   -2.548722
     6  N   -2.191340
     7  H   -1.783084
     8  H   -1.677565
     9  C    3.738927
    10  O   -2.640054
    11  H    1.677102
    12  H    1.393423
 Sum of Mulliken charges =   0.00000

 Dipole moment (field-independent basis, Debye):
    X=             -0.7982    Y=             -0.6339    Z=             -0.7834  Tot=              1.2855

 Test job not archived.
 1\1\GINC-SE461\SP\RHF\Aug-CC-pVDZ\C3H4N2O2Si1\OHZDE\08-Apr-2025\0\\#t
 hf aug-cc-pvdz iop(5/13=1,5/36=2,99/5=2) pseudo=read geom=check guess=
 (read,tcheck) scf=(maxcycle=1)\\title\\0,1\Si,0,-0.410939,-1.567831,0.
 217789\C,0,1.33032,-1.290968,-0.467307\N,0,1.985847,-0.162628,0.158946
 \C,0,1.994941,1.035938,0.066012\O,0,2.10019,2.202651,0.067816\N,0,-1.3
 38333,-0.162513,-0.103962\H,0,-0.355604,-1.796889,1.674796\H,0,-1.0197
 5,-2.725077,-0.473099\C,0,-2.200316,0.670024,-0.068978\O,0,-3.021502,1
 .499081,-0.066273\H,0,1.290847,-1.168709,-1.555525\H,0,1.925879,-2.187

 Normal termination of Gaussian 16 at Tue Apr  8 23:52:39 2025.
