 Gaussian 16, Revision C.01,

 ----------------------------------------------------------------------
 #t hf aug-cc-pvdz symm=none int=(grid=ultrafine) guess=(read,tcheck) s
 table=(opt,rrhf)
 ----------------------------------------------------------------------
 -----
 title
 -----
 Symbolic Z-matrix:
 Charge =  0 Multiplicity = 1

 SCF Done:  E(RHF) =  -281.242172161     A.U. after   12 cycles
 Normal termination of Gaussian 16 at Wed Apr  9 00:37:24 2025.
 Gaussian 16:  ES64L-G16RevC.01  3-Jul-2019

 ----------------------------------------------------------------------
 #t hf aug-cc-pvdz iop(5/13=1,5/36=2,99/5=2) pseudo=read geom=check gue
 ss=(read,tcheck) scf=(maxcycle=1)
 ----------------------------------------------------------------------
 -----
 title
 -----
 Structure from the checkpoint file:  "BDE49_nonexpt_534_mol1.chk"
 Charge =  0 Multiplicity = 1

                         Standard orientation:
 ---------------------------------------------------------------------
 Center     Atomic      Atomic             Coordinates (Angstroms)
 Number     Number       Type             X           Y           Z
 ---------------------------------------------------------------------
      1          1           0       -0.000223    3.566490    1.030078
      2          1           0       -0.000223    3.566490   -1.030078
      3          5           0        0.000005    2.965523    0.000000
      4          6           0        0.000000    1.422631    0.000000
      5          6           0        0.000000    0.693959   -1.208609
      6          1           0        0.000000    1.235800   -2.148537
      7          6           0        0.000000    0.693959    1.208609
      8          1           0        0.000000    1.235800    2.148537
      9          1           0        0.000142   -3.566490   -1.030078
     10          1           0        0.000142   -3.566490    1.030078
     11          5           0        0.000005   -2.965523   -0.000000
     12          6           0        0.000006   -1.422631   -0.000000
     13          6           0        0.000005   -0.693959    1.208609
     14          1           0        0.000006   -1.235800    2.148537
     15          6           0        0.000005   -0.693959   -1.208609
     16          1           0        0.000006   -1.235800   -2.148537
 ---------------------------------------------------------------------

 SCF Done:  E(RHF) =  -282.589323201     A.U. after    2 cycles

 The electronic state is 1-A'.
 Alpha  occ. eigenvalues --  -11.51058 -11.44389 -11.42418 -11.41504 -11.40859
 Alpha  occ. eigenvalues --  -11.35800  -7.64424  -7.63315  -1.35269  -1.13100
 Alpha  occ. eigenvalues --   -1.09694  -0.94209  -0.86950  -0.82766  -0.78822
 Alpha  occ. eigenvalues --   -0.63889  -0.63451  -0.60468  -0.57787  -0.50731
 Alpha  occ. eigenvalues --   -0.49548  -0.46619  -0.45267  -0.42932  -0.39388
 Alpha  occ. eigenvalues --   -0.35511  -0.33480
 Alpha virt. eigenvalues --    0.02940   0.03181   0.03866   0.03983   0.04264
 Alpha virt. eigenvalues --    0.04381   0.04615   0.06075   0.07757   0.08102
 Alpha virt. eigenvalues --    0.08222   0.09741   0.10883   0.11223   0.11264

 Mulliken charges:
               1
     1  H   -3.703856
     2  H   -3.703856
     3  B    6.415376
     4  C   -1.320577
     5  C   -0.733764
     6  H    1.890220
     7  C   -0.733764
     8  H    1.890220
     9  H   -3.703857
    10  H   -3.703857
    11  B    6.415378
    12  C   -1.320577
    13  C   -0.733764
    14  H    1.890220
    15  C   -0.733764
    16  H    1.890220
 Sum of Mulliken charges =  -0.00000

 Dipole moment (field-independent basis, Debye):
    X=              0.0001    Y=             -0.0000    Z=              0.0000  Tot=              0.0001

 Test job not archived.
 1\1\GINC-SE095\SP\RHF\Aug-CC-pVDZ\C6H8B2\OHZDE\09-Apr-2025\0\\#t hf au
 g-cc-pvdz iop(5/13=1,5/36=2,99/5=2) pseudo=read geom=check guess=(read
 ,tcheck) scf=(maxcycle=1)\\title\\0,1\H,0,-0.000223,3.56649,1.030078\H
 ,0,-0.000223,3.56649,-1.030078\B,0,0.000005,2.965523,0.\C,0,0.,1.42263
 1,0.\C,0,0.,0.693959,-1.208609\H,0,0.,1.2358,-2.148537\C,0,0.,0.693959
 ,1.208609\H,0,0.,1.2358,2.148537\H,0,0.000142,-3.56649,-1.030078\H,0,0
 .000142,-3.56649,1.030078\B,0,0.000005,-2.965523,0.\C,0,0.000006,-1.42
 2631,0.\C,0,0.000005,-0.693959,1.208609\H,0,0.000006,-1.2358,2.148537\

 Normal termination of Gaussian 16 at Wed Apr  9 00:37:28 2025.
