 Gaussian 16, Revision C.01,

 ----------------------------------------------------------------------
 #t hf aug-cc-pvdz symm=none int=(grid=ultrafine) guess=(read,tcheck) s
 table=(opt,rrhf)
 ----------------------------------------------------------------------
 -----
 title
 -----
 Symbolic Z-matrix:
 Charge =  0 Multiplicity = 1

 SCF Done:  E(RHF) =  -362.054363820     A.U. after   12 cycles
 Normal termination of Gaussian 16 at Wed Apr  9 00:36:49 2025.
 Gaussian 16:  ES64L-G16RevC.01  3-Jul-2019

 ----------------------------------------------------------------------
 #t hf aug-cc-pvdz iop(5/13=1,5/36=2,99/5=2) pseudo=read geom=check gue
 ss=(read,tcheck) scf=(maxcycle=1)
 ----------------------------------------------------------------------
 -----
 title
 -----
 Structure from the checkpoint file:  "BDE49_nonexpt_545_mol1.chk"
 Charge =  0 Multiplicity = 1

                         Standard orientation:
 ---------------------------------------------------------------------
 Center     Atomic      Atomic             Coordinates (Angstroms)
 Number     Number       Type             X           Y           Z
 ---------------------------------------------------------------------
      1          1           0       -0.562202    2.112676    1.040566
      2          1           0       -0.562202    2.112676   -1.040566
      3          9           0        1.319096    0.010876    0.000000
      4          9           0       -0.454211   -0.679254    1.084503
      5          9           0       -0.454211   -0.679254   -1.084503
      6          6           0       -0.050101    0.018636   -0.000000
      7          5           0       -0.454211    1.558305   -0.000000
 ---------------------------------------------------------------------

 SCF Done:  E(RHF) =  -363.355519257     A.U. after    2 cycles

 The electronic state is 1-A'.
 Alpha  occ. eigenvalues --  -29.30694 -29.30638 -29.30579 -11.54750  -7.66094
 Alpha  occ. eigenvalues --   -1.40425  -0.93814  -0.86567  -0.86151  -0.63989
 Alpha  occ. eigenvalues --   -0.53058  -0.47974  -0.43329  -0.42939  -0.36751
 Alpha  occ. eigenvalues --   -0.35444  -0.26706  -0.25847  -0.25415  -0.21285
 Alpha virt. eigenvalues --    0.03236   0.03808   0.04232   0.07035   0.09471
 Alpha virt. eigenvalues --    0.10845   0.10897   0.12666   0.16223   0.17497
 Alpha virt. eigenvalues --    0.21431   0.22304   0.23386   0.23977   0.24481

 Mulliken charges:
               1
     1  H   -2.710295
     2  H   -2.710295
     3  F    0.135483
     4  F    0.189935
     5  F    0.189935
     6  C   -2.058447
     7  B    6.963683
 Sum of Mulliken charges =   0.00000

 Dipole moment (field-independent basis, Debye):
    X=              0.6340    Y=             -1.4630    Z=              0.0000  Tot=              1.5945

 Test job not archived.
 1\1\GINC-SE073\SP\RHF\Aug-CC-pVDZ\C1H2B1F3\OHZDE\09-Apr-2025\0\\#t hf
 aug-cc-pvdz iop(5/13=1,5/36=2,99/5=2) pseudo=read geom=check guess=(re
 ad,tcheck) scf=(maxcycle=1)\\title\\0,1\H,0,-0.562202,2.112676,1.04056
 6\H,0,-0.562202,2.112676,-1.040566\F,0,1.319096,0.010876,0.\F,0,-0.454
 211,-0.679254,1.084503\F,0,-0.454211,-0.679254,-1.084503\C,0,-0.050101
 ,0.018636,0.\B,0,-0.454211,1.558305,0.\\Version=ES64L-G16RevC.01\State
 =1-A'\HF=-363.3555193\RMSD=1.609e-01\Dipole=0.2494234,-0.5755925,0.\Qu
 adrupole=1.7264635,-1.363496,-0.3629675,0.3744001,0.,0.\PG=CS [SG(C1B1

 Normal termination of Gaussian 16 at Wed Apr  9 00:36:50 2025.
