 Gaussian 16, Revision C.01,

 ----------------------------------------------------------------------
 #t hf aug-cc-pvdz symm=none int=(grid=ultrafine) guess=(read,tcheck) s
 table=opt
 ----------------------------------------------------------------------
 -----
 title
 -----
 Symbolic Z-matrix:
 Charge =  0 Multiplicity = 2

 SCF Done:  E(UHF) =  -1259.78125089     A.U. after   15 cycles
 Normal termination of Gaussian 16 at Tue Apr  8 23:00:36 2025.
 Gaussian 16:  ES64L-G16RevC.01  3-Jul-2019

 ----------------------------------------------------------------------
 #t hf aug-cc-pvdz iop(5/13=1,5/36=2,99/5=2) pseudo=read geom=check gue
 ss=(read,tcheck) scf=(maxcycle=1)
 ----------------------------------------------------------------------
 -----
 title
 -----
 Structure from the checkpoint file:  "BDE49_expt_1949_mol2.chk"
 Charge =  0 Multiplicity = 2

                         Standard orientation:
 ---------------------------------------------------------------------
 Center     Atomic      Atomic             Coordinates (Angstroms)
 Number     Number       Type             X           Y           Z
 ---------------------------------------------------------------------
      1         15           0        0.000000   -0.000000    0.898605
      2         17           0        0.000000    1.621502   -0.396443
      3         17           0       -0.000000   -1.621502   -0.396443
 ---------------------------------------------------------------------

 SCF Done:  E(UHF) =  -1260.41737273     A.U. after    2 cycles

 The electronic state is 2-B1.
 Alpha  occ. eigenvalues -- -105.27648 -99.91594 -99.91592 -10.48939 -10.48916
 Alpha  occ. eigenvalues --   -9.68688  -9.68586  -9.68109  -9.68097  -9.67985
 Alpha  occ. eigenvalues --   -9.67931  -2.86762  -1.56016  -1.55072  -1.53157
 Alpha  occ. eigenvalues --   -1.26707  -1.23273  -0.74841  -0.57126  -0.56086
 Alpha  occ. eigenvalues --   -0.55677  -0.53022  -0.46120  -0.26549   0.02765
 Alpha virt. eigenvalues --    0.06971   0.07096   0.08687   0.12719   0.12911
 Alpha virt. eigenvalues --    0.13650   0.14241   0.15528   0.16224   0.17849
 Alpha virt. eigenvalues --    0.20179   0.20327   0.21756   0.22110   0.22375

  Beta  occ. eigenvalues -- -105.26978 -99.91510 -99.91509 -10.48850 -10.48827
  Beta  occ. eigenvalues --   -9.68706  -9.68598  -9.67949  -9.67900  -9.67687
  Beta  occ. eigenvalues --   -9.67680  -2.84783  -1.54307  -1.52394  -1.30121
  Beta  occ. eigenvalues --   -1.26264  -1.22387  -0.71216  -0.57120  -0.53610
  Beta  occ. eigenvalues --   -0.53465  -0.52957  -0.46490  -0.21397
  Beta virt. eigenvalues --    0.06960   0.07167   0.08652   0.09223   0.12761
  Beta virt. eigenvalues --    0.13535   0.14289   0.15184   0.15575   0.17862
  Beta virt. eigenvalues --    0.20044   0.20531   0.22173   0.22900   0.23017

 Mulliken charges and spin densities:
               1          2
     1  P    2.171224   1.096852
     2  Cl  -1.085612  -0.048426
     3  Cl  -1.085612  -0.048426
 Sum of Mulliken charges =  -0.00000   1.00000

 Dipole moment (field-independent basis, Debye):
    X=              0.0000    Y=              0.0000    Z=              6.0225  Tot=              6.0225
                          Isotropic Fermi Contact Couplings
        Atom                 a.u.       MegaHertz       Gauss      10(-4) cm-1
     1  P(31)              0.25401     460.03830     164.15310     153.45226
     2  Cl(35)             0.02029       8.89795       3.17501       2.96804
     3  Cl(35)             0.02029       8.89795       3.17501       2.96804
 --------------------------------------------------------
       Center         ----  Spin Dipole Couplings  ----
                      3XX-RR        3YY-RR        3ZZ-RR
 --------------------------------------------------------
     1   Atom       -0.363649      0.184056      0.179593

 Normal termination of Gaussian 16 at Tue Apr  8 23:00:38 2025.
