 Gaussian 16, Revision C.01,

 ----------------------------------------------------------------------
 #t hf aug-cc-pvdz symm=none int=(grid=ultrafine) guess=(read,tcheck) s
 table=opt
 ----------------------------------------------------------------------
 -----
 title
 -----
 Symbolic Z-matrix:
 Charge =  0 Multiplicity = 2

 SCF Done:  E(UHF) =  -1081.58559537     A.U. after   17 cycles
 Normal termination of Gaussian 16 at Wed Apr  9 00:32:17 2025.
 Gaussian 16:  ES64L-G16RevC.01  3-Jul-2019

 ----------------------------------------------------------------------
 #t hf aug-cc-pvdz iop(5/13=1,5/36=2,99/5=2) pseudo=read geom=check gue
 ss=(read,tcheck) scf=(maxcycle=1)
 ----------------------------------------------------------------------
 -----
 title
 -----
 Structure from the checkpoint file:  "BDE49_nonexpt_364_mol2.chk"
 Charge =  0 Multiplicity = 2

                         Standard orientation:
 ---------------------------------------------------------------------
 Center     Atomic      Atomic             Coordinates (Angstroms)
 Number     Number       Type             X           Y           Z
 ---------------------------------------------------------------------
      1          9           0        0.854754    1.998703   -0.351999
      2          5           0        0.244028    1.397390    0.627341
      3          6           0       -0.068363   -0.146102    0.663722
      4         17           0        1.187405   -1.164821   -0.139338
      5         17           0       -1.673962   -0.219308   -0.190061
      6          1           0       -0.231273   -0.568466    1.648736
 ---------------------------------------------------------------------

 SCF Done:  E(UHF) =  -1082.67775291     A.U. after    2 cycles

 The electronic state is 2-A.
 Alpha  occ. eigenvalues --  -99.91801 -99.91196 -29.28430 -11.48464 -10.49018
 Alpha  occ. eigenvalues --  -10.48413  -9.68874  -9.68352  -9.68152  -9.68082
 Alpha  occ. eigenvalues --   -9.67503  -9.67463  -7.71544  -1.41387  -1.29853
 Alpha  occ. eigenvalues --   -1.09160  -0.93362  -0.70215  -0.67911  -0.65715
 Alpha  occ. eigenvalues --   -0.55055  -0.52770  -0.51178  -0.50236  -0.49706
 Alpha  occ. eigenvalues --   -0.44732  -0.40295  -0.26485
 Alpha virt. eigenvalues --    0.02643   0.03653   0.04357   0.04999   0.07003
 Alpha virt. eigenvalues --    0.07605   0.10572   0.11812   0.12949   0.13950
 Alpha virt. eigenvalues --    0.14500   0.15867   0.16342   0.16942   0.17118

  Beta  occ. eigenvalues --  -99.91799 -99.91139 -29.28150 -11.48165 -10.49016
  Beta  occ. eigenvalues --  -10.48354  -9.68851  -9.68190  -9.68136  -9.68023
  Beta  occ. eigenvalues --   -9.67472  -9.67434  -7.69575  -1.40917  -1.29584
  Beta  occ. eigenvalues --   -1.06775  -0.91741  -0.69057  -0.67119  -0.64888
  Beta  occ. eigenvalues --   -0.54726  -0.52364  -0.50885  -0.49362  -0.44509
  Beta  occ. eigenvalues --   -0.42882  -0.38522
  Beta virt. eigenvalues --   -0.00136   0.03718   0.03983   0.04607   0.07158
  Beta virt. eigenvalues --    0.07559   0.08535   0.12370   0.12490   0.14144
  Beta virt. eigenvalues --    0.14582   0.15991   0.16494   0.16780   0.17120

 Mulliken charges and spin densities:
               1          2
     1  F   -0.529970  -0.082540
     2  B    1.418621   1.112037
     3  C   -3.289902  -0.128142
     4  Cl   0.055518   0.089068
     5  Cl   0.128590   0.042429
     6  H    2.217143  -0.032851
 Sum of Mulliken charges =  -0.00000   1.00000

 Dipole moment (field-independent basis, Debye):
    X=              1.9361    Y=              2.5826    Z=             -1.1897  Tot=              3.4400
                          Isotropic Fermi Contact Couplings
        Atom                 a.u.       MegaHertz       Gauss      10(-4) cm-1
     1  F(19)              0.05921     249.11520      88.89050      83.09589
     2  B(11)              0.21312     305.68998     109.07779     101.96720
     3  C(13)              0.15152     170.34222      60.78234      56.82005
     4  Cl(35)             0.01564       6.85848       2.44727       2.28774
     5  Cl(35)            -0.00492      -2.15666      -0.76955      -0.71938
     6  H(1)               0.00096       4.28455       1.52883       1.42917
 --------------------------------------------------------
       Center         ----  Spin Dipole Couplings  ----

 1\1\GINC-SE177\SP\UHF\Aug-CC-pVDZ\C1H1B1Cl2F1(2)\OHZDE\09-Apr-2025\0\\
 #t hf aug-cc-pvdz iop(5/13=1,5/36=2,99/5=2) pseudo=read geom=check gue
 ss=(read,tcheck) scf=(maxcycle=1)\\title\\0,2\F,0,0.854756,1.998702,-0
 .351999\B,0,0.244029,1.39739,0.627341\C,0,-0.068363,-0.146102,0.663722
 \Cl,0,1.187404,-1.164822,-0.139338\Cl,0,-1.673962,-0.219307,-0.190061\
 H,0,-0.231273,-0.568466,1.648736\\Version=ES64L-G16RevC.01\State=2-A\H
 F=-1082.6777529\S2=0.760042\S2-1=0.\S2A=0.750045\RMSD=6.999e-02\Dipole
 =0.7617087,1.0160817,-0.468056\Quadrupole=-0.5445586,1.315877,-0.77131

 Normal termination of Gaussian 16 at Wed Apr  9 00:32:19 2025.
