 Gaussian 16, Revision C.01,

 ----------------------------------------------------------------------
 #t hf aug-cc-pvdz symm=none int=(grid=ultrafine) guess=(read,tcheck) s
 table=(opt,rrhf)
 ----------------------------------------------------------------------
 -----
 title
 -----
 Symbolic Z-matrix:
 Charge =  0 Multiplicity = 1

 SCF Done:  E(RHF) =  -873.416582605     A.U. after   17 cycles
 Normal termination of Gaussian 16 at Wed Apr  9 00:49:20 2025.
 Gaussian 16:  ES64L-G16RevC.01  3-Jul-2019

 ----------------------------------------------------------------------
 #t hf aug-cc-pvdz iop(5/13=1,5/36=2,99/5=2) pseudo=read geom=check gue
 ss=(read,tcheck) scf=(maxcycle=1)
 ----------------------------------------------------------------------
 -----
 title
 -----
 Structure from the checkpoint file:  "BDE49_nonexpt_858_mol1.chk"
 Charge =  0 Multiplicity = 1

                         Standard orientation:
 ---------------------------------------------------------------------
 Center     Atomic      Atomic             Coordinates (Angstroms)
 Number     Number       Type             X           Y           Z
 ---------------------------------------------------------------------
      1         14           0       -0.034769    0.164520   -0.696453
      2          7           0       -1.118542   -1.303451   -0.226548
      3          5           0        1.847647   -0.237562   -0.022586
      4          7           0       -0.812855    1.543017    0.285554
      5          8           0       -0.434025    2.646984   -0.102974
      6          8           0        2.066073   -1.307263    0.764415
      7          8           0       -0.628688   -2.138141    0.549735
      8          8           0        2.819846    0.614659   -0.412593
      9          8           0       -2.240894   -1.377232   -0.691376
     10          8           0       -1.559775    1.334052    1.226889
     11          1           0        3.690605    0.391305   -0.057722
     12          1           0        1.258349   -1.824404    0.931529
     13          1           0       -0.360938    0.456188   -2.096347
 ---------------------------------------------------------------------

 SCF Done:  E(RHF) =  -875.946437357     A.U. after    2 cycles

 The electronic state is 1-A.
 Alpha  occ. eigenvalues --  -76.33588 -21.13703 -21.12559 -21.12247 -21.11989
 Alpha  occ. eigenvalues --  -21.10395 -21.09342 -15.99742 -15.99434  -7.70339
 Alpha  occ. eigenvalues --   -5.67309  -2.31613  -2.30760  -2.29810  -2.00814
 Alpha  occ. eigenvalues --   -1.99982  -1.85004  -1.71807  -1.71102  -1.70176
 Alpha  occ. eigenvalues --   -1.07978  -0.98786  -0.82119  -0.78298  -0.72610
 Alpha  occ. eigenvalues --   -0.68888  -0.68475  -0.67509  -0.64037  -0.63333
 Alpha  occ. eigenvalues --   -0.62185  -0.59736  -0.53637  -0.47584  -0.41890
 Alpha  occ. eigenvalues --   -0.40251  -0.36419  -0.35850  -0.34567  -0.33678
 Alpha  occ. eigenvalues --   -0.33196  -0.32924
 Alpha virt. eigenvalues --    0.02770   0.03272   0.03918   0.05169   0.05369
 Alpha virt. eigenvalues --    0.07785   0.07971   0.08365   0.08737   0.09402
 Alpha virt. eigenvalues --    0.09616   0.09876   0.11194   0.13128   0.14492

 Mulliken charges:
               1
     1  Si   4.315777
     2  N    3.530724
     3  B    5.402895
     4  N    3.632815
     5  O   -2.327217
     6  O   -4.406849
     7  O   -2.230624
     8  O   -4.190748
     9  O   -2.446049
    10  O   -2.229946
    11  H    1.211535
    12  H    1.801925
    13  H   -2.064239
 Sum of Mulliken charges =  -0.00000

 Dipole moment (field-independent basis, Debye):
    X=              2.3892    Y=             -0.6638    Z=             -0.7884  Tot=              2.6020

 Test job not archived.
 1\1\GINC-SE127\SP\RHF\Aug-CC-pVDZ\B1H3N2O6Si1\OHZDE\09-Apr-2025\0\\#t
 hf aug-cc-pvdz iop(5/13=1,5/36=2,99/5=2) pseudo=read geom=check guess=
 (read,tcheck) scf=(maxcycle=1)\\title\\0,1\Si,0,-0.034769,0.16452,-0.6
 96453\N,0,-1.118542,-1.303451,-0.226548\B,0,1.847647,-0.237562,-0.0225
 86\N,0,-0.812856,1.543017,0.285554\O,0,-0.434026,2.646984,-0.102974\O,
 0,2.066073,-1.307262,0.764415\O,0,-0.628687,-2.138141,0.549735\O,0,2.8
 19846,0.61466,-0.412593\O,0,-2.240894,-1.377233,-0.691376\O,0,-1.55977
 5,1.334051,1.226889\H,0,3.690605,0.391306,-0.057722\H,0,1.258349,-1.82

 Normal termination of Gaussian 16 at Wed Apr  9 00:49:26 2025.
