 Gaussian 16, Revision C.01,

 ----------------------------------------------------------------------
 #t hf aug-cc-pvdz symm=none int=(grid=ultrafine) guess=(read,tcheck) s
 table=(opt,rrhf)
 ----------------------------------------------------------------------
 -----
 title
 -----
 Symbolic Z-matrix:
 Charge =  0 Multiplicity = 1

 SCF Done:  E(RHF) =  -1177.88617422     A.U. after   14 cycles
 Normal termination of Gaussian 16 at Wed Apr  9 00:28:23 2025.
 Gaussian 16:  ES64L-G16RevC.01  3-Jul-2019

 ----------------------------------------------------------------------
 #t hf aug-cc-pvdz iop(5/13=1,5/36=2,99/5=2) pseudo=read geom=check gue
 ss=(read,tcheck) scf=(maxcycle=1)
 ----------------------------------------------------------------------
 -----
 title
 -----
 Structure from the checkpoint file:  "BDE49_nonexpt_2751_mol1.chk"
 Charge =  0 Multiplicity = 1

                         Standard orientation:
 ---------------------------------------------------------------------
 Center     Atomic      Atomic             Coordinates (Angstroms)
 Number     Number       Type             X           Y           Z
 ---------------------------------------------------------------------
      1         16           0       -0.865281    1.284867    0.562751
      2         16           0        0.865270    1.284841   -0.562822
      3          6           0        1.800802   -0.124518    0.172936
      4          6           0       -1.800790   -0.124564   -0.172899
      5          8           0       -1.390845   -0.774091   -1.087350
      6          8           0        1.390915   -0.773915    1.087506
      7          6           0        4.110418   -1.173381    0.252598
      8          6           0       -4.110416   -1.173402   -0.252597
      9          1           0       -5.004691   -1.376821    0.340211
     10          1           0       -3.674516   -2.123538   -0.563248
     11          1           0       -4.411947   -0.634601   -1.153436
     12          1           0        5.004640   -1.376904   -0.340255
     13          1           0        3.674527   -2.123463    0.563426
     14          1           0        4.412034   -0.634451    1.153331
     15          6           0       -3.107010   -0.359779    0.565529
     16          6           0        3.106958   -0.359862   -0.565565
     17          1           0       -2.840830   -0.887228    1.489575
     18          1           0       -3.524427    0.603167    0.876097
     19          1           0        3.524365    0.603031   -0.876311
     20          1           0        2.840693   -0.887445   -1.489510
 ---------------------------------------------------------------------

 SCF Done:  E(RHF) =  -1180.09489038     A.U. after    2 cycles

 The electronic state is 1-A.
 Alpha  occ. eigenvalues --  -75.72299 -75.72070 -21.07507 -21.07500 -13.19355
 Alpha  occ. eigenvalues --  -13.14671 -13.13156 -13.11324 -13.06325 -13.05515
 Alpha  occ. eigenvalues --  -11.51959 -11.51752 -11.42868 -11.42729 -11.37899
 Alpha  occ. eigenvalues --  -11.37736  -8.06288  -8.06140  -1.73686  -1.73096
 Alpha  occ. eigenvalues --   -1.26125  -1.20787  -1.17280  -1.05407  -0.95870
 Alpha  occ. eigenvalues --   -0.92930  -0.75730  -0.72636  -0.64999  -0.64782
 Alpha  occ. eigenvalues --   -0.64061  -0.61930  -0.56161  -0.54210  -0.52955
 Alpha  occ. eigenvalues --   -0.52762  -0.52185  -0.51552  -0.48448  -0.47978
 Alpha  occ. eigenvalues --   -0.45875  -0.44231  -0.36151  -0.29504  -0.28648
 Alpha  occ. eigenvalues --   -0.25871  -0.24447
 Alpha virt. eigenvalues --    0.03217   0.03547   0.04765   0.05865   0.06070
 Alpha virt. eigenvalues --    0.06251   0.06468   0.06603   0.07125   0.07145
 Alpha virt. eigenvalues --    0.08490   0.08980   0.11054   0.11241   0.11972

 Mulliken charges:
               1
     1  S    0.035570
     2  S    0.035570
     3  C    3.653924
     4  C    3.653895
     5  O   -3.090447
     6  O   -3.090457
     7  C   -3.679871
     8  C   -3.679873
     9  H    1.101940
    10  H    1.386916
    11  H    1.267417
    12  H    1.101940
    13  H    1.386919
    14  H    1.267413
    15  C   -3.899062
    16  C   -3.899048
    17  H    1.515552
    18  H    1.708073
    19  H    1.708079
    20  H    1.515552
 Sum of Mulliken charges =  -0.00000

 Dipole moment (field-independent basis, Debye):
    X=             -0.0001    Y=              0.5737    Z=             -0.0001  Tot=              0.5737

 Test job not archived.
 1\1\GINC-SE073\SP\RHF\Aug-CC-pVDZ\C6H10O2S2\OHZDE\09-Apr-2025\0\\#t hf
  aug-cc-pvdz iop(5/13=1,5/36=2,99/5=2) pseudo=read geom=check guess=(r
 ead,tcheck) scf=(maxcycle=1)\\title\\0,1\S,0,-0.865281,1.284867,0.5627
 51\S,0,0.86527,1.284841,-0.562822\C,0,1.800802,-0.124518,0.172936\C,0,
 -1.80079,-0.124564,-0.172899\O,0,-1.390845,-0.774091,-1.08735\O,0,1.39
 0915,-0.773915,1.087506\C,0,4.110418,-1.173381,0.252598\C,0,-4.110416,
 -1.173402,-0.252597\H,0,-5.004691,-1.376821,0.340211\H,0,-3.674516,-2.
 123538,-0.563248\H,0,-4.411947,-0.634601,-1.153436\H,0,5.00464,-1.3769

 Normal termination of Gaussian 16 at Wed Apr  9 00:28:34 2025.
