 Gaussian 16, Revision C.01,

 ----------------------------------------------------------------------
 #t hf aug-cc-pvdz symm=none int=(grid=ultrafine) guess=(read,tcheck) s
 table=(opt,rrhf)
 ----------------------------------------------------------------------
 -----
 title
 -----
 Symbolic Z-matrix:
 Charge =  0 Multiplicity = 1

 SCF Done:  E(RHF) =  -725.802456861     A.U. after   14 cycles
 Normal termination of Gaussian 16 at Tue Apr  8 22:37:30 2025.
 Gaussian 16:  ES64L-G16RevC.01  3-Jul-2019

 ----------------------------------------------------------------------
 #t hf aug-cc-pvdz iop(5/13=1,5/36=2,99/5=2) pseudo=read geom=check gue
 ss=(read,tcheck) scf=(maxcycle=1)
 ----------------------------------------------------------------------
 -----
 title
 -----
 Structure from the checkpoint file:  "BDE49_expt_1114_mol1.chk"
 Charge =  0 Multiplicity = 1

                         Standard orientation:
 ---------------------------------------------------------------------
 Center     Atomic      Atomic             Coordinates (Angstroms)
 Number     Number       Type             X           Y           Z
 ---------------------------------------------------------------------
      1          6           0       -0.184866    0.517648   -0.382282
      2          6           0        1.117039   -0.245831   -0.075630
      3          8           0        2.166805    0.308161   -0.248015
      4          8           0        1.032744   -1.504513    0.366878
      5          1           0        0.098436   -1.758901    0.436386
      6          6           0       -0.262453    1.828230    0.387669
      7          1           0       -0.316400    1.647923    1.462788
      8          1           0       -1.137015    2.402271    0.081170
      9          1           0        0.639664    2.404006    0.174216
     10         17           0       -1.688229   -0.495340   -0.072177
     11          1           0       -0.199493    0.696023   -1.457000
 ---------------------------------------------------------------------

 SCF Done:  E(RHF) =  -727.213148400     A.U. after    2 cycles

 The electronic state is 1-A.
 Alpha  occ. eigenvalues --  -99.91137 -21.13615 -21.06351 -11.54808 -11.48949
 Alpha  occ. eigenvalues --  -11.40636 -10.48413  -9.68311  -9.67830  -9.67535
 Alpha  occ. eigenvalues --   -1.84169  -1.67310  -1.36446  -1.16553  -0.97535
 Alpha  occ. eigenvalues --   -0.80627  -0.73873  -0.68555  -0.63126  -0.57609
 Alpha  occ. eigenvalues --   -0.57032  -0.54213  -0.52216  -0.51878  -0.49302
 Alpha  occ. eigenvalues --   -0.46402  -0.34704  -0.31647
 Alpha virt. eigenvalues --    0.03138   0.04894   0.05409   0.06029   0.06736
 Alpha virt. eigenvalues --    0.07755   0.10356   0.11044   0.11709   0.12109
 Alpha virt. eigenvalues --    0.13133   0.13758   0.15134   0.15561   0.16187

 Mulliken charges:
               1
     1  C   -3.494781
     2  C    6.206218
     3  O   -3.104748
     4  O   -2.942302
     5  H    0.965250
     6  C   -3.239781
     7  H    1.320588
     8  H    1.226754
     9  H    1.317890
    10  Cl   0.016863
    11  H    1.728049
 Sum of Mulliken charges =  -0.00000

 Dipole moment (field-independent basis, Debye):
    X=             -0.3342    Y=              1.0134    Z=             -0.0784  Tot=              1.0700

 Test job not archived.
 1\1\GINC-SE227\SP\RHF\Aug-CC-pVDZ\C3H5Cl1O2\OHZDE\08-Apr-2025\0\\#t hf
  aug-cc-pvdz iop(5/13=1,5/36=2,99/5=2) pseudo=read geom=check guess=(r
 ead,tcheck) scf=(maxcycle=1)\\title\\0,1\C,0,-0.184866,0.517648,-0.382
 282\C,0,1.117039,-0.245831,-0.07563\O,0,2.166805,0.308161,-0.248015\O,
 0,1.032744,-1.504513,0.366878\H,0,0.098436,-1.758901,0.436386\C,0,-0.2
 62453,1.82823,0.387669\H,0,-0.3164,1.647923,1.462788\H,0,-1.137015,2.4
 02271,0.08117\H,0,0.639664,2.404006,0.174216\Cl,0,-1.688229,-0.49534,-
 0.072177\H,0,-0.199493,0.696023,-1.457\\Version=ES64L-G16RevC.01\State

 Normal termination of Gaussian 16 at Tue Apr  8 22:37:34 2025.
