 Gaussian 16, Revision C.01,

 ----------------------------------------------------------------------
 #t hf aug-cc-pvdz symm=none int=(grid=ultrafine) guess=(read,tcheck) s
 table=(opt,rrhf)
 ----------------------------------------------------------------------
 -----
 title
 -----
 Symbolic Z-matrix:
 Charge =  0 Multiplicity = 1

 SCF Done:  E(RHF) =  -1380.90814527     A.U. after   17 cycles
 Normal termination of Gaussian 16 at Tue Apr  8 23:44:05 2025.
 Gaussian 16:  ES64L-G16RevC.01  3-Jul-2019

 ----------------------------------------------------------------------
 #t hf aug-cc-pvdz iop(5/13=1,5/36=2,99/5=2) pseudo=read geom=check gue
 ss=(read,tcheck) scf=(maxcycle=1)
 ----------------------------------------------------------------------
 -----
 title
 -----
 Structure from the checkpoint file:  "BDE49_nonexpt_1684_mol1.chk"
 Charge =  0 Multiplicity = 1

                         Standard orientation:
 ---------------------------------------------------------------------
 Center     Atomic      Atomic             Coordinates (Angstroms)
 Number     Number       Type             X           Y           Z
 ---------------------------------------------------------------------
      1          7           0        2.484747   -0.606226   -0.088043
      2         15           0        1.967628    0.999846    0.725885
      3         14           0       -0.092212    1.178592   -0.288660
      4         15           0       -1.071598   -0.888133   -0.145817
      5          7           0       -2.799774   -0.166438    0.025722
      6          8           0       -3.060704    0.779161   -0.713746
      7          8           0       -3.584086   -0.716086    0.773445
      8          8           0        1.652458   -1.514616   -0.074621
      9          8           0        3.621428   -0.708335   -0.494779
     10          1           0        2.697644    1.799996   -0.182461
     11          1           0       -0.908286   -1.064957    1.245989
     12          1           0        0.036304    1.569782   -1.705455
     13          1           0       -0.802738    2.206861    0.495988
 ---------------------------------------------------------------------

 SCF Done:  E(RHF) =  -1383.12639462     A.U. after    2 cycles

 The electronic state is 1-A.
 Alpha  occ. eigenvalues -- -105.26587-105.25741 -76.28835 -21.13048 -21.11802
 Alpha  occ. eigenvalues --  -21.10737 -21.09995 -16.00983 -15.98635  -5.62264
 Alpha  occ. eigenvalues --   -2.83594  -2.82514  -2.24203  -2.23944  -2.23737
 Alpha  occ. eigenvalues --   -2.01471  -1.99277  -1.71956  -1.69826  -1.53333
 Alpha  occ. eigenvalues --   -1.52993  -1.51843  -1.51605  -1.50499  -1.49341
 Alpha  occ. eigenvalues --   -0.97723  -0.95695  -0.81908  -0.75579  -0.71923
 Alpha  occ. eigenvalues --   -0.67984  -0.65882  -0.63265  -0.61032  -0.57607
 Alpha  occ. eigenvalues --   -0.56062  -0.52813  -0.36884  -0.34891  -0.34434
 Alpha  occ. eigenvalues --   -0.32450  -0.28936  -0.27022  -0.26074  -0.18432
 Alpha  occ. eigenvalues --   -0.08767  -0.05811
 Alpha virt. eigenvalues --    0.03745   0.05216   0.05532   0.06131   0.06989
 Alpha virt. eigenvalues --    0.07664   0.08329   0.08884   0.09386   0.10199
 Alpha virt. eigenvalues --    0.10856   0.11492   0.12068   0.12986   0.13802

 Mulliken charges:
               1
     1  N    4.194308
     2  P    1.543530
     3  Si   3.886232
     4  P    1.801715
     5  N    4.299852
     6  O   -2.443224
     7  O   -2.586302
     8  O   -2.324564
     9  O   -2.571588
    10  H   -0.986787
    11  H   -0.992311
    12  H   -1.961200
    13  H   -1.859661
 Sum of Mulliken charges =   0.00000

 Dipole moment (field-independent basis, Debye):
    X=              2.7099    Y=             -6.1403    Z=              1.8066  Tot=              6.9506

 Test job not archived.
 1\1\GINC-SE044\SP\RHF\Aug-CC-pVDZ\H4N2O4P2Si1\OHZDE\08-Apr-2025\0\\#t
 hf aug-cc-pvdz iop(5/13=1,5/36=2,99/5=2) pseudo=read geom=check guess=
 (read,tcheck) scf=(maxcycle=1)\\title\\0,1\N,0,2.484747,-0.606226,-0.0
 88043\P,0,1.967628,0.999846,0.725885\Si,0,-0.092212,1.178592,-0.28866\
 P,0,-1.071598,-0.888133,-0.145817\N,0,-2.799774,-0.166438,0.025722\O,0
 ,-3.060704,0.779161,-0.713746\O,0,-3.584086,-0.716086,0.773445\O,0,1.6
 52458,-1.514616,-0.074621\O,0,3.621428,-0.708335,-0.494779\H,0,2.69764
 4,1.799996,-0.182461\H,0,-0.908286,-1.064957,1.245989\H,0,0.036304,1.5

 Normal termination of Gaussian 16 at Tue Apr  8 23:44:10 2025.
