 Gaussian 16, Revision C.01,

 ----------------------------------------------------------------------
 #t hf aug-cc-pvdz symm=none int=(grid=ultrafine) guess=(read,tcheck) s
 table=(opt,rrhf)
 ----------------------------------------------------------------------
 -----
 title
 -----
 Symbolic Z-matrix:
 Charge =  0 Multiplicity = 1

 SCF Done:  E(RHF) =  -647.778383372     A.U. after   18 cycles
 Normal termination of Gaussian 16 at Tue Apr  8 23:36:15 2025.
 Gaussian 16:  ES64L-G16RevC.01  3-Jul-2019

 ----------------------------------------------------------------------
 #t hf aug-cc-pvdz iop(5/13=1,5/36=2,99/5=2) pseudo=read geom=check gue
 ss=(read,tcheck) scf=(maxcycle=1)
 ----------------------------------------------------------------------
 -----
 title
 -----
 Structure from the checkpoint file:  "BDE49_nonexpt_1465_mol1.chk"
 Charge =  0 Multiplicity = 1

                         Standard orientation:
 ---------------------------------------------------------------------
 Center     Atomic      Atomic             Coordinates (Angstroms)
 Number     Number       Type             X           Y           Z
 ---------------------------------------------------------------------
      1          6           0        2.526294    0.497529    0.002918
      2          6           0        2.340540   -0.887434    0.014585
      3          6           0        1.054749   -1.427598    0.004180
      4          6           0        1.433052    1.358340   -0.011300
      5          6           0        0.139161    0.827700    0.000203
      6          6           0       -0.044814   -0.574300    0.010486
      7          1           0        3.531440    0.904005    0.000406
      8          1           0        3.201268   -1.546515    0.023888
      9          1           0        0.920112   -2.503930   -0.007376
     10          1           0        1.581416    2.432922   -0.027731
     11          6           0       -1.120736    1.564859    0.011132
     12          6           0       -2.226396    0.794728    0.042218
     13          1           0       -1.142238    2.650001   -0.003642
     14         15           0       -1.826541   -0.976767   -0.113605
     15          1           0       -3.239404    1.175376    0.045515
     16          1           0       -2.065581   -1.383309    1.226492
 ---------------------------------------------------------------------

 SCF Done:  E(RHF) =  -649.436580684     A.U. after    2 cycles

 The electronic state is 1-A.
 Alpha  occ. eigenvalues -- -105.17845 -11.51100 -11.45588 -11.43647 -11.42728
 Alpha  occ. eigenvalues --  -11.41532 -11.40891 -11.39803 -11.36859  -2.76118
 Alpha  occ. eigenvalues --   -1.53156  -1.49579  -1.43780  -1.34348  -1.17852
 Alpha  occ. eigenvalues --   -1.09019  -1.02909  -0.88776  -0.86328  -0.77577
 Alpha  occ. eigenvalues --   -0.73258  -0.64816  -0.64621  -0.61664  -0.55942
 Alpha  occ. eigenvalues --   -0.54317  -0.52210  -0.48219  -0.44242  -0.41817
 Alpha  occ. eigenvalues --   -0.34216  -0.29865  -0.24066  -0.21829  -0.02480
 Alpha virt. eigenvalues --    0.03543   0.04853   0.05042   0.05870   0.06673
 Alpha virt. eigenvalues --    0.07212   0.07483   0.07907   0.09434   0.10567
 Alpha virt. eigenvalues --    0.11036   0.11721   0.12274   0.12668   0.13199

 Mulliken charges:
               1
     1  C   -2.887786
     2  C   -1.226503
     3  C   -3.872629
     4  C    0.961442
     5  C    1.441151
     6  C    1.177960
     7  H    1.443766
     8  H    1.496642
     9  H    1.564497
    10  H    1.725014
    11  C   -4.205875
    12  C   -3.431574
    13  H    1.501827
    14  P    3.273603
    15  H    1.108712
    16  H   -0.070249
 Sum of Mulliken charges =  -0.00000

 Dipole moment (field-independent basis, Debye):
    X=             -1.0380    Y=             -1.5314    Z=             -1.5197  Tot=              2.3942

 Test job not archived.
 1\1\GINC-SE173\SP\RHF\Aug-CC-pVDZ\C8H7P1\OHZDE\08-Apr-2025\0\\#t hf au
 g-cc-pvdz iop(5/13=1,5/36=2,99/5=2) pseudo=read geom=check guess=(read
 ,tcheck) scf=(maxcycle=1)\\title\\0,1\C,0,2.526294,0.497529,0.002918\C
 ,0,2.34054,-0.887434,0.014585\C,0,1.054749,-1.427598,0.00418\C,0,1.433
 052,1.35834,-0.0113\C,0,0.139161,0.8277,0.000203\C,0,-0.044814,-0.5743
 ,0.010486\H,0,3.53144,0.904005,0.000406\H,0,3.201268,-1.546515,0.02388
 8\H,0,0.920112,-2.50393,-0.007376\H,0,1.581416,2.432922,-0.027731\C,0,
 -1.120736,1.564859,0.011132\C,0,-2.226396,0.794728,0.042218\H,0,-1.142

 Normal termination of Gaussian 16 at Tue Apr  8 23:36:22 2025.
