 Gaussian 16, Revision C.01,

 ----------------------------------------------------------------------
 #t hf aug-cc-pvdz symm=none int=(grid=ultrafine) guess=(read,tcheck) s
 table=(opt,rrhf)
 ----------------------------------------------------------------------
 -----
 title
 -----
 Symbolic Z-matrix:
 Charge =  0 Multiplicity = 1

 SCF Done:  E(RHF) =  -691.115786336     A.U. after   13 cycles
 Normal termination of Gaussian 16 at Tue Apr  8 23:10:07 2025.
 Gaussian 16:  ES64L-G16RevC.01  3-Jul-2019

 ----------------------------------------------------------------------
 #t hf aug-cc-pvdz iop(5/13=1,5/36=2,99/5=2) pseudo=read geom=check gue
 ss=(read,tcheck) scf=(maxcycle=1)
 ----------------------------------------------------------------------
 -----
 title
 -----
 Structure from the checkpoint file:  "BDE49_expt_565_mol1.chk"
 Charge =  0 Multiplicity = 1

                         Standard orientation:
 ---------------------------------------------------------------------
 Center     Atomic      Atomic             Coordinates (Angstroms)
 Number     Number       Type             X           Y           Z
 ---------------------------------------------------------------------
      1          6           0        0.480185   -0.000039    0.890486
      2          6           0       -0.786153    0.000002    0.019640
      3          6           0       -0.896762    1.267744   -0.832334
      4          1           0       -0.865644    2.154368   -0.194858
      5          1           0       -1.847001    1.270588   -1.375839
      6          1           0       -0.089783    1.332395   -1.564729
      7          6           0       -0.896777   -1.267677   -0.832425
      8          1           0       -0.865674   -2.154349   -0.195015
      9          1           0       -0.089794   -1.332286   -1.564820
     10          1           0       -1.847012   -1.270468   -1.375939
     11          8           0       -1.811039   -0.000026    1.030929
     12          1           0       -2.663849   -0.000080    0.583918
     13         17           0        2.020857   -0.000000   -0.062761
     14          1           0        0.499768   -0.889132    1.517258
     15          1           0        0.499771    0.888999    1.517336
 ---------------------------------------------------------------------

 SCF Done:  E(RHF) =  -692.479809157     A.U. after    2 cycles

 The electronic state is 1-A.
 Alpha  occ. eigenvalues --  -99.87601 -21.07325 -11.47062 -11.43867 -11.40053
 Alpha  occ. eigenvalues --  -11.36758 -10.44865  -9.64815  -9.64162  -9.64096
 Alpha  occ. eigenvalues --   -1.72833  -1.32907  -1.17992  -1.02415  -1.00979
 Alpha  occ. eigenvalues --   -0.80801  -0.66425  -0.65744  -0.64712  -0.57787
 Alpha  occ. eigenvalues --   -0.57709  -0.54189  -0.53617  -0.51863  -0.48573
 Alpha  occ. eigenvalues --   -0.46376  -0.44422  -0.40060  -0.32572
 Alpha virt. eigenvalues --    0.03363   0.05404   0.05455   0.05592   0.06203
 Alpha virt. eigenvalues --    0.06336   0.06657   0.07181   0.08358   0.09273
 Alpha virt. eigenvalues --    0.11413   0.12162   0.14286   0.14601   0.15524

 Mulliken charges:
               1
     1  C   -4.195422
     2  C    5.776610
     3  C   -4.274167
     4  H    1.135508
     5  H    1.165229
     6  H    1.168975
     7  C   -4.274204
     8  H    1.135506
     9  H    1.168969
    10  H    1.165230
    11  O   -3.658541
    12  H    0.752118
    13  Cl   0.012276
    14  H    1.460964
    15  H    1.460950
 Sum of Mulliken charges =  -0.00000

 Dipole moment (field-independent basis, Debye):
    X=             -2.2267    Y=             -0.0001    Z=              0.2876  Tot=              2.2452

 Test job not archived.
 1\1\GINC-SE343\SP\RHF\Aug-CC-pVDZ\C4H9Cl1O1\OHZDE\08-Apr-2025\0\\#t hf
  aug-cc-pvdz iop(5/13=1,5/36=2,99/5=2) pseudo=read geom=check guess=(r
 ead,tcheck) scf=(maxcycle=1)\\title\\0,1\C,0,0.480185,-0.000039,0.8904
 86\C,0,-0.786153,0.000002,0.01964\C,0,-0.896762,1.267744,-0.832334\H,0
 ,-0.865644,2.154368,-0.194858\H,0,-1.847001,1.270588,-1.375839\H,0,-0.
 089783,1.332395,-1.564729\C,0,-0.896777,-1.267677,-0.832425\H,0,-0.865
 674,-2.154349,-0.195015\H,0,-0.089794,-1.332286,-1.56482\H,0,-1.847012
 ,-1.270468,-1.375939\O,0,-1.811039,-0.000026,1.030929\H,0,-2.663849,-0

 Normal termination of Gaussian 16 at Tue Apr  8 23:10:12 2025.
