 Gaussian 16, Revision C.01,

 ----------------------------------------------------------------------
 #t hf aug-cc-pvdz symm=none int=(grid=ultrafine) guess=(read,tcheck) s
 table=opt
 ----------------------------------------------------------------------
 -----
 title
 -----
 Symbolic Z-matrix:
 Charge =  0 Multiplicity = 2

 SCF Done:  E(UHF) =  -480.639554974     A.U. after   25 cycles
 Normal termination of Gaussian 16 at Tue Apr  8 23:16:27 2025.
 Gaussian 16:  ES64L-G16RevC.01  3-Jul-2019

 ----------------------------------------------------------------------
 #t hf aug-cc-pvdz iop(5/13=1,5/36=2,99/5=2) pseudo=read geom=check gue
 ss=(read,tcheck) scf=(maxcycle=1)
 ----------------------------------------------------------------------
 -----
 title
 -----
 Structure from the checkpoint file:  "BDE49_expt_429_mol2.chk"
 Charge =  0 Multiplicity = 2

                         Standard orientation:
 ---------------------------------------------------------------------
 Center     Atomic      Atomic             Coordinates (Angstroms)
 Number     Number       Type             X           Y           Z
 ---------------------------------------------------------------------
      1          6           0       -1.874797    0.180962   -0.003140
      2          6           0       -2.389150    0.403300   -1.444468
      3          1           0       -2.498554   -0.549106   -1.969427
      4          1           0       -1.702552    1.033177   -2.013348
      5          1           0       -3.367743    0.891913   -1.417490
      6          6           0       -1.722147    1.537473    0.710087
      7          1           0       -1.023823    2.189962    0.180577
      8          1           0       -1.363985    1.410553    1.736060
      9          1           0       -2.689515    2.045894    0.755836
     10          6           0       -2.843894   -0.727704    0.767055
     11          1           0       -3.836415   -0.269540    0.801354
     12          1           0       -2.507408   -0.886658    1.795120
     13          1           0       -2.925173   -1.705204    0.290542
     14          6           0       -0.509391   -0.516458   -0.107121
     15          8           0       -0.368144   -1.731497   -0.011263
     16          7           0        0.544524    0.280805   -0.489629
     17          6           0        1.907294    0.112877    0.007221
     18          6           0        2.597216    1.480643   -0.159190
     19          1           0        2.532636    1.818335   -1.195293
     20          1           0        3.650539    1.405348    0.123018
     21          1           0        2.125876    2.233640    0.477323
     22          6           0        2.588594   -0.922298   -0.927720
     23          1           0        2.513454   -0.604231   -1.969356
     24          1           0        2.111526   -1.895698   -0.820373
     25          1           0        3.646313   -1.001488   -0.659754
     26          6           0        1.985043   -0.354455    1.471901
     27          1           0        1.498902    0.368475    2.133418
     28          1           0        3.030010   -0.439839    1.781117
     29          1           0        1.506792   -1.325230    1.600438
 ---------------------------------------------------------------------

 SCF Done:  E(UHF) =  -482.973729220     A.U. after    2 cycles

 The electronic state is 2-A.
 Alpha  occ. eigenvalues --  -21.05007 -15.75811 -11.51874 -11.45070 -11.42794
 Alpha  occ. eigenvalues --  -11.39813 -11.39540 -11.39299 -11.39089 -11.36022
 Alpha  occ. eigenvalues --  -11.35559  -1.72553  -1.41531  -1.27571  -1.17071
 Alpha  occ. eigenvalues --   -1.01742  -1.01512  -1.01003  -1.00595  -0.90197
 Alpha  occ. eigenvalues --   -0.80585  -0.69649  -0.66622  -0.63636  -0.62887
 Alpha  occ. eigenvalues --   -0.60905  -0.60392  -0.58417  -0.57521  -0.55263
 Alpha  occ. eigenvalues --   -0.54545  -0.54285  -0.51970  -0.51503  -0.50898
 Alpha  occ. eigenvalues --   -0.50193  -0.49182  -0.45302  -0.44533  -0.43490
 Alpha  occ. eigenvalues --   -0.42178  -0.37275  -0.34606  -0.28579
 Alpha virt. eigenvalues --    0.03885   0.04779   0.04956   0.05099   0.05172
 Alpha virt. eigenvalues --    0.05590   0.05852   0.06549   0.06618   0.06887
 Alpha virt. eigenvalues --    0.07202   0.07638   0.07961   0.08043   0.08967

  Beta  occ. eigenvalues --  -21.03945 -15.72836 -11.52399 -11.45273 -11.42788
  Beta  occ. eigenvalues --  -11.39803 -11.39479 -11.39216 -11.39064 -11.36033
  Beta  occ. eigenvalues --  -11.35494  -1.70450  -1.35973  -1.27414  -1.13269
  Beta  occ. eigenvalues --   -1.01496  -1.01402  -1.00712  -1.00471  -0.89772
  Beta  occ. eigenvalues --   -0.80168  -0.69188  -0.65217  -0.63007  -0.60891
  Beta  occ. eigenvalues --   -0.60784  -0.60362  -0.57616  -0.55946  -0.54944
  Beta  occ. eigenvalues --   -0.54317  -0.53969  -0.51866  -0.51451  -0.49467
  Beta  occ. eigenvalues --   -0.48814  -0.47603  -0.44533  -0.44068  -0.43270
  Beta  occ. eigenvalues --   -0.41257  -0.33178  -0.27340
  Beta virt. eigenvalues --    0.03882   0.04727   0.04939   0.05083   0.05133
  Beta virt. eigenvalues --    0.05470   0.05842   0.06451   0.06574   0.06869
  Beta virt. eigenvalues --    0.07185   0.07586   0.07819   0.08032   0.08839

 Mulliken charges and spin densities:
               1          2
     1  C    3.180236   0.137346
     2  C   -4.977016  -0.002718
     3  H    1.233829   0.004953
     4  H    1.368528  -0.000401
     5  H    1.233201  -0.000656
     6  C   -5.378846  -0.008232
     7  H    1.509552   0.022559
     8  H    1.354436   0.018772
     9  H    1.069811  -0.000904
    10  C   -4.562807  -0.003940
    11  H    1.166690   0.000439
    12  H    1.264108   0.006070
    13  H    1.350471  -0.000445
    14  C    5.996898  -0.559802
    15  O   -3.834733   0.280547
    16  N   -4.027653   1.245317
    17  C    3.964644  -0.379191
    18  C   -4.514160   0.053687
    19  H    1.320434  -0.002534
    20  H    1.166565  -0.001955
    21  H    1.269592   0.009022
    22  C   -4.440639   0.141429
    23  H    1.396653   0.006800
    24  H    1.370297  -0.000816
    25  H    1.189857  -0.002522
    26  C   -4.432369   0.032156
    27  H    1.365390   0.007454
    28  H    1.147569  -0.002479
    29  H    1.249462   0.000044
 Sum of Mulliken charges =  -0.00000   1.00000

 Dipole moment (field-independent basis, Debye):
    X=              0.3477    Y=              0.6089    Z=              0.5062  Tot=              0.8648
                          Isotropic Fermi Contact Couplings
        Atom                 a.u.       MegaHertz       Gauss      10(-4) cm-1
     1  C(13)              0.00480       5.39148       1.92381       1.79840
     2  C(13)             -0.00542      -6.09397      -2.17448      -2.03273
     3  H(1)               0.00000       0.00595       0.00212       0.00199
     4  H(1)               0.00017       0.77058       0.27496       0.25704
     5  H(1)              -0.00016      -0.69800      -0.24906      -0.23283
     6  C(13)              0.00175       1.96881       0.70252       0.65673
     7  H(1)               0.00087       3.90247       1.39250       1.30172
     8  H(1)               0.00001       0.03027       0.01080       0.01010

 Normal termination of Gaussian 16 at Tue Apr  8 23:16:53 2025.
