 Gaussian 16, Revision C.01,

 ----------------------------------------------------------------------
 #t hf aug-cc-pvdz symm=none int=(grid=ultrafine) guess=(read,tcheck) s
 table=(opt,rrhf)
 ----------------------------------------------------------------------
 -----
 title
 -----
 Symbolic Z-matrix:
 Charge =  0 Multiplicity = 1

 SCF Done:  E(RHF) =  -533.110245046     A.U. after   14 cycles
 Normal termination of Gaussian 16 at Wed Apr  9 00:53:05 2025.
 Gaussian 16:  ES64L-G16RevC.01  3-Jul-2019

 ----------------------------------------------------------------------
 #t hf aug-cc-pvdz iop(5/13=1,5/36=2,99/5=2) pseudo=read geom=check gue
 ss=(read,tcheck) scf=(maxcycle=1)
 ----------------------------------------------------------------------
 -----
 title
 -----
 Structure from the checkpoint file:  "BDE49_nonexpt_958_mol1.chk"
 Charge =  0 Multiplicity = 1

                         Standard orientation:
 ---------------------------------------------------------------------
 Center     Atomic      Atomic             Coordinates (Angstroms)
 Number     Number       Type             X           Y           Z
 ---------------------------------------------------------------------
      1          9           0        0.601806    0.236168    2.134109
      2          7           0        0.464612    0.419183    0.774702
      3          6           0        0.822565   -0.607210   -0.164756
      4          8           0        1.757131   -1.297117   -0.351954
      5          6           0       -0.822565    0.607210    0.164756
      6          7           0       -0.464612   -0.419183   -0.774702
      7          8           0       -1.757131    1.297117    0.351954
      8          9           0       -0.601806   -0.236168   -2.134109
 ---------------------------------------------------------------------

 SCF Done:  E(RHF) =  -535.178478848     A.U. after    2 cycles

 The electronic state is 1-AG.
 Alpha  occ. eigenvalues --  -29.36100 -29.36084 -21.14130 -21.14113 -15.89624
 Alpha  occ. eigenvalues --  -15.89457 -11.61728 -11.59934  -1.83830  -1.79921
 Alpha  occ. eigenvalues --   -1.65296  -1.41498  -1.01768  -0.96555  -0.81208
 Alpha  occ. eigenvalues --   -0.80525  -0.69579  -0.64620  -0.59340  -0.58155
 Alpha  occ. eigenvalues --   -0.54391  -0.48162  -0.46142  -0.44771  -0.40333
 Alpha  occ. eigenvalues --   -0.40278  -0.37079  -0.28771  -0.28404  -0.26462
 Alpha virt. eigenvalues --    0.08138   0.08804   0.08980   0.10628   0.11382
 Alpha virt. eigenvalues --    0.11961   0.12163   0.13884   0.15381   0.15720
 Alpha virt. eigenvalues --    0.16376   0.16925   0.19133   0.19859   0.21953

 Mulliken charges:
               1
     1  F    0.028535
     2  N   -1.521847
     3  C    4.274978
     4  O   -2.781667
     5  C    4.274978
     6  N   -1.521847
     7  O   -2.781667
     8  F    0.028535
 Sum of Mulliken charges =   0.00000

 Dipole moment (field-independent basis, Debye):
    X=              0.0000    Y=              0.0000    Z=             -0.0000  Tot=              0.0000

 Test job not archived.
 1\1\GINC-SE184\SP\RHF\Aug-CC-pVDZ\C2F2N2O2\OHZDE\09-Apr-2025\0\\#t hf
 aug-cc-pvdz iop(5/13=1,5/36=2,99/5=2) pseudo=read geom=check guess=(re
 ad,tcheck) scf=(maxcycle=1)\\title\\0,1\F,0,0.601806,0.236168,2.134109
 \N,0,0.464612,0.419183,0.774702\C,0,0.822565,-0.60721,-0.164756\O,0,1.
 757131,-1.297117,-0.351954\C,0,-0.822565,0.60721,0.164756\N,0,-0.46461
 2,-0.419183,-0.774702\O,0,-1.757131,1.297117,0.351954\F,0,-0.601806,-0
 .236168,-2.134109\\Version=ES64L-G16RevC.01\State=1-AG\HF=-535.1784788
 \RMSD=7.215e-02\Dipole=0.,0.,0.\Quadrupole=-3.1290183,-2.4959032,5.624

 Normal termination of Gaussian 16 at Wed Apr  9 00:53:08 2025.
