 Gaussian 16, Revision C.01,

 ----------------------------------------------------------------------
 #t hf aug-cc-pvdz symm=none int=(grid=ultrafine) guess=(read,tcheck) s
 table=(opt,rrhf)
 ----------------------------------------------------------------------
 -----
 title
 -----
 Symbolic Z-matrix:
 Charge =  0 Multiplicity = 1

 SCF Done:  E(RHF) =  -380.456298145     A.U. after   12 cycles
 Normal termination of Gaussian 16 at Wed Apr  9 00:32:47 2025.
 Gaussian 16:  ES64L-G16RevC.01  3-Jul-2019

 ----------------------------------------------------------------------
 #t hf aug-cc-pvdz iop(5/13=1,5/36=2,99/5=2) pseudo=read geom=check gue
 ss=(read,tcheck) scf=(maxcycle=1)
 ----------------------------------------------------------------------
 -----
 title
 -----
 Structure from the checkpoint file:  "BDE49_nonexpt_372_mol1.chk"
 Charge =  0 Multiplicity = 1

                         Standard orientation:
 ---------------------------------------------------------------------
 Center     Atomic      Atomic             Coordinates (Angstroms)
 Number     Number       Type             X           Y           Z
 ---------------------------------------------------------------------
      1          9           0       -2.719612    0.092885    0.590747
      2          9           0       -1.327722   -1.287883   -0.514432
      3          5           0       -1.552458   -0.070265   -0.026137
      4          6           0       -0.539780    1.103459   -0.197235
      5          6           0        0.898689    0.707393   -0.572942
      6          1           0       -0.962794    1.755218   -0.976868
      7          6           0        1.628931   -0.059548    0.536517
      8          1           0        1.470936    1.608830   -0.819652
      9          1           0        0.883442    0.095098   -1.481462
     10          6           0        3.067064   -0.430113    0.164881
     11          1           0        1.070203   -0.972350    0.773770
     12          1           0        1.631955    0.547042    1.450616
     13          1           0        3.093236   -1.064582   -0.726300
     14          1           0        3.560199   -0.974648    0.974401
     15          1           0        3.663622    0.462795   -0.046618
     16          1           0       -0.551919    1.721750    0.708643
 ---------------------------------------------------------------------

 SCF Done:  E(RHF) =  -382.059481515     A.U. after    2 cycles

 The electronic state is 1-A.
 Alpha  occ. eigenvalues --  -29.25101 -29.24991 -11.42337 -11.39770 -11.36664
 Alpha  occ. eigenvalues --  -11.34444  -7.68903  -1.27242  -1.15760  -1.03731
 Alpha  occ. eigenvalues --   -0.91550  -0.83209  -0.74248  -0.65051  -0.61351
 Alpha  occ. eigenvalues --   -0.58955  -0.58061  -0.52691  -0.51448  -0.47527
 Alpha  occ. eigenvalues --   -0.46547  -0.46242  -0.44086  -0.43415  -0.42543
 Alpha  occ. eigenvalues --   -0.33474  -0.31949  -0.25757
 Alpha virt. eigenvalues --    0.03536   0.03984   0.04490   0.05243   0.05959
 Alpha virt. eigenvalues --    0.06134   0.06399   0.06758   0.08309   0.08678
 Alpha virt. eigenvalues --    0.09215   0.09833   0.10238   0.12881   0.13379

 Mulliken charges:
               1
     1  F    0.137675
     2  F   -0.910016
     3  B    2.347135
     4  C   -4.071327
     5  C   -2.421991
     6  H    0.997583
     7  C   -2.850434
     8  H    1.394918
     9  H    1.588644
    10  C   -4.193350
    11  H    1.539786
    12  H    1.501872
    13  H    1.298471
    14  H    1.091717
    15  H    1.291251
    16  H    1.258064
 Sum of Mulliken charges =  -0.00000

 Dipole moment (field-independent basis, Debye):
    X=             -1.0987    Y=             -1.5163    Z=              0.1059  Tot=              1.8755

 Test job not archived.
 1\1\GINC-SE328\SP\RHF\Aug-CC-pVDZ\C4H9B1F2\OHZDE\09-Apr-2025\0\\#t hf
 aug-cc-pvdz iop(5/13=1,5/36=2,99/5=2) pseudo=read geom=check guess=(re
 ad,tcheck) scf=(maxcycle=1)\\title\\0,1\F,0,-2.719612,0.092885,0.59074
 7\F,0,-1.327722,-1.287883,-0.514432\B,0,-1.552458,-0.070265,-0.026137\
 C,0,-0.53978,1.103459,-0.197235\C,0,0.898689,0.707393,-0.572942\H,0,-0
 .962794,1.755218,-0.976868\C,0,1.628931,-0.059548,0.536517\H,0,1.47093
 6,1.60883,-0.819652\H,0,0.883442,0.095098,-1.481462\C,0,3.067064,-0.43
 0113,0.164881\H,0,1.070203,-0.97235,0.77377\H,0,1.631955,0.547042,1.45

 Normal termination of Gaussian 16 at Wed Apr  9 00:32:56 2025.
