 Gaussian 16, Revision C.01,

 ----------------------------------------------------------------------
 #t hf aug-cc-pvdz symm=none int=(grid=ultrafine) guess=(read,tcheck) s
 table=(opt,rrhf)
 ----------------------------------------------------------------------
 -----
 title
 -----
 Symbolic Z-matrix:
 Charge =  0 Multiplicity = 1

 SCF Done:  E(RHF) =  -666.116689072     A.U. after   15 cycles
 Normal termination of Gaussian 16 at Tue Apr  8 23:38:26 2025.
 Gaussian 16:  ES64L-G16RevC.01  3-Jul-2019

 ----------------------------------------------------------------------
 #t hf aug-cc-pvdz iop(5/13=1,5/36=2,99/5=2) pseudo=read geom=check gue
 ss=(read,tcheck) scf=(maxcycle=1)
 ----------------------------------------------------------------------
 -----
 title
 -----
 Structure from the checkpoint file:  "BDE49_nonexpt_1525_mol1.chk"
 Charge =  0 Multiplicity = 1

                         Standard orientation:
 ---------------------------------------------------------------------
 Center     Atomic      Atomic             Coordinates (Angstroms)
 Number     Number       Type             X           Y           Z
 ---------------------------------------------------------------------
      1          6           0       -0.213589   -0.150387   -0.433459
      2          7           0        2.523276   -0.218109    0.367179
      3          6           0        2.342530    0.824779    1.372583
      4          1           0        1.419762    0.717152    1.957664
      5          1           0        2.313935    1.800603    0.880037
      6          1           0        3.193175    0.824019    2.059344
      7          6           0       -0.893488   -1.218865    0.169322
      8          6           0       -2.211319   -1.080403    0.595090
      9          6           0       -2.882297    0.127332    0.406008
     10          6           0       -2.226380    1.193617   -0.204539
     11          6           0       -0.900986    1.056706   -0.614224
     12          1           0       -0.396700    1.897650   -1.078764
     13          1           0       -0.387806   -2.171244    0.298605
     14          1           0       -2.719693   -1.916690    1.062496
     15          1           0       -3.911865    0.234206    0.728873
     16          1           0       -2.743650    2.134914   -0.355638
     17         15           0        1.528746   -0.420156   -1.003656
     18          1           0        1.678444    0.881925   -1.548874
     19          1           0        2.873447   -1.090100    0.736147
 ---------------------------------------------------------------------

 SCF Done:  E(RHF) =  -667.889721789     A.U. after    2 cycles

 The electronic state is 1-A.
 Alpha  occ. eigenvalues -- -105.18844 -15.72375 -11.51412 -11.42986 -11.42676
 Alpha  occ. eigenvalues --  -11.40755 -11.40505 -11.38664 -11.36185  -2.76584
 Alpha  occ. eigenvalues --   -1.56716  -1.49670  -1.45947  -1.32684  -1.24338
 Alpha  occ. eigenvalues --   -1.09166  -1.07603  -0.94508  -0.86263  -0.84275
 Alpha  occ. eigenvalues --   -0.73904  -0.68783  -0.63008  -0.61017  -0.58573
 Alpha  occ. eigenvalues --   -0.58279  -0.56476  -0.53610  -0.50414  -0.49447
 Alpha  occ. eigenvalues --   -0.44682  -0.36838  -0.33559  -0.33101  -0.26666
 Alpha  occ. eigenvalues --   -0.23873  -0.01357
 Alpha virt. eigenvalues --    0.03463   0.04974   0.05139   0.05429   0.06513
 Alpha virt. eigenvalues --    0.06864   0.07086   0.07175   0.08247   0.08554
 Alpha virt. eigenvalues --    0.10285   0.10930   0.11097   0.11594   0.12829

 Mulliken charges:
               1
     1  C    3.126412
     2  N   -2.182969
     3  C   -3.537566
     4  H    1.512810
     5  H    1.493365
     6  H    1.210031
     7  C   -4.352305
     8  C   -0.689582
     9  C   -2.296327
    10  C   -0.517125
    11  C   -3.936613
    12  H    1.929266
    13  H    1.833498
    14  H    1.577300
    15  H    1.439440
    16  H    1.475758
    17  P    2.901413
    18  H   -1.529639
    19  H    0.542833
 Sum of Mulliken charges =   0.00000

 Dipole moment (field-independent basis, Debye):
    X=             -0.5759    Y=              0.2636    Z=              1.1647  Tot=              1.3258

 Test job not archived.
 1\1\GINC-SE342\SP\RHF\Aug-CC-pVDZ\C7H10N1P1\OHZDE\08-Apr-2025\0\\#t hf
  aug-cc-pvdz iop(5/13=1,5/36=2,99/5=2) pseudo=read geom=check guess=(r
 ead,tcheck) scf=(maxcycle=1)\\title\\0,1\C,0,-0.213589,-0.150387,-0.43
 3459\N,0,2.523276,-0.218109,0.367179\C,0,2.34253,0.824779,1.372583\H,0
 ,1.419762,0.717152,1.957664\H,0,2.313935,1.800603,0.880037\H,0,3.19317
 5,0.824019,2.059344\C,0,-0.893488,-1.218865,0.169322\C,0,-2.211319,-1.
 080403,0.59509\C,0,-2.882297,0.127332,0.406008\C,0,-2.22638,1.193617,-
 0.204539\C,0,-0.900986,1.056706,-0.614224\H,0,-0.3967,1.89765,-1.07876

 Normal termination of Gaussian 16 at Tue Apr  8 23:38:35 2025.
