 Gaussian 16, Revision C.01,

 ----------------------------------------------------------------------
 #t hf aug-cc-pvdz symm=none int=(grid=ultrafine) guess=(read,tcheck) s
 table=(opt,rrhf)
 ----------------------------------------------------------------------
 -----
 title
 -----
 Symbolic Z-matrix:
 Charge =  0 Multiplicity = 1

 SCF Done:  E(RHF) =  -899.802465139     A.U. after   14 cycles
 Normal termination of Gaussian 16 at Tue Apr  8 22:56:40 2025.
 Gaussian 16:  ES64L-G16RevC.01  3-Jul-2019

 ----------------------------------------------------------------------
 #t hf aug-cc-pvdz iop(5/13=1,5/36=2,99/5=2) pseudo=read geom=check gue
 ss=(read,tcheck) scf=(maxcycle=1)
 ----------------------------------------------------------------------
 -----
 title
 -----
 Structure from the checkpoint file:  "BDE49_expt_1833_mol1.chk"
 Charge =  0 Multiplicity = 1

                         Standard orientation:
 ---------------------------------------------------------------------
 Center     Atomic      Atomic             Coordinates (Angstroms)
 Number     Number       Type             X           Y           Z
 ---------------------------------------------------------------------
      1         16           0       -0.711607    0.000000   -0.104069
      2          8           0       -1.237401    1.262690   -0.473692
      3          8           0       -1.237403   -1.262689   -0.473694
      4          7           0        1.021088   -0.000000   -0.630625
      5          9           0       -0.490852   -0.000001    1.482837
      6          9           0        1.580789    1.088133    0.017391
      7          9           0        1.580788   -1.088135    0.017391
 ---------------------------------------------------------------------

 SCF Done:  E(RHF) =  -901.946857845     A.U. after    2 cycles

 The electronic state is 1-A.
 Alpha  occ. eigenvalues --  -76.01663 -29.36873 -29.36292 -29.36267 -21.14721
 Alpha  occ. eigenvalues --  -21.14702 -15.96478 -13.66257 -13.55841 -13.45504
 Alpha  occ. eigenvalues --   -8.37482  -1.94148  -1.75240  -1.58943  -1.15750
 Alpha  occ. eigenvalues --   -0.90933  -0.88766  -0.73924  -0.69976  -0.58804
 Alpha  occ. eigenvalues --   -0.54830  -0.53937  -0.50241  -0.48212  -0.45602
 Alpha  occ. eigenvalues --   -0.44503  -0.42286  -0.39445  -0.37432  -0.36219
 Alpha  occ. eigenvalues --   -0.33552  -0.26241  -0.25615
 Alpha virt. eigenvalues --    0.07468   0.09164   0.09666   0.13512   0.13869
 Alpha virt. eigenvalues --    0.15951   0.18261   0.19481   0.19784   0.21231
 Alpha virt. eigenvalues --    0.21450   0.23557   0.23863   0.24594   0.25401

 Mulliken charges:
               1
     1  S    5.804372
     2  O   -2.560987
     3  O   -2.560987
     4  N   -1.000846
     5  F    0.293952
     6  F    0.012247
     7  F    0.012248
 Sum of Mulliken charges =   0.00000

 Dipole moment (field-independent basis, Debye):
    X=              2.4522    Y=             -0.0000    Z=              5.2114  Tot=              5.7595

 Test job not archived.
 1\1\GINC-SE051\SP\RHF\Aug-CC-pVDZ\F3N1O2S1\OHZDE\08-Apr-2025\0\\#t hf
 aug-cc-pvdz iop(5/13=1,5/36=2,99/5=2) pseudo=read geom=check guess=(re
 ad,tcheck) scf=(maxcycle=1)\\title\\0,1\S,0,-0.711607,0.,-0.104069\O,0
 ,-1.237401,1.26269,-0.473692\O,0,-1.237402,-1.262689,-0.473694\N,0,1.0
 21088,0.,-0.630625\F,0,-0.490852,-0.000001,1.482837\F,0,1.580789,1.088
 134,0.017391\F,0,1.580788,-1.088134,0.017391\\Version=ES64L-G16RevC.01
 \State=1-A\HF=-901.9468578\RMSD=4.156e-02\Dipole=0.9647818,-0.0000015,
 2.0503097\Quadrupole=0.029388,-1.7276126,1.6982246,0.0000026,-0.606249

 Normal termination of Gaussian 16 at Tue Apr  8 22:56:43 2025.
