 Gaussian 16, Revision C.01,

 ----------------------------------------------------------------------
 #t hf aug-cc-pvdz symm=none int=(grid=ultrafine) guess=(read,tcheck) s
 table=(opt,rrhf)
 ----------------------------------------------------------------------
 -----
 title
 -----
 Symbolic Z-matrix:
 Charge =  0 Multiplicity = 1

 SCF Done:  E(RHF) =  -559.937556358     A.U. after   11 cycles
 Normal termination of Gaussian 16 at Wed Apr  9 00:28:43 2025.
 Gaussian 16:  ES64L-G16RevC.01  3-Jul-2019

 ----------------------------------------------------------------------
 #t hf aug-cc-pvdz iop(5/13=1,5/36=2,99/5=2) pseudo=read geom=check gue
 ss=(read,tcheck) scf=(maxcycle=1)
 ----------------------------------------------------------------------
 -----
 title
 -----
 Structure from the checkpoint file:  "BDE49_nonexpt_302_mol1.chk"
 Charge =  0 Multiplicity = 1

                         Standard orientation:
 ---------------------------------------------------------------------
 Center     Atomic      Atomic             Coordinates (Angstroms)
 Number     Number       Type             X           Y           Z
 ---------------------------------------------------------------------
      1          6           0       -0.633553    0.000001   -0.010338
      2          5           0        0.972284    0.000002   -0.020793
      3          9           0       -1.149720    1.088634   -0.615610
      4          9           0       -1.149716   -1.088574   -0.615716
      5          9           0       -1.074579   -0.000062    1.274129
      6          9           0        1.628111   -1.135248   -0.012180
      7          9           0        1.628115    1.135249   -0.012180
 ---------------------------------------------------------------------

 SCF Done:  E(RHF) =  -561.879189958     A.U. after    2 cycles

 The electronic state is 1-A.
 Alpha  occ. eigenvalues --  -29.32592 -29.32541 -29.32483 -29.29972 -29.29873
 Alpha  occ. eigenvalues --  -11.57465  -7.75440  -1.44595  -1.16057  -0.91094
 Alpha  occ. eigenvalues --   -0.89479  -0.79314  -0.78794  -0.55331  -0.51472
 Alpha  occ. eigenvalues --   -0.50666  -0.49123  -0.44972  -0.44672  -0.39807
 Alpha  occ. eigenvalues --   -0.39729  -0.37857  -0.37034  -0.35149  -0.27758
 Alpha  occ. eigenvalues --   -0.27416  -0.22963  -0.22690
 Alpha virt. eigenvalues --    0.03905   0.04648   0.05557   0.06000   0.08582
 Alpha virt. eigenvalues --    0.13980   0.15273   0.15347   0.19527   0.19901
 Alpha virt. eigenvalues --    0.20110   0.21652   0.21844   0.22674   0.23005

 Mulliken charges:
               1
     1  C   -2.202193
     2  B    1.536213
     3  F    0.281409
     4  F    0.281375
     5  F    0.122992
     6  F   -0.009878
     7  F   -0.009918
 Sum of Mulliken charges =   0.00000

 Dipole moment (field-independent basis, Debye):
    X=              0.9915    Y=             -0.0000    Z=              0.2086  Tot=              1.0132

 Test job not archived.
 1\1\GINC-SE342\SP\RHF\Aug-CC-pVDZ\C1B1F5\OHZDE\09-Apr-2025\0\\#t hf au
 g-cc-pvdz iop(5/13=1,5/36=2,99/5=2) pseudo=read geom=check guess=(read
 ,tcheck) scf=(maxcycle=1)\\title\\0,1\C,0,-0.633553,0.000001,-0.010338
 \B,0,0.972284,0.000002,-0.020793\F,0,-1.14972,1.088634,-0.61561\F,0,-1
 .149716,-1.088574,-0.615716\F,0,-1.074579,-0.000062,1.274129\F,0,1.628
 111,-1.135248,-0.01218\F,0,1.628115,1.135249,-0.01218\\Version=ES64L-G
 16RevC.01\State=1-A\HF=-561.87919\RMSD=2.106e-01\Dipole=0.3900847,0.,0
 .0820553\Quadrupole=0.7775552,2.3327966,-3.1103518,0.0000437,-0.158061

 Normal termination of Gaussian 16 at Wed Apr  9 00:28:45 2025.
