 Gaussian 16, Revision C.01,

 ----------------------------------------------------------------------
 #t hf aug-cc-pvdz symm=none int=(grid=ultrafine) guess=(read,tcheck) s
 table=(opt,rrhf)
 ----------------------------------------------------------------------
 -----
 title
 -----
 Symbolic Z-matrix:
 Charge =  0 Multiplicity = 1

 SCF Done:  E(RHF) =  -342.472050459     A.U. after    9 cycles
 Normal termination of Gaussian 16 at Tue Apr  8 23:13:45 2025.
 Gaussian 16:  ES64L-G16RevC.01  3-Jul-2019

 ----------------------------------------------------------------------
 #t hf aug-cc-pvdz iop(5/13=1,5/36=2,99/5=2) pseudo=read geom=check gue
 ss=(read,tcheck) scf=(maxcycle=1)
 ----------------------------------------------------------------------
 -----
 title
 -----
 Structure from the checkpoint file:  "BDE49_expt_816_mol1.chk"
 Charge =  0 Multiplicity = 1

                         Standard orientation:
 ---------------------------------------------------------------------
 Center     Atomic      Atomic             Coordinates (Angstroms)
 Number     Number       Type             X           Y           Z
 ---------------------------------------------------------------------
      1         15           0        0.000001   -0.000002   -0.128066
      2          1           0       -0.802175   -0.883613    0.640332
      3          1           0        1.166322   -0.252871    0.640339
      4          1           0       -0.364169    1.136516    0.640314
 ---------------------------------------------------------------------

 SCF Done:  E(RHF) =  -342.678701449     A.U. after    2 cycles

 The electronic state is 1-A.
 Alpha  occ. eigenvalues -- -105.18444  -2.74943  -1.43397  -1.43397  -1.42138
 Alpha  occ. eigenvalues --   -0.74754  -0.25161  -0.25161  -0.04141
 Alpha virt. eigenvalues --    0.04270   0.08117   0.08117   0.10299   0.10299
 Alpha virt. eigenvalues --    0.15052   0.18431   0.24731   0.24732   0.24904
 Alpha virt. eigenvalues --    0.29429   0.29429   0.39822   0.42893   0.42893

 Mulliken charges:
               1
     1  P    1.480256
     2  H   -0.493419
     3  H   -0.493415
     4  H   -0.493422
 Sum of Mulliken charges =   0.00000

 Dipole moment (field-independent basis, Debye):
    X=              0.0001    Y=             -0.0001    Z=             -5.2508  Tot=              5.2508

 Test job not archived.
 1\1\GINC-SE403\SP\RHF\Aug-CC-pVDZ\H3P1\OHZDE\08-Apr-2025\0\\#t hf aug-
 cc-pvdz iop(5/13=1,5/36=2,99/5=2) pseudo=read geom=check guess=(read,t
 check) scf=(maxcycle=1)\\title\\0,1\P,0,-0.000001,0.000002,-0.128066\H
 ,0,0.806689,0.879494,0.640332\H,0,-1.165012,0.258838,0.640339\H,0,0.35
 8346,-1.138366,0.640314\\Version=ES64L-G16RevC.01\State=1-A\HF=-342.67
 87014\RMSD=4.655e-01\Dipole=-0.0000253,0.0000401,-2.0658379\Quadrupole
 =2.323518,2.3235653,-4.6470833,0.0000023,-0.000069,0.0001021\PG=C01 [X
 (H3P1)]\\@

 Normal termination of Gaussian 16 at Tue Apr  8 23:13:46 2025.
