 Gaussian 16, Revision C.01,

 ----------------------------------------------------------------------
 #t hf aug-cc-pvdz symm=none int=(grid=ultrafine) guess=(read,tcheck) s
 table=opt
 ----------------------------------------------------------------------
 -----
 title
 -----
 Symbolic Z-matrix:
 Charge =  0 Multiplicity = 2

 SCF Done:  E(UHF) =  -536.527295977     A.U. after   19 cycles
 Normal termination of Gaussian 16 at Wed Apr  9 00:12:09 2025.
 Gaussian 16:  ES64L-G16RevC.01  3-Jul-2019

 ----------------------------------------------------------------------
 #t hf aug-cc-pvdz iop(5/13=1,5/36=2,99/5=2) pseudo=read geom=check gue
 ss=(read,tcheck) scf=(maxcycle=1)
 ----------------------------------------------------------------------
 -----
 title
 -----
 Structure from the checkpoint file:  "BDE49_nonexpt_2389_mol2.chk"
 Charge =  0 Multiplicity = 2

                         Standard orientation:
 ---------------------------------------------------------------------
 Center     Atomic      Atomic             Coordinates (Angstroms)
 Number     Number       Type             X           Y           Z
 ---------------------------------------------------------------------
      1         14           0        1.794279   -0.349306   -0.057068
      2          7           0        0.197580    0.432964   -0.013382
      3          1           0        2.735036    0.807514   -0.046261
      4          1           0        2.022640   -1.184214    1.146995
      5          6           0       -0.830903   -0.482759   -0.017807
      6          8           0       -0.554950   -1.675371   -0.079852
      7          6           0       -2.259088    0.012468    0.053429
      8          1           0       -2.420159    0.641380    0.933019
      9          1           0       -2.917754   -0.851968    0.097932
     10          1           0       -2.508885    0.609824   -0.828276
     11          6           0       -0.032853    1.878677    0.000254
     12          1           0        0.924088    2.388869   -0.103351
     13          1           0       -0.485468    2.206013    0.942066
     14          1           0       -0.675801    2.194774   -0.825949
 ---------------------------------------------------------------------

 SCF Done:  E(UHF) =  -537.808349060     A.U. after    2 cycles

 The electronic state is 2-A.
 Alpha  occ. eigenvalues --  -76.24035 -21.02865 -15.73819 -11.50448 -11.41382
 Alpha  occ. eigenvalues --  -11.39474  -5.57388  -2.22012  -2.19442  -2.18382
 Alpha  occ. eigenvalues --   -1.71470  -1.38476  -1.10253  -1.01557  -0.81785
 Alpha  occ. eigenvalues --   -0.69461  -0.65542  -0.64910  -0.60981  -0.58313
 Alpha  occ. eigenvalues --   -0.56900  -0.50030  -0.48320  -0.46507  -0.45691
 Alpha  occ. eigenvalues --   -0.33696  -0.30719  -0.25818
 Alpha virt. eigenvalues --    0.02997   0.05108   0.05289   0.05599   0.06287
 Alpha virt. eigenvalues --    0.06404   0.07281   0.07757   0.08439   0.08592
 Alpha virt. eigenvalues --    0.10668   0.11589   0.12077   0.13912   0.14157

  Beta  occ. eigenvalues --  -76.23467 -21.02812 -15.73657 -11.50438 -11.41376
  Beta  occ. eigenvalues --  -11.39475  -5.56467  -2.21280  -2.18757  -2.15084
  Beta  occ. eigenvalues --   -1.71348  -1.38063  -1.10190  -1.01382  -0.80003
  Beta  occ. eigenvalues --   -0.67527  -0.65389  -0.64524  -0.60099  -0.58280
  Beta  occ. eigenvalues --   -0.56833  -0.49246  -0.48084  -0.45489  -0.45194
  Beta  occ. eigenvalues --   -0.31949  -0.29929
  Beta virt. eigenvalues --    0.03037   0.04220   0.05147   0.05609   0.05662
  Beta virt. eigenvalues --    0.06423   0.07107   0.07465   0.07846   0.08515
  Beta virt. eigenvalues --    0.10287   0.10795   0.12027   0.12208   0.14071

 Mulliken charges and spin densities:
               1          2
     1  Si   3.555843   1.130803
     2  N   -2.950072  -0.243471
     3  H   -1.654873   0.005931
     4  H   -1.577169   0.020454
     5  C    4.869378   0.100377
     6  O   -3.053437  -0.009031
     7  C   -4.121932   0.005171
     8  H    1.331527  -0.000277
     9  H    1.124446   0.001676
    10  H    1.316564   0.000428
    11  C   -3.336871  -0.009064
    12  H    1.521913  -0.009797
    13  H    1.465062   0.004523
    14  H    1.509621   0.002277
 Sum of Mulliken charges =  -0.00000   1.00000

 Dipole moment (field-independent basis, Debye):
    X=             -1.3471    Y=              1.9537    Z=             -0.2719  Tot=              2.3886
                          Isotropic Fermi Contact Couplings
        Atom                 a.u.       MegaHertz       Gauss      10(-4) cm-1
     1  Si(29)             0.60813    -540.46139    -192.85006    -180.27851
     2  N(14)              0.02165       6.99497       2.49598       2.33327
     3  H(1)               0.00978      43.73545      15.60590      14.58858
     4  H(1)               0.01084      48.43682      17.28346      16.15678
     5  C(13)             -0.00068      -0.76903      -0.27441      -0.25652
     6  O(17)              0.00700      -4.24638      -1.51521      -1.41644
     7  C(13)              0.00062       0.69660       0.24857       0.23236
     8  H(1)              -0.00004      -0.20055      -0.07156      -0.06690

 1\1\GINC-SE460\SP\UHF\Aug-CC-pVDZ\C3H8N1O1Si1(2)\OHZDE\09-Apr-2025\0\\
 #t hf aug-cc-pvdz iop(5/13=1,5/36=2,99/5=2) pseudo=read geom=check gue
 ss=(read,tcheck) scf=(maxcycle=1)\\title\\0,2\Si,0,1.794279,-0.349306,
 -0.057068\N,0,0.19758,0.432964,-0.013382\H,0,2.735036,0.807514,-0.0462
 61\H,0,2.02264,-1.184214,1.146995\C,0,-0.830903,-0.482759,-0.017807\O,
 0,-0.55495,-1.675371,-0.079852\C,0,-2.259088,0.012468,0.053429\H,0,-2.
 420159,0.64138,0.933019\H,0,-2.917754,-0.851967,0.097932\H,0,-2.508885
 ,0.609824,-0.828276\C,0,-0.032853,1.878677,0.000254\H,0,0.924088,2.388

 Normal termination of Gaussian 16 at Wed Apr  9 00:12:14 2025.
