 Gaussian 16, Revision C.01,

 ----------------------------------------------------------------------
 #t hf aug-cc-pvdz symm=none int=(grid=ultrafine) guess=(read,tcheck) s
 table=(opt,rrhf)
 ----------------------------------------------------------------------
 -----
 title
 -----
 Symbolic Z-matrix:
 Charge =  0 Multiplicity = 1

 SCF Done:  E(RHF) =  -1092.27846524     A.U. after   14 cycles
 Normal termination of Gaussian 16 at Wed Apr  9 00:10:37 2025.
 Gaussian 16:  ES64L-G16RevC.01  3-Jul-2019

 ----------------------------------------------------------------------
 #t hf aug-cc-pvdz iop(5/13=1,5/36=2,99/5=2) pseudo=read geom=check gue
 ss=(read,tcheck) scf=(maxcycle=1)
 ----------------------------------------------------------------------
 -----
 title
 -----
 Structure from the checkpoint file:  "BDE49_nonexpt_234_mol1.chk"
 Charge =  0 Multiplicity = 1

                         Standard orientation:
 ---------------------------------------------------------------------
 Center     Atomic      Atomic             Coordinates (Angstroms)
 Number     Number       Type             X           Y           Z
 ---------------------------------------------------------------------
      1         17           0       -1.367668   -1.542610    0.024477
      2          5           0       -0.501825    0.000005   -0.018701
      3         17           0       -1.367631    1.542636    0.024461
      4          7           0        0.885841   -0.000025    0.069882
      5          7           0        1.927450   -0.000090   -0.566083
      6          6           0        3.152015    0.000030    0.249406
      7          1           0        3.730980    0.880517   -0.041632
      8          1           0        3.730982   -0.880534   -0.041393
      9          1           0        2.942121    0.000176    1.321564
 ---------------------------------------------------------------------

 SCF Done:  E(RHF) =  -1093.54660544     A.U. after    2 cycles

 The electronic state is 1-A.
 Alpha  occ. eigenvalues --  -99.89975 -99.89961 -15.84021 -15.78216 -11.40979
 Alpha  occ. eigenvalues --  -10.47370 -10.47140  -9.67288  -9.67156  -9.66737
 Alpha  occ. eigenvalues --   -9.66653  -9.66552  -9.66486  -7.74066  -1.57831
 Alpha  occ. eigenvalues --   -1.39656  -1.29924  -1.15313  -0.95771  -0.75455
 Alpha  occ. eigenvalues --   -0.68434  -0.66783  -0.64790  -0.61459  -0.57882
 Alpha  occ. eigenvalues --   -0.54620  -0.52760  -0.50784  -0.50738  -0.47784
 Alpha  occ. eigenvalues --   -0.34644
 Alpha virt. eigenvalues --    0.02933   0.04329   0.04438   0.04506   0.06597
 Alpha virt. eigenvalues --    0.07037   0.07831   0.09606   0.09634   0.11378
 Alpha virt. eigenvalues --    0.12008   0.13769   0.13904   0.15637   0.16765

 Mulliken charges:
               1
     1  Cl  -1.154566
     2  B    2.497985
     3  Cl  -1.154551
     4  N   -1.154455
     5  N   -0.121059
     6  C   -3.009320
     7  H    1.375645
     8  H    1.375655
     9  H    1.344665
 Sum of Mulliken charges =  -0.00000

 Dipole moment (field-independent basis, Debye):
    X=              2.5997    Y=              0.0001    Z=              0.3143  Tot=              2.6186

 Test job not archived.
 1\1\GINC-SE253\SP\RHF\Aug-CC-pVDZ\C1H3B1Cl2N2\OHZDE\09-Apr-2025\0\\#t
 hf aug-cc-pvdz iop(5/13=1,5/36=2,99/5=2) pseudo=read geom=check guess=
 (read,tcheck) scf=(maxcycle=1)\\title\\0,1\Cl,0,1.367668,1.54261,0.024
 477\B,0,0.501825,-0.000005,-0.018701\Cl,0,1.367631,-1.542636,0.024461\
 N,0,-0.885841,0.000025,0.069882\N,0,-1.92745,0.00009,-0.566083\C,0,-3.
 152015,-0.00003,0.249406\H,0,-3.73098,-0.880517,-0.041632\H,0,-3.73098
 2,0.880534,-0.041393\H,0,-2.942121,-0.000176,1.321564\\Version=ES64L-G
 16RevC.01\State=1-A\HF=-1093.5466054\RMSD=1.277e-01\Dipole=-1.0227952,

 Normal termination of Gaussian 16 at Wed Apr  9 00:10:45 2025.
