 Gaussian 16, Revision C.01,

 ----------------------------------------------------------------------
 #t hf aug-cc-pvdz symm=none int=(grid=ultrafine) guess=(read,tcheck) s
 table=(opt,rrhf)
 ----------------------------------------------------------------------
 -----
 title
 -----
 Symbolic Z-matrix:
 Charge =  0 Multiplicity = 1

 SCF Done:  E(RHF) =  -246.724480131     A.U. after   13 cycles
 Normal termination of Gaussian 16 at Tue Apr  8 23:04:47 2025.
 Gaussian 16:  ES64L-G16RevC.01  3-Jul-2019

 ----------------------------------------------------------------------
 #t hf aug-cc-pvdz iop(5/13=1,5/36=2,99/5=2) pseudo=read geom=check gue
 ss=(read,tcheck) scf=(maxcycle=1)
 ----------------------------------------------------------------------
 -----
 title
 -----
 Structure from the checkpoint file:  "BDE49_expt_339_mol1.chk"
 Charge =  0 Multiplicity = 1

                         Standard orientation:
 ---------------------------------------------------------------------
 Center     Atomic      Atomic             Coordinates (Angstroms)
 Number     Number       Type             X           Y           Z
 ---------------------------------------------------------------------
      1          7           0       -1.417025    0.000001   -0.000000
      2          6           0       -0.721131    1.140587   -0.000000
      3          6           0        0.671681    1.196200   -0.000000
      4          6           0        0.671681   -1.196200    0.000000
      5          6           0       -0.721131   -1.140587    0.000000
      6          6           0        1.382899   -0.000001    0.000000
      7          1           0        1.180392   -2.153114    0.000000
      8          1           0        2.467251   -0.000000    0.000000
      9          1           0       -1.306426    2.056236   -0.000000
     10          1           0        1.180393    2.153113   -0.000000
     11          1           0       -1.306427   -2.056236    0.000000
 ---------------------------------------------------------------------

 SCF Done:  E(RHF) =  -247.887919450     A.U. after    2 cycles

 The electronic state is 1-A'.
 Alpha  occ. eigenvalues --  -15.73776 -11.48178 -11.44600 -11.43257 -11.40985
 Alpha  occ. eigenvalues --  -11.37865  -1.44483  -1.18806  -1.11133  -0.88674
 Alpha  occ. eigenvalues --   -0.88654  -0.73430  -0.65513  -0.59985  -0.58987
 Alpha  occ. eigenvalues --   -0.55433  -0.53855  -0.47288  -0.36873  -0.35882
 Alpha  occ. eigenvalues --   -0.33992
 Alpha virt. eigenvalues --    0.03143   0.05090   0.05161   0.05890   0.06573
 Alpha virt. eigenvalues --    0.10150   0.10832   0.11044   0.12518   0.12769
 Alpha virt. eigenvalues --    0.12783   0.14274   0.14420   0.14617   0.14698

 Mulliken charges:
               1
     1  N   -3.347020
     2  C   -1.159236
     3  C   -0.763506
     4  C   -0.763499
     5  C   -1.159239
     6  C   -0.111754
     7  H    1.373249
     8  H    1.507330
     9  H    1.525213
    10  H    1.373249
    11  H    1.525213
 Sum of Mulliken charges =   0.00000

 Dipole moment (field-independent basis, Debye):
    X=              1.9210    Y=             -0.0000    Z=              0.0000  Tot=              1.9210

 Test job not archived.
 1\1\GINC-SE218\SP\RHF\Aug-CC-pVDZ\C5H5N1\OHZDE\08-Apr-2025\0\\#t hf au
 g-cc-pvdz iop(5/13=1,5/36=2,99/5=2) pseudo=read geom=check guess=(read
 ,tcheck) scf=(maxcycle=1)\\title\\0,1\N,0,0.,1.417025,0.\C,0,-1.140587
 ,0.721132,0.\C,0,-1.1962,-0.67168,0.\C,0,1.1962,-0.671681,0.\C,0,1.140
 587,0.721131,0.\C,0,0.,-1.382899,0.\H,0,2.153113,-1.180393,0.\H,0,-0.0
 00001,-2.467251,0.\H,0,-2.056236,1.306427,0.\H,0,-2.153114,-1.180392,0
 .\H,0,2.056236,1.306426,0.\\Version=ES64L-G16RevC.01\State=1-A'\HF=-24
 7.8879195\RMSD=1.452e+00\Dipole=0.0000003,-0.7557643,0.\Quadrupole=3.6

 Normal termination of Gaussian 16 at Tue Apr  8 23:04:51 2025.
