 Gaussian 16, Revision C.01,

 ----------------------------------------------------------------------
 #t hf aug-cc-pvdz symm=none int=(grid=ultrafine) guess=(read,tcheck) s
 table=(opt,rrhf)
 ----------------------------------------------------------------------
 -----
 title
 -----
 Symbolic Z-matrix:
 Charge =  0 Multiplicity = 1

 SCF Done:  E(RHF) =  -529.465004558     A.U. after   14 cycles
 Normal termination of Gaussian 16 at Tue Apr  8 22:41:26 2025.
 Gaussian 16:  ES64L-G16RevC.01  3-Jul-2019

 ----------------------------------------------------------------------
 #t hf aug-cc-pvdz iop(5/13=1,5/36=2,99/5=2) pseudo=read geom=check gue
 ss=(read,tcheck) scf=(maxcycle=1)
 ----------------------------------------------------------------------
 -----
 title
 -----
 Structure from the checkpoint file:  "BDE49_expt_1324_mol1.chk"
 Charge =  0 Multiplicity = 1

                         Standard orientation:
 ---------------------------------------------------------------------
 Center     Atomic      Atomic             Coordinates (Angstroms)
 Number     Number       Type             X           Y           Z
 ---------------------------------------------------------------------
      1          6           0        2.356701    0.135319    0.000010
      2          7           0        0.991859   -0.274000    0.000050
      3          1           0        2.573025    0.733098   -0.889938
      4          1           0        3.006144   -0.741209   -0.000664
      5          1           0        2.573308    0.731898    0.890685
      6          6           0       -0.178043   -0.092634   -0.000161
      7         16           0       -1.760465    0.058632    0.000030
 ---------------------------------------------------------------------

 SCF Done:  E(RHF) =  -530.300063573     A.U. after    2 cycles

 The electronic state is 1-A.
 Alpha  occ. eigenvalues --  -75.67796 -15.79148 -13.19899 -12.99026 -12.98973
 Alpha  occ. eigenvalues --  -11.53165 -11.44611  -8.02036  -1.43431  -1.16705
 Alpha  occ. eigenvalues --   -1.04715  -0.72336  -0.64648  -0.64504  -0.54695
 Alpha  occ. eigenvalues --   -0.50403  -0.50181  -0.25699  -0.24789
 Alpha virt. eigenvalues --    0.01907   0.05735   0.05738   0.06259   0.08477
 Alpha virt. eigenvalues --    0.10558   0.12736   0.12758   0.12826   0.14101
 Alpha virt. eigenvalues --    0.14203   0.15843   0.15949   0.20197   0.21372

 Mulliken charges:
               1
     1  C   -3.315772
     2  N   -2.990887
     3  H    1.323855
     4  H    1.330649
     5  H    1.323889
     6  C    0.942616
     7  S    1.385650
 Sum of Mulliken charges =   0.00000

 Dipole moment (field-independent basis, Debye):
    X=              0.4808    Y=              0.7255    Z=              0.0005  Tot=              0.8704

 Test job not archived.
 1\1\GINC-SE118\SP\RHF\Aug-CC-pVDZ\C2H3N1S1\OHZDE\08-Apr-2025\0\\#t hf
 aug-cc-pvdz iop(5/13=1,5/36=2,99/5=2) pseudo=read geom=check guess=(re
 ad,tcheck) scf=(maxcycle=1)\\title\\0,1\C,0,2.356701,0.135319,0.00001\
 N,0,0.991859,-0.274,0.00005\H,0,2.573025,0.733098,-0.889938\H,0,3.0061
 44,-0.741209,-0.000664\H,0,2.573308,0.731898,0.890685\C,0,-0.178043,-0
 .092634,-0.000161\S,0,-1.760465,0.058632,0.00003\\Version=ES64L-G16Rev
 C.01\State=1-A\HF=-530.3000636\RMSD=2.002e-01\Dipole=0.1891591,0.28544
 56,0.000202\Quadrupole=6.4428623,-3.2042691,-3.2385931,0.0882887,-0.00

 Normal termination of Gaussian 16 at Tue Apr  8 22:41:28 2025.
