 Gaussian 16, Revision C.01,

 ----------------------------------------------------------------------
 #t hf aug-cc-pvdz symm=none int=(grid=ultrafine) guess=(read,tcheck) s
 table=(opt,rrhf)
 ----------------------------------------------------------------------
 -----
 title
 -----
 Symbolic Z-matrix:
 Charge =  0 Multiplicity = 1

 SCF Done:  E(RHF) =  -385.319576148     A.U. after   11 cycles
 Normal termination of Gaussian 16 at Tue Apr  8 23:51:53 2025.
 Gaussian 16:  ES64L-G16RevC.01  3-Jul-2019

 ----------------------------------------------------------------------
 #t hf aug-cc-pvdz iop(5/13=1,5/36=2,99/5=2) pseudo=read geom=check gue
 ss=(read,tcheck) scf=(maxcycle=1)
 ----------------------------------------------------------------------
 -----
 title
 -----
 Structure from the checkpoint file:  "BDE49_nonexpt_1897_mol1.chk"
 Charge =  0 Multiplicity = 1

                         Standard orientation:
 ---------------------------------------------------------------------
 Center     Atomic      Atomic             Coordinates (Angstroms)
 Number     Number       Type             X           Y           Z
 ---------------------------------------------------------------------
      1         14           0        1.124403   -0.112120    0.013570
      2          6           0       -0.606801    0.647737   -0.055258
      3          1           0        1.409198   -0.652323    1.361716
      4          1           0        2.147395    0.907434   -0.329880
      5          1           0        1.217840   -1.217256   -0.973706
      6          7           0       -1.613134   -0.415953    0.109797
      7          1           0       -1.625663   -1.018553   -0.706720
      8          1           0       -2.545141   -0.022520    0.195908
      9          1           0       -0.721578    1.259672   -0.965051
     10          1           0       -0.690950    1.338467    0.790718
 ---------------------------------------------------------------------

 SCF Done:  E(RHF) =  -385.961397923     A.U. after    2 cycles

 The electronic state is 1-A.
 Alpha  occ. eigenvalues --  -76.20543 -15.73577 -11.36885  -5.54107  -2.17960
 Alpha  occ. eigenvalues --   -2.16374  -2.16230  -1.31870  -0.95529  -0.74789
 Alpha  occ. eigenvalues --   -0.65040  -0.60696  -0.53710  -0.46171  -0.46081
 Alpha  occ. eigenvalues --   -0.41915  -0.34590
 Alpha virt. eigenvalues --    0.03761   0.05044   0.05492   0.05693   0.06923
 Alpha virt. eigenvalues --    0.07712   0.07978   0.09129   0.09986   0.10771
 Alpha virt. eigenvalues --    0.13238   0.15253   0.16091   0.16211   0.18211

 Mulliken charges:
               1
     1  Si   5.962471
     2  C   -2.870748
     3  H   -1.713716
     4  H   -1.630770
     5  H   -1.662603
     6  N   -2.053182
     7  H    0.640793
     8  H    0.585381
     9  H    1.369040
    10  H    1.373335
 Sum of Mulliken charges =   0.00000

 Dipole moment (field-independent basis, Debye):
    X=             -1.1923    Y=              0.8130    Z=             -0.7225  Tot=              1.6139

 Test job not archived.
 1\1\GINC-SE059\SP\RHF\Aug-CC-pVDZ\C1H7N1Si1\OHZDE\08-Apr-2025\0\\#t hf
  aug-cc-pvdz iop(5/13=1,5/36=2,99/5=2) pseudo=read geom=check guess=(r
 ead,tcheck) scf=(maxcycle=1)\\title\\0,1\Si,0,1.124403,-0.11212,0.0135
 7\C,0,-0.606801,0.647737,-0.055258\H,0,1.409198,-0.652323,1.361716\H,0
 ,2.147395,0.907433,-0.32988\H,0,1.21784,-1.217256,-0.973706\N,0,-1.613
 134,-0.415953,0.109797\H,0,-1.625663,-1.018553,-0.70672\H,0,-2.545141,
 -0.02252,0.195908\H,0,-0.721578,1.259672,-0.965051\H,0,-0.69095,1.3384
 67,0.790718\\Version=ES64L-G16RevC.01\State=1-A\HF=-385.9613979\RMSD=8

 Normal termination of Gaussian 16 at Tue Apr  8 23:51:56 2025.
