 Gaussian 16, Revision C.01,

 ----------------------------------------------------------------------
 #t hf aug-cc-pvdz symm=none int=(grid=ultrafine) guess=(read,tcheck) s
 table=opt
 ----------------------------------------------------------------------
 -----
 title
 -----
 Symbolic Z-matrix:
 Charge =  0 Multiplicity = 2

 SCF Done:  E(UHF) =  -839.873512699     A.U. after   16 cycles
 Normal termination of Gaussian 16 at Tue Apr  8 23:36:06 2025.
 Gaussian 16:  ES64L-G16RevC.01  3-Jul-2019

 ----------------------------------------------------------------------
 #t hf aug-cc-pvdz iop(5/13=1,5/36=2,99/5=2) pseudo=read geom=check gue
 ss=(read,tcheck) scf=(maxcycle=1)
 ----------------------------------------------------------------------
 -----
 title
 -----
 Structure from the checkpoint file:  "BDE49_nonexpt_1500_mol2.chk"
 Charge =  0 Multiplicity = 2

                         Standard orientation:
 ---------------------------------------------------------------------
 Center     Atomic      Atomic             Coordinates (Angstroms)
 Number     Number       Type             X           Y           Z
 ---------------------------------------------------------------------
      1         15           0        0.490871   -0.759097    0.000029
      2          6           0        1.636090    0.687352    0.000071
      3          1           0        1.494857    1.307233   -0.889216
      4          1           0        2.657496    0.293635    0.000123
      5         17           0       -1.342749    0.256131   -0.000065
      6          1           0        1.494772    1.307248    0.889335
 ---------------------------------------------------------------------

 SCF Done:  E(UHF) =  -840.487456826     A.U. after    2 cycles

 The electronic state is 2-A.
 Alpha  occ. eigenvalues -- -105.21900 -99.88821 -11.38770 -10.46119  -9.65870
 Alpha  occ. eigenvalues --   -9.65330  -9.65265  -2.80752  -1.51716  -1.49727
 Alpha  occ. eigenvalues --   -1.48889  -1.22282  -1.02118  -0.68871  -0.58847
 Alpha  occ. eigenvalues --   -0.58529  -0.53203  -0.52249  -0.37271  -0.11425
 Alpha  occ. eigenvalues --    0.03192
 Alpha virt. eigenvalues --    0.04079   0.06231   0.06970   0.08062   0.08642
 Alpha virt. eigenvalues --    0.11953   0.13141   0.14219   0.16051   0.17346
 Alpha virt. eigenvalues --    0.17692   0.18382   0.18400   0.21657   0.23692

  Beta  occ. eigenvalues -- -105.21247 -99.88754 -11.38890 -10.46048  -9.65926
  Beta  occ. eigenvalues --   -9.65227  -9.64962  -2.78791  -1.49877  -1.47791
  Beta  occ. eigenvalues --   -1.25140  -1.21693  -1.01720  -0.65025  -0.58782
  Beta  occ. eigenvalues --   -0.57494  -0.52144  -0.51176  -0.36622  -0.08865
  Beta virt. eigenvalues --    0.04120   0.06259   0.06639   0.08209   0.08963
  Beta virt. eigenvalues --    0.09674   0.12140   0.13486   0.14743   0.16242
  Beta virt. eigenvalues --    0.17349   0.18262   0.18465   0.21946   0.23315

 Mulliken charges and spin densities:
               1          2
     1  P    3.069888   1.340453
     2  C   -5.185234  -0.333660
     3  H    1.040658   0.039942
     4  H    1.178437  -0.012769
     5  Cl  -1.144409  -0.073906
     6  H    1.040660   0.039940
 Sum of Mulliken charges =  -0.00000   1.00000

 Dipole moment (field-independent basis, Debye):
    X=              2.3072    Y=             -3.1366    Z=              0.0001  Tot=              3.8938
                          Isotropic Fermi Contact Couplings
        Atom                 a.u.       MegaHertz       Gauss      10(-4) cm-1
     1  P(31)              0.28926     523.88624     186.93564     174.74964
     2  C(13)             -0.00281      -3.16084      -1.12787      -1.05434
     3  H(1)               0.00701      31.34027      11.18299      10.45399
     4  H(1)              -0.00008      -0.35545      -0.12683      -0.11856
     5  Cl(35)             0.02305      10.10535       3.60584       3.37078
     6  H(1)               0.00701      31.34026      11.18298      10.45399
 --------------------------------------------------------
       Center         ----  Spin Dipole Couplings  ----

 Normal termination of Gaussian 16 at Tue Apr  8 23:36:08 2025.
