 Gaussian 16, Revision C.01,

 ----------------------------------------------------------------------
 #t hf aug-cc-pvdz symm=none int=(grid=ultrafine) guess=(read,tcheck) s
 table=opt
 ----------------------------------------------------------------------
 -----
 title
 -----
 Symbolic Z-matrix:
 Charge =  0 Multiplicity = 2

 SCF Done:  E(UHF) =  -827.712744749     A.U. after   14 cycles
 Normal termination of Gaussian 16 at Tue Apr  8 23:41:16 2025.
 Gaussian 16:  ES64L-G16RevC.01  3-Jul-2019

 ----------------------------------------------------------------------
 #t hf aug-cc-pvdz iop(5/13=1,5/36=2,99/5=2) pseudo=read geom=check gue
 ss=(read,tcheck) scf=(maxcycle=1)
 ----------------------------------------------------------------------
 -----
 title
 -----
 Structure from the checkpoint file:  "BDE49_nonexpt_1637_mol2.chk"
 Charge =  0 Multiplicity = 2

                         Standard orientation:
 ---------------------------------------------------------------------
 Center     Atomic      Atomic             Coordinates (Angstroms)
 Number     Number       Type             X           Y           Z
 ---------------------------------------------------------------------
      1         14           0       -0.483232    0.371685   -0.000000
      2          6           0        0.170055    1.194902    1.560556
      3          1           0       -0.192822    0.687505    2.456547
      4          1           0       -0.155728    2.238597    1.598418
      5          6           0        0.170055    1.194902   -1.560556
      6         17           0        0.170055   -1.631679    0.000000
      7          1           0       -0.155728    2.238597   -1.598418
      8          1           0       -0.192822    0.687505   -2.456547
      9          1           0        1.265374    1.171965   -1.570637
     10          1           0        1.265374    1.171965    1.570637
 ---------------------------------------------------------------------

 SCF Done:  E(UHF) =  -828.512331199     A.U. after    2 cycles

 The electronic state is 2-A'.
 Alpha  occ. eigenvalues --  -99.87197 -76.25417 -11.36323 -11.36188 -10.44549
 Alpha  occ. eigenvalues --   -9.64479  -9.63897  -9.63847  -5.59061  -2.22285
 Alpha  occ. eigenvalues --   -2.21429  -2.19842  -1.27755  -1.07296  -1.02512
 Alpha  occ. eigenvalues --   -0.70646  -0.58630  -0.58318  -0.56985  -0.56317
 Alpha  occ. eigenvalues --   -0.52723  -0.51780  -0.50263  -0.41188  -0.28020
 Alpha virt. eigenvalues --    0.03063   0.04896   0.05776   0.05945   0.06966
 Alpha virt. eigenvalues --    0.07169   0.07651   0.07792   0.08700   0.11035
 Alpha virt. eigenvalues --    0.13475   0.14450   0.14787   0.15857   0.16714

  Beta  occ. eigenvalues --  -99.87116 -76.24869 -11.36170 -11.36034 -10.44458
  Beta  occ. eigenvalues --   -9.64349  -9.63854  -9.63601  -5.58182  -2.21734
  Beta  occ. eigenvalues --   -2.20681  -2.16505  -1.27048  -1.06308  -1.02029
  Beta  occ. eigenvalues --   -0.67204  -0.58140  -0.57496  -0.56855  -0.55748
  Beta  occ. eigenvalues --   -0.51616  -0.51369  -0.48977  -0.39975
  Beta virt. eigenvalues --    0.01321   0.05072   0.05638   0.05924   0.06793
  Beta virt. eigenvalues --    0.06972   0.07668   0.07714   0.08032   0.08908
  Beta virt. eigenvalues --    0.11949   0.13714   0.15217   0.15707   0.16903

 Mulliken charges and spin densities:
               1          2
     1  Si   3.651565   0.846918
     2  C   -5.105410   0.075361
     3  H    1.265252  -0.023823
     4  H    1.305326   0.014569
     5  C   -5.105410   0.075361
     6  Cl  -0.919086   0.027860
     7  H    1.305326   0.014569
     8  H    1.265252  -0.023823
     9  H    1.168592  -0.003497
    10  H    1.168592  -0.003497
 Sum of Mulliken charges =   0.00000   1.00000

 Dipole moment (field-independent basis, Debye):
    X=             -0.2618    Y=              2.4770    Z=             -0.0000  Tot=              2.4908
                          Isotropic Fermi Contact Couplings
        Atom                 a.u.       MegaHertz       Gauss      10(-4) cm-1
     1  Si(29)             0.54896    -487.87183    -174.08480    -162.73652
     2  C(13)              0.03745      42.10470      15.02401      14.04462
     3  H(1)              -0.00016      -0.71274      -0.25432      -0.23774
     4  H(1)              -0.00080      -3.55383      -1.26810      -1.18543
     5  C(13)              0.03745      42.10470      15.02401      14.04462
     6  Cl(35)             0.06707      29.40952      10.49405       9.80996
     7  H(1)              -0.00080      -3.55383      -1.26810      -1.18543
     8  H(1)              -0.00016      -0.71274      -0.25432      -0.23774

 Normal termination of Gaussian 16 at Tue Apr  8 23:41:18 2025.
