 Gaussian 16, Revision C.01,

 ----------------------------------------------------------------------
 #t hf aug-cc-pvdz symm=none int=(grid=ultrafine) guess=(read,tcheck) s
 table=(opt,rrhf)
 ----------------------------------------------------------------------
 -----
 title
 -----
 Symbolic Z-matrix:
 Charge =  0 Multiplicity = 1

 SCF Done:  E(RHF) =  -652.397474610     A.U. after   16 cycles
 Normal termination of Gaussian 16 at Wed Apr  9 00:46:08 2025.
 Gaussian 16:  ES64L-G16RevC.01  3-Jul-2019

 ----------------------------------------------------------------------
 #t hf aug-cc-pvdz iop(5/13=1,5/36=2,99/5=2) pseudo=read geom=check gue
 ss=(read,tcheck) scf=(maxcycle=1)
 ----------------------------------------------------------------------
 -----
 title
 -----
 Structure from the checkpoint file:  "BDE49_nonexpt_764_mol1.chk"
 Charge =  0 Multiplicity = 1

                         Standard orientation:
 ---------------------------------------------------------------------
 Center     Atomic      Atomic             Coordinates (Angstroms)
 Number     Number       Type             X           Y           Z
 ---------------------------------------------------------------------
      1          6           0       -0.553209   -0.160420   -0.021413
      2          5           0        1.907651    0.523408    0.114029
      3         15           0        3.744641   -0.016804   -0.118117
      4          6           0       -1.108232    1.124008   -0.044688
      5          6           0       -2.489083    1.285715   -0.021016
      6          6           0       -3.339173    0.181346    0.017527
      7          6           0       -2.789033   -1.097391    0.032217
      8          6           0       -1.408389   -1.267891    0.014027
      9          1           0       -0.986743   -2.268523    0.031832
     10          1           0       -0.461635    1.990150   -0.087022
     11          1           0       -2.903573    2.287503   -0.039758
     12          1           0       -4.414069    0.316713    0.032028
     13          1           0       -3.433511   -1.968779    0.059545
     14          7           0        0.846746   -0.379670   -0.036665
     15          1           0        1.690214    1.679578    0.287784
     16          1           0        1.071674   -1.360361   -0.146195
     17          1           0        3.671838   -1.339725    0.391467
     18          1           0        4.253422    0.563948    1.068665
 ---------------------------------------------------------------------

 SCF Done:  E(RHF) =  -654.077389258     A.U. after    2 cycles

 The electronic state is 1-A.
 Alpha  occ. eigenvalues -- -105.16396 -15.74204 -11.52940 -11.45637 -11.43377
 Alpha  occ. eigenvalues --  -11.40872 -11.40712 -11.36587  -7.63042  -2.73394
 Alpha  occ. eigenvalues --   -1.49269  -1.43283  -1.42706  -1.40920  -1.28422
 Alpha  occ. eigenvalues --   -1.09719  -1.07136  -0.88719  -0.86885  -0.79679
 Alpha  occ. eigenvalues --   -0.72372  -0.70675  -0.66818  -0.59138  -0.58512
 Alpha  occ. eigenvalues --   -0.57026  -0.54230  -0.51688  -0.46518  -0.45201
 Alpha  occ. eigenvalues --   -0.44310  -0.33545  -0.29782  -0.25592  -0.16522
 Alpha  occ. eigenvalues --   -0.02854
 Alpha virt. eigenvalues --    0.03300   0.03882   0.04848   0.05430   0.05595
 Alpha virt. eigenvalues --    0.06521   0.06941   0.07661   0.08957   0.09464
 Alpha virt. eigenvalues --    0.09678   0.10568   0.10965   0.11617   0.11905

 Mulliken charges:
               1
     1  C    5.984779
     2  B    2.242279
     3  P    1.403817
     4  C   -2.395139
     5  C   -0.794233
     6  C   -2.774438
     7  C   -0.515112
     8  C   -3.153553
     9  H    1.719106
    10  H    2.149045
    11  H    1.498190
    12  H    1.544481
    13  H    1.526007
    14  N   -6.051265
    15  H   -2.345080
    16  H    1.406306
    17  H   -0.737362
    18  H   -0.707828
 Sum of Mulliken charges =  -0.00000

 Dipole moment (field-independent basis, Debye):
    X=              2.2447    Y=             -0.8290    Z=             -3.4491  Tot=              4.1979

 Test job not archived.
 1\1\GINC-SE247\SP\RHF\Aug-CC-pVDZ\C6H9B1N1P1\OHZDE\09-Apr-2025\0\\#t h
 f aug-cc-pvdz iop(5/13=1,5/36=2,99/5=2) pseudo=read geom=check guess=(
 read,tcheck) scf=(maxcycle=1)\\title\\0,1\C,0,-0.553209,-0.16042,-0.02
 1413\B,0,1.907651,0.523408,0.114029\P,0,3.744641,-0.016804,-0.118117\C
 ,0,-1.108232,1.124008,-0.044688\C,0,-2.489083,1.285715,-0.021016\C,0,-
 3.339173,0.181346,0.017527\C,0,-2.789033,-1.097391,0.032217\C,0,-1.408
 389,-1.267891,0.014027\H,0,-0.986743,-2.268523,0.031832\H,0,-0.461635,
 1.99015,-0.087022\H,0,-2.903573,2.287503,-0.039758\H,0,-4.414069,0.316

 Normal termination of Gaussian 16 at Wed Apr  9 00:46:16 2025.
