 Gaussian 16, Revision C.01,

 ----------------------------------------------------------------------
 #t hf aug-cc-pvdz symm=none int=(grid=ultrafine) guess=(read,tcheck) s
 table=(opt,rrhf)
 ----------------------------------------------------------------------
 -----
 title
 -----
 Symbolic Z-matrix:
 Charge =  0 Multiplicity = 1

 SCF Done:  E(RHF) =  -401.431609961     A.U. after   14 cycles
 Normal termination of Gaussian 16 at Tue Apr  8 23:20:55 2025.
 Gaussian 16:  ES64L-G16RevC.01  3-Jul-2019

 ----------------------------------------------------------------------
 #t hf aug-cc-pvdz iop(5/13=1,5/36=2,99/5=2) pseudo=read geom=check gue
 ss=(read,tcheck) scf=(maxcycle=1)
 ----------------------------------------------------------------------
 -----
 title
 -----
 Structure from the checkpoint file:  "BDE49_nonexpt_1129_mol1.chk"
 Charge =  0 Multiplicity = 1

                         Standard orientation:
 ---------------------------------------------------------------------
 Center     Atomic      Atomic             Coordinates (Angstroms)
 Number     Number       Type             X           Y           Z
 ---------------------------------------------------------------------
      1          9           0       -2.279799    0.022362    0.000127
      2          8           0       -1.098592   -0.761825   -0.000008
      3          6           0       -0.021626    0.115589   -0.000116
      4          8           0       -0.070696    1.302366   -0.000012
      5          8           0        1.032752   -0.690239   -0.000060
      6          6           0        2.311869   -0.015543    0.000015
      7          1           0        3.050583   -0.812165    0.000051
      8          1           0        2.409171    0.604104    0.891515
      9          1           0        2.409267    0.604113   -0.891468
 ---------------------------------------------------------------------

 SCF Done:  E(RHF) =  -403.014997940     A.U. after    2 cycles

 The electronic state is 1-A.
 Alpha  occ. eigenvalues --  -29.32624 -21.19555 -21.13296 -21.08773 -11.57551
 Alpha  occ. eigenvalues --  -11.44635  -1.95635  -1.77906  -1.71185  -1.06066
 Alpha  occ. eigenvalues --   -0.85371  -0.72768  -0.68377  -0.68307  -0.61055
 Alpha  occ. eigenvalues --   -0.59789  -0.57764  -0.47093  -0.46298  -0.38674
 Alpha  occ. eigenvalues --   -0.36187  -0.33162  -0.28375  -0.24436
 Alpha virt. eigenvalues --    0.03151   0.05484   0.05936   0.08813   0.11545
 Alpha virt. eigenvalues --    0.11748   0.13164   0.13805   0.14203   0.15990
 Alpha virt. eigenvalues --    0.16856   0.19252   0.19619   0.21505   0.24001

 Mulliken charges:
               1
     1  F   -0.201021
     2  O   -1.180785
     3  C    5.795280
     4  O   -2.381742
     5  O   -2.894800
     6  C   -3.034435
     7  H    1.333692
     8  H    1.281914
     9  H    1.281897
 Sum of Mulliken charges =  -0.00000

 Dipole moment (field-independent basis, Debye):
    X=              0.5681    Y=             -0.0940    Z=              0.0002  Tot=              0.5758

 Test job not archived.
 1\1\GINC-SE227\SP\RHF\Aug-CC-pVDZ\C2H3F1O3\OHZDE\08-Apr-2025\0\\#t hf
 aug-cc-pvdz iop(5/13=1,5/36=2,99/5=2) pseudo=read geom=check guess=(re
 ad,tcheck) scf=(maxcycle=1)\\title\\0,1\F,0,-2.279799,0.022362,0.00012
 7\O,0,-1.098592,-0.761825,-0.000008\C,0,-0.021626,0.115589,-0.000116\O
 ,0,-0.070696,1.302366,-0.000012\O,0,1.032752,-0.690239,-0.00006\C,0,2.
 311869,-0.015542,0.000015\H,0,3.050583,-0.812164,0.000051\H,0,2.409171
 ,0.604105,0.891515\H,0,2.409267,0.604114,-0.891468\\Version=ES64L-G16R
 evC.01\State=1-A\HF=-403.0149979\RMSD=5.072e-02\Dipole=0.2235069,-0.03

 Normal termination of Gaussian 16 at Tue Apr  8 23:20:58 2025.
