 Gaussian 16, Revision C.01,

 ----------------------------------------------------------------------
 #t hf aug-cc-pvdz symm=none int=(grid=ultrafine) guess=(read,tcheck) s
 table=(opt,rrhf)
 ----------------------------------------------------------------------
 -----
 title
 -----
 Symbolic Z-matrix:
 Charge =  0 Multiplicity = 1

 SCF Done:  E(RHF) =  -309.094595889     A.U. after   12 cycles

 1\1\GINC-SE460\Stability\RHF\Aug-CC-pVDZ\C6H12O1\OHZDE\08-Apr-2025\0\\
 #t hf aug-cc-pvdz symm=none int=(grid=ultrafine) guess=(read,tcheck) s
 table=(opt,rrhf)\\title\\0,1\O,0,-0.000001,0.937663,-0.000009\C,0,-1.1
 10195,0.12209,0.420315\C,0,-0.765136,-1.302879,-0.034864\C,0,0.765137,
 -1.30288,0.034864\H,0,-1.101907,-1.458965,-1.065545\H,0,-1.231669,-2.0
 66033,0.591793\C,0,1.110199,0.122089,-0.420317\H,0,1.23167,-2.066035,-
 0.591791\H,0,1.101907,-1.458964,1.065545\C,0,2.399088,0.696291,0.14555
 1\H,0,1.154561,0.151848,-1.51897\H,0,2.377194,0.676683,1.238544\H,0,2.

 Normal termination of Gaussian 16 at Tue Apr  8 23:02:18 2025.
 Gaussian 16:  ES64L-G16RevC.01  3-Jul-2019

 ----------------------------------------------------------------------
 #t hf aug-cc-pvdz iop(5/13=1,5/36=2,99/5=2) pseudo=read geom=check gue
 ss=(read,tcheck) scf=(maxcycle=1)
 ----------------------------------------------------------------------
 -----
 title
 -----
 Structure from the checkpoint file:  "BDE49_expt_198_mol1.chk"
 Charge =  0 Multiplicity = 1

                         Standard orientation:
 ---------------------------------------------------------------------
 Center     Atomic      Atomic             Coordinates (Angstroms)
 Number     Number       Type             X           Y           Z
 ---------------------------------------------------------------------
      1          8           0        0.000001   -0.937663   -0.000009
      2          6           0        1.110195   -0.122090    0.420315
      3          6           0        0.765136    1.302879   -0.034864
      4          6           0       -0.765137    1.302880    0.034864
      5          1           0        1.101907    1.458965   -1.065545
      6          1           0        1.231669    2.066033    0.591793
      7          6           0       -1.110199   -0.122089   -0.420317
      8          1           0       -1.231670    2.066035   -0.591791
      9          1           0       -1.101907    1.458964    1.065545
     10          6           0       -2.399088   -0.696291    0.145551
     11          1           0       -1.154561   -0.151848   -1.518970
     12          1           0       -2.377194   -0.676683    1.238544
     13          1           0       -2.527907   -1.732527   -0.174764
     14          1           0       -3.263539   -0.120288   -0.198946
     15          6           0        2.399091   -0.696289   -0.145542
     16          1           0        1.154547   -0.151852    1.518968
     17          1           0        2.377209   -0.676676   -1.238535
     18          1           0        2.527907   -1.732526    0.174771
     19          1           0        3.263538   -0.120287    0.198967
 ---------------------------------------------------------------------

 SCF Done:  E(RHF) =  -310.601515925     A.U. after    2 cycles

 The electronic state is 1-A.
 Alpha  occ. eigenvalues --  -21.01926 -11.46185 -11.44056 -11.40945 -11.38737
 Alpha  occ. eigenvalues --  -11.36671 -11.34602  -1.74437  -1.20148  -1.15980
 Alpha  occ. eigenvalues --   -1.04159  -0.93400  -0.82593  -0.79245  -0.67223
 Alpha  occ. eigenvalues --   -0.66052  -0.59342  -0.57708  -0.56742  -0.54918
 Alpha  occ. eigenvalues --   -0.50951  -0.50930  -0.45870  -0.44160  -0.43228
 Alpha  occ. eigenvalues --   -0.42777  -0.35472  -0.27740
 Alpha virt. eigenvalues --    0.04178   0.04824   0.05143   0.05326   0.05622
 Alpha virt. eigenvalues --    0.05624   0.05905   0.06758   0.06766   0.08340
 Alpha virt. eigenvalues --    0.09113   0.09336   0.12165   0.12455   0.13435

 Mulliken charges:
               1
     1  O   -3.689169
     2  C    0.359998
     3  C   -3.012320
     4  C   -3.012325
     5  H    1.521153
     6  H    1.235428
     7  C    0.359984
     8  H    1.235428
     9  H    1.521154
    10  C   -3.698981
    11  H    1.747338
    12  H    1.281109
    13  H    1.228646
    14  H    1.182231
    15  C   -3.698997
    16  H    1.747335
    17  H    1.281110
    18  H    1.228645
    19  H    1.182231
 Sum of Mulliken charges =   0.00000

 Dipole moment (field-independent basis, Debye):
    X=              0.0000    Y=              0.8556    Z=              0.0000  Tot=              0.8556

 Test job not archived.
 1\1\GINC-SE460\SP\RHF\Aug-CC-pVDZ\C6H12O1\OHZDE\08-Apr-2025\0\\#t hf a
 ug-cc-pvdz iop(5/13=1,5/36=2,99/5=2) pseudo=read geom=check guess=(rea
 d,tcheck) scf=(maxcycle=1)\\title\\0,1\O,0,-0.000001,0.937663,-0.00000
 9\C,0,-1.110195,0.12209,0.420315\C,0,-0.765136,-1.302879,-0.034864\C,0
 ,0.765137,-1.30288,0.034864\H,0,-1.101907,-1.458965,-1.065545\H,0,-1.2
 31669,-2.066033,0.591793\C,0,1.110199,0.122089,-0.420317\H,0,1.23167,-
 2.066035,-0.591791\H,0,1.101907,-1.458964,1.065545\C,0,2.399088,0.6962
 91,0.145551\H,0,1.154561,0.151848,-1.51897\H,0,2.377194,0.676683,1.238

 Normal termination of Gaussian 16 at Tue Apr  8 23:02:25 2025.
