 Gaussian 16, Revision C.01,

 ----------------------------------------------------------------------
 #t hf aug-cc-pvdz symm=none int=(grid=ultrafine) guess=(read,tcheck) s
 table=(opt,rrhf)
 ----------------------------------------------------------------------
 -----
 title
 -----
 Symbolic Z-matrix:
 Charge =  0 Multiplicity = 1

 SCF Done:  E(RHF) =  -899.561949468     A.U. after   12 cycles
 Normal termination of Gaussian 16 at Tue Apr  8 23:43:58 2025.
 Gaussian 16:  ES64L-G16RevC.01  3-Jul-2019

 ----------------------------------------------------------------------
 #t hf aug-cc-pvdz iop(5/13=1,5/36=2,99/5=2) pseudo=read geom=check gue
 ss=(read,tcheck) scf=(maxcycle=1)
 ----------------------------------------------------------------------
 -----
 title
 -----
 Structure from the checkpoint file:  "BDE49_nonexpt_1677_mol1.chk"
 Charge =  0 Multiplicity = 1

                         Standard orientation:
 ---------------------------------------------------------------------
 Center     Atomic      Atomic             Coordinates (Angstroms)
 Number     Number       Type             X           Y           Z
 ---------------------------------------------------------------------
      1         14           0       -0.930980    0.000000   -0.045508
      2         15           0        1.255419   -0.000000   -0.650560
      3          6           0        1.904633   -1.443430    0.340587
      4          1           0        1.733356   -1.338311    1.414852
      5          1           0        2.978387   -1.545418    0.166214
      6          1           0        1.420579   -2.360099   -0.002783
      7          8           0       -1.597715    1.384089   -0.666769
      8          6           0       -1.364402   -0.000002    1.760823
      9          1           0       -0.973027   -0.887800    2.262781
     10          1           0       -2.452646   -0.000003    1.871815
     11          1           0       -0.973030    0.887798    2.262782
     12          6           0        1.904633    1.443430    0.340587
     13          1           0        1.420580    2.360099   -0.002783
     14          1           0        2.978387    1.545417    0.166213
     15          1           0        1.733356    1.338312    1.414852
     16          1           0       -1.384623    1.626739   -1.571050
     17          8           0       -1.597716   -1.384088   -0.666772
     18          1           0       -1.384619   -1.626739   -1.571052
 ---------------------------------------------------------------------

 SCF Done:  E(RHF) =  -901.166145515     A.U. after    2 cycles

 The electronic state is 1-A.
 Alpha  occ. eigenvalues -- -105.14940 -76.23351 -21.07031 -21.07007 -11.37335
 Alpha  occ. eigenvalues --  -11.37311 -11.34606  -5.57840  -2.73216  -2.25567
 Alpha  occ. eigenvalues --   -2.22214  -2.19850  -1.67623  -1.63507  -1.46182
 Alpha  occ. eigenvalues --   -1.45121  -1.41374  -1.03967  -1.02804  -0.96729
 Alpha  occ. eigenvalues --   -0.71026  -0.64021  -0.61068  -0.57608  -0.56697
 Alpha  occ. eigenvalues --   -0.55921  -0.55248  -0.55088  -0.54095  -0.48846
 Alpha  occ. eigenvalues --   -0.45265  -0.41136  -0.40734  -0.35129  -0.20357
 Alpha  occ. eigenvalues --   -0.11826  -0.01250
 Alpha virt. eigenvalues --    0.03988   0.05071   0.05520   0.06082   0.06600
 Alpha virt. eigenvalues --    0.06649   0.06965   0.07005   0.07763   0.07955
 Alpha virt. eigenvalues --    0.08973   0.09329   0.09468   0.10499   0.10673

 Mulliken charges:
               1
     1  Si   7.122792
     2  P    4.374232
     3  C   -6.304204
     4  H    1.392709
     5  H    1.130186
     6  H    1.120546
     7  O   -3.346911
     8  C   -5.662819
     9  H    1.336555
    10  H    1.273375
    11  H    1.336555
    12  C   -6.304203
    13  H    1.120546
    14  H    1.130185
    15  H    1.392709
    16  H    1.117328
    17  O   -3.346910
    18  H    1.117328
 Sum of Mulliken charges =  -0.00000

 Dipole moment (field-independent basis, Debye):
    X=              1.8996    Y=              0.0000    Z=             -0.8486  Tot=              2.0805

 Test job not archived.
 1\1\GINC-SE009\SP\RHF\Aug-CC-pVDZ\C3H11O2P1Si1\OHZDE\08-Apr-2025\0\\#t
  hf aug-cc-pvdz iop(5/13=1,5/36=2,99/5=2) pseudo=read geom=check guess
 =(read,tcheck) scf=(maxcycle=1)\\title\\0,1\Si,0,-0.93098,0.,-0.045508
 \P,0,1.255419,0.,-0.65056\C,0,1.904633,-1.44343,0.340587\H,0,1.733356,
 -1.338311,1.414852\H,0,2.978387,-1.545417,0.166214\H,0,1.42058,-2.3600
 99,-0.002783\O,0,-1.597715,1.384089,-0.666769\C,0,-1.364402,-0.000002,
 1.760823\H,0,-0.973027,-0.8878,2.262781\H,0,-2.452646,-0.000004,1.8718
 15\H,0,-0.97303,0.887798,2.262782\C,0,1.904633,1.44343,0.340587\H,0,1.

 Normal termination of Gaussian 16 at Tue Apr  8 23:44:06 2025.
