 Gaussian 16, Revision C.01,

 ----------------------------------------------------------------------
 #t hf aug-cc-pvdz symm=none int=(grid=ultrafine) guess=(read,tcheck) s
 table=(opt,rrhf)
 ----------------------------------------------------------------------
 -----
 title
 -----
 Symbolic Z-matrix:
 Charge =  0 Multiplicity = 1

 SCF Done:  E(RHF) =  -1542.37257775     A.U. after   14 cycles
 Normal termination of Gaussian 16 at Wed Apr  9 00:27:29 2025.
 Gaussian 16:  ES64L-G16RevC.01  3-Jul-2019

 ----------------------------------------------------------------------
 #t hf aug-cc-pvdz iop(5/13=1,5/36=2,99/5=2) pseudo=read geom=check gue
 ss=(read,tcheck) scf=(maxcycle=1)
 ----------------------------------------------------------------------
 -----
 title
 -----
 Structure from the checkpoint file:  "BDE49_nonexpt_2754_mol1.chk"
 Charge =  0 Multiplicity = 1

                         Standard orientation:
 ---------------------------------------------------------------------
 Center     Atomic      Atomic             Coordinates (Angstroms)
 Number     Number       Type             X           Y           Z
 ---------------------------------------------------------------------
      1         16           0        1.066422   -0.449678    0.977519
      2         16           0       -0.250361   -1.164417   -0.391367
      3          8           0       -1.294956    0.162068   -0.758230
      4          6           0        2.392739    0.271210   -0.091923
      5          9           0        3.348935    0.704752    0.743658
      6          9           0        1.956958    1.300534   -0.819136
      7          9           0        2.925447   -0.628881   -0.921828
      8          6           0       -2.436221    0.275207   -0.013320
      9          9           0       -3.106680    1.323149   -0.482676
     10          9           0       -2.179691    0.475021    1.289366
     11          9           0       -3.215684   -0.813410   -0.107287
 ---------------------------------------------------------------------

 SCF Done:  E(RHF) =  -1545.46127185     A.U. after    2 cycles

 The electronic state is 1-A.
 Alpha  occ. eigenvalues --  -75.80961 -75.77063 -29.34318 -29.34078 -29.34002
 Alpha  occ. eigenvalues --  -29.33159 -29.33036 -29.32977 -21.13963 -13.27008
 Alpha  occ. eigenvalues --  -13.20309 -13.18531 -13.15822 -13.14989 -13.10127
 Alpha  occ. eigenvalues --  -11.62660 -11.61762  -8.14438  -8.11303  -1.88618
 Alpha  occ. eigenvalues --   -1.46175  -1.36363  -1.22852  -1.03290  -0.93837
 Alpha  occ. eigenvalues --   -0.93423  -0.92028  -0.91789  -0.75522  -0.69867
 Alpha  occ. eigenvalues --   -0.53277  -0.52747  -0.50983  -0.50092  -0.46391
 Alpha  occ. eigenvalues --   -0.46131  -0.46026  -0.45282  -0.42066  -0.41404
 Alpha  occ. eigenvalues --   -0.38234  -0.37329  -0.36732  -0.34026  -0.32175
 Alpha  occ. eigenvalues --   -0.31813  -0.28487  -0.27051  -0.26617  -0.25455
 Alpha  occ. eigenvalues --   -0.25297  -0.24112  -0.23260
 Alpha virt. eigenvalues --    0.05310   0.06524   0.09208   0.10255   0.10871
 Alpha virt. eigenvalues --    0.11751   0.12369   0.12726   0.13675   0.13937
 Alpha virt. eigenvalues --    0.14075   0.14331   0.16944   0.17324   0.18656

 Mulliken charges:
               1
     1  S   -0.248966
     2  S    0.213811
     3  O   -2.389121
     4  C   -1.294914
     5  F    0.628339
     6  F    0.465923
     7  F    0.536734
     8  C    0.409578
     9  F    0.630848
    10  F    0.539466
    11  F    0.508302
 Sum of Mulliken charges =  -0.00000

 Dipole moment (field-independent basis, Debye):
    X=              0.1888    Y=              0.7168    Z=              0.4063  Tot=              0.8453

 Test job not archived.
 1\1\GINC-SE186\SP\RHF\Aug-CC-pVDZ\C2F6O1S2\OHZDE\09-Apr-2025\0\\#t hf
 aug-cc-pvdz iop(5/13=1,5/36=2,99/5=2) pseudo=read geom=check guess=(re
 ad,tcheck) scf=(maxcycle=1)\\title\\0,1\S,0,1.066422,-0.449678,0.97751
 9\S,0,-0.250361,-1.164417,-0.391367\O,0,-1.294956,0.162068,-0.75823\C,
 0,2.392739,0.27121,-0.091923\F,0,3.348935,0.704752,0.743658\F,0,1.9569
 58,1.300534,-0.819136\F,0,2.925447,-0.628881,-0.921828\C,0,-2.436221,0
 .275207,-0.01332\F,0,-3.10668,1.323149,-0.482676\F,0,-2.179691,0.47502
 1,1.289366\F,0,-3.215684,-0.81341,-0.107287\\Version=ES64L-G16RevC.01\

 Normal termination of Gaussian 16 at Wed Apr  9 00:27:37 2025.
