 Gaussian 16, Revision C.01,

 ----------------------------------------------------------------------
 #t hf aug-cc-pvdz symm=none int=(grid=ultrafine) guess=(read,tcheck) s
 table=opt
 ----------------------------------------------------------------------
 -----
 title
 -----
 Symbolic Z-matrix:
 Charge =  0 Multiplicity = 2

 SCF Done:  E(UHF) =  -119.893413510     A.U. after   15 cycles
 Normal termination of Gaussian 16 at Wed Apr  9 00:34:48 2025.
 Gaussian 16:  ES64L-G16RevC.01  3-Jul-2019

 ----------------------------------------------------------------------
 #t hf aug-cc-pvdz iop(5/13=1,5/36=2,99/5=2) pseudo=read geom=check gue
 ss=(read,tcheck) scf=(maxcycle=1)
 ----------------------------------------------------------------------
 -----
 title
 -----
 Structure from the checkpoint file:  "BDE49_nonexpt_452_mol2.chk"
 Charge =  0 Multiplicity = 2

                         Standard orientation:
 ---------------------------------------------------------------------
 Center     Atomic      Atomic             Coordinates (Angstroms)
 Number     Number       Type             X           Y           Z
 ---------------------------------------------------------------------
      1          1           0       -2.492935    0.027543   -0.000003
      2          7           0       -0.233395    0.344720    0.000005
      3          5           0       -1.383623   -0.407199   -0.000009
      4          6           0        1.141703   -0.150468   -0.000001
      5          1           0       -0.295668    1.358882    0.000022
      6          1           0        1.122237   -1.240141   -0.000029
      7          1           0        1.684011    0.189718    0.888024
      8          1           0        1.684020    0.189764   -0.888003
 ---------------------------------------------------------------------

 SCF Done:  E(UHF) =  -120.451066548     A.U. after    2 cycles

 The electronic state is 2-A.
 Alpha  occ. eigenvalues --  -15.71809 -11.39566  -7.61483  -1.37363  -0.99983
 Alpha  occ. eigenvalues --   -0.76881  -0.65147  -0.59754  -0.54169  -0.50153
 Alpha  occ. eigenvalues --   -0.38225  -0.29875
 Alpha virt. eigenvalues --    0.03107   0.04105   0.04285   0.05366   0.07411
 Alpha virt. eigenvalues --    0.07789   0.08578   0.10739   0.13164   0.13864
 Alpha virt. eigenvalues --    0.15781   0.15892   0.17482   0.17827   0.19042

  Beta  occ. eigenvalues --  -15.72088 -11.39472  -7.59656  -1.37082  -0.99335
  Beta  occ. eigenvalues --   -0.73373  -0.64259  -0.60002  -0.53549  -0.48975
  Beta  occ. eigenvalues --   -0.38876
  Beta virt. eigenvalues --    0.02692   0.03785   0.04378   0.05125   0.07507
  Beta virt. eigenvalues --    0.07548   0.08332   0.10046   0.11194   0.13675
  Beta virt. eigenvalues --    0.15437   0.16679   0.17098   0.18323   0.18709

 Mulliken charges and spin densities:
               1          2
     1  H   -1.992186   0.062427
     2  N   -1.932328  -0.180267
     3  B    1.774866   1.058378
     4  C   -2.808594   0.034114
     5  H    1.032039   0.025504
     6  H    1.492696  -0.010651
     7  H    1.216753   0.005248
     8  H    1.216754   0.005248
 Sum of Mulliken charges =  -0.00000   1.00000

 Dipole moment (field-independent basis, Debye):
    X=              1.4331    Y=              1.4893    Z=              0.0000  Tot=              2.0668
                          Isotropic Fermi Contact Couplings
        Atom                 a.u.       MegaHertz       Gauss      10(-4) cm-1
     1  H(1)               0.01508      67.39530      24.04832      22.48065
     2  N(14)              0.00463       1.49500       0.53345       0.49868
     3  B(11)              0.22920     328.76194     117.31044     109.66318
     4  C(13)              0.02514      28.26259      10.08479       9.42739
     5  H(1)               0.01181      52.79784      18.83958      17.61146
     6  H(1)              -0.00039      -1.73168      -0.61791      -0.57763
     7  H(1)              -0.00083      -3.69777      -1.31945      -1.23344
     8  H(1)              -0.00083      -3.69769      -1.31943      -1.23342

 Normal termination of Gaussian 16 at Wed Apr  9 00:34:50 2025.
