 Gaussian 16, Revision C.01,

 ----------------------------------------------------------------------
 #t hf aug-cc-pvdz symm=none int=(grid=ultrafine) guess=(read,tcheck) s
 table=(opt,rrhf)
 ----------------------------------------------------------------------
 -----
 title
 -----
 Symbolic Z-matrix:
 Charge =  0 Multiplicity = 1

 SCF Done:  E(RHF) =  -1091.61057798     A.U. after   13 cycles
 Normal termination of Gaussian 16 at Wed Apr  9 00:13:39 2025.
 Gaussian 16:  ES64L-G16RevC.01  3-Jul-2019

 ----------------------------------------------------------------------
 #t hf aug-cc-pvdz iop(5/13=1,5/36=2,99/5=2) pseudo=read geom=check gue
 ss=(read,tcheck) scf=(maxcycle=1)
 ----------------------------------------------------------------------
 -----
 title
 -----
 Structure from the checkpoint file:  "BDE49_nonexpt_2435_mol1.chk"
 Charge =  0 Multiplicity = 1

                         Standard orientation:
 ---------------------------------------------------------------------
 Center     Atomic      Atomic             Coordinates (Angstroms)
 Number     Number       Type             X           Y           Z
 ---------------------------------------------------------------------
      1         14           0        2.298299   -0.439719   -0.361309
      2         14           0        0.574367    0.806786    0.653488
      3          6           0       -1.119354    0.304200   -0.067585
      4          1           0        0.761280    2.261425    0.371165
      5          1           0        0.524980    0.618124    2.118199
      6         16           0       -1.671490   -1.214804    0.159203
      7          8           0       -1.833426    1.200767   -0.775894
      8          1           0        2.173729   -1.871076   -0.013164
      9          1           0        3.604451    0.075984    0.115245
     10          1           0       -1.375480    2.052891   -0.785308
     11          1           0        2.221082   -0.270753   -1.831240
 ---------------------------------------------------------------------

 SCF Done:  E(RHF) =  -1092.63497888     A.U. after    2 cycles

 The electronic state is 1-A.
 Alpha  occ. eigenvalues --  -76.24410 -76.23237 -75.66537 -21.14891 -13.14107
 Alpha  occ. eigenvalues --  -13.00935 -12.98751 -11.48321  -8.00752  -5.58026
 Alpha  occ. eigenvalues --   -5.56632  -2.21708  -2.20285  -2.19549  -2.18727
 Alpha  occ. eigenvalues --   -2.18680  -2.17623  -1.79445  -1.15528  -0.86807
 Alpha  occ. eigenvalues --   -0.79486  -0.74507  -0.62168  -0.53502  -0.52345
 Alpha  occ. eigenvalues --   -0.49116  -0.48528  -0.47290  -0.41200  -0.36434
 Alpha  occ. eigenvalues --   -0.27911  -0.22332
 Alpha virt. eigenvalues --    0.03121   0.03929   0.04953   0.05919   0.06436
 Alpha virt. eigenvalues --    0.07075   0.07181   0.07683   0.08348   0.08515
 Alpha virt. eigenvalues --    0.09088   0.09379   0.09636   0.11197   0.12663

 Mulliken charges:
               1
     1  Si   4.777645
     2  Si   4.262307
     3  C   -0.345648
     4  H   -1.688619
     5  H   -1.847713
     6  S    1.165238
     7  O   -2.911264
     8  H   -1.492326
     9  H   -1.583934
    10  H    1.137171
    11  H   -1.472857
 Sum of Mulliken charges =  -0.00000

 Dipole moment (field-independent basis, Debye):
    X=             -0.0419    Y=             -0.4017    Z=             -0.1501  Tot=              0.4309

 Test job not archived.
 1\1\GINC-SE273\SP\RHF\Aug-CC-pVDZ\C1H6O1S1Si2\OHZDE\09-Apr-2025\0\\#t
 hf aug-cc-pvdz iop(5/13=1,5/36=2,99/5=2) pseudo=read geom=check guess=
 (read,tcheck) scf=(maxcycle=1)\\title\\0,1\Si,0,2.298299,-0.439719,-0.
 361309\Si,0,0.574367,0.806786,0.653488\C,0,-1.119354,0.3042,-0.067585\
 H,0,0.76128,2.261425,0.371165\H,0,0.52498,0.618124,2.118199\S,0,-1.671
 49,-1.214804,0.159203\O,0,-1.833426,1.200767,-0.775894\H,0,2.173729,-1
 .871076,-0.013164\H,0,3.604451,0.075985,0.115245\H,0,-1.37548,2.052891
 ,-0.785308\H,0,2.221082,-0.270753,-1.83124\\Version=ES64L-G16RevC.01\S

 Normal termination of Gaussian 16 at Wed Apr  9 00:13:44 2025.
