 Gaussian 16, Revision C.01,

 ----------------------------------------------------------------------
 #t hf aug-cc-pvdz symm=none int=(grid=ultrafine) guess=(read,tcheck) s
 table=(opt,rrhf)
 ----------------------------------------------------------------------
 -----
 title
 -----
 Symbolic Z-matrix:
 Charge =  0 Multiplicity = 1

 SCF Done:  E(RHF) =  -815.634692396     A.U. after   11 cycles
 Normal termination of Gaussian 16 at Tue Apr  8 23:01:38 2025.
 Gaussian 16:  ES64L-G16RevC.01  3-Jul-2019

 ----------------------------------------------------------------------
 #t hf aug-cc-pvdz iop(5/13=1,5/36=2,99/5=2) pseudo=read geom=check gue
 ss=(read,tcheck) scf=(maxcycle=1)
 ----------------------------------------------------------------------
 -----
 title
 -----
 Structure from the checkpoint file:  "BDE49_expt_1941_mol1.chk"
 Charge =  0 Multiplicity = 1

                         Standard orientation:
 ---------------------------------------------------------------------
 Center     Atomic      Atomic             Coordinates (Angstroms)
 Number     Number       Type             X           Y           Z
 ---------------------------------------------------------------------
      1         14           0        1.187732   -0.000015    0.000071
      2         14           0       -1.187732    0.000015   -0.000071
      3          6           0       -1.848898   -1.527285   -0.904626
      4          1           0       -2.944176   -1.532654   -0.906865
      5          1           0       -1.515024   -2.453056   -0.426571
      6          1           0       -1.516313   -1.552603   -1.946664
      7          6           0       -1.849078    1.546992   -0.870317
      8          1           0       -1.516188    1.595739   -1.911400
      9          1           0       -1.515717    2.461939   -0.371520
     10          1           0       -2.944349    1.552007   -0.872840
     11          6           0       -1.849338   -0.019859    1.774634
     12          1           0       -1.516470    0.857372    2.337394
     13          1           0       -1.516110   -0.909285    2.317689
     14          1           0       -2.944611   -0.020176    1.780029
     15          6           0        1.848898    1.527287    0.904623
     16          1           0        1.515027    2.453057    0.426564
     17          1           0        2.944175    1.532653    0.906866
     18          1           0        1.516309    1.552610    1.946660
     19          6           0        1.849078   -1.546990    0.870320
     20          1           0        1.516199   -1.595728    1.911407
     21          1           0        2.944350   -1.552012    0.872831
     22          1           0        1.515706   -2.461939    0.371533
     23          6           0        1.849338    0.019856   -1.774634
     24          1           0        1.516097    0.909272   -2.317696
     25          1           0        1.516484   -0.857385   -2.337387
     26          1           0        2.944611    0.020189   -1.780029
 ---------------------------------------------------------------------

 SCF Done:  E(RHF) =  -817.232105980     A.U. after    2 cycles

 The electronic state is 1-A.
 Alpha  occ. eigenvalues --  -76.17762 -76.17749 -11.34113 -11.34113 -11.33982
 Alpha  occ. eigenvalues --  -11.33959 -11.33959 -11.33670  -5.51749  -5.51749
 Alpha  occ. eigenvalues --   -2.15389  -2.15388  -2.15212  -2.15211  -2.14809
 Alpha  occ. eigenvalues --   -2.12979  -1.07205  -1.06139  -1.00376  -1.00375
 Alpha  occ. eigenvalues --   -0.99799  -0.99799  -0.68619  -0.60226  -0.56953
 Alpha  occ. eigenvalues --   -0.55832  -0.55831  -0.55637  -0.55635  -0.55258
 Alpha  occ. eigenvalues --   -0.53999  -0.53997  -0.53254  -0.53253  -0.53153
 Alpha  occ. eigenvalues --   -0.52105  -0.39373  -0.39373  -0.37703  -0.37702
 Alpha  occ. eigenvalues --   -0.29598
 Alpha virt. eigenvalues --    0.03184   0.04674   0.05203   0.05203   0.05925
 Alpha virt. eigenvalues --    0.05925   0.06231   0.06369   0.06369   0.07120
 Alpha virt. eigenvalues --    0.07306   0.07306   0.07838   0.08376   0.08377

 Mulliken charges:
               1
     1  Si   9.649622
     2  Si   9.649622
     3  C   -6.537032
     4  H    1.081572
     5  H    1.119623
     6  H    1.119418
     7  C   -6.537209
     8  H    1.119468
     9  H    1.119535
    10  H    1.081286
    11  C   -6.536927
    12  H    1.119403
    13  H    1.119449
    14  H    1.081792
    15  C   -6.537030
    16  H    1.119621
    17  H    1.081574
    18  H    1.119420
    19  C   -6.537213
    20  H    1.119464
    21  H    1.081282
    22  H    1.119538
    23  C   -6.536924
    24  H    1.119454
    25  H    1.119399
    26  H    1.081794
 Sum of Mulliken charges =  -0.00000

 Dipole moment (field-independent basis, Debye):
    X=              0.0000    Y=              0.0000    Z=             -0.0000  Tot=              0.0000

 Test job not archived.
 1\1\GINC-SE402\SP\RHF\Aug-CC-pVDZ\C6H18Si2\OHZDE\08-Apr-2025\0\\#t hf
 aug-cc-pvdz iop(5/13=1,5/36=2,99/5=2) pseudo=read geom=check guess=(re
 ad,tcheck) scf=(maxcycle=1)\\title\\0,1\Si,0,1.187732,-0.000015,0.0000
 71\Si,0,-1.187732,0.000015,-0.000071\C,0,-1.848898,-1.527285,-0.904626
 \H,0,-2.944176,-1.532654,-0.906865\H,0,-1.515024,-2.453056,-0.426571\H
 ,0,-1.516313,-1.552603,-1.946664\C,0,-1.849078,1.546992,-0.870317\H,0,
 -1.516188,1.595739,-1.9114\H,0,-1.515717,2.461939,-0.37152\H,0,-2.9443
 49,1.552007,-0.87284\C,0,-1.849338,-0.019859,1.774634\H,0,-1.51647,0.8

 Normal termination of Gaussian 16 at Tue Apr  8 23:01:54 2025.
