 Gaussian 16, Revision C.01,

 ----------------------------------------------------------------------
 #t hf aug-cc-pvdz symm=none int=(grid=ultrafine) guess=(read,tcheck) s
 table=(opt,rrhf)
 ----------------------------------------------------------------------
 -----
 title
 -----
 Symbolic Z-matrix:
 Charge =  0 Multiplicity = 1

 SCF Done:  E(RHF) =  -1125.38345327     A.U. after   13 cycles
 Normal termination of Gaussian 16 at Wed Apr  9 00:15:07 2025.
 Gaussian 16:  ES64L-G16RevC.01  3-Jul-2019

 ----------------------------------------------------------------------
 #t hf aug-cc-pvdz iop(5/13=1,5/36=2,99/5=2) pseudo=read geom=check gue
 ss=(read,tcheck) scf=(maxcycle=1)
 ----------------------------------------------------------------------
 -----
 title
 -----
 Structure from the checkpoint file:  "BDE49_nonexpt_2486_mol1.chk"
 Charge =  0 Multiplicity = 1

                         Standard orientation:
 ---------------------------------------------------------------------
 Center     Atomic      Atomic             Coordinates (Angstroms)
 Number     Number       Type             X           Y           Z
 ---------------------------------------------------------------------
      1         14           0       -1.860044    0.565220    0.085129
      2         16           0       -0.406166   -0.970672   -0.390935
      3         16           0        1.236526   -0.181944    0.670022
      4          6           0        2.086846    0.805783   -0.609395
      5          1           0        2.978656    1.207896   -0.121951
      6          1           0        1.461277    1.628604   -0.953348
      7          1           0        2.384841    0.175415   -1.446000
      8          1           0       -3.097610    0.179998   -0.632028
      9          1           0       -1.389374    1.884960   -0.388396
     10          1           0       -2.104004    0.617210    1.540890
 ---------------------------------------------------------------------

 SCF Done:  E(RHF) =  -1126.21457013     A.U. after    2 cycles

 The electronic state is 1-A.
 Alpha  occ. eigenvalues --  -76.24780 -75.70990 -75.69751 -13.12357 -13.11267
 Alpha  occ. eigenvalues --  -13.08849 -13.06905 -13.05198 -13.03798 -11.40339
 Alpha  occ. eigenvalues --   -8.04757  -8.03735  -5.58046  -2.20018  -2.19955
 Alpha  occ. eigenvalues --   -2.19890  -1.23737  -1.06902  -0.90931  -0.76228
 Alpha  occ. eigenvalues --   -0.59821  -0.59547  -0.49758  -0.49119  -0.45338
 Alpha  occ. eigenvalues --   -0.39883  -0.35716  -0.27247  -0.22805
 Alpha virt. eigenvalues --    0.02756   0.03587   0.04172   0.05009   0.07201
 Alpha virt. eigenvalues --    0.07452   0.07823   0.08843   0.10137   0.10478
 Alpha virt. eigenvalues --    0.11043   0.12850   0.14125   0.14491   0.15285

 Mulliken charges:
               1
     1  Si   6.727505
     2  S   -1.411719
     3  S    0.051671
     4  C   -4.550265
     5  H    1.371147
     6  H    1.511454
     7  H    1.479301
     8  H   -1.696983
     9  H   -1.657699
    10  H   -1.824411
 Sum of Mulliken charges =  -0.00000

 Dipole moment (field-independent basis, Debye):
    X=              1.4104    Y=             -1.1874    Z=              0.0697  Tot=              1.8450

 Test job not archived.
 1\1\GINC-SE094\SP\RHF\Aug-CC-pVDZ\C1H6S2Si1\OHZDE\09-Apr-2025\0\\#t hf
  aug-cc-pvdz iop(5/13=1,5/36=2,99/5=2) pseudo=read geom=check guess=(r
 ead,tcheck) scf=(maxcycle=1)\\title\\0,1\Si,0,-1.860044,0.56522,0.0851
 29\S,0,-0.406166,-0.970672,-0.390935\S,0,1.236526,-0.181944,0.670022\C
 ,0,2.086846,0.805783,-0.609395\H,0,2.978656,1.207896,-0.121951\H,0,1.4
 61277,1.628604,-0.953348\H,0,2.384841,0.175415,-1.446\H,0,-3.09761,0.1
 79998,-0.632028\H,0,-1.389374,1.88496,-0.388396\H,0,-2.104004,0.61721,
 1.54089\\Version=ES64L-G16RevC.01\State=1-A\HF=-1126.2145701\RMSD=9.76

 Normal termination of Gaussian 16 at Wed Apr  9 00:15:10 2025.
