 Gaussian 16, Revision C.01,

 ----------------------------------------------------------------------
 #t hf aug-cc-pvdz symm=none int=(grid=ultrafine) guess=(read,tcheck) s
 table=(opt,rrhf)
 ----------------------------------------------------------------------
 -----
 title
 -----
 Symbolic Z-matrix:
 Charge =  0 Multiplicity = 1

 SCF Done:  E(RHF) =  -796.757204086     A.U. after   15 cycles
 Normal termination of Gaussian 16 at Tue Apr  8 23:30:20 2025.
 Gaussian 16:  ES64L-G16RevC.01  3-Jul-2019

 ----------------------------------------------------------------------
 #t hf aug-cc-pvdz iop(5/13=1,5/36=2,99/5=2) pseudo=read geom=check gue
 ss=(read,tcheck) scf=(maxcycle=1)
 ----------------------------------------------------------------------
 -----
 title
 -----
 Structure from the checkpoint file:  "BDE49_nonexpt_1322_mol1.chk"
 Charge =  0 Multiplicity = 1

                         Standard orientation:
 ---------------------------------------------------------------------
 Center     Atomic      Atomic             Coordinates (Angstroms)
 Number     Number       Type             X           Y           Z
 ---------------------------------------------------------------------
      1          6           0        2.392166   -1.229546    0.039068
      2          6           0        1.002253   -1.196780    0.024576
      3          6           0        3.119961   -0.039019    0.018412
      4          6           0        2.458282    1.185982   -0.017609
      5          6           0        1.065885    1.225236   -0.033645
      6          6           0        0.334547    0.033669   -0.013957
      7          1           0        0.534325    2.168599   -0.063614
      8          1           0        4.203801   -0.068715    0.030331
      9          1           0        3.024087    2.110368   -0.034292
     10          1           0        2.909423   -2.181787    0.066762
     11          1           0        0.435731   -2.120079    0.041231
     12         15           0       -1.456757    0.135447   -0.016109
     13          8           0       -2.001026    1.499339    0.027658
     14          8           0       -1.984047   -0.803613    1.192397
     15          1           0       -2.210121   -0.272849    1.965583
     16          8           0       -1.828012   -0.783210   -1.275067
     17          1           0       -2.779768   -0.844618   -1.425343
 ---------------------------------------------------------------------

 SCF Done:  E(RHF) =  -798.994307719     A.U. after    2 cycles

 The electronic state is 1-A.
 Alpha  occ. eigenvalues -- -105.30189 -21.11358 -21.11022 -21.01693 -11.53194
 Alpha  occ. eigenvalues --  -11.44433 -11.44359 -11.42518 -11.41864 -11.37735
 Alpha  occ. eigenvalues --   -2.92525  -1.97633  -1.88657  -1.80856  -1.56062
 Alpha  occ. eigenvalues --   -1.39778  -1.33873  -1.25545  -1.10490  -1.08554
 Alpha  occ. eigenvalues --   -0.87752  -0.85390  -0.73239  -0.69335  -0.64082
 Alpha  occ. eigenvalues --   -0.60747  -0.59637  -0.58189  -0.54568  -0.51932
 Alpha  occ. eigenvalues --   -0.50387  -0.46163  -0.44674  -0.41225  -0.35394
 Alpha  occ. eigenvalues --   -0.34534  -0.34075  -0.33416  -0.29192  -0.25123
 Alpha  occ. eigenvalues --   -0.15346
 Alpha virt. eigenvalues --    0.03043   0.04996   0.05206   0.05663   0.06041
 Alpha virt. eigenvalues --    0.07159   0.07816   0.09057   0.09801   0.11105
 Alpha virt. eigenvalues --    0.11269   0.12391   0.12549   0.13308   0.13509

 Mulliken charges:
               1
     1  C   -0.573483
     2  C   -1.364235
     3  C   -2.186970
     4  C   -1.283241
     5  C   -3.710752
     6  C   -1.264212
     7  H    1.822068
     8  H    1.523192
     9  H    1.530651
    10  H    1.478382
    11  H    1.594585
    12  P    9.288045
    13  O   -2.900613
    14  O   -2.718524
    15  H    0.711253
    16  O   -2.876191
    17  H    0.930044
 Sum of Mulliken charges =  -0.00000

 Dipole moment (field-independent basis, Debye):
    X=              1.9373    Y=             -2.7410    Z=              0.1803  Tot=              3.3613

 Test job not archived.
 1\1\GINC-SE247\SP\RHF\Aug-CC-pVDZ\C6H7O3P1\OHZDE\08-Apr-2025\0\\#t hf
 aug-cc-pvdz iop(5/13=1,5/36=2,99/5=2) pseudo=read geom=check guess=(re
 ad,tcheck) scf=(maxcycle=1)\\title\\0,1\C,0,2.392166,-1.229546,0.03906
 8\C,0,1.002253,-1.19678,0.024576\C,0,3.119961,-0.039019,0.018412\C,0,2
 .458282,1.185982,-0.017609\C,0,1.065885,1.225236,-0.033645\C,0,0.33454
 7,0.033669,-0.013957\H,0,0.534325,2.168599,-0.063614\H,0,4.203801,-0.0
 68715,0.030331\H,0,3.024087,2.110368,-0.034292\H,0,2.909423,-2.181787,
 0.066762\H,0,0.435731,-2.120079,0.041231\P,0,-1.456757,0.135447,-0.016

 Normal termination of Gaussian 16 at Tue Apr  8 23:30:29 2025.
