 Gaussian 16, Revision C.01,

 ----------------------------------------------------------------------
 #t hf aug-cc-pvdz symm=none int=(grid=ultrafine) guess=(read,tcheck) s
 table=(opt,rrhf)
 ----------------------------------------------------------------------
 -----
 title
 -----
 Symbolic Z-matrix:
 Charge =  0 Multiplicity = 1

 SCF Done:  E(RHF) =  -1262.02182767     A.U. after   18 cycles
 Normal termination of Gaussian 16 at Tue Apr  8 23:35:29 2025.
 Gaussian 16:  ES64L-G16RevC.01  3-Jul-2019

 ----------------------------------------------------------------------
 #t hf aug-cc-pvdz iop(5/13=1,5/36=2,99/5=2) pseudo=read geom=check gue
 ss=(read,tcheck) scf=(maxcycle=1)
 ----------------------------------------------------------------------
 -----
 title
 -----
 Structure from the checkpoint file:  "BDE49_nonexpt_1381_mol1.chk"
 Charge =  0 Multiplicity = 1

                         Standard orientation:
 ---------------------------------------------------------------------
 Center     Atomic      Atomic             Coordinates (Angstroms)
 Number     Number       Type             X           Y           Z
 ---------------------------------------------------------------------
      1          9           0        2.835483    1.428932    0.244050
      2          9           0       -0.283358   -1.774730    1.237009
      3          8           0        2.527426   -1.366336   -1.038141
      4          8           0        0.169716    2.305711   -0.599164
      5         15           0        1.642838    0.506832    0.827276
      6         15           0       -0.183541   -1.626577   -0.412203
      7          6           0        1.624282   -0.948667   -0.375814
      8          6           0        0.196125    1.167399   -0.217128
      9          6           0       -0.881171    0.118318   -0.548100
     10          1           0       -1.112011    0.262596   -1.613207
     11          6           0       -2.204867    0.315924    0.262843
     12          1           0       -1.939704    0.280209    1.324578
     13          6           0       -2.846047    1.678420   -0.037863
     14          1           0       -3.737371    1.809098    0.581742
     15          1           0       -3.154139    1.738728   -1.086486
     16          1           0       -2.170880    2.511280    0.156392
     17          6           0       -3.205845   -0.816493   -0.013530
     18          1           0       -4.141042   -0.623133    0.517850
     19          1           0       -3.437929   -0.885767   -1.080955
     20          1           0       -2.837481   -1.789049    0.320462
 ---------------------------------------------------------------------

 SCF Done:  E(RHF) =  -1264.80255777     A.U. after    2 cycles

 The electronic state is 1-A.
 Alpha  occ. eigenvalues -- -105.27808-105.26654 -29.29525 -29.29466 -21.11926
 Alpha  occ. eigenvalues --  -21.09907 -11.52692 -11.50631 -11.47382 -11.44005
 Alpha  occ. eigenvalues --  -11.40700 -11.37891  -2.86002  -2.85650  -1.76224
 Alpha  occ. eigenvalues --   -1.75354  -1.61108  -1.58208  -1.57096  -1.54486
 Alpha  occ. eigenvalues --   -1.53736  -1.52963  -1.27578  -1.08207  -1.02329
 Alpha  occ. eigenvalues --   -0.93539  -0.87020  -0.85231  -0.73834  -0.67921
 Alpha  occ. eigenvalues --   -0.64448  -0.62980  -0.59446  -0.57024  -0.55839
 Alpha  occ. eigenvalues --   -0.54837  -0.53880  -0.52779  -0.51186  -0.49196
 Alpha  occ. eigenvalues --   -0.48607  -0.46856  -0.45980  -0.44024  -0.36412
 Alpha  occ. eigenvalues --   -0.35882  -0.35165  -0.34244  -0.32665  -0.22474
 Alpha  occ. eigenvalues --   -0.18363  -0.11435  -0.03758  -0.00548
 Alpha virt. eigenvalues --    0.04076   0.05055   0.05208   0.05574   0.06192
 Alpha virt. eigenvalues --    0.06379   0.06919   0.07536   0.08300   0.08996
 Alpha virt. eigenvalues --    0.09176   0.10464   0.11574   0.12158   0.12564

 Mulliken charges:
               1
     1  F   -0.169674
     2  F   -0.675957
     3  O   -2.898257
     4  O   -3.074532
     5  P    3.520719
     6  P    4.904220
     7  C   -1.038466
     8  C    1.915189
     9  C   -3.902315
    10  H    1.384905
    11  C   -1.956051
    12  H    1.914909
    13  C   -3.945660
    14  H    1.171707
    15  H    1.353323
    16  H    1.281065
    17  C   -3.816004
    18  H    1.201072
    19  H    1.355038
    20  H    1.474771
 Sum of Mulliken charges =   0.00000

 Dipole moment (field-independent basis, Debye):
    X=              2.3370    Y=              1.1229    Z=              5.3147  Tot=              5.9134

 Test job not archived.
 1\1\GINC-SE036\SP\RHF\Aug-CC-pVDZ\C6H8F2O2P2\OHZDE\08-Apr-2025\0\\#t h
 f aug-cc-pvdz iop(5/13=1,5/36=2,99/5=2) pseudo=read geom=check guess=(
 read,tcheck) scf=(maxcycle=1)\\title\\0,1\F,0,2.835483,1.428932,0.2440
 5\F,0,-0.283358,-1.77473,1.237009\O,0,2.527426,-1.366336,-1.038141\O,0
 ,0.169716,2.305711,-0.599164\P,0,1.642838,0.506832,0.827276\P,0,-0.183
 541,-1.626577,-0.412203\C,0,1.624282,-0.948667,-0.375814\C,0,0.196125,
 1.167399,-0.217128\C,0,-0.881171,0.118318,-0.5481\H,0,-1.112011,0.2625
 96,-1.613207\C,0,-2.204867,0.315924,0.262843\H,0,-1.939704,0.280209,1.

 Normal termination of Gaussian 16 at Tue Apr  8 23:35:43 2025.
