 Gaussian 16, Revision C.01,

 ----------------------------------------------------------------------
 #t hf aug-cc-pvdz symm=none int=(grid=ultrafine) guess=(read,tcheck) s
 table=(opt,rrhf)
 ----------------------------------------------------------------------
 -----
 title
 -----
 Symbolic Z-matrix:
 Charge =  0 Multiplicity = 1

 SCF Done:  E(RHF) =  -271.976322593     A.U. after   15 cycles
 Normal termination of Gaussian 16 at Wed Apr  9 00:27:33 2025.
 Gaussian 16:  ES64L-G16RevC.01  3-Jul-2019

 ----------------------------------------------------------------------
 #t hf aug-cc-pvdz iop(5/13=1,5/36=2,99/5=2) pseudo=read geom=check gue
 ss=(read,tcheck) scf=(maxcycle=1)
 ----------------------------------------------------------------------
 -----
 title
 -----
 Structure from the checkpoint file:  "BDE49_nonexpt_279_mol1.chk"
 Charge =  0 Multiplicity = 1

                         Standard orientation:
 ---------------------------------------------------------------------
 Center     Atomic      Atomic             Coordinates (Angstroms)
 Number     Number       Type             X           Y           Z
 ---------------------------------------------------------------------
      1          6           0        1.171116   -1.145775    0.000000
      2          6           0       -0.066781   -1.773490    0.000000
      3          6           0       -1.221561   -0.980699    0.000000
      4          7           0       -1.206120    0.346081    0.000000
      5          6           0       -0.000000    0.978386    0.000000
      6          6           0        1.201007    0.246532    0.000000
      7          1           0       -0.149947   -2.854438    0.000000
      8          1           0       -2.202212   -1.450355    0.000000
      9          1           0        2.145705    0.777966    0.000000
     10          1           0        2.088419   -1.723950    0.000000
     11          5           0        0.005814    2.527578    0.000000
     12          1           0       -1.018292    3.130228    0.000000
     13          1           0        1.047410    3.110374    0.000000
 ---------------------------------------------------------------------

 SCF Done:  E(RHF) =  -273.252913411     A.U. after    2 cycles

 The electronic state is 1-A'.
 Alpha  occ. eigenvalues --  -15.74352 -11.49106 -11.44632 -11.43148 -11.41521
 Alpha  occ. eigenvalues --  -11.37747  -7.62113  -1.44725  -1.19195  -1.12962
 Alpha  occ. eigenvalues --   -0.93285  -0.89111  -0.81018  -0.70461  -0.64007
 Alpha  occ. eigenvalues --   -0.60930  -0.57060  -0.54103  -0.52939  -0.46254
 Alpha  occ. eigenvalues --   -0.43354  -0.37280  -0.35189  -0.34969
 Alpha virt. eigenvalues --    0.02990   0.04273   0.04428   0.04834   0.05261
 Alpha virt. eigenvalues --    0.05515   0.06879   0.07565   0.09014   0.10540
 Alpha virt. eigenvalues --    0.10941   0.12819   0.13159   0.13340   0.13918

 Mulliken charges:
               1
     1  C   -0.196901
     2  C   -0.846068
     3  C   -1.061344
     4  N   -3.766657
     5  C   -0.034242
     6  C   -0.247021
     7  H    1.431202
     8  H    1.646480
     9  H    1.642153
    10  H    1.533424
    11  B    6.792291
    12  H   -3.534139
    13  H   -3.359178
 Sum of Mulliken charges =   0.00000

 Dipole moment (field-independent basis, Debye):
    X=              1.5155    Y=             -2.3468    Z=              0.0000  Tot=              2.7936

 Test job not archived.
 1\1\GINC-SE404\SP\RHF\Aug-CC-pVDZ\C5H6B1N1\OHZDE\09-Apr-2025\0\\#t hf
 aug-cc-pvdz iop(5/13=1,5/36=2,99/5=2) pseudo=read geom=check guess=(re
 ad,tcheck) scf=(maxcycle=1)\\title\\0,1\C,0,1.171116,-1.145775,0.\C,0,
 -0.066781,-1.77349,0.\C,0,-1.221561,-0.980699,0.\N,0,-1.20612,0.346081
 ,0.\C,0,0.,0.978386,0.\C,0,1.201007,0.246532,0.\H,0,-0.149947,-2.85443
 8,0.\H,0,-2.202212,-1.450355,0.\H,0,2.145705,0.777966,0.\H,0,2.088419,
 -1.72395,0.\B,0,0.005814,2.527578,0.\H,0,-1.018292,3.130228,0.\H,0,1.0
 4741,3.110374,0.\\Version=ES64L-G16RevC.01\State=1-A'\HF=-273.2529134\

 Normal termination of Gaussian 16 at Wed Apr  9 00:27:37 2025.
