 Gaussian 16, Revision C.01,

 ----------------------------------------------------------------------
 #t hf aug-cc-pvdz symm=none int=(grid=ultrafine) guess=(read,tcheck) s
 table=(opt,rrhf)
 ----------------------------------------------------------------------
 -----
 title
 -----
 Symbolic Z-matrix:
 Charge =  0 Multiplicity = 1

 SCF Done:  E(RHF) =  -1020.05701080     A.U. after   14 cycles
 Normal termination of Gaussian 16 at Tue Apr  8 23:55:54 2025.
 Gaussian 16:  ES64L-G16RevC.01  3-Jul-2019

 ----------------------------------------------------------------------
 #t hf aug-cc-pvdz iop(5/13=1,5/36=2,99/5=2) pseudo=read geom=check gue
 ss=(read,tcheck) scf=(maxcycle=1)
 ----------------------------------------------------------------------
 -----
 title
 -----
 Structure from the checkpoint file:  "BDE49_nonexpt_197_mol1.chk"
 Charge =  0 Multiplicity = 1

                         Standard orientation:
 ---------------------------------------------------------------------
 Center     Atomic      Atomic             Coordinates (Angstroms)
 Number     Number       Type             X           Y           Z
 ---------------------------------------------------------------------
      1         17           0        0.867417   -1.517322   -0.000258
      2         17           0        0.867215    1.517422   -0.000244
      3          5           0       -0.023721   -0.000009    0.000973
      4          6           0       -1.527237   -0.000110    0.000501
      5          6           0       -2.734638   -0.000177    0.000134
      6          1           0       -3.798882    0.000047   -0.000138
 ---------------------------------------------------------------------

 SCF Done:  E(RHF) =  -1020.99918158     A.U. after    2 cycles

 The electronic state is 1-A.
 Alpha  occ. eigenvalues --  -99.90653 -99.90638 -11.44924 -11.39655 -10.48066
 Alpha  occ. eigenvalues --  -10.47826  -9.68009  -9.67761  -9.67415  -9.67359
 Alpha  occ. eigenvalues --   -9.67239  -9.67182  -7.74053  -1.41067  -1.30296
 Alpha  occ. eigenvalues --   -1.13106  -0.88942  -0.75016  -0.66548  -0.64294
 Alpha  occ. eigenvalues --   -0.58540  -0.52965  -0.51082  -0.50854  -0.41967
 Alpha  occ. eigenvalues --   -0.40577
 Alpha virt. eigenvalues --    0.02594   0.03242   0.04521   0.04640   0.04949
 Alpha virt. eigenvalues --    0.05843   0.09597   0.11071   0.12330   0.13244
 Alpha virt. eigenvalues --    0.14439   0.14629   0.16491   0.16821   0.17955

 Mulliken charges:
               1
     1  Cl  -1.197042
     2  Cl  -1.197022
     3  B    2.067347
     4  C    1.482520
     5  C   -1.894343
     6  H    0.738539
 Sum of Mulliken charges =  -0.00000

 Dipole moment (field-independent basis, Debye):
    X=             -2.3069    Y=              0.0003    Z=              0.0011  Tot=              2.3069

 Test job not archived.
 1\1\GINC-SE398\SP\RHF\Aug-CC-pVDZ\C2H1B1Cl2\OHZDE\08-Apr-2025\0\\#t hf
  aug-cc-pvdz iop(5/13=1,5/36=2,99/5=2) pseudo=read geom=check guess=(r
 ead,tcheck) scf=(maxcycle=1)\\title\\0,1\Cl,0,0.867416,1.517322,0.0002
 58\Cl,0,0.867215,-1.517422,0.000244\B,0,-0.023721,0.000009,-0.000973\C
 ,0,-1.527237,0.000109,-0.000501\C,0,-2.734638,0.000176,-0.000134\H,0,-
 3.798882,-0.000049,0.000138\\Version=ES64L-G16RevC.01\State=1-A\HF=-10
 20.9991816\RMSD=1.074e+00\Dipole=-0.907602,-0.0001038,-0.0004501\Quadr
 upole=5.0060592,-2.6675162,-2.3385431,0.0005819,-0.0004372,-0.0000015\

 Normal termination of Gaussian 16 at Tue Apr  8 23:55:56 2025.
