 Gaussian 16, Revision C.01,

 ----------------------------------------------------------------------
 #t hf aug-cc-pvdz symm=none int=(grid=ultrafine) guess=(read,tcheck) s
 table=(opt,rrhf)
 ----------------------------------------------------------------------
 -----
 title
 -----
 Symbolic Z-matrix:
 Charge =  0 Multiplicity = 1

 SCF Done:  E(RHF) =  -644.248403755     A.U. after   15 cycles
 Normal termination of Gaussian 16 at Tue Apr  8 23:09:55 2025.
 Gaussian 16:  ES64L-G16RevC.01  3-Jul-2019

 ----------------------------------------------------------------------
 #t hf aug-cc-pvdz iop(5/13=1,5/36=2,99/5=2) pseudo=read geom=check gue
 ss=(read,tcheck) scf=(maxcycle=1)
 ----------------------------------------------------------------------
 -----
 title
 -----
 Structure from the checkpoint file:  "BDE49_expt_545_mol1.chk"
 Charge =  0 Multiplicity = 1

                         Standard orientation:
 ---------------------------------------------------------------------
 Center     Atomic      Atomic             Coordinates (Angstroms)
 Number     Number       Type             X           Y           Z
 ---------------------------------------------------------------------
      1          6           0        0.000000    1.188923   -1.487067
      2          6           0        0.000000    1.213039   -0.129614
      3          7           0        0.000000    0.000000   -2.168181
      4          6           0       -0.000000   -1.188923   -1.487067
      5          6           0       -0.000000   -1.213039   -0.129614
      6          6           0        0.000000    0.000000    0.653696
      7          1           0        0.000000    0.000000   -3.175263
      8          1           0        0.000000    2.084547   -2.094227
      9          1           0        0.000000    2.163064    0.387008
     10         16           0        0.000000    0.000000    2.327810
     11          1           0       -0.000000   -2.163064    0.387008
     12          1           0       -0.000000   -2.084547   -2.094227
 ---------------------------------------------------------------------

 SCF Done:  E(RHF) =  -645.626746905     A.U. after    2 cycles

 The electronic state is 1-A1.
 Alpha  occ. eigenvalues --  -75.61556 -15.83431 -13.11292 -12.98794 -12.92660
 Alpha  occ. eigenvalues --  -11.50637 -11.49017 -11.47580 -11.42325 -11.39566
 Alpha  occ. eigenvalues --   -7.95561  -1.51873  -1.25031  -1.15403  -1.04671
 Alpha  occ. eigenvalues --   -0.91800  -0.87104  -0.79354  -0.67900  -0.64592
 Alpha  occ. eigenvalues --   -0.63031  -0.59649  -0.59001  -0.49085  -0.42446
 Alpha  occ. eigenvalues --   -0.40540  -0.38597  -0.20869  -0.18860
 Alpha virt. eigenvalues --    0.01670   0.03801   0.04112   0.06066   0.06914
 Alpha virt. eigenvalues --    0.08648   0.09409   0.09439   0.09990   0.10002
 Alpha virt. eigenvalues --    0.11174   0.11918   0.12843   0.13656   0.13932

 Mulliken charges:
               1
     1  C   -1.298898
     2  C   -1.089646
     3  N   -3.636066
     4  C   -1.298898
     5  C   -1.089646
     6  C    0.584410
     7  H    0.710975
     8  H    1.437967
     9  H    1.669871
    10  S    0.902091
    11  H    1.669871
    12  H    1.437967
 Sum of Mulliken charges =  -0.00000

 Dipole moment (field-independent basis, Debye):
    X=             -0.0000    Y=              0.0000    Z=             -5.5853  Tot=              5.5853

 Test job not archived.
 1\1\GINC-SE424\SP\RHF\Aug-CC-pVDZ\C5H5N1S1\OHZDE\08-Apr-2025\0\\#t hf
 aug-cc-pvdz iop(5/13=1,5/36=2,99/5=2) pseudo=read geom=check guess=(re
 ad,tcheck) scf=(maxcycle=1)\\title\\0,1\C,0,0.,1.188923,-1.487067\C,0,
 0.,1.213039,-0.129614\N,0,0.,0.,-2.168181\C,0,0.,-1.188923,-1.487067\C
 ,0,0.,-1.213039,-0.129614\C,0,0.,0.,0.653696\H,0,0.,0.,-3.175263\H,0,0
 .,2.084547,-2.094227\H,0,0.,2.163064,0.387008\S,0,0.,0.,2.32781\H,0,0.
 ,-2.163064,0.387008\H,0,0.,-2.084547,-2.094227\\Version=ES64L-G16RevC.
 01\State=1-A1\HF=-645.6267469\RMSD=1.869e+00\Dipole=0.,0.,-2.1974086\Q

 Normal termination of Gaussian 16 at Tue Apr  8 23:09:59 2025.
