 Gaussian 16, Revision C.01,

 ----------------------------------------------------------------------
 #t hf aug-cc-pvdz symm=none int=(grid=ultrafine) guess=(read,tcheck) s
 table=(opt,rrhf)
 ----------------------------------------------------------------------
 -----
 title
 -----
 Symbolic Z-matrix:
 Charge =  0 Multiplicity = 1

 SCF Done:  E(RHF) =  -843.819735370     A.U. after   12 cycles
 Normal termination of Gaussian 16 at Wed Apr  9 00:15:26 2025.
 Gaussian 16:  ES64L-G16RevC.01  3-Jul-2019

 ----------------------------------------------------------------------
 #t hf aug-cc-pvdz iop(5/13=1,5/36=2,99/5=2) pseudo=read geom=check gue
 ss=(read,tcheck) scf=(maxcycle=1)
 ----------------------------------------------------------------------
 -----
 title
 -----
 Structure from the checkpoint file:  "BDE49_nonexpt_2483_mol1.chk"
 Charge =  0 Multiplicity = 1

                         Standard orientation:
 ---------------------------------------------------------------------
 Center     Atomic      Atomic             Coordinates (Angstroms)
 Number     Number       Type             X           Y           Z
 ---------------------------------------------------------------------
      1         14           0       -0.394347   -0.017892    0.682701
      2          6           0        0.786284    1.406663    0.279306
      3          6           0        1.829055    0.748818   -0.658463
      4          1           0        1.267296    1.739231    1.207153
      5          1           0        0.307737    2.279445   -0.168958
      6          6           0        2.095501   -0.689506   -0.167556
      7          1           0        2.755534    1.329025   -0.706405
      8          1           0        1.427445    0.710922   -1.677799
      9          6           0        0.737541   -1.402851    0.062054
     10          1           0        2.648216   -0.645928    0.778409
     11          1           0        2.724760   -1.239399   -0.873627
     12          1           0        0.349687   -1.796800   -0.883562
     13          1           0        0.817016   -2.248045    0.749001
     14         16           0       -2.240903   -0.065973   -0.465485
     15          1           0       -2.868862    0.883186    0.251625
     16          1           0       -0.743816   -0.084313    2.122077
 ---------------------------------------------------------------------

 SCF Done:  E(RHF) =  -845.017601349     A.U. after    2 cycles

 The electronic state is 1-A.
 Alpha  occ. eigenvalues --  -76.22116 -75.67717 -13.13861 -13.06477 -13.03271
 Alpha  occ. eigenvalues --  -11.42098 -11.39978 -11.35471 -11.34213  -8.01664
 Alpha  occ. eigenvalues --   -5.55918  -2.19863  -2.19102  -2.17874  -1.25785
 Alpha  occ. eigenvalues --   -1.09400  -1.05030  -0.93521  -0.81297  -0.69843
 Alpha  occ. eigenvalues --   -0.63959  -0.62341  -0.58716  -0.53436  -0.49496
 Alpha  occ. eigenvalues --   -0.47351  -0.45611  -0.44548  -0.41957  -0.37392
 Alpha  occ. eigenvalues --   -0.33070  -0.26235
 Alpha virt. eigenvalues --    0.03385   0.04454   0.05243   0.05489   0.05929
 Alpha virt. eigenvalues --    0.06045   0.06303   0.06317   0.06755   0.08677
 Alpha virt. eigenvalues --    0.09287   0.09517   0.11252   0.12517   0.13396

 Mulliken charges:
               1
     1  Si   5.539499
     2  C   -3.478673
     3  C   -2.608542
     4  H    1.408117
     5  H    1.213111
     6  C   -2.813030
     7  H    1.272022
     8  H    1.368721
     9  C   -3.622903
    10  H    1.343910
    11  H    1.279470
    12  H    1.321606
    13  H    1.298758
    14  S   -2.611789
    15  H    0.991924
    16  H   -1.902200
 Sum of Mulliken charges =   0.00000

 Dipole moment (field-independent basis, Debye):
    X=              0.5351    Y=             -0.6607    Z=             -1.3383  Tot=              1.5855

 Test job not archived.
 1\1\GINC-SE166\SP\RHF\Aug-CC-pVDZ\C4H10S1Si1\OHZDE\09-Apr-2025\0\\#t h
 f aug-cc-pvdz iop(5/13=1,5/36=2,99/5=2) pseudo=read geom=check guess=(
 read,tcheck) scf=(maxcycle=1)\\title\\0,1\Si,0,-0.394347,-0.017892,0.6
 82701\C,0,0.786284,1.406663,0.279306\C,0,1.829055,0.748818,-0.658463\H
 ,0,1.267296,1.739231,1.207153\H,0,0.307737,2.279445,-0.168958\C,0,2.09
 5501,-0.689506,-0.167556\H,0,2.755534,1.329025,-0.706405\H,0,1.427445,
 0.710922,-1.677799\C,0,0.737541,-1.402851,0.062054\H,0,2.648216,-0.645
 928,0.778409\H,0,2.72476,-1.239399,-0.873627\H,0,0.349687,-1.7968,-0.8

 Normal termination of Gaussian 16 at Wed Apr  9 00:15:32 2025.
