 Gaussian 16, Revision C.01,

 ----------------------------------------------------------------------
 #t hf aug-cc-pvdz symm=none int=(grid=ultrafine) guess=(read,tcheck) s
 table=(opt,rrhf)
 ----------------------------------------------------------------------
 -----
 title
 -----
 Symbolic Z-matrix:
 Charge =  0 Multiplicity = 1

 SCF Done:  E(RHF) =  -890.612797830     A.U. after   11 cycles
 Normal termination of Gaussian 16 at Tue Apr  8 23:01:56 2025.
 Gaussian 16:  ES64L-G16RevC.01  3-Jul-2019

 ----------------------------------------------------------------------
 #t hf aug-cc-pvdz iop(5/13=1,5/36=2,99/5=2) pseudo=read geom=check gue
 ss=(read,tcheck) scf=(maxcycle=1)
 ----------------------------------------------------------------------
 -----
 title
 -----
 Structure from the checkpoint file:  "BDE49_expt_1911_mol1.chk"
 Charge =  0 Multiplicity = 1

                         Standard orientation:
 ---------------------------------------------------------------------
 Center     Atomic      Atomic             Coordinates (Angstroms)
 Number     Number       Type             X           Y           Z
 ---------------------------------------------------------------------
      1         14           0        1.628996   -0.000000    0.029175
      2          8           0        0.000000   -0.000001    0.255255
      3          6           0        2.448321   -0.000205    1.715971
      4          6           0        2.123602    1.537239   -0.929202
      5          6           0        2.123559   -1.537034   -0.929555
      6         14           0       -1.628996    0.000000    0.029175
      7          1           0        1.828204   -2.446816   -0.398405
      8          1           0        3.207685   -1.575418   -1.077831
      9          1           0        1.653220   -1.559738   -1.917328
     10          1           0        2.160048    0.883336    2.293191
     11          1           0        3.539477   -0.000206    1.626905
     12          1           0        1.828284    2.446908   -0.397836
     13          1           0        1.653251    1.560190   -1.916964
     14          1           0        2.160031   -0.883874    2.292987
     15          1           0        3.207727    1.575620   -1.077481
     16          6           0       -2.448321    0.000173    1.715971
     17          1           0       -2.160047   -0.883378    2.293176
     18          1           0       -3.539476    0.000175    1.626905
     19          1           0       -2.160031    0.883833    2.293003
     20          6           0       -2.123600   -1.537222   -0.929229
     21          1           0       -1.828282   -2.446901   -0.397880
     22          1           0       -1.653250   -1.560155   -1.916991
     23          1           0       -3.207726   -1.575602   -1.077509
     24          6           0       -2.123561    1.537050   -0.929527
     25          1           0       -1.828206    2.446824   -0.398360
     26          1           0       -3.207687    1.575436   -1.077802
     27          1           0       -1.653222    1.559773   -1.917299
 ---------------------------------------------------------------------

 SCF Done:  E(RHF) =  -892.518635001     A.U. after    2 cycles

 The electronic state is 1-A.
 Alpha  occ. eigenvalues --  -76.20038 -76.20023 -21.02014 -11.34141 -11.34095
 Alpha  occ. eigenvalues --  -11.33711 -11.33624 -11.33522 -11.33499  -5.54787
 Alpha  occ. eigenvalues --   -5.53875  -2.24322  -2.18998  -2.17756  -2.17378
 Alpha  occ. eigenvalues --   -2.17160  -2.17134  -1.63488  -1.07287  -1.05351
 Alpha  occ. eigenvalues --   -1.00492  -1.00411  -1.00307  -1.00207  -0.69823
 Alpha  occ. eigenvalues --   -0.59595  -0.56825  -0.56309  -0.56242  -0.55817
 Alpha  occ. eigenvalues --   -0.55667  -0.55182  -0.54578  -0.54338  -0.53632
 Alpha  occ. eigenvalues --   -0.53621  -0.52800  -0.52404  -0.44707  -0.44680
 Alpha  occ. eigenvalues --   -0.42761  -0.38990  -0.38783  -0.34580  -0.34486
 Alpha virt. eigenvalues --    0.02817   0.04479   0.05587   0.05713   0.05715
 Alpha virt. eigenvalues --    0.05742   0.05942   0.05970   0.06127   0.07332
 Alpha virt. eigenvalues --    0.07627   0.07839   0.07976   0.08090   0.08263

 Mulliken charges:
               1
     1  Si  12.715337
     2  O   -9.023392
     3  C   -6.282035
     4  C   -6.331182
     5  C   -6.331130
     6  Si  12.715341
     7  H    1.189706
     8  H    1.216594
     9  H    1.169789
    10  H    1.148158
    11  H    1.292267
    12  H    1.189687
    13  H    1.169814
    14  H    1.148080
    15  H    1.216611
    16  C   -6.282035
    17  H    1.148157
    18  H    1.292268
    19  H    1.148079
    20  C   -6.331185
    21  H    1.189687
    22  H    1.169816
    23  H    1.216610
    24  C   -6.331129
    25  H    1.189704
    26  H    1.216594
    27  H    1.169789
 Sum of Mulliken charges =  -0.00000

 Dipole moment (field-independent basis, Debye):
    X=             -0.0000    Y=             -0.0000    Z=              0.0368  Tot=              0.0368

 Test job not archived.
 1\1\GINC-SE424\SP\RHF\Aug-CC-pVDZ\C6H18O1Si2\OHZDE\08-Apr-2025\0\\#t h
 f aug-cc-pvdz iop(5/13=1,5/36=2,99/5=2) pseudo=read geom=check guess=(
 read,tcheck) scf=(maxcycle=1)\\title\\0,1\Si,0,1.628996,0.,0.029175\O,
 0,0.,-0.000001,0.255255\C,0,2.448321,-0.000205,1.715971\C,0,2.123602,1
 .537239,-0.929202\C,0,2.123559,-1.537034,-0.929555\Si,0,-1.628996,0.,0
 .029175\H,0,1.828204,-2.446816,-0.398405\H,0,3.207685,-1.575418,-1.077
 831\H,0,1.65322,-1.559738,-1.917328\H,0,2.160048,0.883336,2.293191\H,0
 ,3.539477,-0.000206,1.626905\H,0,1.828284,2.446908,-0.397836\H,0,1.653

 Normal termination of Gaussian 16 at Tue Apr  8 23:02:14 2025.
