 Gaussian 16, Revision C.01,

 ----------------------------------------------------------------------
 #t hf aug-cc-pvdz symm=none int=(grid=ultrafine) guess=(read,tcheck) s
 table=(opt,rrhf)
 ----------------------------------------------------------------------
 -----
 title
 -----
 Symbolic Z-matrix:
 Charge =  0 Multiplicity = 1

 SCF Done:  E(RHF) =  -667.579332935     A.U. after   14 cycles
 Normal termination of Gaussian 16 at Tue Apr  8 23:06:24 2025.
 Gaussian 16:  ES64L-G16RevC.01  3-Jul-2019

 ----------------------------------------------------------------------
 #t hf aug-cc-pvdz iop(5/13=1,5/36=2,99/5=2) pseudo=read geom=check gue
 ss=(read,tcheck) scf=(maxcycle=1)
 ----------------------------------------------------------------------
 -----
 title
 -----
 Structure from the checkpoint file:  "BDE49_expt_386_mol1.chk"
 Charge =  0 Multiplicity = 1

                         Standard orientation:
 ---------------------------------------------------------------------
 Center     Atomic      Atomic             Coordinates (Angstroms)
 Number     Number       Type             X           Y           Z
 ---------------------------------------------------------------------
      1          8           0        0.638684   -1.308491   -0.540361
      2          6           0        1.619246   -0.976586    0.435770
      3          6           0        1.984768    0.490211    0.222484
      4          1           0        2.464528   -1.646135    0.267351
      5          1           0        1.237601   -1.132225    1.452729
      6         16           0        0.373013    1.299806   -0.103534
      7          1           0        2.648306    0.615993   -0.633979
      8          1           0        2.438244    0.935308    1.108799
      9          6           0       -0.399601   -0.347622   -0.579600
     10          6           0       -1.580497   -0.717716    0.316068
     11          1           0       -0.720756   -0.281150   -1.621359
     12          6           0       -2.759703    0.249695    0.194296
     13          1           0       -1.243170   -0.771018    1.355370
     14          1           0       -1.891292   -1.727087    0.022762
     15          1           0       -2.485215    1.255049    0.524649
     16          1           0       -3.599189   -0.083643    0.808803
     17          1           0       -3.112009    0.318059   -0.839794
 ---------------------------------------------------------------------

 SCF Done:  E(RHF) =  -669.109977019     A.U. after    2 cycles

 The electronic state is 1-A.
 Alpha  occ. eigenvalues --  -75.66945 -21.05480 -13.12056 -13.10309 -13.02258
 Alpha  occ. eigenvalues --  -11.47957 -11.45204 -11.39988 -11.39219 -11.35891
 Alpha  occ. eigenvalues --   -8.00999  -1.77607  -1.22057  -1.18113  -1.06365
 Alpha  occ. eigenvalues --   -0.92459  -0.86170  -0.81216  -0.68338  -0.65565
 Alpha  occ. eigenvalues --   -0.62569  -0.59411  -0.56380  -0.53585  -0.51174
 Alpha  occ. eigenvalues --   -0.49107  -0.47031  -0.43284  -0.40703  -0.33745
 Alpha  occ. eigenvalues --   -0.29701  -0.22628
 Alpha virt. eigenvalues --    0.03791   0.04407   0.05424   0.05539   0.05774
 Alpha virt. eigenvalues --    0.06033   0.06529   0.06951   0.07891   0.08953
 Alpha virt. eigenvalues --    0.09731   0.11831   0.12423   0.13211   0.14100

 Mulliken charges:
               1
     1  O   -3.351296
     2  C   -1.745248
     3  C   -3.795739
     4  H    1.278036
     5  H    1.641897
     6  S    0.955658
     7  H    1.463832
     8  H    1.384242
     9  C    1.021608
    10  C   -3.777317
    11  H    1.816194
    12  C   -3.684578
    13  H    1.602151
    14  H    1.405417
    15  H    1.359371
    16  H    1.141632
    17  H    1.284139
 Sum of Mulliken charges =  -0.00000

 Dipole moment (field-independent basis, Debye):
    X=              0.1865    Y=              0.4883    Z=              0.2635  Tot=              0.5854

 Test job not archived.
 1\1\GINC-SE072\SP\RHF\Aug-CC-pVDZ\C5H10O1S1\OHZDE\08-Apr-2025\0\\#t hf
  aug-cc-pvdz iop(5/13=1,5/36=2,99/5=2) pseudo=read geom=check guess=(r
 ead,tcheck) scf=(maxcycle=1)\\title\\0,1\O,0,0.638684,-1.308491,-0.540
 361\C,0,1.619246,-0.976586,0.43577\C,0,1.984768,0.490211,0.222484\H,0,
 2.464528,-1.646135,0.267351\H,0,1.237601,-1.132225,1.452729\S,0,0.3730
 13,1.299806,-0.103534\H,0,2.648306,0.615993,-0.633979\H,0,2.438244,0.9
 35308,1.108799\C,0,-0.399601,-0.347622,-0.5796\C,0,-1.580497,-0.717716
 ,0.316068\H,0,-0.720756,-0.28115,-1.621359\C,0,-2.759703,0.249695,0.19

 Normal termination of Gaussian 16 at Tue Apr  8 23:06:30 2025.
