 Gaussian 16, Revision C.01,

 ----------------------------------------------------------------------
 #t hf aug-cc-pvdz symm=none int=(grid=ultrafine) guess=(read,tcheck) s
 table=(opt,rrhf)
 ----------------------------------------------------------------------
 -----
 title
 -----
 Symbolic Z-matrix:
 Charge =  0 Multiplicity = 1

 SCF Done:  E(RHF) =  -1045.14715721     A.U. after   13 cycles
 Normal termination of Gaussian 16 at Tue Apr  8 23:36:13 2025.
 Gaussian 16:  ES64L-G16RevC.01  3-Jul-2019

 ----------------------------------------------------------------------
 #t hf aug-cc-pvdz iop(5/13=1,5/36=2,99/5=2) pseudo=read geom=check gue
 ss=(read,tcheck) scf=(maxcycle=1)
 ----------------------------------------------------------------------
 -----
 title
 -----
 Structure from the checkpoint file:  "BDE49_nonexpt_1500_mol1.chk"
 Charge =  0 Multiplicity = 1

                         Standard orientation:
 ---------------------------------------------------------------------
 Center     Atomic      Atomic             Coordinates (Angstroms)
 Number     Number       Type             X           Y           Z
 ---------------------------------------------------------------------
      1         15           0        0.371660    0.351424   -0.810404
      2          7           0       -1.246674    0.202546   -0.210229
      3          8           0       -1.404752    0.374469    1.188362
      4          6           0        0.846813    1.881016    0.086486
      5          1           0        0.674560    1.792696    1.157671
      6          1           0        0.256431    2.706004   -0.322205
      7         17           0        1.447079   -1.085494    0.377479
      8          1           0        1.902301    2.072063   -0.114996
      9          1           0       -2.253660    0.830712    1.258411
     10          8           0       -1.818706   -1.026330   -0.586686
     11          1           0       -1.321377   -1.708476   -0.100680
 ---------------------------------------------------------------------

 SCF Done:  E(RHF) =  -1046.64374454     A.U. after    2 cycles

 The electronic state is 1-A.
 Alpha  occ. eigenvalues -- -105.24751 -99.88320 -21.11993 -21.11550 -15.81538
 Alpha  occ. eigenvalues --  -11.39187 -10.45547  -9.65444  -9.64816  -9.64758
 Alpha  occ. eigenvalues --   -2.83164  -1.88407  -1.69791  -1.57142  -1.53979
 Alpha  occ. eigenvalues --   -1.49319  -1.22988  -1.06247  -0.99635  -0.72714
 Alpha  occ. eigenvalues --   -0.69179  -0.60380  -0.59558  -0.57336  -0.53840
 Alpha  occ. eigenvalues --   -0.51834  -0.51565  -0.49867  -0.38588  -0.36484
 Alpha  occ. eigenvalues --   -0.32933  -0.24786  -0.04809
 Alpha virt. eigenvalues --    0.04189   0.05624   0.06237   0.06919   0.07125
 Alpha virt. eigenvalues --    0.08971   0.09861   0.11433   0.11862   0.14438
 Alpha virt. eigenvalues --    0.15359   0.16035   0.16576   0.17119   0.17475

 Mulliken charges:
               1
     1  P    5.070864
     2  N    1.956259
     3  O   -2.588328
     4  C   -5.809820
     5  H    1.216012
     6  H    1.078308
     7  Cl  -1.322700
     8  H    1.128909
     9  H    0.885661
    10  O   -2.316007
    11  H    0.700841
 Sum of Mulliken charges =  -0.00000

 Dipole moment (field-independent basis, Debye):
    X=             -2.1492    Y=              0.2006    Z=             -2.0303  Tot=              2.9634

 Test job not archived.
 1\1\GINC-SE333\SP\RHF\Aug-CC-pVDZ\C1H5Cl1N1O2P1\OHZDE\08-Apr-2025\0\\#
 t hf aug-cc-pvdz iop(5/13=1,5/36=2,99/5=2) pseudo=read geom=check gues
 s=(read,tcheck) scf=(maxcycle=1)\\title\\0,1\P,0,0.37166,0.351424,-0.8
 10404\N,0,-1.246674,0.202546,-0.210229\O,0,-1.404752,0.37447,1.188362\
 C,0,0.846814,1.881016,0.086486\H,0,0.674561,1.792696,1.157671\H,0,0.25
 6432,2.706004,-0.322205\Cl,0,1.447079,-1.085494,0.377479\H,0,1.902302,
 2.072063,-0.114996\H,0,-2.25366,0.830713,1.258411\O,0,-1.818706,-1.026
 329,-0.586686\H,0,-1.321377,-1.708475,-0.10068\\Version=ES64L-G16RevC.

 Normal termination of Gaussian 16 at Tue Apr  8 23:36:17 2025.
