 Gaussian 16, Revision C.01,

 ----------------------------------------------------------------------
 #t hf aug-cc-pvdz symm=none int=(grid=ultrafine) guess=(read,tcheck) s
 table=(opt,rrhf)
 ----------------------------------------------------------------------
 -----
 title
 -----
 Symbolic Z-matrix:
 Charge =  0 Multiplicity = 1

 SCF Done:  E(RHF) =  -471.051525844     A.U. after   14 cycles
 Normal termination of Gaussian 16 at Tue Apr  8 23:30:16 2025.
 Gaussian 16:  ES64L-G16RevC.01  3-Jul-2019

 ----------------------------------------------------------------------
 #t hf aug-cc-pvdz iop(5/13=1,5/36=2,99/5=2) pseudo=read geom=check gue
 ss=(read,tcheck) scf=(maxcycle=1)
 ----------------------------------------------------------------------
 -----
 title
 -----
 Structure from the checkpoint file:  "BDE49_nonexpt_135_mol1.chk"
 Charge =  0 Multiplicity = 1

                         Standard orientation:
 ---------------------------------------------------------------------
 Center     Atomic      Atomic             Coordinates (Angstroms)
 Number     Number       Type             X           Y           Z
 ---------------------------------------------------------------------
      1          5           0       -2.668512   -0.147507    0.187949
      2          5           0       -1.216234   -0.883650    0.012614
      3         15           0        0.369309   -0.047556   -0.456551
      4          6           0        0.461622    1.690177    0.176565
      5          1           0        0.488457    1.737497    1.267269
      6          1           0       -0.410030    2.243610   -0.179278
      7          1           0        1.354724    2.178477   -0.219356
      8          6           0        1.819220   -0.897870    0.319022
      9          1           0        1.766354   -1.961874    0.082346
     10          1           0        1.840771   -0.777950    1.404161
     11          1           0        2.746237   -0.499147   -0.098858
     12          1           0       -1.125221   -2.077838    0.044163
     13          1           0       -3.323594    0.289925   -0.711713
     14          1           0       -3.138659   -0.017414    1.283192
 ---------------------------------------------------------------------

 SCF Done:  E(RHF) =  -471.905423952     A.U. after    2 cycles

 The electronic state is 1-A.
 Alpha  occ. eigenvalues -- -105.14786 -11.37688 -11.37471  -7.59326  -7.58323
 Alpha  occ. eigenvalues --   -2.73802  -1.52131  -1.47150  -1.40799  -1.05230
 Alpha  occ. eigenvalues --   -0.96728  -0.90120  -0.71870  -0.58859  -0.57253
 Alpha  occ. eigenvalues --   -0.56782  -0.55993  -0.55493  -0.47516  -0.40992
 Alpha  occ. eigenvalues --   -0.20182  -0.13177  -0.03538
 Alpha virt. eigenvalues --    0.02408   0.03073   0.03458   0.04164   0.06759
 Alpha virt. eigenvalues --    0.06971   0.07502   0.07967   0.08232   0.08261
 Alpha virt. eigenvalues --    0.08872   0.09477   0.09889   0.11420   0.12121

 Mulliken charges:
               1
     1  B    4.856678
     2  B    1.145052
     3  P    5.946533
     4  C   -6.424924
     5  H    1.289938
     6  H    1.329346
     7  H    1.136765
     8  C   -6.182213
     9  H    1.281465
    10  H    1.299165
    11  H    1.159322
    12  H   -2.038631
    13  H   -2.424141
    14  H   -2.374354
 Sum of Mulliken charges =   0.00000

 Dipole moment (field-independent basis, Debye):
    X=              8.2006    Y=              2.9733    Z=             -3.1405  Tot=              9.2711

 Test job not archived.
 1\1\GINC-SE460\SP\RHF\Aug-CC-pVDZ\C2H9B2P1\OHZDE\08-Apr-2025\0\\#t hf
 aug-cc-pvdz iop(5/13=1,5/36=2,99/5=2) pseudo=read geom=check guess=(re
 ad,tcheck) scf=(maxcycle=1)\\title\\0,1\B,0,-2.668512,-0.147507,0.1879
 49\B,0,-1.216234,-0.88365,0.012614\P,0,0.369309,-0.047556,-0.456551\C,
 0,0.461622,1.690177,0.176565\H,0,0.488457,1.737497,1.267269\H,0,-0.410
 03,2.24361,-0.179278\H,0,1.354724,2.178477,-0.219356\C,0,1.81922,-0.89
 787,0.319022\H,0,1.766354,-1.961874,0.082346\H,0,1.840771,-0.77795,1.4
 04161\H,0,2.746237,-0.499146,-0.098858\H,0,-1.125221,-2.077838,0.04416

 Normal termination of Gaussian 16 at Tue Apr  8 23:30:19 2025.
