 Gaussian 16, Revision C.01,

 ----------------------------------------------------------------------
 #t hf aug-cc-pvdz symm=none int=(grid=ultrafine) guess=(read,tcheck) s
 table=(opt,rrhf)
 ----------------------------------------------------------------------
 -----
 title
 -----
 Symbolic Z-matrix:
 Charge =  0 Multiplicity = 1

 SCF Done:  E(RHF) =  -522.306687868     A.U. after   12 cycles
 Normal termination of Gaussian 16 at Wed Apr  9 00:06:01 2025.
 Gaussian 16:  ES64L-G16RevC.01  3-Jul-2019

 ----------------------------------------------------------------------
 #t hf aug-cc-pvdz iop(5/13=1,5/36=2,99/5=2) pseudo=read geom=check gue
 ss=(read,tcheck) scf=(maxcycle=1)
 ----------------------------------------------------------------------
 -----
 title
 -----
 Structure from the checkpoint file:  "BDE49_nonexpt_2216_mol1.chk"
 Charge =  0 Multiplicity = 1

                         Standard orientation:
 ---------------------------------------------------------------------
 Center     Atomic      Atomic             Coordinates (Angstroms)
 Number     Number       Type             X           Y           Z
 ---------------------------------------------------------------------
      1          6           0        3.352872   -0.553379   -0.133925
      2          6           0        1.908982   -0.402265    0.351915
      3          1           0        3.824736   -1.442838    0.292092
      4          1           0        3.961478    0.312107    0.147383
      5          1           0        3.394764   -0.646059   -1.223628
      6          6           0        1.211563    0.834812   -0.222651
      7          1           0        1.894377   -0.346513    1.447631
      8          1           0        1.330328   -1.289295    0.079767
      9          6           0       -0.236753    0.984857    0.221314
     10          1           0        1.234117    0.798322   -1.317834
     11          1           0        1.752880    1.741868    0.075265
     12          8           0       -1.000370   -0.124795   -0.260579
     13          1           0       -0.656089    1.920135   -0.171685
     14          1           0       -0.295155    1.025475    1.318198
     15         14           0       -2.611931   -0.354157   -0.004230
     16          1           0       -2.961809   -1.618035   -0.680286
     17          1           0       -3.409234    0.764671   -0.568485
     18          1           0       -2.920386   -0.447430    1.445514
 ---------------------------------------------------------------------

 SCF Done:  E(RHF) =  -523.603208662     A.U. after    2 cycles

 The electronic state is 1-A.
 Alpha  occ. eigenvalues --  -76.23172 -21.03861 -11.44336 -11.40537 -11.37553
 Alpha  occ. eigenvalues --  -11.34374  -5.56776  -2.23633  -2.18534  -2.18208
 Alpha  occ. eigenvalues --   -1.69509  -1.21804  -1.05419  -0.90582  -0.82363
 Alpha  occ. eigenvalues --   -0.75257  -0.64597  -0.62477  -0.59319  -0.56523
 Alpha  occ. eigenvalues --   -0.52694  -0.50242  -0.48230  -0.47831  -0.45760
 Alpha  occ. eigenvalues --   -0.44332  -0.43856  -0.35744  -0.34420
 Alpha virt. eigenvalues --    0.04226   0.04952   0.05233   0.05514   0.05790
 Alpha virt. eigenvalues --    0.05857   0.06409   0.06697   0.07003   0.07867
 Alpha virt. eigenvalues --    0.08739   0.09082   0.10127   0.11081   0.11392

 Mulliken charges:
               1
     1  C   -3.904050
     2  C   -2.858462
     3  H    1.103898
     4  H    1.293980
     5  H    1.286842
     6  C   -2.669932
     7  H    1.424767
     8  H    1.630951
     9  C   -1.531383
    10  H    1.550029
    11  H    1.432988
    12  O   -3.196982
    13  H    1.364985
    14  H    1.661145
    15  Si   6.434272
    16  H   -1.667377
    17  H   -1.686249
    18  H   -1.669422
 Sum of Mulliken charges =   0.00000

 Dipole moment (field-independent basis, Debye):
    X=              0.9182    Y=              0.3325    Z=              0.0376  Tot=              0.9773

 Test job not archived.
 1\1\GINC-SE364\SP\RHF\Aug-CC-pVDZ\C4H12O1Si1\OHZDE\09-Apr-2025\0\\#t h
 f aug-cc-pvdz iop(5/13=1,5/36=2,99/5=2) pseudo=read geom=check guess=(
 read,tcheck) scf=(maxcycle=1)\\title\\0,1\C,0,3.352872,-0.553379,-0.13
 3925\C,0,1.908982,-0.402265,0.351915\H,0,3.824736,-1.442838,0.292092\H
 ,0,3.961478,0.312107,0.147383\H,0,3.394764,-0.646059,-1.223628\C,0,1.2
 11563,0.834812,-0.222651\H,0,1.894377,-0.346513,1.447631\H,0,1.330328,
 -1.289295,0.079767\C,0,-0.236753,0.984857,0.221314\H,0,1.234117,0.7983
 22,-1.317834\H,0,1.75288,1.741868,0.075265\O,0,-1.00037,-0.124795,-0.2

 Normal termination of Gaussian 16 at Wed Apr  9 00:06:06 2025.
