 Gaussian 16, Revision C.01,

 ----------------------------------------------------------------------
 #t hf aug-cc-pvdz symm=none int=(grid=ultrafine) guess=(read,tcheck) s
 table=(opt,rrhf)
 ----------------------------------------------------------------------
 -----
 title
 -----
 Symbolic Z-matrix:
 Charge =  0 Multiplicity = 1

 SCF Done:  E(RHF) =  -665.237610054     A.U. after   15 cycles
 Normal termination of Gaussian 16 at Wed Apr  9 00:23:10 2025.
 Gaussian 16:  ES64L-G16RevC.01  3-Jul-2019

 ----------------------------------------------------------------------
 #t hf aug-cc-pvdz iop(5/13=1,5/36=2,99/5=2) pseudo=read geom=check gue
 ss=(read,tcheck) scf=(maxcycle=1)
 ----------------------------------------------------------------------
 -----
 title
 -----
 Structure from the checkpoint file:  "BDE49_nonexpt_2675_mol1.chk"
 Charge =  0 Multiplicity = 1

                         Standard orientation:
 ---------------------------------------------------------------------
 Center     Atomic      Atomic             Coordinates (Angstroms)
 Number     Number       Type             X           Y           Z
 ---------------------------------------------------------------------
      1          9           0       -2.103322    0.740824   -0.204245
      2         16           0       -1.118751   -0.580445    0.098907
      3          6           0        0.405819    0.247300    0.244171
      4          7           0        1.409457   -0.312938   -0.312300
      5          1           0        0.476151    1.134825    0.872394
      6          8           0        2.599221    0.296280    0.069114
      7          1           0        3.258875   -0.178596   -0.448541
 ---------------------------------------------------------------------

 SCF Done:  E(RHF) =  -666.514306318     A.U. after    2 cycles

 The electronic state is 1-A.
 Alpha  occ. eigenvalues --  -75.77938 -29.28216 -21.12918 -15.82312 -13.22427
 Alpha  occ. eigenvalues --  -13.18225 -13.09139 -11.45665  -8.12010  -1.82333
 Alpha  occ. eigenvalues --   -1.33819  -1.17881  -0.85381  -0.73668  -0.63983
 Alpha  occ. eigenvalues --   -0.62022  -0.55889  -0.50976  -0.42676  -0.39574
 Alpha  occ. eigenvalues --   -0.36478  -0.32199  -0.29737  -0.18543
 Alpha virt. eigenvalues --    0.03972   0.05656   0.06609   0.09694   0.10652
 Alpha virt. eigenvalues --    0.12091   0.13873   0.14369   0.16433   0.16736
 Alpha virt. eigenvalues --    0.17589   0.18721   0.19541   0.21459   0.23313

 Mulliken charges:
               1
     1  F   -0.157537
     2  S    1.115355
     3  C   -0.973640
     4  N   -0.119523
     5  H    1.571891
     6  O   -2.322217
     7  H    0.885671
 Sum of Mulliken charges =  -0.00000

 Dipole moment (field-independent basis, Debye):
    X=             -1.4192    Y=              1.4327    Z=             -0.2617  Tot=              2.0335

 Test job not archived.
 1\1\GINC-SE186\SP\RHF\Aug-CC-pVDZ\C1H2F1N1O1S1\OHZDE\09-Apr-2025\0\\#t
  hf aug-cc-pvdz iop(5/13=1,5/36=2,99/5=2) pseudo=read geom=check guess
 =(read,tcheck) scf=(maxcycle=1)\\title\\0,1\F,0,-2.103322,0.740824,-0.
 204245\S,0,-1.118751,-0.580445,0.098907\C,0,0.405819,0.2473,0.244171\N
 ,0,1.409457,-0.312938,-0.3123\H,0,0.476151,1.134825,0.872394\O,0,2.599
 221,0.29628,0.069114\H,0,3.258875,-0.178596,-0.448541\\Version=ES64L-G
 16RevC.01\State=1-A\HF=-666.5143063\RMSD=7.802e-02\Dipole=-0.5583586,0
 .5636582,-0.1029446\Quadrupole=5.9314637,-1.9444689,-3.9869948,-1.2829

 Normal termination of Gaussian 16 at Wed Apr  9 00:23:12 2025.
