 Gaussian 16, Revision C.01,

 ----------------------------------------------------------------------
 #t hf aug-cc-pvdz symm=none int=(grid=ultrafine) guess=(read,tcheck) s
 table=(opt,rrhf)
 ----------------------------------------------------------------------
 -----
 title
 -----
 Symbolic Z-matrix:
 Charge =  0 Multiplicity = 1

 SCF Done:  E(RHF) =  -168.963643886     A.U. after   12 cycles
 Normal termination of Gaussian 16 at Tue Apr  8 23:07:42 2025.
 Gaussian 16:  ES64L-G16RevC.01  3-Jul-2019

 ----------------------------------------------------------------------
 #t hf aug-cc-pvdz iop(5/13=1,5/36=2,99/5=2) pseudo=read geom=check gue
 ss=(read,tcheck) scf=(maxcycle=1)
 ----------------------------------------------------------------------
 -----
 title
 -----
 Structure from the checkpoint file:  "BDE49_expt_423_mol1.chk"
 Charge =  0 Multiplicity = 1

                         Standard orientation:
 ---------------------------------------------------------------------
 Center     Atomic      Atomic             Coordinates (Angstroms)
 Number     Number       Type             X           Y           Z
 ---------------------------------------------------------------------
      1          6           0       -0.163748    0.385428   -0.000013
      2          8           0       -1.195884   -0.245287    0.000005
      3          7           0        1.084335   -0.157259    0.000000
      4          1           0        1.183351   -1.161018    0.000013
      5          1           0        1.909315    0.418370    0.000017
      6          1           0       -0.133447    1.493193    0.000006
 ---------------------------------------------------------------------

 SCF Done:  E(RHF) =  -169.696857315     A.U. after    2 cycles

 The electronic state is 1-A.
 Alpha  occ. eigenvalues --  -21.03490 -15.78872 -11.48537  -1.70267  -1.34708
 Alpha  occ. eigenvalues --   -0.87157  -0.73402  -0.63549  -0.53222  -0.50473
 Alpha  occ. eigenvalues --   -0.33046  -0.29899
 Alpha virt. eigenvalues --    0.03177   0.04897   0.05844   0.11193   0.12270
 Alpha virt. eigenvalues --    0.12539   0.15430   0.17089   0.17232   0.19977
 Alpha virt. eigenvalues --    0.20010   0.24081   0.26422   0.27031   0.31370

 Mulliken charges:
               1
     1  C    2.064842
     2  O   -2.539983
     3  N   -2.341388
     4  H    0.597759
     5  H    0.751735
     6  H    1.467036
 Sum of Mulliken charges =   0.00000

 Dipole moment (field-independent basis, Debye):
    X=              2.6154    Y=              0.4173    Z=              0.0000  Tot=              2.6485

 Test job not archived.
 1\1\GINC-SE336\SP\RHF\Aug-CC-pVDZ\C1H3N1O1\OHZDE\08-Apr-2025\0\\#t hf
 aug-cc-pvdz iop(5/13=1,5/36=2,99/5=2) pseudo=read geom=check guess=(re
 ad,tcheck) scf=(maxcycle=1)\\title\\0,1\C,0,-0.163748,0.385428,-0.0000
 13\O,0,-1.195884,-0.245288,0.000005\N,0,1.084335,-0.157259,0.\H,0,1.18
 3352,-1.161018,0.000013\H,0,1.909315,0.418371,0.000017\H,0,-0.133447,1
 .493193,0.000006\\Version=ES64L-G16RevC.01\State=1-A\HF=-169.6968573\R
 MSD=5.115e-02\Dipole=1.0289662,0.1641918,0.000018\Quadrupole=0.0005075
 ,1.1276309,-1.1281384,-0.5431477,0.0000612,-0.0000093\PG=C01 [X(C1H3N1

 Normal termination of Gaussian 16 at Tue Apr  8 23:07:43 2025.
