 Gaussian 16, Revision C.01,

 ----------------------------------------------------------------------
 #t hf aug-cc-pvdz symm=none int=(grid=ultrafine) guess=(read,tcheck) s
 table=(opt,rrhf)
 ----------------------------------------------------------------------
 -----
 title
 -----
 Symbolic Z-matrix:
 Charge =  0 Multiplicity = 1

 SCF Done:  E(RHF) =  -1070.79232539     A.U. after   13 cycles
 Normal termination of Gaussian 16 at Tue Apr  8 22:36:23 2025.
 Gaussian 16:  ES64L-G16RevC.01  3-Jul-2019

 ----------------------------------------------------------------------
 #t hf aug-cc-pvdz iop(5/13=1,5/36=2,99/5=2) pseudo=read geom=check gue
 ss=(read,tcheck) scf=(maxcycle=1)
 ----------------------------------------------------------------------
 -----
 title
 -----
 Structure from the checkpoint file:  "BDE49_expt_1078_mol1.chk"
 Charge =  0 Multiplicity = 1

                         Standard orientation:
 ---------------------------------------------------------------------
 Center     Atomic      Atomic             Coordinates (Angstroms)
 Number     Number       Type             X           Y           Z
 ---------------------------------------------------------------------
      1          6           0       -0.547152   -0.719268    0.000235
      2          6           0        0.475358    0.394485    0.000569
      3          8           0        0.322746    1.558327    0.000120
      4         17           0        2.149061   -0.350126   -0.000283
      5         17           0       -2.228841   -0.111353   -0.000083
      6          1           0       -0.397276   -1.336318   -0.884883
      7          1           0       -0.397660   -1.336461    0.885317
 ---------------------------------------------------------------------

 SCF Done:  E(RHF) =  -1071.93845978     A.U. after    2 cycles

 The electronic state is 1-A.
 Alpha  occ. eigenvalues --  -99.91613 -99.90993 -21.12509 -11.57613 -11.48364
 Alpha  occ. eigenvalues --  -10.48891 -10.48266  -9.68741  -9.68133  -9.68048
 Alpha  occ. eigenvalues --   -9.67946  -9.67366  -9.67297  -1.78393  -1.37412
 Alpha  occ. eigenvalues --   -1.32259  -1.10608  -0.83366  -0.71764  -0.70390
 Alpha  occ. eigenvalues --   -0.64345  -0.58050  -0.57793  -0.53652  -0.50783
 Alpha  occ. eigenvalues --   -0.50097  -0.46911  -0.37150
 Alpha virt. eigenvalues --    0.02305   0.05306   0.05774   0.07130   0.08683
 Alpha virt. eigenvalues --    0.09805   0.11384   0.11706   0.12468   0.12567
 Alpha virt. eigenvalues --    0.13723   0.13837   0.15770   0.17390   0.17770

 Mulliken charges:
               1
     1  C   -3.232459
     2  C    2.212018
     3  O   -2.396828
     4  Cl  -0.108050
     5  Cl   0.189542
     6  H    1.667737
     7  H    1.668040
 Sum of Mulliken charges =  -0.00000

 Dipole moment (field-independent basis, Debye):
    X=             -0.8178    Y=             -0.2221    Z=              0.0004  Tot=              0.8474

 Test job not archived.
 1\1\GINC-SE329\SP\RHF\Aug-CC-pVDZ\C2H2Cl2O1\OHZDE\08-Apr-2025\0\\#t hf
  aug-cc-pvdz iop(5/13=1,5/36=2,99/5=2) pseudo=read geom=check guess=(r
 ead,tcheck) scf=(maxcycle=1)\\title\\0,1\C,0,0.547152,-0.719268,-0.000
 235\C,0,-0.475358,0.394485,-0.000569\O,0,-0.322746,1.558327,-0.00012\C
 l,0,-2.149061,-0.350126,0.000283\Cl,0,2.228841,-0.111353,0.000083\H,0,
 0.397276,-1.336318,0.884883\H,0,0.39766,-1.336461,-0.885317\\Version=E
 S64L-G16RevC.01\State=1-A\HF=-1071.9384598\RMSD=1.304e-01\Dipole=0.321
 7307,-0.0873935,-0.0001501\Quadrupole=-2.9896362,1.7086601,1.2809761,-

 Normal termination of Gaussian 16 at Tue Apr  8 22:36:25 2025.
