 Gaussian 16, Revision C.01,

 ----------------------------------------------------------------------
 #t hf aug-cc-pvdz symm=none int=(grid=ultrafine) guess=(read,tcheck) s
 table=opt
 ----------------------------------------------------------------------
 -----
 title
 -----
 Symbolic Z-matrix:
 Charge =  0 Multiplicity = 2

 SCF Done:  E(UHF) =  -876.864711257     A.U. after   17 cycles
 Normal termination of Gaussian 16 at Tue Apr  8 23:53:28 2025.
 Gaussian 16:  ES64L-G16RevC.01  3-Jul-2019

 ----------------------------------------------------------------------
 #t hf aug-cc-pvdz iop(5/13=1,5/36=2,99/5=2) pseudo=read geom=check gue
 ss=(read,tcheck) scf=(maxcycle=1)
 ----------------------------------------------------------------------
 -----
 title
 -----
 Structure from the checkpoint file:  "BDE49_nonexpt_1932_mol2.chk"
 Charge =  0 Multiplicity = 2

                         Standard orientation:
 ---------------------------------------------------------------------
 Center     Atomic      Atomic             Coordinates (Angstroms)
 Number     Number       Type             X           Y           Z
 ---------------------------------------------------------------------
      1         14           0       -1.800359    0.241780   -0.163246
      2         16           0        0.406106   -0.193722    0.034641
      3          1           0       -2.412172   -1.105113   -0.077266
      4          1           0       -2.213007    1.100442    0.978039
      5          8           0        0.625116   -0.567144    1.430830
      6          8           0        0.786593   -1.102460   -1.038737
      7          6           0        1.277883    1.359571   -0.240317
      8          1           0        0.947509    2.090073    0.497870
      9          1           0        1.086937    1.695190   -1.259061
     10          1           0        2.337094    1.133443   -0.103239
 ---------------------------------------------------------------------

 SCF Done:  E(UHF) =  -878.093662988     A.U. after    2 cycles

 The electronic state is 2-A.
 Alpha  occ. eigenvalues --  -76.28698 -75.87040 -21.03950 -21.03889 -13.48586
 Alpha  occ. eigenvalues --  -13.35683 -13.29174 -11.42301  -8.22039  -5.61884
 Alpha  occ. eigenvalues --   -2.23958  -2.23759  -2.22972  -1.81416  -1.63874
 Alpha  occ. eigenvalues --   -1.14850  -0.92827  -0.78768  -0.64019  -0.63151
 Alpha  occ. eigenvalues --   -0.58299  -0.53064  -0.51582  -0.44632  -0.39713
 Alpha  occ. eigenvalues --   -0.37951  -0.36412  -0.34389  -0.27951
 Alpha virt. eigenvalues --    0.02370   0.03830   0.05180   0.05493   0.06630
 Alpha virt. eigenvalues --    0.07301   0.07795   0.08729   0.10932   0.12044
 Alpha virt. eigenvalues --    0.12416   0.13748   0.14058   0.14945   0.15791

  Beta  occ. eigenvalues --  -76.28124 -75.87014 -21.03897 -21.03688 -13.48600
  Beta  occ. eigenvalues --  -13.35645 -13.29061 -11.42313  -8.22004  -5.60974
  Beta  occ. eigenvalues --   -2.23315  -2.23105  -2.19335  -1.81197  -1.63560
  Beta  occ. eigenvalues --   -1.14774  -0.91834  -0.74930  -0.63704  -0.63124
  Beta  occ. eigenvalues --   -0.57866  -0.52790  -0.50570  -0.43772  -0.38873
  Beta  occ. eigenvalues --   -0.37550  -0.34490  -0.32162
  Beta virt. eigenvalues --    0.00429   0.02981   0.04195   0.05304   0.05969
  Beta virt. eigenvalues --    0.06874   0.07939   0.08269   0.09180   0.11496
  Beta virt. eigenvalues --    0.12504   0.13101   0.14164   0.14949   0.15597

 Mulliken charges and spin densities:
               1          2
     1  Si   3.826450   0.925052
     2  S    4.143698  -0.023514
     3  H   -1.451659   0.014599
     4  H   -1.468066   0.033671
     5  O   -2.270213   0.042312
     6  O   -2.302060   0.005973
     7  C   -4.525071   0.011456
     8  H    1.338936  -0.001391
     9  H    1.366261  -0.006054
    10  H    1.341725  -0.002103
 Sum of Mulliken charges =   0.00000   1.00000

 Dipole moment (field-independent basis, Debye):
    X=             -0.8668    Y=              1.8761    Z=             -0.7925  Tot=              2.2134
                          Isotropic Fermi Contact Couplings
        Atom                 a.u.       MegaHertz       Gauss      10(-4) cm-1
     1  Si(29)             0.45957    -408.43402    -145.73941    -136.23892
     2  S(33)              0.07301      25.07836       8.94858       8.36524
     3  H(1)               0.00514      22.95748       8.19180       7.65779
     4  H(1)               0.00998      44.61882      15.92110      14.88324
     5  O(17)              0.02071     -12.55427      -4.47968      -4.18765
     6  O(17)             -0.00037       0.22630       0.08075       0.07549
     7  C(13)             -0.00328      -3.68730      -1.31572      -1.22995
     8  H(1)               0.00004       0.16806       0.05997       0.05606

 1\1\GINC-SE069\SP\UHF\Aug-CC-pVDZ\C1H5O2S1Si1(2)\OHZDE\08-Apr-2025\0\\
 #t hf aug-cc-pvdz iop(5/13=1,5/36=2,99/5=2) pseudo=read geom=check gue
 ss=(read,tcheck) scf=(maxcycle=1)\\title\\0,2\Si,0,-1.800359,0.24178,-
 0.163246\S,0,0.406106,-0.193722,0.034641\H,0,-2.412172,-1.105113,-0.07
 7266\H,0,-2.213007,1.100442,0.978039\O,0,0.625116,-0.567144,1.43083\O,
 0,0.786593,-1.10246,-1.038737\C,0,1.277883,1.359571,-0.240317\H,0,0.94
 7509,2.090073,0.49787\H,0,1.086937,1.69519,-1.259061\H,0,2.337094,1.13
 3443,-0.103239\\Version=ES64L-G16RevC.01\State=2-A\HF=-878.093663\S2=0

 Normal termination of Gaussian 16 at Tue Apr  8 23:53:32 2025.
