 Gaussian 16, Revision C.01,

 ----------------------------------------------------------------------
 #t hf aug-cc-pvdz symm=none int=(grid=ultrafine) guess=(read,tcheck) s
 table=opt
 ----------------------------------------------------------------------
 -----
 title
 -----
 Symbolic Z-matrix:
 Charge =  0 Multiplicity = 2

 SCF Done:  E(UHF) =  -511.968170517     A.U. after   19 cycles
 Normal termination of Gaussian 16 at Tue Apr  8 23:44:12 2025.
 Gaussian 16:  ES64L-G16RevC.01  3-Jul-2019

 ----------------------------------------------------------------------
 #t hf aug-cc-pvdz iop(5/13=1,5/36=2,99/5=2) pseudo=read geom=check gue
 ss=(read,tcheck) scf=(maxcycle=1)
 ----------------------------------------------------------------------
 -----
 title
 -----
 Structure from the checkpoint file:  "BDE49_nonexpt_1713_mol2.chk"
 Charge =  0 Multiplicity = 2

                         Standard orientation:
 ---------------------------------------------------------------------
 Center     Atomic      Atomic             Coordinates (Angstroms)
 Number     Number       Type             X           Y           Z
 ---------------------------------------------------------------------
      1         16           0        1.100078   -0.125470    0.000003
      2          8           0       -0.369330    0.606272   -0.000005
      3          6           0       -1.530795   -0.250720   -0.000001
      4          1           0       -2.391353    0.417867   -0.000017
      5          1           0       -1.535250   -0.878090    0.893501
      6          1           0       -1.535237   -0.878116   -0.893486
 ---------------------------------------------------------------------

 SCF Done:  E(UHF) =  -512.675431098     A.U. after    2 cycles

 The electronic state is 2-A.
 Alpha  occ. eigenvalues --  -75.74070 -21.09880 -13.19444 -13.06867 -13.06718
 Alpha  occ. eigenvalues --  -11.42001  -8.07466  -1.78736  -1.08421  -0.94548
 Alpha  occ. eigenvalues --   -0.63114  -0.62922  -0.54437  -0.44815  -0.41488
 Alpha  occ. eigenvalues --   -0.24911  -0.24785
 Alpha virt. eigenvalues --    0.03145   0.06036   0.06189   0.07047   0.09488
 Alpha virt. eigenvalues --    0.13059   0.13747   0.15422   0.15822   0.16300
 Alpha virt. eigenvalues --    0.18646   0.22118   0.24041   0.26035   0.28179

  Beta  occ. eigenvalues --  -75.73153 -21.09108 -13.19102 -13.06330 -13.01059
  Beta  occ. eigenvalues --  -11.42049  -8.06439  -1.77063  -1.04543  -0.89656
  Beta  occ. eigenvalues --   -0.62619  -0.62182  -0.53546  -0.40537  -0.38899
  Beta  occ. eigenvalues --   -0.23458
  Beta virt. eigenvalues --    0.03192   0.04852   0.06051   0.07341   0.07563
  Beta virt. eigenvalues --    0.09663   0.13163   0.15458   0.15848   0.16457
  Beta virt. eigenvalues --    0.18235   0.19117   0.22592   0.24720   0.27575

 Mulliken charges and spin densities:
               1          2
     1  S    0.949953   0.924074
     2  O   -2.188405   0.084651
     3  C   -2.469571   0.005762
     4  H    1.183792   0.000490
     5  H    1.262114  -0.007488
     6  H    1.262117  -0.007489
 Sum of Mulliken charges =   0.00000   1.00000

 Dipole moment (field-independent basis, Debye):
    X=             -0.4176    Y=             -0.2922    Z=              0.0000  Tot=              0.5097
                          Isotropic Fermi Contact Couplings
        Atom                 a.u.       MegaHertz       Gauss      10(-4) cm-1
     1  S(33)              0.28597      98.22170      35.04795      32.76323
     2  O(17)              0.04756     -28.83312     -10.28837      -9.61769
     3  C(13)             -0.00582      -6.54789      -2.33645      -2.18414
     4  H(1)              -0.00011      -0.48283      -0.17229      -0.16106
     5  H(1)               0.00138       6.18411       2.20664       2.06280
     6  H(1)               0.00138       6.18403       2.20662       2.06277
 --------------------------------------------------------
       Center         ----  Spin Dipole Couplings  ----

 Normal termination of Gaussian 16 at Tue Apr  8 23:44:14 2025.
