 Gaussian 16, Revision C.01,

 ----------------------------------------------------------------------
 #t hf aug-cc-pvdz symm=none int=(grid=ultrafine) guess=(read,tcheck) s
 table=(opt,rrhf)
 ----------------------------------------------------------------------
 -----
 title
 -----
 Symbolic Z-matrix:
 Charge =  0 Multiplicity = 1

 SCF Done:  E(RHF) =  -685.164635671     A.U. after   14 cycles
 Normal termination of Gaussian 16 at Wed Apr  9 00:21:57 2025.
 Gaussian 16:  ES64L-G16RevC.01  3-Jul-2019

 ----------------------------------------------------------------------
 #t hf aug-cc-pvdz iop(5/13=1,5/36=2,99/5=2) pseudo=read geom=check gue
 ss=(read,tcheck) scf=(maxcycle=1)
 ----------------------------------------------------------------------
 -----
 title
 -----
 Structure from the checkpoint file:  "BDE49_nonexpt_2644_mol1.chk"
 Charge =  0 Multiplicity = 1

                         Standard orientation:
 ---------------------------------------------------------------------
 Center     Atomic      Atomic             Coordinates (Angstroms)
 Number     Number       Type             X           Y           Z
 ---------------------------------------------------------------------
      1          9           0        1.791010    0.559428    0.000304
      2         16           0        0.760723   -0.724583   -0.000074
      3          6           0       -0.766003    0.204833   -0.000358
      4          8           0       -0.870058    1.391873   -0.000015
      5          8           0       -1.766223   -0.699213    0.000052
      6          1           0       -2.604399   -0.211801    0.000306
 ---------------------------------------------------------------------

 SCF Done:  E(RHF) =  -686.484996711     A.U. after    2 cycles

 The electronic state is 1-A.
 Alpha  occ. eigenvalues --  -75.79486 -29.29770 -21.16379 -21.09357 -13.24276
 Alpha  occ. eigenvalues --  -13.20034 -13.09808 -11.55818  -8.13623  -1.86399
 Alpha  occ. eigenvalues --   -1.70050  -1.25648  -0.88417  -0.68294  -0.64526
 Alpha  occ. eigenvalues --   -0.62201  -0.60724  -0.48775  -0.43546  -0.37521
 Alpha  occ. eigenvalues --   -0.36240  -0.33462  -0.29463  -0.20818
 Alpha virt. eigenvalues --    0.03264   0.06780   0.09793   0.10661   0.10980
 Alpha virt. eigenvalues --    0.12713   0.12994   0.14622   0.17142   0.18675
 Alpha virt. eigenvalues --    0.19110   0.20264   0.22038   0.22445   0.26830

 Mulliken charges:
               1
     1  F   -0.119115
     2  S    1.189711
     3  C    2.698057
     4  O   -2.288087
     5  O   -2.366817
     6  H    0.886251
 Sum of Mulliken charges =  -0.00000

 Dipole moment (field-independent basis, Debye):
    X=              2.0680    Y=              0.1752    Z=              0.0018  Tot=              2.0754

 Test job not archived.
 1\1\GINC-SE044\SP\RHF\Aug-CC-pVDZ\C1H1F1O2S1\OHZDE\09-Apr-2025\0\\#t h
 f aug-cc-pvdz iop(5/13=1,5/36=2,99/5=2) pseudo=read geom=check guess=(
 read,tcheck) scf=(maxcycle=1)\\title\\0,1\F,0,-1.79101,0.559428,-0.000
 304\S,0,-0.760723,-0.724583,0.000074\C,0,0.766003,0.204833,0.000358\O,
 0,0.870058,1.391873,0.000015\O,0,1.766223,-0.699213,-0.000052\H,0,2.60
 4399,-0.211801,-0.000306\\Version=ES64L-G16RevC.01\State=1-A\HF=-686.4
 849967\RMSD=6.883e-02\Dipole=-0.8136153,0.0689281,-0.000712\Quadrupole
 =5.6869393,-2.8847698,-2.8021695,-1.0389741,0.0003724,0.0002442\PG=C01

 Normal termination of Gaussian 16 at Wed Apr  9 00:21:59 2025.
