 Gaussian 16, Revision C.01,

 ----------------------------------------------------------------------
 #t hf aug-cc-pvdz symm=none int=(grid=ultrafine) guess=(read,tcheck) s
 table=(opt,rrhf)
 ----------------------------------------------------------------------
 -----
 title
 -----
 Symbolic Z-matrix:
 Charge =  0 Multiplicity = 1

 SCF Done:  E(RHF) =  -1895.04733224     A.U. after   11 cycles
 Normal termination of Gaussian 16 at Wed Apr  9 00:09:38 2025.
 Gaussian 16:  ES64L-G16RevC.01  3-Jul-2019

 ----------------------------------------------------------------------
 #t hf aug-cc-pvdz iop(5/13=1,5/36=2,99/5=2) pseudo=read geom=check gue
 ss=(read,tcheck) scf=(maxcycle=1)
 ----------------------------------------------------------------------
 -----
 title
 -----
 Structure from the checkpoint file:  "BDE49_nonexpt_2326_mol1.chk"
 Charge =  0 Multiplicity = 1

                         Standard orientation:
 ---------------------------------------------------------------------
 Center     Atomic      Atomic             Coordinates (Angstroms)
 Number     Number       Type             X           Y           Z
 ---------------------------------------------------------------------
      1         14           0       -1.510464    0.000000   -0.063136
      2         14           0        0.796163   -0.000000    0.317131
      3          9           0        1.064316   -0.000000    1.889118
      4         17           0        1.651221    1.679543   -0.477927
      5          9           0       -2.191267   -1.282309    0.570048
      6          9           0       -2.191259    1.282339    0.569996
      7         17           0        1.651220   -1.679543   -0.477927
      8          9           0       -1.808599   -0.000030   -1.618763
 ---------------------------------------------------------------------

 SCF Done:  E(RHF) =  -1897.17483025     A.U. after    2 cycles

 The electronic state is 1-A.
 Alpha  occ. eigenvalues --  -99.92806 -99.92805 -76.36396 -76.34530 -29.31807
 Alpha  occ. eigenvalues --  -29.31801 -29.31800 -29.31713 -10.50322 -10.50260
 Alpha  occ. eigenvalues --   -9.70137  -9.70132  -9.69584  -9.69547  -9.69473
 Alpha  occ. eigenvalues --   -9.69390  -5.71265  -5.71013  -2.35629  -2.35512
 Alpha  occ. eigenvalues --   -2.35045  -2.32379  -2.30812  -2.30136  -1.35137
 Alpha  occ. eigenvalues --   -1.32294  -1.03411  -0.90627  -0.74573  -0.74525
 Alpha  occ. eigenvalues --   -0.68489  -0.63820  -0.62115  -0.58287  -0.57631
 Alpha  occ. eigenvalues --   -0.55180  -0.53814  -0.44841  -0.44751  -0.44519
 Alpha  occ. eigenvalues --   -0.41797  -0.39240  -0.38844  -0.38237  -0.37848
 Alpha  occ. eigenvalues --   -0.32693  -0.32661  -0.30911  -0.29650
 Alpha virt. eigenvalues --    0.04744   0.05982   0.06431   0.07463   0.08189
 Alpha virt. eigenvalues --    0.09075   0.09336   0.10287   0.10776   0.12660
 Alpha virt. eigenvalues --    0.12868   0.13656   0.15145   0.15681   0.17306

 Mulliken charges:
               1
     1  Si   2.960800
     2  Si   0.928138
     3  F   -0.348688
     4  Cl  -0.777201
     5  F   -0.662921
     6  F   -0.662918
     7  Cl  -0.777201
     8  F   -0.660009
 Sum of Mulliken charges =  -0.00000

 Dipole moment (field-independent basis, Debye):
    X=             -3.5206    Y=             -0.0000    Z=              2.9942  Tot=              4.6217

 Test job not archived.
 1\1\GINC-SE365\SP\RHF\Aug-CC-pVDZ\Cl2F4Si2\OHZDE\09-Apr-2025\0\\#t hf
 aug-cc-pvdz iop(5/13=1,5/36=2,99/5=2) pseudo=read geom=check guess=(re
 ad,tcheck) scf=(maxcycle=1)\\title\\0,1\Si,0,-1.510464,0.,-0.063136\Si
 ,0,0.796163,0.,0.317131\F,0,1.064316,0.,1.889118\Cl,0,1.651221,1.67954
 3,-0.477927\F,0,-2.191267,-1.282309,0.570048\F,0,-2.191259,1.282339,0.
 569996\Cl,0,1.65122,-1.679543,-0.477927\F,0,-1.808599,-0.00003,-1.6187
 63\\Version=ES64L-G16RevC.01\State=1-A\HF=-1897.1748302\RMSD=4.408e-02
 \Dipole=-1.3851085,-0.0000004,1.1780173\Quadrupole=0.2791456,-2.623976

 Normal termination of Gaussian 16 at Wed Apr  9 00:09:41 2025.
