 Gaussian 16, Revision C.01,

 ----------------------------------------------------------------------
 #t hf aug-cc-pvdz symm=none int=(grid=ultrafine) guess=(read,tcheck) s
 table=(opt,rrhf)
 ----------------------------------------------------------------------
 -----
 title
 -----
 Symbolic Z-matrix:
 Charge =  0 Multiplicity = 1

 SCF Done:  E(RHF) =  -143.559058414     A.U. after   11 cycles
 Normal termination of Gaussian 16 at Wed Apr  9 00:30:20 2025.
 Gaussian 16:  ES64L-G16RevC.01  3-Jul-2019

 ----------------------------------------------------------------------
 #t hf aug-cc-pvdz iop(5/13=1,5/36=2,99/5=2) pseudo=read geom=check gue
 ss=(read,tcheck) scf=(maxcycle=1)
 ----------------------------------------------------------------------
 -----
 title
 -----
 Structure from the checkpoint file:  "BDE49_nonexpt_341_mol1.chk"
 Charge =  0 Multiplicity = 1

                         Standard orientation:
 ---------------------------------------------------------------------
 Center     Atomic      Atomic             Coordinates (Angstroms)
 Number     Number       Type             X           Y           Z
 ---------------------------------------------------------------------
      1          5           0        0.003130   -0.000533   -0.006325
      2          6           0       -0.957098   -1.250617   -0.005051
      3          1           0       -1.766366   -1.134810   -0.736497
      4          1           0       -1.464400   -1.296461    0.969843
      5          1           0       -0.470884   -2.215537   -0.170834
      6          6           0       -0.606836    1.451925    0.009122
      7          1           0       -1.668901    1.508270    0.263230
      8          1           0       -0.498049    1.858720   -1.008549
      9          1           0       -0.047023    2.139588    0.652634
     10          6           0        1.565818   -0.201087   -0.007205
     11          1           0        1.851494   -0.608352    0.974851
     12          1           0        2.151880    0.708758   -0.162488
     13          1           0        1.885297   -0.958835   -0.731755
 ---------------------------------------------------------------------

 SCF Done:  E(RHF) =  -144.321344837     A.U. after    2 cycles

 The electronic state is 1-A.
 Alpha  occ. eigenvalues --  -11.32739 -11.32230 -11.32217  -7.57719  -1.16259
 Alpha  occ. eigenvalues --   -0.99987  -0.99919  -0.65802  -0.57365  -0.57342
 Alpha  occ. eigenvalues --   -0.55912  -0.52286  -0.52145  -0.50161  -0.38744
 Alpha  occ. eigenvalues --   -0.38697
 Alpha virt. eigenvalues --    0.03036   0.04436   0.04546   0.04553   0.07648
 Alpha virt. eigenvalues --    0.07658   0.07958   0.08051   0.08674   0.09286
 Alpha virt. eigenvalues --    0.09649   0.10362   0.10772   0.14824   0.16126

 Mulliken charges:
               1
     1  B    8.557924
     2  C   -6.078653
     3  H    1.039551
     4  H    0.840291
     5  H    1.228279
     6  C   -6.023958
     7  H    1.232873
     8  H    0.942304
     9  H    1.038860
    10  C   -6.015101
    11  H    0.994169
    12  H    1.308247
    13  H    0.935214
 Sum of Mulliken charges =  -0.00000

 Dipole moment (field-independent basis, Debye):
    X=             -0.0052    Y=             -0.0024    Z=              0.0146  Tot=              0.0157

 Test job not archived.
 1\1\GINC-SE059\SP\RHF\Aug-CC-pVDZ\C3H9B1\OHZDE\09-Apr-2025\0\\#t hf au
 g-cc-pvdz iop(5/13=1,5/36=2,99/5=2) pseudo=read geom=check guess=(read
 ,tcheck) scf=(maxcycle=1)\\title\\0,1\B,0,0.00313,-0.000533,-0.006325\
 C,0,-0.957107,-1.25061,-0.005051\H,0,-1.766374,-1.134798,-0.736497\H,0
 ,-1.464409,-1.296451,0.969843\H,0,-0.470899,-2.215534,-0.170834\C,0,-0
 .606826,1.451929,0.009122\H,0,-1.668891,1.508281,0.26323\H,0,-0.498036
 ,1.858723,-1.008549\H,0,-0.047008,2.139588,0.652634\C,0,1.565816,-0.20
 1098,-0.007205\H,0,1.85149,-0.608365,0.974851\H,0,2.151885,0.708743,-0

 Normal termination of Gaussian 16 at Wed Apr  9 00:30:23 2025.
