 Gaussian 16, Revision C.01,

 ----------------------------------------------------------------------
 #t hf aug-cc-pvdz symm=none int=(grid=ultrafine) guess=(read,tcheck) s
 table=(opt,rrhf)
 ----------------------------------------------------------------------
 -----
 title
 -----
 Symbolic Z-matrix:
 Charge =  0 Multiplicity = 1

 SCF Done:  E(RHF) =  -611.923077997     A.U. after   14 cycles
 Normal termination of Gaussian 16 at Wed Apr  9 00:08:02 2025.
 Gaussian 16:  ES64L-G16RevC.01  3-Jul-2019

 ----------------------------------------------------------------------
 #t hf aug-cc-pvdz iop(5/13=1,5/36=2,99/5=2) pseudo=read geom=check gue
 ss=(read,tcheck) scf=(maxcycle=1)
 ----------------------------------------------------------------------
 -----
 title
 -----
 Structure from the checkpoint file:  "BDE49_nonexpt_2255_mol1.chk"
 Charge =  0 Multiplicity = 1

                         Standard orientation:
 ---------------------------------------------------------------------
 Center     Atomic      Atomic             Coordinates (Angstroms)
 Number     Number       Type             X           Y           Z
 ---------------------------------------------------------------------
      1          6           0        1.675251    0.000000    0.368683
      2          8           0       -0.948800   -0.000000   -0.714692
      3          7           0       -2.341949   -0.000001   -0.824299
      4          8           0       -2.905965    0.000003    0.213189
      5          6           0        2.083454    1.275169   -0.394255
      6         14           0       -0.149146   -0.000003    0.814657
      7          6           0        2.083457   -1.275166   -0.394258
      8          1           0        3.160788   -1.278205   -0.589326
      9          1           0        1.571376   -1.336153   -1.358403
     10          1           0        1.846553   -2.182863    0.167986
     11          1           0        1.846547    2.182864    0.167991
     12          1           0        1.571372    1.336158   -1.358400
     13          1           0        3.160784    1.278212   -0.589323
     14          1           0        2.195830    0.000000    1.337940
     15          1           0       -0.543211    1.215243    1.558722
     16          1           0       -0.543209   -1.215252    1.558718
 ---------------------------------------------------------------------

 SCF Done:  E(RHF) =  -613.535842263     A.U. after    2 cycles

 The electronic state is 1-A.
 Alpha  occ. eigenvalues --  -76.24144 -21.14932 -21.08879 -15.93839 -11.41139
 Alpha  occ. eigenvalues --  -11.39104 -11.35321  -5.57871  -2.23765  -2.21654
 Alpha  occ. eigenvalues --   -2.20024  -1.96468  -1.68837  -1.21513  -1.00764
 Alpha  occ. eigenvalues --   -0.96915  -0.85364  -0.72017  -0.66875  -0.62760
 Alpha  occ. eigenvalues --   -0.61666  -0.61122  -0.58699  -0.56755  -0.54068
 Alpha  occ. eigenvalues --   -0.49286  -0.47661  -0.45798  -0.39193  -0.38776
 Alpha  occ. eigenvalues --   -0.37151  -0.30799
 Alpha virt. eigenvalues --    0.03674   0.05231   0.05438   0.05899   0.06159
 Alpha virt. eigenvalues --    0.06292   0.07082   0.07220   0.07683   0.09759
 Alpha virt. eigenvalues --    0.09907   0.11136   0.12326   0.12748   0.12991

 Mulliken charges:
               1
     1  C   -2.619897
     2  O   -1.943515
     3  N    2.000502
     4  O   -1.671514
     5  C   -3.736731
     6  Si   6.239468
     7  C   -3.736730
     8  H    1.216108
     9  H    1.313758
    10  H    1.313359
    11  H    1.313359
    12  H    1.313758
    13  H    1.216109
    14  H    1.675609
    15  H   -1.946820
    16  H   -1.946821
 Sum of Mulliken charges =  -0.00000

 Dipole moment (field-independent basis, Debye):
    X=              1.8329    Y=              0.0000    Z=              0.7445  Tot=              1.9784

 Test job not archived.
 1\1\GINC-SE344\SP\RHF\Aug-CC-pVDZ\C3H9N1O2Si1\OHZDE\09-Apr-2025\0\\#t
 hf aug-cc-pvdz iop(5/13=1,5/36=2,99/5=2) pseudo=read geom=check guess=
 (read,tcheck) scf=(maxcycle=1)\\title\\0,1\C,0,-1.675251,0.,0.368683\O
 ,0,0.9488,0.,-0.714692\N,0,2.341949,0.000001,-0.824299\O,0,2.905965,-0
 .000003,0.213189\C,0,-2.083454,-1.275169,-0.394255\Si,0,0.149146,0.000
 003,0.814657\C,0,-2.083457,1.275166,-0.394258\H,0,-3.160788,1.278205,-
 0.589326\H,0,-1.571376,1.336153,-1.358403\H,0,-1.846553,2.182863,0.167
 986\H,0,-1.846547,-2.182864,0.167991\H,0,-1.571372,-1.336158,-1.3584\H

 Normal termination of Gaussian 16 at Wed Apr  9 00:08:09 2025.
