 Gaussian 16, Revision C.01,

 ----------------------------------------------------------------------
 #t hf aug-cc-pvdz symm=none int=(grid=ultrafine) guess=(read,tcheck) s
 table=(opt,rrhf)
 ----------------------------------------------------------------------
 -----
 title
 -----
 Symbolic Z-matrix:
 Charge =  0 Multiplicity = 1

 SCF Done:  E(RHF) =  -710.272266946     A.U. after   13 cycles
 Normal termination of Gaussian 16 at Tue Apr  8 22:31:30 2025.
 Gaussian 16:  ES64L-G16RevC.01  3-Jul-2019

 ----------------------------------------------------------------------
 #t hf aug-cc-pvdz iop(5/13=1,5/36=2,99/5=2) pseudo=read geom=check gue
 ss=(read,tcheck) scf=(maxcycle=1)
 ----------------------------------------------------------------------
 -----
 title
 -----
 Structure from the checkpoint file:  "BDE49_expt_1023_mol1.chk"
 Charge =  0 Multiplicity = 1

                         Standard orientation:
 ---------------------------------------------------------------------
 Center     Atomic      Atomic             Coordinates (Angstroms)
 Number     Number       Type             X           Y           Z
 ---------------------------------------------------------------------
      1          6           0       -1.124437    0.134411    0.000001
      2          9           0       -1.819694   -0.261481    1.082730
      3          9           0       -1.819705   -0.261523   -1.082706
      4          9           0       -1.074725    1.474015   -0.000026
      5          6           0        0.244237   -0.475363    0.000005
      6          6           0        1.411279    0.160452   -0.000007
      7          9           0        0.230425   -1.819092    0.000025
      8          9           0        1.568266    1.462965   -0.000025
      9          9           0        2.561380   -0.474551    0.000001
 ---------------------------------------------------------------------

 SCF Done:  E(RHF) =  -712.788137413     A.U. after    2 cycles

 The electronic state is 1-A.
 Alpha  occ. eigenvalues --  -29.36451 -29.36266 -29.33626 -29.33268 -29.32977
 Alpha  occ. eigenvalues --  -29.32938 -11.64637 -11.61246 -11.51355  -1.49673
 Alpha  occ. eigenvalues --   -1.36296  -1.13473  -0.95229  -0.91563  -0.90390
 Alpha  occ. eigenvalues --   -0.81318  -0.76520  -0.66064  -0.52191  -0.49191
 Alpha  occ. eigenvalues --   -0.46920  -0.46805  -0.45774  -0.45350  -0.44723
 Alpha  occ. eigenvalues --   -0.38749  -0.37531  -0.36503  -0.35415  -0.35267
 Alpha  occ. eigenvalues --   -0.30448  -0.29666  -0.27476  -0.23788  -0.23738
 Alpha  occ. eigenvalues --   -0.20809
 Alpha virt. eigenvalues --    0.09438   0.09526   0.09762   0.11755   0.12352
 Alpha virt. eigenvalues --    0.12379   0.13447   0.13507   0.13596   0.15406
 Alpha virt. eigenvalues --    0.19059   0.19270   0.22043   0.22847   0.22991

 Mulliken charges:
               1
     1  C   -0.683465
     2  F    0.489696
     3  F    0.489695
     4  F    0.788815
     5  C   -2.641353
     6  C   -1.092302
     7  F    0.937066
     8  F    0.903290
     9  F    0.808558
 Sum of Mulliken charges =  -0.00000

 Dipole moment (field-independent basis, Debye):
    X=              1.0165    Y=              0.2819    Z=              0.0000  Tot=              1.0548

 Test job not archived.
 1\1\GINC-SE461\SP\RHF\Aug-CC-pVDZ\C3F6\OHZDE\08-Apr-2025\0\\#t hf aug-
 cc-pvdz iop(5/13=1,5/36=2,99/5=2) pseudo=read geom=check guess=(read,t
 check) scf=(maxcycle=1)\\title\\0,1\C,0,-1.124437,0.134411,0.000001\F,
 0,-1.819694,-0.261481,1.08273\F,0,-1.819705,-0.261523,-1.082706\F,0,-1
 .074725,1.474015,-0.000026\C,0,0.244237,-0.475363,0.000005\C,0,1.41127
 9,0.160452,-0.000007\F,0,0.230425,-1.819092,0.000025\F,0,1.568266,1.46
 2965,-0.000025\F,0,2.56138,-0.474551,0.000001\\Version=ES64L-G16RevC.0
 1\State=1-A\HF=-712.7881374\RMSD=5.859e-01\Dipole=0.3999036,0.1109271,

 Normal termination of Gaussian 16 at Tue Apr  8 22:31:34 2025.
