 Gaussian 16, Revision C.01,

 ----------------------------------------------------------------------
 #t hf aug-cc-pvdz symm=none int=(grid=ultrafine) guess=(read,tcheck) s
 table=(opt,rrhf)
 ----------------------------------------------------------------------
 -----
 title
 -----
 Symbolic Z-matrix:
 Charge =  0 Multiplicity = 1

 SCF Done:  E(RHF) =  -489.264866018     A.U. after   14 cycles
 Normal termination of Gaussian 16 at Tue Apr  8 23:37:05 2025.
 Gaussian 16:  ES64L-G16RevC.01  3-Jul-2019

 ----------------------------------------------------------------------
 #t hf aug-cc-pvdz iop(5/13=1,5/36=2,99/5=2) pseudo=read geom=check gue
 ss=(read,tcheck) scf=(maxcycle=1)
 ----------------------------------------------------------------------
 -----
 title
 -----
 Structure from the checkpoint file:  "BDE49_nonexpt_1522_mol1.chk"
 Charge =  0 Multiplicity = 1

                         Standard orientation:
 ---------------------------------------------------------------------
 Center     Atomic      Atomic             Coordinates (Angstroms)
 Number     Number       Type             X           Y           Z
 ---------------------------------------------------------------------
      1          7           0       -1.527431    0.743688    0.053762
      2          6           0        1.154324   -0.003591    0.016217
      3          7           0        2.240879    0.393178   -0.015564
      4         15           0       -0.548160   -0.631901   -0.100856
      5          1           0       -0.563971   -1.057886    1.246037
      6          1           0       -1.842813    1.136486   -0.822086
      7          1           0       -1.290892    1.463400    0.724200
 ---------------------------------------------------------------------

 SCF Done:  E(RHF) =  -490.116076456     A.U. after    2 cycles

 The electronic state is 1-A.
 Alpha  occ. eigenvalues -- -105.24490 -15.77858 -15.76959 -11.41172  -2.82488
 Alpha  occ. eigenvalues --   -1.61156  -1.52053  -1.49794  -1.29238  -1.20923
 Alpha  occ. eigenvalues --   -0.80929  -0.68214  -0.57024  -0.47269  -0.46389
 Alpha  occ. eigenvalues --   -0.43739  -0.36529  -0.30442  -0.04970
 Alpha virt. eigenvalues --    0.03917   0.05609   0.06280   0.07685   0.08877
 Alpha virt. eigenvalues --    0.11271   0.11794   0.13712   0.14475   0.15477
 Alpha virt. eigenvalues --    0.16190   0.17320   0.19514   0.19676   0.20509

 Mulliken charges:
               1
     1  N   -2.223753
     2  C   -0.072097
     3  N   -1.851407
     4  P    3.767734
     5  H   -0.708072
     6  H    0.534792
     7  H    0.552804
 Sum of Mulliken charges =   0.00000

 Dipole moment (field-independent basis, Debye):
    X=             -2.5701    Y=             -0.1290    Z=             -0.9749  Tot=              2.7518

 Test job not archived.
 1\1\GINC-SE403\SP\RHF\Aug-CC-pVDZ\C1H3N2P1\OHZDE\08-Apr-2025\0\\#t hf
 aug-cc-pvdz iop(5/13=1,5/36=2,99/5=2) pseudo=read geom=check guess=(re
 ad,tcheck) scf=(maxcycle=1)\\title\\0,1\N,0,-1.527431,0.743688,0.05376
 2\C,0,1.154324,-0.003591,0.016217\N,0,2.240879,0.393178,-0.015564\P,0,
 -0.54816,-0.631901,-0.100856\H,0,-0.563971,-1.057886,1.246037\H,0,-1.8
 42813,1.136486,-0.822086\H,0,-1.290892,1.4634,0.7242\\Version=ES64L-G1
 6RevC.01\State=1-A\HF=-490.1160765\RMSD=3.525e-01\Dipole=-1.0111533,-0
 .0507491,-0.3835628\Quadrupole=-3.1501573,2.8293438,0.3208135,-2.28385

 Normal termination of Gaussian 16 at Tue Apr  8 23:37:07 2025.
