 Gaussian 16, Revision C.01,

 ----------------------------------------------------------------------
 #t hf aug-cc-pvdz symm=none int=(grid=ultrafine) guess=(read,tcheck) s
 table=(opt,rrhf)
 ----------------------------------------------------------------------
 -----
 title
 -----
 Symbolic Z-matrix:
 Charge =  0 Multiplicity = 1

 SCF Done:  E(RHF) =  -683.496494315     A.U. after   18 cycles
 Normal termination of Gaussian 16 at Tue Apr  8 23:17:34 2025.
 Gaussian 16:  ES64L-G16RevC.01  3-Jul-2019

 ----------------------------------------------------------------------
 #t hf aug-cc-pvdz iop(5/13=1,5/36=2,99/5=2) pseudo=read geom=check gue
 ss=(read,tcheck) scf=(maxcycle=1)
 ----------------------------------------------------------------------
 -----
 title
 -----
 Structure from the checkpoint file:  "BDE49_nonexpt_1011_mol1.chk"
 Charge =  0 Multiplicity = 1

                         Standard orientation:
 ---------------------------------------------------------------------
 Center     Atomic      Atomic             Coordinates (Angstroms)
 Number     Number       Type             X           Y           Z
 ---------------------------------------------------------------------
      1         16           0       -0.682744   -0.592603   -0.911440
      2          7           0       -2.132187    0.177973   -0.038481
      3          8           0       -1.952109    0.594887    1.049874
      4          6           0        0.670282   -0.460437    0.317851
      5          6           0        1.298938   -1.837945    0.558937
      6          1           0        0.549186   -2.570779    0.861732
      7          1           0        2.048941   -1.766893    1.352932
      8          1           0        1.798009   -2.212691   -0.338798
      9          6           0        1.709307    0.604188   -0.076975
     10          6           0        1.175588    2.037188   -0.113841
     11          1           0        2.145680    0.340037   -1.046683
     12          1           0        2.525795    0.540524    0.652761
     13          1           0        0.374013    2.144464   -0.848897
     14          1           0        1.969353    2.738296   -0.383099
     15          1           0        0.780409    2.337023    0.860764
     16          1           0        0.150009   -0.131210    1.226866
 ---------------------------------------------------------------------

 SCF Done:  E(RHF) =  -685.085061472     A.U. after    2 cycles

 The electronic state is 1-A.
 Alpha  occ. eigenvalues --  -75.70696 -21.15501 -15.91063 -13.14430 -13.11393
 Alpha  occ. eigenvalues --  -13.07349 -11.45294 -11.41199 -11.38508 -11.36045
 Alpha  occ. eigenvalues --   -8.04695  -1.89639  -1.29454  -1.15015  -1.08284
 Alpha  occ. eigenvalues --   -0.94857  -0.90338  -0.80352  -0.67322  -0.61650
 Alpha  occ. eigenvalues --   -0.60898  -0.58811  -0.58444  -0.56237  -0.55645
 Alpha  occ. eigenvalues --   -0.52085  -0.49471  -0.46602  -0.44961  -0.37138
 Alpha  occ. eigenvalues --   -0.25687  -0.25419
 Alpha virt. eigenvalues --    0.03658   0.04574   0.05637   0.05967   0.06220
 Alpha virt. eigenvalues --    0.06530   0.06679   0.07256   0.08925   0.09365
 Alpha virt. eigenvalues --    0.09976   0.12264   0.12501   0.13640   0.13793

 Mulliken charges:
               1
     1  S    1.168702
     2  N    1.041932
     3  O   -1.953568
     4  C   -1.462959
     5  C   -4.456001
     6  H    1.269851
     7  H    1.230120
     8  H    1.287707
     9  C   -2.884231
    10  C   -3.970898
    11  H    1.441129
    12  H    1.436734
    13  H    1.435669
    14  H    1.108493
    15  H    1.265745
    16  H    2.041573
 Sum of Mulliken charges =  -0.00000

 Dipole moment (field-independent basis, Debye):
    X=              1.8297    Y=             -0.4707    Z=             -0.0921  Tot=              1.8916

 Test job not archived.
 1\1\GINC-SE363\SP\RHF\Aug-CC-pVDZ\C4H9N1O1S1\OHZDE\08-Apr-2025\0\\#t h
 f aug-cc-pvdz iop(5/13=1,5/36=2,99/5=2) pseudo=read geom=check guess=(
 read,tcheck) scf=(maxcycle=1)\\title\\0,1\S,0,-0.682744,-0.592603,-0.9
 1144\N,0,-2.132187,0.177973,-0.038481\O,0,-1.952109,0.594887,1.049874\
 C,0,0.670282,-0.460437,0.317851\C,0,1.298938,-1.837945,0.558937\H,0,0.
 549186,-2.570779,0.861732\H,0,2.048941,-1.766893,1.352932\H,0,1.798009
 ,-2.212691,-0.338798\C,0,1.709307,0.604188,-0.076975\C,0,1.175588,2.03
 7188,-0.113841\H,0,2.14568,0.340037,-1.046683\H,0,2.525795,0.540524,0.

 Normal termination of Gaussian 16 at Tue Apr  8 23:17:39 2025.
