 Gaussian 16, Revision C.01,

 ----------------------------------------------------------------------
 #t hf aug-cc-pvdz symm=none int=(grid=ultrafine) guess=(read,tcheck) s
 table=opt
 ----------------------------------------------------------------------
 -----
 title
 -----
 Symbolic Z-matrix:
 Charge =  0 Multiplicity = 2

 SCF Done:  E(UHF) =  -974.066343075     A.U. after   21 cycles
 Normal termination of Gaussian 16 at Tue Apr  8 23:58:24 2025.
 Gaussian 16:  ES64L-G16RevC.01  3-Jul-2019

 ----------------------------------------------------------------------
 #t hf aug-cc-pvdz iop(5/13=1,5/36=2,99/5=2) pseudo=read geom=check gue
 ss=(read,tcheck) scf=(maxcycle=1)
 ----------------------------------------------------------------------
 -----
 title
 -----
 Structure from the checkpoint file:  "BDE49_nonexpt_205_mol2.chk"
 Charge =  0 Multiplicity = 2

                         Standard orientation:
 ---------------------------------------------------------------------
 Center     Atomic      Atomic             Coordinates (Angstroms)
 Number     Number       Type             X           Y           Z
 ---------------------------------------------------------------------
      1         17           0       -2.723382   -0.204545   -0.000001
      2          5           0       -1.238553    0.703494   -0.000019
      3          7           0        0.047077    0.222567    0.000019
      4          6           0        1.241863    0.077390    0.000007
      5         16           0        2.794346   -0.128907   -0.000004
 ---------------------------------------------------------------------

 SCF Done:  E(UHF) =  -975.007456548     A.U. after    2 cycles

 The electronic state is 2-A.
 Alpha  occ. eigenvalues --  -99.91535 -75.72243 -15.78415 -13.26006 -13.03792
 Alpha  occ. eigenvalues --  -13.03365 -11.57312 -10.48799  -9.68796  -9.68224
 Alpha  occ. eigenvalues --   -9.68014  -8.06546  -7.74009  -1.45855  -1.35135
 Alpha  occ. eigenvalues --   -1.18722  -0.93608  -0.69544  -0.61157  -0.59909
 Alpha  occ. eigenvalues --   -0.58519  -0.54297  -0.53879  -0.38730  -0.31159
 Alpha  occ. eigenvalues --   -0.25895
 Alpha virt. eigenvalues --    0.02709   0.02801   0.04105   0.04827   0.05247
 Alpha virt. eigenvalues --    0.06823   0.10272   0.12277   0.12524   0.12900
 Alpha virt. eigenvalues --    0.15142   0.16088   0.16375   0.17129   0.17382

  Beta  occ. eigenvalues --  -99.91442 -75.72173 -15.78859 -13.26024 -13.03389
  Beta  occ. eigenvalues --  -13.03264 -11.56950 -10.48688  -9.68600  -9.68018
  Beta  occ. eigenvalues --   -9.67968  -8.06468  -7.71891  -1.45648  -1.34280
  Beta  occ. eigenvalues --   -1.18517  -0.91422  -0.67858  -0.59860  -0.58456
  Beta  occ. eigenvalues --   -0.57523  -0.54491  -0.53197  -0.31225  -0.30792
  Beta virt. eigenvalues --    0.01616   0.03147   0.03848   0.04345   0.06267
  Beta virt. eigenvalues --    0.06274   0.07766   0.11624   0.12578   0.12875
  Beta virt. eigenvalues --    0.13604   0.15453   0.16119   0.16529   0.17194

 Mulliken charges and spin densities:
               1          2
     1  Cl  -0.893784   0.114472
     2  B    1.232976   1.002873
     3  N   -3.964581  -0.383871
     4  C    1.727055   0.132415
     5  S    1.898335   0.134111
 Sum of Mulliken charges =  -0.00000   1.00000

 Dipole moment (field-independent basis, Debye):
    X=              4.8806    Y=             -0.5912    Z=             -0.0000  Tot=              4.9163
                          Isotropic Fermi Contact Couplings
        Atom                 a.u.       MegaHertz       Gauss      10(-4) cm-1
     1  Cl(35)             0.18130      79.49491      28.36576      26.51665
     2  B(11)              0.35954     515.71842     184.02116     172.02515
     3  N(14)              0.01976       6.38298       2.27761       2.12913
     4  C(13)              0.01854      20.84727       7.43882       6.95390
     5  S(33)              0.03456      11.87144       4.23603       3.95989
 --------------------------------------------------------
       Center         ----  Spin Dipole Couplings  ----
                      3XX-RR        3YY-RR        3ZZ-RR

 1\1\GINC-SE460\SP\UHF\Aug-CC-pVDZ\C1B1Cl1N1S1(2)\OHZDE\08-Apr-2025\0\\
 #t hf aug-cc-pvdz iop(5/13=1,5/36=2,99/5=2) pseudo=read geom=check gue
 ss=(read,tcheck) scf=(maxcycle=1)\\title\\0,2\Cl,0,-2.723382,-0.204545
 ,-0.000001\B,0,-1.238553,0.703494,-0.000019\N,0,0.047077,0.222567,0.00
 0019\C,0,1.241863,0.07739,0.000007\S,0,2.794346,-0.128907,-0.000004\\V
 ersion=ES64L-G16RevC.01\State=2-A\HF=-975.0074565\S2=0.778764\S2-1=0.\
 S2A=0.750359\RMSD=3.007e-01\Dipole=1.9201718,-0.2326039,-0.0000118\Qua
 drupole=8.4416105,-5.081699,-3.3599115,-0.4399661,-0.0000756,0.0000755

 Normal termination of Gaussian 16 at Tue Apr  8 23:58:26 2025.
