 Gaussian 16, Revision C.01,

 ----------------------------------------------------------------------
 #t hf aug-cc-pvdz symm=none int=(grid=ultrafine) guess=(read,tcheck) s
 table=(opt,rrhf)
 ----------------------------------------------------------------------
 -----
 title
 -----
 Symbolic Z-matrix:
 Charge =  0 Multiplicity = 1

 SCF Done:  E(RHF) =  -985.510543300     A.U. after   15 cycles
 Normal termination of Gaussian 16 at Wed Apr  9 00:21:38 2025.
 Gaussian 16:  ES64L-G16RevC.01  3-Jul-2019

 ----------------------------------------------------------------------
 #t hf aug-cc-pvdz iop(5/13=1,5/36=2,99/5=2) pseudo=read geom=check gue
 ss=(read,tcheck) scf=(maxcycle=1)
 ----------------------------------------------------------------------
 -----
 title
 -----
 Structure from the checkpoint file:  "BDE49_nonexpt_2625_mol1.chk"
 Charge =  0 Multiplicity = 1

                         Standard orientation:
 ---------------------------------------------------------------------
 Center     Atomic      Atomic             Coordinates (Angstroms)
 Number     Number       Type             X           Y           Z
 ---------------------------------------------------------------------
      1          9           0       -2.047172    0.633939    0.306762
      2         16           0       -1.166737   -0.664589   -0.311190
      3         14           0        0.723540    0.111501    0.338968
      4          9           0        1.747554   -1.066875    0.021735
      5          9           0        1.166579    1.388081   -0.497484
      6          1           0        0.735583    0.476108    1.754367
 ---------------------------------------------------------------------

 SCF Done:  E(RHF) =  -986.893617526     A.U. after    2 cycles

 The electronic state is 1-A.
 Alpha  occ. eigenvalues --  -76.33273 -75.77602 -29.31131 -29.30527 -29.29427
 Alpha  occ. eigenvalues --  -13.20616 -13.15019 -13.10126  -8.11638  -5.68775
 Alpha  occ. eigenvalues --   -2.33542  -2.31331  -2.28501  -1.22101  -0.96282
 Alpha  occ. eigenvalues --   -0.72786  -0.67838  -0.61167  -0.52233  -0.44316
 Alpha  occ. eigenvalues --   -0.43488  -0.40707  -0.37623  -0.36846  -0.36438
 Alpha  occ. eigenvalues --   -0.34362  -0.31179  -0.24634  -0.21472
 Alpha virt. eigenvalues --    0.04616   0.05900   0.06433   0.07895   0.09688
 Alpha virt. eigenvalues --    0.12070   0.13328   0.15117   0.16103   0.18743
 Alpha virt. eigenvalues --    0.20839   0.22999   0.24249   0.24922   0.26002

 Mulliken charges:
               1
     1  F   -0.312482
     2  S   -1.081111
     3  Si   5.135857
     4  F   -0.853295
     5  F   -0.848641
     6  H   -2.040327
 Sum of Mulliken charges =  -0.00000

 Dipole moment (field-independent basis, Debye):
    X=              0.0941    Y=              1.5704    Z=             -1.2647  Tot=              2.0185

 Test job not archived.
 1\1\GINC-SE099\SP\RHF\Aug-CC-pVDZ\F3H1S1Si1\OHZDE\09-Apr-2025\0\\#t hf
  aug-cc-pvdz iop(5/13=1,5/36=2,99/5=2) pseudo=read geom=check guess=(r
 ead,tcheck) scf=(maxcycle=1)\\title\\0,1\F,0,-2.047172,0.633939,0.3067
 62\S,0,-1.166737,-0.664589,-0.31119\Si,0,0.72354,0.111501,0.338968\F,0
 ,1.747554,-1.066875,0.021735\F,0,1.166579,1.388081,-0.497484\H,0,0.735
 583,0.476108,1.754367\\Version=ES64L-G16RevC.01\State=1-A\HF=-986.8936
 175\RMSD=7.017e-02\Dipole=0.0370205,0.61784,-0.4975566\Quadrupole=4.41
 92427,-0.3227737,-4.096469,-1.6381898,-1.0750188,-0.2096853\PG=C01 [X(

 Normal termination of Gaussian 16 at Wed Apr  9 00:21:41 2025.
