 Gaussian 16, Revision C.01,

 ----------------------------------------------------------------------
 #t hf aug-cc-pvdz symm=none int=(grid=ultrafine) guess=(read,tcheck) s
 table=opt
 ----------------------------------------------------------------------
 -----
 title
 -----
 Symbolic Z-matrix:
 Charge =  0 Multiplicity = 2

 SCF Done:  E(UHF) =  -824.139290314     A.U. after   15 cycles

 1\1\GINC-SE365\Stability\UHF\Aug-CC-pVDZ\C1F5Si1\OHZDE\08-Apr-2025\0\\
 #t hf aug-cc-pvdz symm=none int=(grid=ultrafine) guess=(read,tcheck) s
 table=opt\\title\\0,2\Si,0,-0.690353,-0.848916,0.\C,0,0.197081,0.88750
 6,0.\F,0,-0.149367,-1.6183,1.291033\F,0,-0.149367,-1.6183,-1.291033\F,
 0,-0.149367,1.602699,1.090299\F,0,-0.149367,1.602699,-1.090299\F,0,1.5
 39963,0.760067,0.\\Version=ES64L-G16RevC.01\HF=-824.1392903\S2=0.75435
 9\S2-1=0.\S2A=0.750007\RMSD=6.661e-09\Dipole=-0.7667813,-0.2049846,0.\
 Quadrupole=2.4963772,-1.3029209,-1.1934563,0.9904282,0.,0.\PG=Unknown\

 Normal termination of Gaussian 16 at Tue Apr  8 23:48:23 2025.
 Gaussian 16:  ES64L-G16RevC.01  3-Jul-2019

 ----------------------------------------------------------------------
 #t hf aug-cc-pvdz iop(5/13=1,5/36=2,99/5=2) pseudo=read geom=check gue
 ss=(read,tcheck) scf=(maxcycle=1)
 ----------------------------------------------------------------------
 -----
 title
 -----
 Structure from the checkpoint file:  "BDE49_nonexpt_1800_mol2.chk"
 Charge =  0 Multiplicity = 2

                         Standard orientation:
 ---------------------------------------------------------------------
 Center     Atomic      Atomic             Coordinates (Angstroms)
 Number     Number       Type             X           Y           Z
 ---------------------------------------------------------------------
      1         14           0        0.690353    0.848916    0.000000
      2          6           0       -0.197081   -0.887506   -0.000000
      3          9           0        0.149367    1.618300    1.291033
      4          9           0        0.149367    1.618300   -1.291033
      5          9           0        0.149367   -1.602699    1.090299
      6          9           0        0.149367   -1.602699   -1.090299
      7          9           0       -1.539963   -0.760067   -0.000000
 ---------------------------------------------------------------------

 SCF Done:  E(UHF) =  -826.118315193     A.U. after    2 cycles

 The electronic state is 2-A'.
 Alpha  occ. eigenvalues --  -76.34429 -29.32720 -29.32682 -29.32540 -29.31702
 Alpha  occ. eigenvalues --  -29.31700 -11.57534  -5.69821  -2.34586  -2.32340
 Alpha  occ. eigenvalues --   -2.29484  -1.40628  -0.98861  -0.89296  -0.89241
 Alpha  occ. eigenvalues --   -0.74830  -0.73053  -0.50831  -0.49860  -0.45380
 Alpha  occ. eigenvalues --   -0.45224  -0.43613  -0.42028  -0.39950  -0.38023
 Alpha  occ. eigenvalues --   -0.37668  -0.36568  -0.32021  -0.29020  -0.27236
 Alpha  occ. eigenvalues --   -0.26668  -0.23043  -0.22686
 Alpha virt. eigenvalues --    0.05334   0.06858   0.07285   0.09664   0.13167
 Alpha virt. eigenvalues --    0.14376   0.14675   0.16803   0.17701   0.21453
 Alpha virt. eigenvalues --    0.21842   0.22451   0.24633   0.25558   0.25578

  Beta  occ. eigenvalues --  -76.33818 -29.32736 -29.32694 -29.32429 -29.31411
  Beta  occ. eigenvalues --  -29.31408 -11.57046  -5.68779  -2.33908  -2.31745
  Beta  occ. eigenvalues --   -2.26201  -1.39725  -0.95618  -0.89036  -0.88913
  Beta  occ. eigenvalues --   -0.72703  -0.72622  -0.49763  -0.45652  -0.45153
  Beta  occ. eigenvalues --   -0.44013  -0.43016  -0.41838  -0.39655  -0.37276
  Beta  occ. eigenvalues --   -0.37204  -0.36123  -0.31803  -0.27838  -0.27209
  Beta  occ. eigenvalues --   -0.24099  -0.23016
  Beta virt. eigenvalues --    0.03174   0.06440   0.07412   0.08490   0.10100
  Beta virt. eigenvalues --    0.14377   0.14682   0.14686   0.19697   0.19748
  Beta virt. eigenvalues --    0.22005   0.22126   0.22696   0.25137   0.25878

 Mulliken charges and spin densities:
               1          2
     1  Si   2.122259   0.990817
     2  C   -1.248893   0.027133
     3  F   -0.849866  -0.014672
     4  F   -0.849866  -0.014672
     5  F    0.288099  -0.012175
     6  F    0.288099  -0.012175
     7  F    0.250168   0.035743
 Sum of Mulliken charges =   0.00000   1.00000

 Dipole moment (field-independent basis, Debye):
    X=             -1.7676    Y=              1.2758    Z=              0.0000  Tot=              2.1799
                          Isotropic Fermi Contact Couplings
        Atom                 a.u.       MegaHertz       Gauss      10(-4) cm-1
     1  Si(29)             0.51873    -461.00709    -164.49879    -153.77541
     2  C(13)              0.05083      57.14019      20.38904      19.05992
     3  F(19)              0.04570     192.28578      68.61235      64.13963
     4  F(19)              0.04570     192.28578      68.61235      64.13963
     5  F(19)             -0.00424     -17.82739      -6.36126      -5.94658
     6  F(19)             -0.00424     -17.82739      -6.36126      -5.94658
     7  F(19)              0.00982      41.30796      14.73971      13.77885
 --------------------------------------------------------

 Normal termination of Gaussian 16 at Tue Apr  8 23:48:25 2025.
