 Gaussian 16, Revision C.01,

 ----------------------------------------------------------------------
 #t hf aug-cc-pvdz symm=none int=(grid=ultrafine) guess=(read,tcheck) s
 table=(opt,rrhf)
 ----------------------------------------------------------------------
 -----
 title
 -----
 Symbolic Z-matrix:
 Charge =  0 Multiplicity = 1

 SCF Done:  E(RHF) =  -624.156761123     A.U. after   16 cycles
 Normal termination of Gaussian 16 at Wed Apr  9 00:51:35 2025.
 Gaussian 16:  ES64L-G16RevC.01  3-Jul-2019

 ----------------------------------------------------------------------
 #t hf aug-cc-pvdz iop(5/13=1,5/36=2,99/5=2) pseudo=read geom=check gue
 ss=(read,tcheck) scf=(maxcycle=1)
 ----------------------------------------------------------------------
 -----
 title
 -----
 Structure from the checkpoint file:  "BDE49_nonexpt_861_mol1.chk"
 Charge =  0 Multiplicity = 1

                         Standard orientation:
 ---------------------------------------------------------------------
 Center     Atomic      Atomic             Coordinates (Angstroms)
 Number     Number       Type             X           Y           Z
 ---------------------------------------------------------------------
      1          6           0       -0.354110    0.009543   -0.005965
      2          6           0       -1.088450   -1.190138   -0.010211
      3          6           0       -2.480655   -1.188907   -0.042938
      4          6           0       -3.176515    0.018303   -0.065070
      5          6           0       -2.471982    1.220093   -0.052806
      6          6           0       -1.078958    1.213159   -0.019427
      7          5           0        1.823112   -0.509184    2.001964
      8          1           0       -3.022397   -2.128582   -0.051024
      9          1           0       -4.260625    0.022106   -0.090762
     10          1           0       -3.007238    2.163404   -0.070539
     11          1           0       -0.552382    2.161692   -0.013197
     12          1           0       -0.568131   -2.142835    0.006740
     13         14           0        1.544785   -0.019328    0.069489
     14          6           0        2.232123    1.677488   -0.388824
     15          1           0        1.900879    2.451749    0.308550
     16          1           0        1.928454    1.973814   -1.397561
     17          1           0        3.326189    1.664084   -0.363245
     18          6           0        2.209019   -1.308663   -1.140313
     19          1           0        1.946045   -1.051968   -2.170900
     20          1           0        1.809854   -2.304200   -0.928483
     21          1           0        3.299961   -1.373510   -1.079370
     22          1           0        1.928401    0.321715    2.853498
     23          1           0        1.785600   -1.646223    2.366942
 ---------------------------------------------------------------------

 SCF Done:  E(RHF) =  -625.969485654     A.U. after    2 cycles

 The electronic state is 1-A.
 Alpha  occ. eigenvalues --  -76.18033 -11.51107 -11.43086 -11.42254 -11.40564
 Alpha  occ. eigenvalues --  -11.40224 -11.35741 -11.34662 -11.34401  -7.60848
 Alpha  occ. eigenvalues --   -5.52202  -2.17087  -2.16374  -2.15311  -1.33227
 Alpha  occ. eigenvalues --   -1.09155  -1.08628  -1.04799  -1.00459  -0.86231
 Alpha  occ. eigenvalues --   -0.85567  -0.82916  -0.71495  -0.65890  -0.61373
 Alpha  occ. eigenvalues --   -0.58209  -0.56541  -0.56334  -0.56061  -0.54426
 Alpha  occ. eigenvalues --   -0.53508  -0.50615  -0.49964  -0.47810  -0.44340
 Alpha  occ. eigenvalues --   -0.38783  -0.38305  -0.35333  -0.32650  -0.31226
 Alpha virt. eigenvalues --    0.02897   0.03308   0.03811   0.04501   0.05415
 Alpha virt. eigenvalues --    0.05636   0.05736   0.06349   0.06694   0.07508
 Alpha virt. eigenvalues --    0.07631   0.08181   0.08662   0.09085   0.09487

 Mulliken charges:
               1
     1  C    1.667966
     2  C   -2.297765
     3  C   -1.645390
     4  C   -2.392830
     5  C   -1.966454
     6  C   -2.285712
     7  B    3.007767
     8  H    1.560642
     9  H    1.529944
    10  H    1.572091
    11  H    1.877069
    12  H    1.922506
    13  Si   6.456187
    14  C   -6.038490
    15  H    1.256177
    16  H    1.112115
    17  H    1.107804
    18  C   -5.922238
    19  H    1.047347
    20  H    1.331637
    21  H    1.223356
    22  H   -2.154285
    23  H   -1.969446
 Sum of Mulliken charges =   0.00000

 Dipole moment (field-independent basis, Debye):
    X=             -0.3712    Y=              0.1663    Z=             -0.5682  Tot=              0.6988

 Test job not archived.
 1\1\GINC-SE016\SP\RHF\Aug-CC-pVDZ\C8H13B1Si1\OHZDE\09-Apr-2025\0\\#t h
 f aug-cc-pvdz iop(5/13=1,5/36=2,99/5=2) pseudo=read geom=check guess=(
 read,tcheck) scf=(maxcycle=1)\\title\\0,1\C,0,-0.35411,0.009543,-0.005
 965\C,0,-1.08845,-1.190138,-0.010211\C,0,-2.480655,-1.188907,-0.042938
 \C,0,-3.176515,0.018303,-0.06507\C,0,-2.471982,1.220093,-0.052806\C,0,
 -1.078958,1.213159,-0.019427\B,0,1.823112,-0.509184,2.001964\H,0,-3.02
 2397,-2.128582,-0.051024\H,0,-4.260625,0.022106,-0.090762\H,0,-3.00723
 8,2.163404,-0.070539\H,0,-0.552382,2.161692,-0.013197\H,0,-0.568131,-2

 Normal termination of Gaussian 16 at Wed Apr  9 00:51:51 2025.
