 Gaussian 16, Revision C.01,

 ----------------------------------------------------------------------
 #t hf aug-cc-pvdz symm=none int=(grid=ultrafine) guess=(read,tcheck) s
 table=(opt,rrhf)
 ----------------------------------------------------------------------
 -----
 title
 -----
 Symbolic Z-matrix:
 Charge =  0 Multiplicity = 1

 SCF Done:  E(RHF) =  -569.135705945     A.U. after   14 cycles
 Normal termination of Gaussian 16 at Tue Apr  8 23:35:07 2025.
 Gaussian 16:  ES64L-G16RevC.01  3-Jul-2019

 ----------------------------------------------------------------------
 #t hf aug-cc-pvdz iop(5/13=1,5/36=2,99/5=2) pseudo=read geom=check gue
 ss=(read,tcheck) scf=(maxcycle=1)
 ----------------------------------------------------------------------
 -----
 title
 -----
 Structure from the checkpoint file:  "BDE49_nonexpt_1469_mol1.chk"
 Charge =  0 Multiplicity = 1

                         Standard orientation:
 ---------------------------------------------------------------------
 Center     Atomic      Atomic             Coordinates (Angstroms)
 Number     Number       Type             X           Y           Z
 ---------------------------------------------------------------------
      1          6           0        0.010521    0.319642    0.019047
      2         15           0        1.774306   -0.294777   -0.121880
      3          8           0       -0.856265   -0.712832    0.016688
      4          8           0       -0.308775    1.478513    0.007356
      5          6           0       -2.255911   -0.353984   -0.008326
      6          1           0       -2.480533    0.236287   -0.897520
      7          1           0       -2.515698    0.222038    0.880592
      8          1           0       -2.794280   -1.298328   -0.025462
      9          1           0        1.670529   -1.324906    0.842457
     10          1           0        2.298045    0.667166    0.771460
 ---------------------------------------------------------------------

 SCF Done:  E(RHF) =  -570.297570485     A.U. after    2 cycles

 The electronic state is 1-A.
 Alpha  occ. eigenvalues -- -105.19998 -21.10069 -21.06068 -11.50427 -11.42107
 Alpha  occ. eigenvalues --   -2.77250  -1.84568  -1.67165  -1.48354  -1.46539
 Alpha  occ. eigenvalues --   -1.44744  -1.02757  -0.82029  -0.71690  -0.63657
 Alpha  occ. eigenvalues --   -0.60985  -0.57178  -0.51886  -0.47888  -0.37993
 Alpha  occ. eigenvalues --   -0.33269  -0.26239  -0.20553  -0.03937
 Alpha virt. eigenvalues --    0.03683   0.05557   0.06388   0.06714   0.07809
 Alpha virt. eigenvalues --    0.08156   0.10111   0.11646   0.12733   0.14005
 Alpha virt. eigenvalues --    0.14557   0.15013   0.15633   0.17332   0.17883

 Mulliken charges:
               1
     1  C    2.886085
     2  P    2.234635
     3  O   -2.660363
     4  O   -2.580385
     5  C   -2.778474
     6  H    1.314943
     7  H    1.331193
     8  H    1.341373
     9  H   -0.557791
    10  H   -0.531216
 Sum of Mulliken charges =  -0.00000

 Dipole moment (field-independent basis, Debye):
    X=              0.2142    Y=             -1.3643    Z=             -2.9479  Tot=              3.2553

 Test job not archived.
 1\1\GINC-SE044\SP\RHF\Aug-CC-pVDZ\C2H5O2P1\OHZDE\08-Apr-2025\0\\#t hf
 aug-cc-pvdz iop(5/13=1,5/36=2,99/5=2) pseudo=read geom=check guess=(re
 ad,tcheck) scf=(maxcycle=1)\\title\\0,1\C,0,0.010521,0.319642,0.019047
 \P,0,1.774306,-0.294777,-0.12188\O,0,-0.856265,-0.712832,0.016688\O,0,
 -0.308775,1.478513,0.007356\C,0,-2.255911,-0.353984,-0.008326\H,0,-2.4
 80533,0.236287,-0.89752\H,0,-2.515698,0.222038,0.880592\H,0,-2.79428,-
 1.298327,-0.025462\H,0,1.670529,-1.324906,0.842457\H,0,2.298045,0.6671
 66,0.77146\\Version=ES64L-G16RevC.01\State=1-A\HF=-570.2975705\RMSD=2.

 Normal termination of Gaussian 16 at Tue Apr  8 23:35:10 2025.
