 Gaussian 16, Revision C.01,

 ----------------------------------------------------------------------
 #t hf aug-cc-pvdz symm=none int=(grid=ultrafine) guess=(read,tcheck) s
 table=(opt,rrhf)
 ----------------------------------------------------------------------
 -----
 title
 -----
 Symbolic Z-matrix:
 Charge =  0 Multiplicity = 1

 SCF Done:  E(RHF) =  -667.298297342     A.U. after   16 cycles
 Normal termination of Gaussian 16 at Tue Apr  8 23:16:35 2025.
 Gaussian 16:  ES64L-G16RevC.01  3-Jul-2019

 ----------------------------------------------------------------------
 #t hf aug-cc-pvdz iop(5/13=1,5/36=2,99/5=2) pseudo=read geom=check gue
 ss=(read,tcheck) scf=(maxcycle=1)
 ----------------------------------------------------------------------
 -----
 title
 -----
 Structure from the checkpoint file:  "BDE49_expt_854_mol1.chk"
 Charge =  0 Multiplicity = 1

                         Standard orientation:
 ---------------------------------------------------------------------
 Center     Atomic      Atomic             Coordinates (Angstroms)
 Number     Number       Type             X           Y           Z
 ---------------------------------------------------------------------
      1          6           0        2.389578    0.009079   -0.001416
      2          6           0        1.524788    1.099990    0.003067
      3          6           0        0.135419    0.940829   -0.000722
      4          6           0        1.870830   -1.281870    0.001535
      5          6           0        0.492371   -1.468881    0.021811
      6          6           0       -0.373655   -0.372136    0.016978
      7          1           0        3.461731    0.168948   -0.007436
      8          1           0        1.932851    2.105448   -0.003288
      9          6           0       -0.765962    2.147414   -0.022903
     10          1           0        2.531465   -2.141243    0.002238
     11          1           0        0.078138   -2.469759    0.050897
     12         16           0       -2.130682   -0.728240   -0.059102
     13          1           0       -2.538562    0.151597    0.871608
     14          1           0       -0.185915    3.061795   -0.157369
     15          1           0       -1.330436    2.250305    0.910853
     16          1           0       -1.498574    2.078197   -0.831981
 ---------------------------------------------------------------------

 SCF Done:  E(RHF) =  -668.841336867     A.U. after    2 cycles

 The electronic state is 1-A.
 Alpha  occ. eigenvalues --  -75.69434 -13.16943 -13.14931 -13.04823 -11.51404
 Alpha  occ. eigenvalues --  -11.45192 -11.43829 -11.41562 -11.41230 -11.39140
 Alpha  occ. eigenvalues --  -11.36632  -8.03383  -1.36897  -1.16859  -1.14382
 Alpha  occ. eigenvalues --   -1.04323  -0.99103  -0.85780  -0.82679  -0.69295
 Alpha  occ. eigenvalues --   -0.63542  -0.61584  -0.58579  -0.57072  -0.54308
 Alpha  occ. eigenvalues --   -0.52052  -0.50184  -0.46973  -0.44130  -0.38561
 Alpha  occ. eigenvalues --   -0.34874  -0.32492  -0.23479
 Alpha virt. eigenvalues --    0.03056   0.04649   0.04842   0.05519   0.06002
 Alpha virt. eigenvalues --    0.06603   0.07118   0.07794   0.09118   0.10040
 Alpha virt. eigenvalues --    0.11087   0.11889   0.12296   0.12704   0.14015

 Mulliken charges:
               1
     1  C   -2.552994
     2  C   -1.307813
     3  C    2.672547
     4  C   -2.064473
     5  C   -4.111574
     6  C    2.255233
     7  H    1.528356
     8  H    1.705962
     9  C   -5.060974
    10  H    1.521920
    11  H    1.790255
    12  S   -0.896582
    13  H    1.024024
    14  H    1.234520
    15  H    1.051015
    16  H    1.210578
 Sum of Mulliken charges =   0.00000

 Dipole moment (field-independent basis, Debye):
    X=              0.1163    Y=             -0.4032    Z=             -0.6465  Tot=              0.7707

 Test job not archived.
 1\1\GINC-SE341\SP\RHF\Aug-CC-pVDZ\C7H8S1\OHZDE\08-Apr-2025\0\\#t hf au
 g-cc-pvdz iop(5/13=1,5/36=2,99/5=2) pseudo=read geom=check guess=(read
 ,tcheck) scf=(maxcycle=1)\\title\\0,1\C,0,2.389578,0.00908,-0.001416\C
 ,0,1.524787,1.099991,0.003067\C,0,0.135419,0.940829,-0.000722\C,0,1.87
 0831,-1.281869,0.001535\C,0,0.492372,-1.468881,0.021811\C,0,-0.373655,
 -0.372136,0.016978\H,0,3.461731,0.16895,-0.007436\H,0,1.93285,2.105449
 ,-0.003288\C,0,-0.765963,2.147414,-0.022903\H,0,2.531466,-2.141242,0.0
 02238\H,0,0.078139,-2.469759,0.050897\S,0,-2.130682,-0.728241,-0.05910

 Normal termination of Gaussian 16 at Tue Apr  8 23:16:41 2025.
