 Gaussian 16, Revision C.01,

 ----------------------------------------------------------------------
 #t hf aug-cc-pvdz symm=none int=(grid=ultrafine) guess=(read,tcheck) s
 table=(opt,rrhf)
 ----------------------------------------------------------------------
 -----
 title
 -----
 Symbolic Z-matrix:
 Charge =  0 Multiplicity = 1

 SCF Done:  E(RHF) =  -984.470600251     A.U. after   12 cycles
 Normal termination of Gaussian 16 at Tue Apr  8 23:46:33 2025.
 Gaussian 16:  ES64L-G16RevC.01  3-Jul-2019

 ----------------------------------------------------------------------
 #t hf aug-cc-pvdz iop(5/13=1,5/36=2,99/5=2) pseudo=read geom=check gue
 ss=(read,tcheck) scf=(maxcycle=1)
 ----------------------------------------------------------------------
 -----
 title
 -----
 Structure from the checkpoint file:  "BDE49_nonexpt_1731_mol1.chk"
 Charge =  0 Multiplicity = 1

                         Standard orientation:
 ---------------------------------------------------------------------
 Center     Atomic      Atomic             Coordinates (Angstroms)
 Number     Number       Type             X           Y           Z
 ---------------------------------------------------------------------
      1         14           0        2.793374   -0.704893    0.314699
      2          6           0        1.084674   -1.096557   -0.341006
      3         17           0        3.338666    1.251134   -0.194136
      4          6           0       -0.060510   -0.239171    0.227677
      5          1           0        0.906115   -2.158794   -0.121055
      6          1           0        1.113312   -1.016570   -1.434431
      7          6           0       -1.437111   -0.622655   -0.330847
      8          1           0        0.133092    0.817540    0.012576
      9          1           0       -0.078717   -0.328692    1.320738
     10          6           0       -2.581721    0.228036    0.230497
     11          1           0       -1.631656   -1.681522   -0.116785
     12          1           0       -1.418649   -0.531559   -1.424370
     13          6           0       -3.958494   -0.150278   -0.327816
     14          1           0       -2.384524    1.286594    0.017556
     15          1           0       -2.598810    0.137007    1.324373
     16          6           0       -5.096359    0.703987    0.238139
     17          1           0       -4.155519   -1.208097   -0.115311
     18          1           0       -3.941684   -0.058426   -1.420561
     19          1           0       -5.161322    0.605768    1.326294
     20          1           0       -6.062925    0.409608   -0.179656
     21          1           0       -4.945639    1.764010    0.011229
     22          1           0        3.813774   -1.595565   -0.275680
     23          1           0        2.845713   -0.782256    1.789741
 ---------------------------------------------------------------------

 SCF Done:  E(RHF) =  -986.114548718     A.U. after    2 cycles

 The electronic state is 1-A.
 Alpha  occ. eigenvalues --  -99.87472 -76.25093 -11.43113 -11.42090 -11.39831
 Alpha  occ. eigenvalues --  -11.37468 -11.36133 -11.34196 -10.44856  -9.64776
 Alpha  occ. eigenvalues --   -9.64207  -9.64112  -5.58676  -2.22522  -2.20907
 Alpha  occ. eigenvalues --   -2.20642  -1.28515  -1.26698  -1.16402  -1.04621
 Alpha  occ. eigenvalues --   -0.93810  -0.85319  -0.82298  -0.75514  -0.66792
 Alpha  occ. eigenvalues --   -0.62457  -0.58868  -0.57091  -0.57001  -0.54933
 Alpha  occ. eigenvalues --   -0.53968  -0.52542  -0.52310  -0.50564  -0.47696
 Alpha  occ. eigenvalues --   -0.46868  -0.46462  -0.45248  -0.44620  -0.44203
 Alpha  occ. eigenvalues --   -0.36895
 Alpha virt. eigenvalues --    0.03952   0.04556   0.04838   0.05183   0.05429
 Alpha virt. eigenvalues --    0.05529   0.05901   0.06387   0.06706   0.07484
 Alpha virt. eigenvalues --    0.07739   0.08286   0.08648   0.09721   0.10552

 Mulliken charges:
               1
     1  Si   5.347378
     2  C   -4.795613
     3  Cl  -0.883032
     4  C   -3.137261
     5  H    1.579630
     6  H    1.490021
     7  C   -1.747586
     8  H    1.542029
     9  H    1.663636
    10  C   -2.180969
    11  H    1.509364
    12  H    1.548568
    13  C   -3.248620
    14  H    1.566745
    15  H    1.522527
    16  C   -4.609125
    17  H    1.460157
    18  H    1.464143
    19  H    1.346693
    20  H    1.084175
    21  H    1.336706
    22  H   -1.920102
    23  H   -1.939465
 Sum of Mulliken charges =   0.00000

 Dipole moment (field-independent basis, Debye):
    X=             -1.7448    Y=             -1.6242    Z=             -0.0259  Tot=              2.3839

 Test job not archived.
 1\1\GINC-SE120\SP\RHF\Aug-CC-pVDZ\C6H15Cl1Si1\OHZDE\08-Apr-2025\0\\#t
 hf aug-cc-pvdz iop(5/13=1,5/36=2,99/5=2) pseudo=read geom=check guess=
 (read,tcheck) scf=(maxcycle=1)\\title\\0,1\Si,0,2.793374,-0.704893,0.3
 14699\C,0,1.084674,-1.096557,-0.341006\Cl,0,3.338666,1.251134,-0.19413
 6\C,0,-0.06051,-0.239171,0.227677\H,0,0.906115,-2.158794,-0.121055\H,0
 ,1.113312,-1.01657,-1.434431\C,0,-1.437111,-0.622655,-0.330847\H,0,0.1
 33092,0.81754,0.012576\H,0,-0.078717,-0.328692,1.320738\C,0,-2.581721,
 0.228036,0.230497\H,0,-1.631656,-1.681522,-0.116785\H,0,-1.418649,-0.5

 Normal termination of Gaussian 16 at Tue Apr  8 23:46:45 2025.
