 Gaussian 16, Revision C.01,

 ----------------------------------------------------------------------
 #t hf aug-cc-pvdz symm=none int=(grid=ultrafine) guess=(read,tcheck) s
 table=(opt,rrhf)
 ----------------------------------------------------------------------
 -----
 title
 -----
 Symbolic Z-matrix:
 Charge =  0 Multiplicity = 1

 SCF Done:  E(RHF) =  -894.247249116     A.U. after   15 cycles
 Normal termination of Gaussian 16 at Tue Apr  8 23:26:02 2025.
 Gaussian 16:  ES64L-G16RevC.01  3-Jul-2019

 ----------------------------------------------------------------------
 #t hf aug-cc-pvdz iop(5/13=1,5/36=2,99/5=2) pseudo=read geom=check gue
 ss=(read,tcheck) scf=(maxcycle=1)
 ----------------------------------------------------------------------
 -----
 title
 -----
 Structure from the checkpoint file:  "BDE49_nonexpt_1197_mol1.chk"
 Charge =  0 Multiplicity = 1

                         Standard orientation:
 ---------------------------------------------------------------------
 Center     Atomic      Atomic             Coordinates (Angstroms)
 Number     Number       Type             X           Y           Z
 ---------------------------------------------------------------------
      1          6           0       -1.607364    0.192871   -0.399635
      2          8           0       -0.879812    1.145448   -0.471459
      3         16           0       -0.995592   -1.496633   -0.333241
      4          8           0        0.658810   -1.219476   -0.528249
      5          6           0        1.390232   -0.798187    0.581273
      6          8           0        0.923106   -0.677780    1.672597
      7          6           0       -3.122984    0.245628   -0.345985
      8          6           0        2.813484   -0.527885    0.154015
      9          6           0        2.949386    0.745377   -0.708572
     10          1           0        3.171707   -1.391949   -0.411987
     11          1           0        3.403635   -0.438551    1.068194
     12          6           0        2.564041    2.031536    0.026324
     13          1           0        2.335266    0.629785   -1.605367
     14          1           0        3.990348    0.803949   -1.042281
     15          1           0        3.155671    2.159542    0.938112
     16          1           0        1.507425    2.029602    0.301196
     17          1           0        2.738465    2.902868   -0.610277
     18          6           0       -3.617293    1.265209    0.687383
     19          1           0       -3.527808   -0.751683   -0.141992
     20          1           0       -3.458862    0.526967   -1.350405
     21          1           0       -3.323584    0.972381    1.697870
     22          1           0       -4.705874    1.342741    0.655259
     23          1           0       -3.190758    2.247656    0.481594
 ---------------------------------------------------------------------

 SCF Done:  E(RHF) =  -896.735091419     A.U. after    2 cycles

 The electronic state is 1-A.
 Alpha  occ. eigenvalues --  -75.75322 -21.10839 -21.07324 -21.06178 -13.24539
 Alpha  occ. eigenvalues --  -13.16633 -13.10966 -11.53765 -11.52112 -11.43251
 Alpha  occ. eigenvalues --  -11.43021 -11.39389 -11.38291 -11.35234  -8.09155
 Alpha  occ. eigenvalues --   -1.84369  -1.73257  -1.67741  -1.23295  -1.21581
 Alpha  occ. eigenvalues --   -1.11679  -1.03355  -0.95092  -0.87225  -0.78756
 Alpha  occ. eigenvalues --   -0.72597  -0.65977  -0.65025  -0.63696  -0.63260
 Alpha  occ. eigenvalues --   -0.60594  -0.56948  -0.55796  -0.55097  -0.53351
 Alpha  occ. eigenvalues --   -0.51488  -0.51261  -0.48917  -0.47405  -0.46387
 Alpha  occ. eigenvalues --   -0.45354  -0.43804  -0.40891  -0.35846  -0.30093
 Alpha  occ. eigenvalues --   -0.27213  -0.25943
 Alpha virt. eigenvalues --    0.03372   0.04564   0.04862   0.05298   0.05616
 Alpha virt. eigenvalues --    0.06012   0.06421   0.06761   0.07027   0.07109
 Alpha virt. eigenvalues --    0.07762   0.08913   0.10086   0.11077   0.11913

 Mulliken charges:
               1
     1  C    3.578149
     2  O   -3.535595
     3  S    1.321236
     4  O   -2.744250
     5  C    6.554236
     6  O   -3.303885
     7  C   -3.536518
     8  C   -3.863169
     9  C   -3.398540
    10  H    1.411960
    11  H    1.374762
    12  C   -3.853968
    13  H    1.610328
    14  H    1.341832
    15  H    1.229803
    16  H    1.606324
    17  H    1.208240
    18  C   -3.979202
    19  H    1.762486
    20  H    1.363640
    21  H    1.296516
    22  H    1.155170
    23  H    1.400446
 Sum of Mulliken charges =  -0.00000

 Dipole moment (field-independent basis, Debye):
    X=             -0.7774    Y=             -0.7275    Z=             -0.6016  Tot=              1.2229

 Test job not archived.
 1\1\GINC-SE127\SP\RHF\Aug-CC-pVDZ\C7H12O3S1\OHZDE\08-Apr-2025\0\\#t hf
  aug-cc-pvdz iop(5/13=1,5/36=2,99/5=2) pseudo=read geom=check guess=(r
 ead,tcheck) scf=(maxcycle=1)\\title\\0,1\C,0,-1.607364,0.192871,-0.399
 635\O,0,-0.879812,1.145448,-0.471459\S,0,-0.995592,-1.496633,-0.333241
 \O,0,0.65881,-1.219476,-0.528249\C,0,1.390232,-0.798187,0.581273\O,0,0
 .923106,-0.67778,1.672597\C,0,-3.122984,0.245628,-0.345985\C,0,2.81348
 4,-0.527885,0.154015\C,0,2.949386,0.745377,-0.708572\H,0,3.171707,-1.3
 91949,-0.411987\H,0,3.403635,-0.438551,1.068194\C,0,2.564041,2.031536,

 Normal termination of Gaussian 16 at Tue Apr  8 23:26:17 2025.
