 Gaussian 16, Revision C.01,

 ----------------------------------------------------------------------
 #t hf aug-cc-pvdz symm=none int=(grid=ultrafine) guess=(read,tcheck) s
 table=opt
 ----------------------------------------------------------------------
 -----
 title
 -----
 Symbolic Z-matrix:
 Charge =  0 Multiplicity = 2

 SCF Done:  E(UHF) =  -256.679765461     A.U. after   18 cycles
 Normal termination of Gaussian 16 at Wed Apr  9 00:34:57 2025.
 Gaussian 16:  ES64L-G16RevC.01  3-Jul-2019

 ----------------------------------------------------------------------
 #t hf aug-cc-pvdz iop(5/13=1,5/36=2,99/5=2) pseudo=read geom=check gue
 ss=(read,tcheck) scf=(maxcycle=1)
 ----------------------------------------------------------------------
 -----
 title
 -----
 Structure from the checkpoint file:  "BDE49_nonexpt_444_mol2.chk"
 Charge =  0 Multiplicity = 2

                         Standard orientation:
 ---------------------------------------------------------------------
 Center     Atomic      Atomic             Coordinates (Angstroms)
 Number     Number       Type             X           Y           Z
 ---------------------------------------------------------------------
      1          5           0        1.290084    0.040823   -0.000055
      2          9           0        2.561485   -0.245714    0.000078
      3          7           0        0.073946    0.327937   -0.000007
      4          6           0       -1.241204    0.593525   -0.000045
      5          6           0       -2.247805   -0.509807   -0.000030
      6          1           0       -2.138150   -1.157301    0.880748
      7          1           0       -2.137553   -1.157823   -0.880337
      8          1           0       -3.263379   -0.108994   -0.000475
      9          1           0       -1.548264    1.633563    0.000135
 ---------------------------------------------------------------------

 SCF Done:  E(UHF) =  -257.721319885     A.U. after    2 cycles

 The electronic state is 2-A.
 Alpha  occ. eigenvalues --  -29.29307 -15.67824 -11.41771 -11.36321  -7.71782
 Alpha  occ. eigenvalues --   -1.35702  -1.10077  -0.96528  -0.90823  -0.69189
 Alpha  occ. eigenvalues --   -0.64779  -0.63447  -0.56649  -0.54127  -0.51479
 Alpha  occ. eigenvalues --   -0.46030  -0.38525  -0.26910  -0.19015
 Alpha virt. eigenvalues --    0.03506   0.03625   0.03626   0.06060   0.06519
 Alpha virt. eigenvalues --    0.06775   0.07851   0.09788   0.10576   0.13678
 Alpha virt. eigenvalues --    0.13930   0.14348   0.14832   0.15060   0.16228

  Beta  occ. eigenvalues --  -29.29204 -15.68709 -11.40199 -11.35992  -7.71271
  Beta  occ. eigenvalues --   -1.35000  -1.08270  -0.96176  -0.87681  -0.68552
  Beta  occ. eigenvalues --   -0.63303  -0.62971  -0.54226  -0.53691  -0.50718
  Beta  occ. eigenvalues --   -0.45746  -0.32220  -0.27905
  Beta virt. eigenvalues --    0.03536   0.03743   0.03799   0.06080   0.06564
  Beta virt. eigenvalues --    0.06809   0.07718   0.10222   0.10896   0.11242
  Beta virt. eigenvalues --    0.13791   0.14557   0.15184   0.16229   0.16370

 Mulliken charges and spin densities:
               1          2
     1  B   -0.853296   0.240632
     2  F    1.166786   0.095194
     3  N   -3.679359  -0.331101
     4  C    1.733625   1.394707
     5  C   -3.625583  -0.383773
     6  H    1.226408   0.023778
     7  H    1.226445   0.023750
     8  H    1.258924   0.004085
     9  H    1.546049  -0.067272
 Sum of Mulliken charges =  -0.00000   1.00000

 Dipole moment (field-independent basis, Debye):
    X=              3.6697    Y=             -0.8674    Z=              0.0004  Tot=              3.7708
                          Isotropic Fermi Contact Couplings
        Atom                 a.u.       MegaHertz       Gauss      10(-4) cm-1
     1  B(11)              0.02436      34.94353      12.46872      11.65591
     2  F(19)             -0.00247     -10.39675      -3.70982      -3.46798
     3  N(14)             -0.10446     -33.75089     -12.04316     -11.25808
     4  C(13)              0.12379     139.15983      49.65569      46.41872
     5  C(13)             -0.03639     -40.91040     -14.59785     -13.64624
     6  H(1)               0.01448      64.71840      23.09313      21.58773
     7  H(1)               0.01446      64.64839      23.06815      21.56438
     8  H(1)               0.00134       5.98178       2.13445       1.99531

 Normal termination of Gaussian 16 at Wed Apr  9 00:35:00 2025.
