 Gaussian 16, Revision C.01,

 ----------------------------------------------------------------------
 #t hf aug-cc-pvdz symm=none int=(grid=ultrafine) guess=(read,tcheck) s
 table=(opt,rrhf)
 ----------------------------------------------------------------------
 -----
 title
 -----
 Symbolic Z-matrix:
 Charge =  0 Multiplicity = 1

 SCF Done:  E(RHF) =  -76.8857373650     A.U. after   11 cycles
 Normal termination of Gaussian 16 at Tue Apr  8 23:33:00 2025.
 Gaussian 16:  ES64L-G16RevC.01  3-Jul-2019

 ----------------------------------------------------------------------
 #t hf aug-cc-pvdz iop(5/13=1,5/36=2,99/5=2) pseudo=read geom=check gue
 ss=(read,tcheck) scf=(maxcycle=1)
 ----------------------------------------------------------------------
 -----
 title
 -----
 Structure from the checkpoint file:  "BDE49_nonexpt_142_mol1.chk"
 Charge =  0 Multiplicity = 1

                         Standard orientation:
 ---------------------------------------------------------------------
 Center     Atomic      Atomic             Coordinates (Angstroms)
 Number     Number       Type             X           Y           Z
 ---------------------------------------------------------------------
      1          5           0       -1.476457   -0.214413    0.000009
      2          5           0       -0.000000    0.469061   -0.000033
      3          5           0        1.476458   -0.214410    0.000019
      4          1           0        2.048263   -0.469315    1.018517
      5          1           0        2.048322   -0.469348   -1.018436
      6          1           0        0.000004    1.676122   -0.000107
      7          1           0       -2.048265   -0.469457   -1.018452
      8          1           0       -2.048329   -0.469189    1.018501
 ---------------------------------------------------------------------

 SCF Done:  E(RHF) =  -77.2453476677     A.U. after    2 cycles

 The electronic state is 1-A.
 Alpha  occ. eigenvalues --   -7.59587  -7.59429  -7.56661  -0.97691  -0.83263
 Alpha  occ. eigenvalues --   -0.66463  -0.49186  -0.47103  -0.42918  -0.36336
 Alpha virt. eigenvalues --    0.00987   0.01680   0.01797   0.04569   0.06383
 Alpha virt. eigenvalues --    0.08051   0.08182   0.08361   0.09198   0.09844
 Alpha virt. eigenvalues --    0.10977   0.11482   0.12042   0.13203   0.13306

 Mulliken charges:
               1
     1  B    5.555553
     2  B    0.357832
     3  B    5.555574
     4  H   -2.459738
     5  H   -2.459761
     6  H   -1.629970
     7  H   -2.459741
     8  H   -2.459750
 Sum of Mulliken charges =  -0.00000

 Dipole moment (field-independent basis, Debye):
    X=              0.0000    Y=              0.0925    Z=             -0.0000  Tot=              0.0925

 Test job not archived.
 1\1\GINC-SE345\SP\RHF\Aug-CC-pVDZ\B3H5\OHZDE\08-Apr-2025\0\\#t hf aug-
 cc-pvdz iop(5/13=1,5/36=2,99/5=2) pseudo=read geom=check guess=(read,t
 check) scf=(maxcycle=1)\\title\\0,1\B,0,-1.476457,-0.214413,0.000009\B
 ,0,0.,0.469061,-0.000033\B,0,1.476458,-0.21441,0.000019\H,0,2.048263,-
 0.469315,1.018517\H,0,2.048322,-0.469348,-1.018436\H,0,0.000004,1.6761
 22,-0.000107\H,0,-2.048265,-0.469457,-1.018452\H,0,-2.048329,-0.469189
 ,1.018501\\Version=ES64L-G16RevC.01\State=1-A\HF=-77.2453477\RMSD=1.75
 9e-01\Dipole=0.0000025,0.036402,-0.000005\Quadrupole=-1.7523387,1.6741

 Normal termination of Gaussian 16 at Tue Apr  8 23:33:02 2025.
