 Gaussian 16, Revision C.01,

 ----------------------------------------------------------------------
 #t hf aug-cc-pvdz symm=none int=(grid=ultrafine) guess=(read,tcheck) s
 table=opt
 ----------------------------------------------------------------------
 -----
 title
 -----
 Symbolic Z-matrix:
 Charge =  0 Multiplicity = 2

 SCF Done:  E(UHF) =  -951.728040486     A.U. after   17 cycles
 Normal termination of Gaussian 16 at Wed Apr  9 00:12:51 2025.
 Gaussian 16:  ES64L-G16RevC.01  3-Jul-2019

 ----------------------------------------------------------------------
 #t hf aug-cc-pvdz iop(5/13=1,5/36=2,99/5=2) pseudo=read geom=check gue
 ss=(read,tcheck) scf=(maxcycle=1)
 ----------------------------------------------------------------------
 -----
 title
 -----
 Structure from the checkpoint file:  "BDE49_nonexpt_2424_mol2.chk"
 Charge =  0 Multiplicity = 2

                         Standard orientation:
 ---------------------------------------------------------------------
 Center     Atomic      Atomic             Coordinates (Angstroms)
 Number     Number       Type             X           Y           Z
 ---------------------------------------------------------------------
      1         14           0        1.968775   -0.650507   -0.128465
      2         16           0        0.007898    0.411969    0.033119
      3          1           0        2.971116    0.435695   -0.030356
      4          1           0        2.054672   -1.607597    0.999245
      5          8           0       -0.241757    0.856517    1.391351
      6          8           0       -0.919909   -0.908555   -0.252635
      7          8           0       -0.157938    1.350486   -1.055364
      8          6           0       -2.347550   -0.750277   -0.054739
      9          1           0       -2.770016   -1.735428   -0.239459
     10          1           0       -2.749355   -0.028735   -0.767881
     11          1           0       -2.553498   -0.434262    0.968666
 ---------------------------------------------------------------------

 SCF Done:  E(UHF) =  -953.255689417     A.U. after    2 cycles

 The electronic state is 2-A.
 Alpha  occ. eigenvalues --  -76.29337 -75.90046 -21.09604 -21.05497 -21.05413
 Alpha  occ. eigenvalues --  -13.52011 -13.43415 -13.33803 -11.43031  -8.25092
 Alpha  occ. eigenvalues --   -5.62536  -2.24771  -2.24436  -2.23531  -1.88999
 Alpha  occ. eigenvalues --   -1.73118  -1.65503  -1.05909  -0.92306  -0.79319
 Alpha  occ. eigenvalues --   -0.66275  -0.63885  -0.60075  -0.56236  -0.52497
 Alpha  occ. eigenvalues --   -0.49856  -0.48881  -0.42172  -0.38161  -0.36849
 Alpha  occ. eigenvalues --   -0.36597  -0.33316  -0.29509
 Alpha virt. eigenvalues --    0.02991   0.03480   0.05552   0.06103   0.06628
 Alpha virt. eigenvalues --    0.07006   0.07225   0.09120   0.10540   0.11807
 Alpha virt. eigenvalues --    0.12813   0.13133   0.14319   0.14652   0.15240

  Beta  occ. eigenvalues --  -76.28735 -75.90036 -21.09609 -21.05426 -21.05296
  Beta  occ. eigenvalues --  -13.52025 -13.43431 -13.33722 -11.43036  -8.25076
  Beta  occ. eigenvalues --   -5.61573  -2.24041  -2.23773  -2.19813  -1.88927
  Beta  occ. eigenvalues --   -1.73046  -1.65269  -1.05740  -0.91448  -0.75599
  Beta  occ. eigenvalues --   -0.65768  -0.63853  -0.59928  -0.55831  -0.51613
  Beta  occ. eigenvalues --   -0.49440  -0.48791  -0.41257  -0.36904  -0.36732
  Beta  occ. eigenvalues --   -0.34443  -0.33172
  Beta virt. eigenvalues --    0.00479   0.03173   0.03874   0.05697   0.06536
  Beta virt. eigenvalues --    0.06921   0.07195   0.07929   0.09591   0.11228
  Beta virt. eigenvalues --    0.12241   0.13258   0.13393   0.15026   0.15331

 Mulliken charges and spin densities:
               1          2
     1  Si   3.762572   0.967913
     2  S    5.294097   0.016311
     3  H   -1.467002   0.019706
     4  H   -1.438480   0.026381
     5  O   -2.436772   0.040246
     6  O   -2.564760  -0.063437
     7  O   -2.448096  -0.002857
     8  C   -2.740062  -0.004249
     9  H    1.308676   0.000190
    10  H    1.346121   0.000717
    11  H    1.383706  -0.000920
 Sum of Mulliken charges =  -0.00000   1.00000

 Dipole moment (field-independent basis, Debye):
    X=             -0.0386    Y=             -2.3703    Z=             -0.6543  Tot=              2.4592
                          Isotropic Fermi Contact Couplings
        Atom                 a.u.       MegaHertz       Gauss      10(-4) cm-1
     1  Si(29)             0.52230    -464.18487    -165.63271    -154.83541
     2  S(33)              0.04986      17.12614       6.11103       5.71267
     3  H(1)               0.00640      28.59366      10.20293       9.53782
     4  H(1)               0.00936      41.81694      14.92133      13.94863
     5  O(17)              0.01612      -9.77153      -3.48672      -3.25943
     6  O(17)             -0.00622       3.77299       1.34630       1.25854
     7  O(17)             -0.00062       0.37379       0.13338       0.12468
     8  C(13)             -0.00093      -1.04358      -0.37238      -0.34810

 1\1\GINC-SE069\SP\UHF\Aug-CC-pVDZ\C1H5O3S1Si1(2)\OHZDE\09-Apr-2025\0\\
 #t hf aug-cc-pvdz iop(5/13=1,5/36=2,99/5=2) pseudo=read geom=check gue
 ss=(read,tcheck) scf=(maxcycle=1)\\title\\0,2\Si,0,1.968775,-0.650507,
 -0.128465\S,0,0.007898,0.411969,0.033119\H,0,2.971116,0.435695,-0.0303
 56\H,0,2.054672,-1.607597,0.999245\O,0,-0.241757,0.856517,1.391351\O,0
 ,-0.919909,-0.908555,-0.252635\O,0,-0.157938,1.350486,-1.055364\C,0,-2
 .34755,-0.750277,-0.054739\H,0,-2.770016,-1.735428,-0.239459\H,0,-2.74
 9355,-0.028735,-0.767881\H,0,-2.553498,-0.434262,0.968666\\Version=ES6

 Normal termination of Gaussian 16 at Wed Apr  9 00:12:56 2025.
