 Gaussian 16, Revision C.01,

 ----------------------------------------------------------------------
 #t hf aug-cc-pvdz symm=none int=(grid=ultrafine) guess=(read,tcheck) s
 table=(opt,rrhf)
 ----------------------------------------------------------------------
 -----
 title
 -----
 Symbolic Z-matrix:
 Charge =  0 Multiplicity = 1

 SCF Done:  E(RHF) =  -831.794438084     A.U. after   16 cycles
 Normal termination of Gaussian 16 at Wed Apr  9 00:55:00 2025.
 Gaussian 16:  ES64L-G16RevC.01  3-Jul-2019

 ----------------------------------------------------------------------
 #t hf aug-cc-pvdz iop(5/13=1,5/36=2,99/5=2) pseudo=read geom=check gue
 ss=(read,tcheck) scf=(maxcycle=1)
 ----------------------------------------------------------------------
 -----
 title
 -----
 Structure from the checkpoint file:  "BDE49_nonexpt_968_mol1.chk"
 Charge =  0 Multiplicity = 1

                         Standard orientation:
 ---------------------------------------------------------------------
 Center     Atomic      Atomic             Coordinates (Angstroms)
 Number     Number       Type             X           Y           Z
 ---------------------------------------------------------------------
      1          9           0       -2.448073   -1.860559   -0.558349
      2          7           0       -1.078881   -1.566297   -0.353528
      3          6           0       -0.995987   -0.348423    0.070022
      4          7           0       -2.017107    0.486372    0.362373
      5          1           0       -2.915304    0.101668    0.105854
      6          6           0       -1.939763    1.934473    0.537192
      7          1           0       -2.850996    2.262243    1.036336
      8          1           0       -1.844497    2.462257   -0.416262
      9          1           0       -1.101944    2.199422    1.181395
     10          6           0        0.425087    0.077812    0.352729
     11          9           0        0.582625    0.512527    1.604557
     12          7           0        1.443012   -1.094921    0.128427
     13          8           0        1.841364   -1.239180   -1.003612
     14          8           0        1.731822   -1.709963    1.123631
     15          7           0        0.907255    1.209867   -0.602346
     16          8           0        1.851403    1.852967   -0.204460
     17          8           0        0.298635    1.330972   -1.643976
 ---------------------------------------------------------------------

 SCF Done:  E(RHF) =  -835.202368428     A.U. after    2 cycles

 The electronic state is 1-A.
 Alpha  occ. eigenvalues --  -29.37857 -29.29360 -21.15604 -21.15397 -21.14732
 Alpha  occ. eigenvalues --  -21.14339 -16.05737 -16.05354 -15.83477 -15.81696
 Alpha  occ. eigenvalues --  -11.68877 -11.54713 -11.44880  -2.06538  -2.04224
 Alpha  occ. eigenvalues --   -1.75893  -1.75214  -1.56222  -1.38936  -1.36836
 Alpha  occ. eigenvalues --   -1.07418  -1.05318  -1.01170  -0.95265  -0.80649
 Alpha  occ. eigenvalues --   -0.79436  -0.76676  -0.75243  -0.70346  -0.68029
 Alpha  occ. eigenvalues --   -0.67632  -0.65814  -0.64944  -0.63389  -0.59372
 Alpha  occ. eigenvalues --   -0.59156  -0.53668  -0.50417  -0.45593  -0.42848
 Alpha  occ. eigenvalues --   -0.42185  -0.39935  -0.37517  -0.37064  -0.36378
 Alpha  occ. eigenvalues --   -0.34677  -0.32492  -0.31545  -0.26556  -0.24899
 Alpha virt. eigenvalues --    0.02693   0.05011   0.05304   0.06427   0.08857
 Alpha virt. eigenvalues --    0.09546   0.10031   0.10647   0.11115   0.12171
 Alpha virt. eigenvalues --    0.12488   0.13447   0.14011   0.14515   0.15023

 Mulliken charges:
               1
     1  F   -0.283310
     2  N   -2.026938
     3  C    3.565626
     4  N   -2.592097
     5  H    0.560320
     6  C   -3.553608
     7  H    1.376176
     8  H    1.397433
     9  H    1.388890
    10  C    2.609413
    11  F    0.744138
    12  N    4.040330
    13  O   -2.939407
    14  O   -2.918843
    15  N    4.812573
    16  O   -2.992586
    17  O   -3.188109
 Sum of Mulliken charges =   0.00000

 Dipole moment (field-independent basis, Debye):
    X=             -4.0637    Y=              2.3706    Z=              3.0326  Tot=              5.5973

 Test job not archived.
 1\1\GINC-SE461\SP\RHF\Aug-CC-pVDZ\C3H4F2N4O4\OHZDE\09-Apr-2025\0\\#t h
 f aug-cc-pvdz iop(5/13=1,5/36=2,99/5=2) pseudo=read geom=check guess=(
 read,tcheck) scf=(maxcycle=1)\\title\\0,1\F,0,-2.448073,-1.860559,-0.5
 58349\N,0,-1.078881,-1.566297,-0.353528\C,0,-0.995987,-0.348423,0.0700
 22\N,0,-2.017107,0.486372,0.362373\H,0,-2.915304,0.101668,0.105854\C,0
 ,-1.939763,1.934473,0.537192\H,0,-2.850996,2.262243,1.036336\H,0,-1.84
 4497,2.462257,-0.416262\H,0,-1.101944,2.199422,1.181395\C,0,0.425087,0
 .077812,0.352729\F,0,0.582625,0.512527,1.604557\N,0,1.443012,-1.094921

 Normal termination of Gaussian 16 at Wed Apr  9 00:55:10 2025.
