 Gaussian 16, Revision C.01,

 ----------------------------------------------------------------------
 #t hf aug-cc-pvdz symm=none int=(grid=ultrafine) guess=(read,tcheck) s
 table=(opt,rrhf)
 ----------------------------------------------------------------------
 -----
 title
 -----
 Symbolic Z-matrix:
 Charge =  0 Multiplicity = 1

 SCF Done:  E(RHF) =  -1375.27083218     A.U. after   14 cycles
 Normal termination of Gaussian 16 at Wed Apr  9 00:52:13 2025.
 Gaussian 16:  ES64L-G16RevC.01  3-Jul-2019

 ----------------------------------------------------------------------
 #t hf aug-cc-pvdz iop(5/13=1,5/36=2,99/5=2) pseudo=read geom=check gue
 ss=(read,tcheck) scf=(maxcycle=1)
 ----------------------------------------------------------------------
 -----
 title
 -----
 Structure from the checkpoint file:  "BDE49_nonexpt_914_mol1.chk"
 Charge =  0 Multiplicity = 1

                         Standard orientation:
 ---------------------------------------------------------------------
 Center     Atomic      Atomic             Coordinates (Angstroms)
 Number     Number       Type             X           Y           Z
 ---------------------------------------------------------------------
      1         16           0       -0.258553   -1.043328   -0.000239
      2          5           0        1.248598   -0.042659   -0.000117
      3         16           0        2.819035   -0.988480    0.000068
      4          6           0       -1.857017   -0.038225    0.000052
      5          6           0       -2.945885   -1.124874   -0.001035
      6          1           0       -2.875984   -1.761128    0.884067
      7          1           0       -2.875630   -1.759733   -0.887108
      8          6           0       -1.976409    0.805095   -1.274459
      9          1           0       -2.949420    1.308208   -1.287985
     10          1           0       -1.905268    0.177072   -2.164553
     11          1           0       -1.204736    1.571923   -1.348089
     12          6           0       -1.976974    0.803129    1.275807
     13          1           0       -1.906532    0.173689    2.164955
     14          1           0       -2.949859    1.306480    1.289539
     15          1           0       -1.205102    1.569597    1.351125
     16          1           0       -3.930907   -0.648027   -0.000849
     17         16           0        1.536796    1.759498    0.000008
     18          1           0        0.265816    2.179986   -0.000152
     19          1           0        2.275887   -2.218566    0.000052
 ---------------------------------------------------------------------

 SCF Done:  E(RHF) =  -1376.89815244     A.U. after    2 cycles

 The electronic state is 1-A.
 Alpha  occ. eigenvalues --  -75.69838 -75.68860 -75.68046 -13.18270 -13.17040
 Alpha  occ. eigenvalues --  -13.15156 -13.12368 -13.09930 -13.08094 -13.05649
 Alpha  occ. eigenvalues --  -13.04714 -13.03593 -11.45281 -11.40587 -11.40397
 Alpha  occ. eigenvalues --  -11.37198  -8.03862  -8.02767  -8.02059  -7.67856
 Alpha  occ. eigenvalues --   -1.32016  -1.21419  -1.10205  -1.06454  -1.02571
 Alpha  occ. eigenvalues --   -1.02110  -0.79998  -0.68416  -0.62843  -0.62449
 Alpha  occ. eigenvalues --   -0.62166  -0.56098  -0.55939  -0.53004  -0.51222
 Alpha  occ. eigenvalues --   -0.48096  -0.46622  -0.45650  -0.41949  -0.37460
 Alpha  occ. eigenvalues --   -0.32880  -0.30619  -0.25345  -0.23868
 Alpha virt. eigenvalues --    0.02322   0.03045   0.03092   0.03256   0.05563
 Alpha virt. eigenvalues --    0.05642   0.05977   0.06803   0.06818   0.08428
 Alpha virt. eigenvalues --    0.08851   0.09336   0.09705   0.10326   0.10478

 Mulliken charges:
               1
     1  S   -1.765593
     2  B    4.650026
     3  S   -2.871104
     4  C    2.468232
     5  C   -4.119833
     6  H    1.281464
     7  H    1.281512
     8  C   -4.477832
     9  H    1.179851
    10  H    1.400800
    11  H    1.302930
    12  C   -4.478040
    13  H    1.400998
    14  H    1.180033
    15  H    1.301618
    16  H    1.181201
    17  S   -2.565606
    18  H    0.737920
    19  H    0.911423
 Sum of Mulliken charges =   0.00000

 Dipole moment (field-independent basis, Debye):
    X=              0.6804    Y=              0.2684    Z=              0.0004  Tot=              0.7315

 Test job not archived.
 1\1\GINC-SE345\SP\RHF\Aug-CC-pVDZ\C4H11B1S3\OHZDE\09-Apr-2025\0\\#t hf
  aug-cc-pvdz iop(5/13=1,5/36=2,99/5=2) pseudo=read geom=check guess=(r
 ead,tcheck) scf=(maxcycle=1)\\title\\0,1\S,0,-0.258553,-1.043328,-0.00
 0239\B,0,1.248598,-0.042659,-0.000117\S,0,2.819035,-0.98848,0.000068\C
 ,0,-1.857017,-0.038225,0.000052\C,0,-2.945885,-1.124874,-0.001035\H,0,
 -2.875984,-1.761128,0.884067\H,0,-2.87563,-1.759733,-0.887108\C,0,-1.9
 76409,0.805095,-1.274459\H,0,-2.94942,1.308208,-1.287985\H,0,-1.905268
 ,0.177072,-2.164553\H,0,-1.204736,1.571923,-1.348089\C,0,-1.976974,0.8

 Normal termination of Gaussian 16 at Wed Apr  9 00:52:22 2025.
