 Gaussian 16, Revision C.01,

 ----------------------------------------------------------------------
 #t hf aug-cc-pvdz symm=none int=(grid=ultrafine) guess=(read,tcheck) s
 table=(opt,rrhf)
 ----------------------------------------------------------------------
 -----
 title
 -----
 Symbolic Z-matrix:
 Charge =  0 Multiplicity = 1

 SCF Done:  E(RHF) =  -924.875171660     A.U. after   13 cycles
 Normal termination of Gaussian 16 at Tue Apr  8 23:17:13 2025.
 Gaussian 16:  ES64L-G16RevC.01  3-Jul-2019

 ----------------------------------------------------------------------
 #t hf aug-cc-pvdz iop(5/13=1,5/36=2,99/5=2) pseudo=read geom=check gue
 ss=(read,tcheck) scf=(maxcycle=1)
 ----------------------------------------------------------------------
 -----
 title
 -----
 Structure from the checkpoint file:  "BDE49_nonexpt_100_mol1.chk"
 Charge =  0 Multiplicity = 1

                         Standard orientation:
 ---------------------------------------------------------------------
 Center     Atomic      Atomic             Coordinates (Angstroms)
 Number     Number       Type             X           Y           Z
 ---------------------------------------------------------------------
      1          5           0       -0.597065   -0.581303    1.049281
      2          5           0        0.597088    0.581115    1.049376
      3         16           0        2.090659    0.544959    0.090853
      4         16           0       -2.090694   -0.544940    0.090856
      5          6           0        2.058801   -1.020527   -0.871261
      6          1           0        2.946135   -1.028163   -1.503697
      7          1           0        1.169075   -1.070052   -1.497129
      8          1           0        2.088843   -1.876300   -0.198114
      9          6           0       -2.058737    1.020600   -0.871167
     10          1           0       -2.946112    1.028366   -1.503544
     11          1           0       -1.169048    1.070069   -1.497091
     12          1           0       -2.088646    1.876338   -0.197970
     13          1           0        0.538083    1.564501    1.725691
     14          1           0       -0.538272   -1.564573    1.725784
 ---------------------------------------------------------------------

 SCF Done:  E(RHF) =  -925.977774058     A.U. after    2 cycles

 The electronic state is 1-A.
 Alpha  occ. eigenvalues --  -75.68403 -75.68372 -13.13347 -13.13317 -13.10782
 Alpha  occ. eigenvalues --  -13.08931 -13.05680 -13.03334 -11.40212 -11.40152
 Alpha  occ. eigenvalues --   -8.02447  -8.02403  -7.61278  -7.60361  -1.22569
 Alpha  occ. eigenvalues --   -1.20250  -0.99575  -0.96995  -0.81147  -0.66401
 Alpha  occ. eigenvalues --   -0.59702  -0.59608  -0.59170  -0.58958  -0.49383
 Alpha  occ. eigenvalues --   -0.42379  -0.41685  -0.37321  -0.29431  -0.28302
 Alpha  occ. eigenvalues --   -0.27821
 Alpha virt. eigenvalues --    0.01381   0.01815   0.02345   0.03025   0.06791
 Alpha virt. eigenvalues --    0.06929   0.07286   0.08243   0.08368   0.08789
 Alpha virt. eigenvalues --    0.09391   0.10227   0.10228   0.10534   0.12027

 Mulliken charges:
               1
     1  B    4.679290
     2  B    4.678912
     3  S   -1.181735
     4  S   -1.181877
     5  C   -4.869701
     6  H    1.356494
     7  H    1.438863
     8  H    1.515695
     9  C   -4.869668
    10  H    1.356503
    11  H    1.438812
    12  H    1.515765
    13  H   -2.938443
    14  H   -2.938911
 Sum of Mulliken charges =  -0.00000

 Dipole moment (field-independent basis, Debye):
    X=             -0.0001    Y=              0.0003    Z=             -2.0175  Tot=              2.0175

 Test job not archived.
 1\1\GINC-SE339\SP\RHF\Aug-CC-pVDZ\C2H8B2S2\OHZDE\08-Apr-2025\0\\#t hf
 aug-cc-pvdz iop(5/13=1,5/36=2,99/5=2) pseudo=read geom=check guess=(re
 ad,tcheck) scf=(maxcycle=1)\\title\\0,1\B,0,-0.597065,-0.581303,1.0492
 81\B,0,0.597088,0.581115,1.049376\S,0,2.090659,0.544959,0.090853\S,0,-
 2.090694,-0.54494,0.090856\C,0,2.058801,-1.020527,-0.871261\H,0,2.9461
 35,-1.028163,-1.503697\H,0,1.169075,-1.070052,-1.497129\H,0,2.088843,-
 1.8763,-0.198114\C,0,-2.058737,1.0206,-0.871167\H,0,-2.946112,1.028366
 ,-1.503544\H,0,-1.169048,1.070069,-1.497091\H,0,-2.088646,1.876338,-0.

 Normal termination of Gaussian 16 at Tue Apr  8 23:17:17 2025.
