 Gaussian 16, Revision C.01,

 ----------------------------------------------------------------------
 #t hf aug-cc-pvdz symm=none int=(grid=ultrafine) guess=(read,tcheck) s
 table=(opt,rrhf)
 ----------------------------------------------------------------------
 -----
 title
 -----
 Symbolic Z-matrix:
 Charge =  0 Multiplicity = 1

 SCF Done:  E(RHF) =  -572.854256117     A.U. after   14 cycles
 Normal termination of Gaussian 16 at Wed Apr  9 00:00:38 2025.
 Gaussian 16:  ES64L-G16RevC.01  3-Jul-2019

 ----------------------------------------------------------------------
 #t hf aug-cc-pvdz iop(5/13=1,5/36=2,99/5=2) pseudo=read geom=check gue
 ss=(read,tcheck) scf=(maxcycle=1)
 ----------------------------------------------------------------------
 -----
 title
 -----
 Structure from the checkpoint file:  "BDE49_nonexpt_2100_mol1.chk"
 Charge =  0 Multiplicity = 1

                         Standard orientation:
 ---------------------------------------------------------------------
 Center     Atomic      Atomic             Coordinates (Angstroms)
 Number     Number       Type             X           Y           Z
 ---------------------------------------------------------------------
      1         14           0       -0.080487   -1.031405   -0.005224
      2          7           0        1.260213    0.282151   -0.020714
      3          8           0        0.995755    1.410962   -0.429147
      4          8           0        2.365550   -0.074555    0.375471
      5          6           0       -1.705484   -0.259020   -0.492129
      6          6           0       -2.256809    0.777112    0.504904
      7          1           0       -1.572024    1.621074    0.605199
      8          1           0       -2.407530    0.341501    1.496569
      9          1           0       -3.219881    1.167044    0.166404
     10          1           0       -2.417988   -1.083634   -0.625526
     11          1           0       -1.576058    0.193097   -1.481028
     12          1           0       -0.041080   -1.544820    1.376042
     13          1           0        0.423218   -2.029450   -0.966768
 ---------------------------------------------------------------------

 SCF Done:  E(RHF) =  -574.274577780     A.U. after    2 cycles

 The electronic state is 1-A.
 Alpha  occ. eigenvalues --  -76.27082 -21.09183 -21.09079 -15.95777 -11.41675
 Alpha  occ. eigenvalues --  -11.37164  -5.60805  -2.25484  -2.24003  -2.22947
 Alpha  occ. eigenvalues --   -1.96878  -1.67752  -1.17535  -1.00283  -0.91200
 Alpha  occ. eigenvalues --   -0.75311  -0.66022  -0.65066  -0.62252  -0.60298
 Alpha  occ. eigenvalues --   -0.58856  -0.53091  -0.51117  -0.49457  -0.43213
 Alpha  occ. eigenvalues --   -0.31872  -0.31395  -0.30719
 Alpha virt. eigenvalues --    0.03028   0.04568   0.05167   0.05618   0.05943
 Alpha virt. eigenvalues --    0.06876   0.07523   0.07698   0.09197   0.09960
 Alpha virt. eigenvalues --    0.11787   0.12111   0.13028   0.13387   0.14416

 Mulliken charges:
               1
     1  Si   5.795124
     2  N    3.530555
     3  O   -2.155354
     4  O   -2.481990
     5  C   -4.248337
     6  C   -3.452837
     7  H    1.345461
     8  H    1.322773
     9  H    1.158418
    10  H    1.408048
    11  H    1.499869
    12  H   -1.828530
    13  H   -1.893201
 Sum of Mulliken charges =  -0.00000

 Dipole moment (field-independent basis, Debye):
    X=             -2.9905    Y=             -1.0833    Z=             -0.2788  Tot=              3.1929

 Test job not archived.
 1\1\GINC-SE340\SP\RHF\Aug-CC-pVDZ\C2H7N1O2Si1\OHZDE\09-Apr-2025\0\\#t
 hf aug-cc-pvdz iop(5/13=1,5/36=2,99/5=2) pseudo=read geom=check guess=
 (read,tcheck) scf=(maxcycle=1)\\title\\0,1\Si,0,-0.080487,-1.031405,-0
 .005224\N,0,1.260213,0.282151,-0.020714\O,0,0.995755,1.410962,-0.42914
 7\O,0,2.36555,-0.074555,0.375471\C,0,-1.705484,-0.25902,-0.492129\C,0,
 -2.256809,0.777112,0.504904\H,0,-1.572024,1.621074,0.605199\H,0,-2.407
 53,0.341502,1.496569\H,0,-3.219881,1.167045,0.166404\H,0,-2.417988,-1.
 083633,-0.625526\H,0,-1.576058,0.193097,-1.481028\H,0,-0.04108,-1.5448

 Normal termination of Gaussian 16 at Wed Apr  9 00:00:42 2025.
