 Gaussian 16, Revision C.01,

 ----------------------------------------------------------------------
 #t hf aug-cc-pvdz symm=none int=(grid=ultrafine) guess=(read,tcheck) s
 table=(opt,rrhf)
 ----------------------------------------------------------------------
 -----
 title
 -----
 Symbolic Z-matrix:
 Charge =  0 Multiplicity = 1

 SCF Done:  E(RHF) =  -380.453115245     A.U. after   12 cycles
 Normal termination of Gaussian 16 at Wed Apr  9 00:32:43 2025.
 Gaussian 16:  ES64L-G16RevC.01  3-Jul-2019

 ----------------------------------------------------------------------
 #t hf aug-cc-pvdz iop(5/13=1,5/36=2,99/5=2) pseudo=read geom=check gue
 ss=(read,tcheck) scf=(maxcycle=1)
 ----------------------------------------------------------------------
 -----
 title
 -----
 Structure from the checkpoint file:  "BDE49_nonexpt_371_mol1.chk"
 Charge =  0 Multiplicity = 1

                         Standard orientation:
 ---------------------------------------------------------------------
 Center     Atomic      Atomic             Coordinates (Angstroms)
 Number     Number       Type             X           Y           Z
 ---------------------------------------------------------------------
      1          9           0       -2.038326   -0.510500   -0.759888
      2          9           0       -0.850207   -1.256091    0.999824
      3          5           0       -0.933171   -0.410581   -0.025215
      4          6           0        0.156738    0.673819   -0.316363
      5          6           0        1.552860    0.315820    0.226950
      6          6           0       -0.345390    2.026117    0.255329
      7          1           0       -0.438501    1.986525    1.344991
      8          1           0       -1.319417    2.303905   -0.155497
      9          1           0        0.360156    2.826099    0.013498
     10          1           0        0.221553    0.791217   -1.406432
     11          6           0        2.162237   -0.936100   -0.411981
     12          1           0        1.492528    0.178476    1.312322
     13          1           0        2.221876    1.168777    0.063113
     14          1           0        1.556102   -1.823992   -0.208860
     15          1           0        3.164770   -1.130317   -0.022153
     16          1           0        2.244918   -0.826407   -1.497941
 ---------------------------------------------------------------------

 SCF Done:  E(RHF) =  -382.058235968     A.U. after    2 cycles

 The electronic state is 1-A.
 Alpha  occ. eigenvalues --  -29.25050 -29.24948 -11.42024 -11.40357 -11.37638
 Alpha  occ. eigenvalues --  -11.34654  -7.68735  -1.28903  -1.12282  -1.05896
 Alpha  occ. eigenvalues --   -0.92367  -0.83376  -0.74377  -0.65475  -0.60008
 Alpha  occ. eigenvalues --   -0.59176  -0.57998  -0.53006  -0.51154  -0.48693
 Alpha  occ. eigenvalues --   -0.47903  -0.46205  -0.44080  -0.43406  -0.42546
 Alpha  occ. eigenvalues --   -0.33482  -0.31709  -0.25076
 Alpha virt. eigenvalues --    0.03781   0.04006   0.04882   0.05144   0.06164
 Alpha virt. eigenvalues --    0.06370   0.06905   0.07046   0.07937   0.08501
 Alpha virt. eigenvalues --    0.09061   0.09840   0.10333   0.13312   0.13693

 Mulliken charges:
               1
     1  F   -0.214141
     2  F   -0.824044
     3  B    2.053909
     4  C   -0.877300
     5  C   -3.252636
     6  C   -4.917165
     7  H    1.233183
     8  H    1.221123
     9  H    1.211405
    10  H    1.623416
    11  C   -3.903757
    12  H    1.484554
    13  H    1.343876
    14  H    1.423645
    15  H    1.080986
    16  H    1.312946
 Sum of Mulliken charges =  -0.00000

 Dipole moment (field-independent basis, Debye):
    X=             -1.2450    Y=             -1.1461    Z=              0.5148  Tot=              1.7688

 Test job not archived.
 1\1\GINC-SE363\SP\RHF\Aug-CC-pVDZ\C4H9B1F2\OHZDE\09-Apr-2025\0\\#t hf
 aug-cc-pvdz iop(5/13=1,5/36=2,99/5=2) pseudo=read geom=check guess=(re
 ad,tcheck) scf=(maxcycle=1)\\title\\0,1\F,0,-2.038326,-0.510501,-0.759
 888\F,0,-0.850206,-1.256091,0.999824\B,0,-0.933171,-0.410581,-0.025215
 \C,0,0.156738,0.673819,-0.316363\C,0,1.55286,0.315821,0.22695\C,0,-0.3
 45391,2.026117,0.255329\H,0,-0.438502,1.986525,1.344991\H,0,-1.319418,
 2.303905,-0.155497\H,0,0.360155,2.826099,0.013498\H,0,0.221553,0.79121
 7,-1.406432\C,0,2.162237,-0.936099,-0.411981\H,0,1.492528,0.178477,1.3

 Normal termination of Gaussian 16 at Wed Apr  9 00:32:56 2025.
