 Gaussian 16, Revision C.01,

 ----------------------------------------------------------------------
 #t hf aug-cc-pvdz symm=none int=(grid=ultrafine) guess=(read,tcheck) s
 table=(opt,rrhf)
 ----------------------------------------------------------------------
 -----
 title
 -----
 Symbolic Z-matrix:
 Charge =  0 Multiplicity = 1

 SCF Done:  E(RHF) =  -324.797450382     A.U. after   15 cycles
 Normal termination of Gaussian 16 at Tue Apr  8 22:41:15 2025.
 Gaussian 16:  ES64L-G16RevC.01  3-Jul-2019

 ----------------------------------------------------------------------
 #t hf aug-cc-pvdz iop(5/13=1,5/36=2,99/5=2) pseudo=read geom=check gue
 ss=(read,tcheck) scf=(maxcycle=1)
 ----------------------------------------------------------------------
 -----
 title
 -----
 Structure from the checkpoint file:  "BDE49_expt_1303_mol1.chk"
 Charge =  0 Multiplicity = 1

                         Standard orientation:
 ---------------------------------------------------------------------
 Center     Atomic      Atomic             Coordinates (Angstroms)
 Number     Number       Type             X           Y           Z
 ---------------------------------------------------------------------
      1          6           0        2.838417    0.363818    0.095222
      2          7           0        1.788270   -0.608612   -0.137556
      3          1           0        2.834061    1.132661   -0.683010
      4          1           0        3.802345   -0.144390    0.045460
      5          1           0        2.759778    0.867150    1.070510
      6          6           0        0.442842   -0.274098   -0.052718
      7          6           0       -0.525128   -1.296186   -0.005468
      8          6           0        0.000013    1.059446   -0.049453
      9          6           0       -1.362454    1.348926   -0.010001
     10          6           0       -2.312614    0.333819    0.035387
     11          6           0       -1.877748   -0.993036    0.038979
     12          1           0       -3.369907    0.567602    0.068855
     13          1           0       -2.600670   -1.800968    0.076302
     14          1           0       -0.201230   -2.332808   -0.010905
     15          1           0        0.715203    1.871444   -0.079552
     16          1           0       -1.678788    2.386656   -0.010282
     17          1           0        2.001361   -1.543204    0.173821
 ---------------------------------------------------------------------

 SCF Done:  E(RHF) =  -326.374693200     A.U. after    2 cycles

 The electronic state is 1-A.
 Alpha  occ. eigenvalues --  -15.74011 -11.51543 -11.44189 -11.42168 -11.39719
 Alpha  occ. eigenvalues --  -11.39324 -11.39201 -11.35149  -1.43294  -1.27793
 Alpha  occ. eigenvalues --   -1.08787  -1.07528  -0.96682  -0.86024  -0.82646
 Alpha  occ. eigenvalues --   -0.71137  -0.67073  -0.62839  -0.60669  -0.58769
 Alpha  occ. eigenvalues --   -0.57081  -0.52814  -0.52310  -0.50452  -0.45108
 Alpha  occ. eigenvalues --   -0.43271  -0.40107  -0.32480  -0.25878
 Alpha virt. eigenvalues --    0.03482   0.04725   0.05019   0.05898   0.06224
 Alpha virt. eigenvalues --    0.06536   0.07002   0.07885   0.09347   0.10392
 Alpha virt. eigenvalues --    0.11832   0.13073   0.13281   0.13505   0.13867

 Mulliken charges:
               1
     1  C   -3.893108
     2  N   -4.332725
     3  H    1.417729
     4  H    1.376798
     5  H    1.326443
     6  C    4.136468
     7  C   -3.348284
     8  C   -2.164741
     9  C   -0.509859
    10  C   -2.829806
    11  C    0.001464
    12  H    1.549909
    13  H    1.490291
    14  H    1.721534
    15  H    1.845876
    16  H    1.512430
    17  H    0.699581
 Sum of Mulliken charges =  -0.00000

 Dipole moment (field-independent basis, Debye):
    X=              1.4711    Y=             -0.4347    Z=              0.4243  Tot=              1.5916

 Test job not archived.
 1\1\GINC-SE072\SP\RHF\Aug-CC-pVDZ\C7H9N1\OHZDE\08-Apr-2025\0\\#t hf au
 g-cc-pvdz iop(5/13=1,5/36=2,99/5=2) pseudo=read geom=check guess=(read
 ,tcheck) scf=(maxcycle=1)\\title\\0,1\C,0,2.838417,0.363818,0.095222\N
 ,0,1.78827,-0.608612,-0.137556\H,0,2.834061,1.132661,-0.68301\H,0,3.80
 2345,-0.14439,0.04546\H,0,2.759778,0.86715,1.07051\C,0,0.442842,-0.274
 098,-0.052718\C,0,-0.525128,-1.296186,-0.005468\C,0,0.000013,1.059446,
 -0.049453\C,0,-1.362454,1.348926,-0.010001\C,0,-2.312614,0.333819,0.03
 5387\C,0,-1.877748,-0.993036,0.038979\H,0,-3.369907,0.567602,0.068855\

 Normal termination of Gaussian 16 at Tue Apr  8 22:41:21 2025.
