 Gaussian 16, Revision C.01,

 ----------------------------------------------------------------------
 #t hf aug-cc-pvdz symm=none int=(grid=ultrafine) guess=(read,tcheck) s
 table=(opt,rrhf)
 ----------------------------------------------------------------------
 -----
 title
 -----
 Symbolic Z-matrix:
 Charge =  0 Multiplicity = 1

 SCF Done:  E(RHF) =  -840.987698646     A.U. after   17 cycles
 Normal termination of Gaussian 16 at Wed Apr  9 00:25:36 2025.
 Gaussian 16:  ES64L-G16RevC.01  3-Jul-2019

 ----------------------------------------------------------------------
 #t hf aug-cc-pvdz iop(5/13=1,5/36=2,99/5=2) pseudo=read geom=check gue
 ss=(read,tcheck) scf=(maxcycle=1)
 ----------------------------------------------------------------------
 -----
 title
 -----
 Structure from the checkpoint file:  "BDE49_nonexpt_2695_mol1.chk"
 Charge =  0 Multiplicity = 1

                         Standard orientation:
 ---------------------------------------------------------------------
 Center     Atomic      Atomic             Coordinates (Angstroms)
 Number     Number       Type             X           Y           Z
 ---------------------------------------------------------------------
      1          9           0       -2.398221   -1.601263    0.639308
      2         16           0       -2.478807   -0.246044   -0.355134
      3          6           0       -0.866709    0.418309   -0.098415
      4          6           0        0.263020   -0.412666   -0.135770
      5          6           0        1.527401    0.154957    0.002598
      6          6           0        1.660107    1.548841    0.122752
      7          6           0       -0.744415    1.798641    0.059561
      8          1           0       -1.626938    2.421580    0.131655
      9          6           0        0.534866    2.355499    0.139318
     10          1           0        0.646820    3.428060    0.248482
     11          1           0        2.656679    1.963253    0.210984
     12          1           0        0.127180   -1.477568   -0.255694
     13          8           0        2.690277   -0.548348    0.010811
     14          6           0        2.628208   -1.965458   -0.105365
     15          1           0        2.185508   -2.269291   -1.060062
     16          1           0        2.059240   -2.409100    0.718486
     17          1           0        3.659326   -2.310828   -0.060029
 ---------------------------------------------------------------------

 SCF Done:  E(RHF) =  -843.146567036     A.U. after    2 cycles

 The electronic state is 1-A.
 Alpha  occ. eigenvalues --  -75.76269 -29.26581 -21.08501 -13.23043 -13.20179
 Alpha  occ. eigenvalues --  -13.10073 -11.53830 -11.47856 -11.45188 -11.43206
 Alpha  occ. eigenvalues --  -11.42555 -11.42129 -11.38464  -8.10222  -1.79949
 Alpha  occ. eigenvalues --   -1.36289  -1.21441  -1.10340  -1.07866  -1.00036
 Alpha  occ. eigenvalues --   -0.88053  -0.84477  -0.72622  -0.68874  -0.64458
 Alpha  occ. eigenvalues --   -0.63480  -0.63221  -0.60922  -0.55432  -0.55302
 Alpha  occ. eigenvalues --   -0.53412  -0.47466  -0.46700  -0.44359  -0.40672
 Alpha  occ. eigenvalues --   -0.39115  -0.35798  -0.32465  -0.27933  -0.27352
 Alpha  occ. eigenvalues --   -0.17099
 Alpha virt. eigenvalues --    0.02964   0.04819   0.05141   0.05550   0.06203
 Alpha virt. eigenvalues --    0.06540   0.07416   0.08500   0.09945   0.10005
 Alpha virt. eigenvalues --    0.10735   0.11558   0.12697   0.13574   0.14001

 Mulliken charges:
               1
     1  F   -0.296263
     2  S    0.325714
     3  C    3.525578
     4  C   -4.040590
     5  C    6.224677
     6  C   -4.355873
     7  C   -4.296410
     8  H    1.725687
     9  C    0.172443
    10  H    1.471925
    11  H    1.844030
    12  H    1.862131
    13  O   -4.781842
    14  C   -3.562674
    15  H    1.399163
    16  H    1.361870
    17  H    1.420434
 Sum of Mulliken charges =   0.00000

 Dipole moment (field-independent basis, Debye):
    X=              0.6387    Y=             -2.5619    Z=              1.0966  Tot=              2.8589

 Test job not archived.
 1\1\GINC-SE186\SP\RHF\Aug-CC-pVDZ\C7H7F1O1S1\OHZDE\09-Apr-2025\0\\#t h
 f aug-cc-pvdz iop(5/13=1,5/36=2,99/5=2) pseudo=read geom=check guess=(
 read,tcheck) scf=(maxcycle=1)\\title\\0,1\F,0,-2.398221,-1.601263,0.63
 9308\S,0,-2.478807,-0.246044,-0.355134\C,0,-0.866709,0.418309,-0.09841
 5\C,0,0.26302,-0.412666,-0.13577\C,0,1.527401,0.154957,0.002598\C,0,1.
 660107,1.548841,0.122752\C,0,-0.744415,1.798641,0.059561\H,0,-1.626938
 ,2.42158,0.131655\C,0,0.534866,2.355499,0.139318\H,0,0.64682,3.42806,0
 .248482\H,0,2.656679,1.963253,0.210984\H,0,0.12718,-1.477568,-0.255694

 Normal termination of Gaussian 16 at Wed Apr  9 00:25:45 2025.
