 Gaussian 16, Revision C.01,

 ----------------------------------------------------------------------
 #t hf aug-cc-pvdz symm=none int=(grid=ultrafine) guess=(read,tcheck) s
 table=(opt,rrhf)
 ----------------------------------------------------------------------
 -----
 title
 -----
 Symbolic Z-matrix:
 Charge =  0 Multiplicity = 1

 SCF Done:  E(RHF) =  -879.756899641     A.U. after   19 cycles
 Normal termination of Gaussian 16 at Wed Apr  9 00:27:36 2025.
 Gaussian 16:  ES64L-G16RevC.01  3-Jul-2019

 ----------------------------------------------------------------------
 #t hf aug-cc-pvdz iop(5/13=1,5/36=2,99/5=2) pseudo=read geom=check gue
 ss=(read,tcheck) scf=(maxcycle=1)
 ----------------------------------------------------------------------
 -----
 title
 -----
 Structure from the checkpoint file:  "BDE49_nonexpt_2701_mol1.chk"
 Charge =  0 Multiplicity = 1

                         Standard orientation:
 ---------------------------------------------------------------------
 Center     Atomic      Atomic             Coordinates (Angstroms)
 Number     Number       Type             X           Y           Z
 ---------------------------------------------------------------------
      1          9           0       -2.542268   -1.451806    0.843496
      2          6           0       -0.980005    0.507246   -0.097052
      3         16           0       -2.473568   -0.350312   -0.442746
      4          6           0        0.298709   -0.145945   -0.077163
      5          6           0        0.452604   -1.551354   -0.152163
      6          1           0       -0.430329   -2.173979   -0.205324
      7          6           0        1.703909   -2.121789   -0.122161
      8          1           0        1.804178   -3.199554   -0.181044
      9          6           0        2.859829   -1.319134   -0.009934
     10          1           0        3.838245   -1.785041    0.014926
     11          6           0        2.742615    0.046884    0.071877
     12          1           0        3.625212    0.671107    0.162594
     13          6           0        1.468580    0.669402    0.041459
     14          6           0        1.331888    2.081550    0.114946
     15          1           0        2.229459    2.685912    0.193845
     16          6           0        0.095614    2.677207    0.097256
     17          1           0        0.003165    3.754635    0.166257
     18          6           0       -1.068306    1.883785    0.016630
     19          1           0       -2.045057    2.351049    0.039063
 ---------------------------------------------------------------------

 SCF Done:  E(RHF) =  -882.140624874     A.U. after    2 cycles

 The electronic state is 1-A.
 Alpha  occ. eigenvalues --  -75.75832 -29.25625 -13.24373 -13.20061 -13.12376
 Alpha  occ. eigenvalues --  -11.53734 -11.51002 -11.46527 -11.46385 -11.44689
 Alpha  occ. eigenvalues --  -11.44189 -11.42804 -11.42330 -11.40833 -11.37859
 Alpha  occ. eigenvalues --   -8.09734  -1.42081  -1.27002  -1.21545  -1.12128
 Alpha  occ. eigenvalues --   -1.09604  -1.04482  -0.90690  -0.89078  -0.84793
 Alpha  occ. eigenvalues --   -0.74088  -0.72325  -0.68840  -0.66011  -0.61810
 Alpha  occ. eigenvalues --   -0.59518  -0.56176  -0.55774  -0.55103  -0.53618
 Alpha  occ. eigenvalues --   -0.48744  -0.46122  -0.44066  -0.43102  -0.41140
 Alpha  occ. eigenvalues --   -0.38073  -0.33214  -0.32799  -0.28334  -0.26733
 Alpha  occ. eigenvalues --   -0.17102
 Alpha virt. eigenvalues --    0.02938   0.04401   0.04834   0.05374   0.06273
 Alpha virt. eigenvalues --    0.06554   0.06985   0.07950   0.08288   0.09426
 Alpha virt. eigenvalues --    0.10707   0.10939   0.11167   0.12028   0.12810

 Mulliken charges:
               1
     1  F   -0.291775
     2  C    6.056045
     3  S    0.143453
     4  C    5.191350
     5  C   -1.217458
     6  H    2.016200
     7  C   -3.681371
     8  H    1.486786
     9  C   -4.182873
    10  H    1.482818
    11  C   -2.842596
    12  H    1.680749
    13  C    4.080107
    14  C   -3.813835
    15  H    1.676024
    16  C   -3.419496
    17  H    1.535756
    18  C   -7.553565
    19  H    1.653681
 Sum of Mulliken charges =  -0.00000

 Dipole moment (field-independent basis, Debye):
    X=              0.3738    Y=             -1.2620    Z=              1.4806  Tot=              1.9811

 Test job not archived.
 1\1\GINC-SE187\SP\RHF\Aug-CC-pVDZ\C10H7F1S1\OHZDE\09-Apr-2025\0\\#t hf
  aug-cc-pvdz iop(5/13=1,5/36=2,99/5=2) pseudo=read geom=check guess=(r
 ead,tcheck) scf=(maxcycle=1)\\title\\0,1\F,0,-2.542268,-1.451806,0.843
 496\C,0,-0.980005,0.507246,-0.097052\S,0,-2.473568,-0.350312,-0.442746
 \C,0,0.298709,-0.145945,-0.077163\C,0,0.452604,-1.551354,-0.152163\H,0
 ,-0.430329,-2.173979,-0.205324\C,0,1.703909,-2.121789,-0.122161\H,0,1.
 804178,-3.199554,-0.181044\C,0,2.859829,-1.319134,-0.009934\H,0,3.8382
 45,-1.785041,0.014926\C,0,2.742615,0.046884,0.071877\H,0,3.625212,0.67

 Normal termination of Gaussian 16 at Wed Apr  9 00:27:50 2025.
