 Gaussian 16, Revision C.01,

 ----------------------------------------------------------------------
 #t hf aug-cc-pvdz symm=none int=(grid=ultrafine) guess=(read,tcheck) s
 table=(opt,rrhf)
 ----------------------------------------------------------------------
 -----
 title
 -----
 Symbolic Z-matrix:
 Charge =  0 Multiplicity = 1

 SCF Done:  E(RHF) =  -1017.94352748     A.U. after   11 cycles
 Normal termination of Gaussian 16 at Wed Apr  9 00:12:36 2025.
 Gaussian 16:  ES64L-G16RevC.01  3-Jul-2019

 ----------------------------------------------------------------------
 #t hf aug-cc-pvdz iop(5/13=1,5/36=2,99/5=2) pseudo=read geom=check gue
 ss=(read,tcheck) scf=(maxcycle=1)
 ----------------------------------------------------------------------
 -----
 title
 -----
 Structure from the checkpoint file:  "BDE49_nonexpt_2417_mol1.chk"
 Charge =  0 Multiplicity = 1

                         Standard orientation:
 ---------------------------------------------------------------------
 Center     Atomic      Atomic             Coordinates (Angstroms)
 Number     Number       Type             X           Y           Z
 ---------------------------------------------------------------------
      1         14           0       -2.381842   -0.247828    0.000001
      2         14           0       -0.263564    0.786625    0.000001
      3         16           0        1.237698   -0.762840   -0.000002
      4          1           0       -0.106189    1.655367    1.195197
      5          1           0       -0.106190    1.655371   -1.195192
      6          1           0       -3.427435    0.804423    0.000004
      7          1           0       -2.549634   -1.089464    1.207519
      8          6           0        2.780253    0.243769   -0.000002
      9          1           0        3.609418   -0.463709   -0.000003
     10          1           0        2.840341    0.863573    0.894237
     11          1           0        2.840340    0.863576   -0.894238
     12          1           0       -2.549636   -1.089460   -1.207519
 ---------------------------------------------------------------------

 SCF Done:  E(RHF) =  -1018.70846262     A.U. after    2 cycles

 The electronic state is 1-A.
 Alpha  occ. eigenvalues --  -76.23633 -76.22021 -75.67154 -13.09220 -13.06246
 Alpha  occ. eigenvalues --  -13.02136 -11.40234  -8.01250  -5.57089  -5.55435
 Alpha  occ. eigenvalues --   -2.19227  -2.18744  -2.18204  -2.17494  -2.17482
 Alpha  occ. eigenvalues --   -2.16467  -1.17641  -0.94174  -0.80355  -0.70549
 Alpha  occ. eigenvalues --   -0.59082  -0.58969  -0.49079  -0.48030  -0.46581
 Alpha  occ. eigenvalues --   -0.45255  -0.35527  -0.31857  -0.25493
 Alpha virt. eigenvalues --    0.02771   0.04264   0.04545   0.05859   0.06462
 Alpha virt. eigenvalues --    0.07084   0.07459   0.08096   0.08610   0.09232
 Alpha virt. eigenvalues --    0.09659   0.10126   0.10277   0.10650   0.12105

 Mulliken charges:
               1
     1  Si   4.521504
     2  Si   4.573924
     3  S   -0.733726
     4  H   -1.749416
     5  H   -1.749417
     6  H   -1.526254
     7  H   -1.473211
     8  C   -4.622187
     9  H    1.382051
    10  H    1.424971
    11  H    1.424972
    12  H   -1.473211
 Sum of Mulliken charges =   0.00000

 Dipole moment (field-independent basis, Debye):
    X=              1.2107    Y=             -1.2909    Z=             -0.0000  Tot=              1.7698

 Test job not archived.
 1\1\GINC-SE333\SP\RHF\Aug-CC-pVDZ\C1H8S1Si2\OHZDE\09-Apr-2025\0\\#t hf
  aug-cc-pvdz iop(5/13=1,5/36=2,99/5=2) pseudo=read geom=check guess=(r
 ead,tcheck) scf=(maxcycle=1)\\title\\0,1\Si,0,-2.381842,-0.247828,0.00
 0001\Si,0,-0.263564,0.786625,0.000001\S,0,1.237698,-0.76284,-0.000002\
 H,0,-0.106189,1.655367,1.195197\H,0,-0.10619,1.655371,-1.195192\H,0,-3
 .427435,0.804423,0.000004\H,0,-2.549634,-1.089464,1.207519\C,0,2.78025
 3,0.243769,-0.000002\H,0,3.609418,-0.463709,-0.000003\H,0,2.840341,0.8
 63573,0.894237\H,0,2.84034,0.863576,-0.894238\H,0,-2.549636,-1.08946,-

 Normal termination of Gaussian 16 at Wed Apr  9 00:12:40 2025.
