 Gaussian 16, Revision C.01,

 ----------------------------------------------------------------------
 #t hf aug-cc-pvdz symm=none int=(grid=ultrafine) guess=(read,tcheck) s
 table=(opt,rrhf)
 ----------------------------------------------------------------------
 -----
 title
 -----
 Symbolic Z-matrix:
 Charge =  0 Multiplicity = 1

 SCF Done:  E(RHF) =  -731.359471730     A.U. after   12 cycles
 Normal termination of Gaussian 16 at Wed Apr  9 00:21:03 2025.
 Gaussian 16:  ES64L-G16RevC.01  3-Jul-2019

 ----------------------------------------------------------------------
 #t hf aug-cc-pvdz iop(5/13=1,5/36=2,99/5=2) pseudo=read geom=check gue
 ss=(read,tcheck) scf=(maxcycle=1)
 ----------------------------------------------------------------------
 -----
 title
 -----
 Structure from the checkpoint file:  "BDE49_nonexpt_260_mol1.chk"
 Charge =  0 Multiplicity = 1

                         Standard orientation:
 ---------------------------------------------------------------------
 Center     Atomic      Atomic             Coordinates (Angstroms)
 Number     Number       Type             X           Y           Z
 ---------------------------------------------------------------------
      1         17           0        2.394170    0.003225    0.067491
      2          8           0       -0.015449   -1.226566   -0.039862
      3          7           0       -0.101985    1.196405   -0.109383
      4          6           0       -2.128136   -0.058336    0.414135
      5          6           0       -1.563851    1.251905   -0.141388
      6          6           0       -1.439941   -1.263932   -0.220787
      7          5           0        0.600096   -0.014042   -0.037849
      8          1           0       -1.787049   -2.195406    0.229380
      9          1           0       -1.650746   -1.307659   -1.295777
     10          1           0       -3.205037   -0.113414    0.230168
     11          1           0       -1.975131   -0.090963    1.497649
     12          1           0        0.388441    2.075341   -0.143013
     13          1           0       -1.916760    2.093774    0.461935
     14          1           0       -1.926031    1.413583   -1.165636
 ---------------------------------------------------------------------

 SCF Done:  E(RHF) =  -732.846509786     A.U. after    2 cycles

 The electronic state is 1-A.
 Alpha  occ. eigenvalues --  -99.86291 -21.02748 -15.71348 -11.45250 -11.44043
 Alpha  occ. eigenvalues --  -11.38187 -10.43574  -9.63574  -9.63152  -9.62940
 Alpha  occ. eigenvalues --   -7.66824  -1.79229  -1.38761  -1.29675  -1.16268
 Alpha  occ. eigenvalues --   -0.97179  -0.88522  -0.74450  -0.71060  -0.65513
 Alpha  occ. eigenvalues --   -0.61466  -0.60369  -0.57259  -0.54711  -0.52666
 Alpha  occ. eigenvalues --   -0.50283  -0.49620  -0.45539  -0.41395  -0.36360
 Alpha  occ. eigenvalues --   -0.33375
 Alpha virt. eigenvalues --    0.02880   0.04459   0.05024   0.05195   0.05581
 Alpha virt. eigenvalues --    0.06186   0.06452   0.06684   0.06772   0.09488
 Alpha virt. eigenvalues --    0.10295   0.12710   0.12973   0.13880   0.14029

 Mulliken charges:
               1
     1  Cl  -1.533151
     2  O   -4.224029
     3  N   -3.261726
     4  C   -2.661389
     5  C   -1.850488
     6  C   -0.678740
     7  B    5.112442
     8  H    1.360031
     9  H    1.449615
    10  H    1.371008
    11  H    1.164342
    12  H    0.984013
    13  H    1.420250
    14  H    1.347821
 Sum of Mulliken charges =   0.00000

 Dipole moment (field-independent basis, Debye):
    X=             -3.4401    Y=              0.9930    Z=             -0.1552  Tot=              3.5839

 Test job not archived.
 1\1\GINC-SE336\SP\RHF\Aug-CC-pVDZ\C3H7B1Cl1N1O1\OHZDE\09-Apr-2025\0\\#
 t hf aug-cc-pvdz iop(5/13=1,5/36=2,99/5=2) pseudo=read geom=check gues
 s=(read,tcheck) scf=(maxcycle=1)\\title\\0,1\Cl,0,2.39417,0.003225,0.0
 67491\O,0,-0.015449,-1.226566,-0.039862\N,0,-0.101985,1.196405,-0.1093
 83\C,0,-2.128136,-0.058336,0.414135\C,0,-1.563851,1.251905,-0.141388\C
 ,0,-1.439941,-1.263932,-0.220787\B,0,0.600096,-0.014042,-0.037849\H,0,
 -1.787049,-2.195406,0.22938\H,0,-1.650746,-1.307659,-1.295777\H,0,-3.2
 05037,-0.113414,0.230168\H,0,-1.975131,-0.090963,1.497649\H,0,0.388441

 Normal termination of Gaussian 16 at Wed Apr  9 00:21:08 2025.
