 Gaussian 16, Revision C.01,

 ----------------------------------------------------------------------
 #t hf aug-cc-pvdz symm=none int=(grid=ultrafine) guess=(read,tcheck) s
 table=(opt,rrhf)
 ----------------------------------------------------------------------
 -----
 title
 -----
 Symbolic Z-matrix:
 Charge =  0 Multiplicity = 1

 SCF Done:  E(RHF) =  -1012.93673576     A.U. after   11 cycles
 Normal termination of Gaussian 16 at Tue Apr  8 23:54:23 2025.
 Gaussian 16:  ES64L-G16RevC.01  3-Jul-2019

 ----------------------------------------------------------------------
 #t hf aug-cc-pvdz iop(5/13=1,5/36=2,99/5=2) pseudo=read geom=check gue
 ss=(read,tcheck) scf=(maxcycle=1)
 ----------------------------------------------------------------------
 -----
 title
 -----
 Structure from the checkpoint file:  "BDE49_nonexpt_1951_mol1.chk"
 Charge =  0 Multiplicity = 1

                         Standard orientation:
 ---------------------------------------------------------------------
 Center     Atomic      Atomic             Coordinates (Angstroms)
 Number     Number       Type             X           Y           Z
 ---------------------------------------------------------------------
      1         14           0       -0.640039    1.011058   -0.226733
      2          6           0        1.064729    0.775052    0.552967
      3         15           0        2.100951   -0.568903   -0.241736
      4          1           0        1.369452   -1.685684    0.241207
      5          1           0        3.089412   -0.682098    0.771662
      6         15           0       -1.977506   -0.787584    0.208132
      7          1           0       -0.493853    1.274641   -1.678272
      8          1           0       -1.299318    2.181117    0.403803
      9          1           0       -1.457666   -1.589952   -0.841310
     10          1           0       -3.049316   -0.290359   -0.579351
     11          1           0        0.951251    0.619661    1.628646
     12          1           0        1.610530    1.714854    0.414131
 ---------------------------------------------------------------------

 SCF Done:  E(RHF) =  -1013.70634330     A.U. after    2 cycles

 The electronic state is 1-A.
 Alpha  occ. eigenvalues -- -105.18329-105.17390 -76.22754 -11.36611  -5.56290
 Alpha  occ. eigenvalues --   -2.75195  -2.74227  -2.19674  -2.18297  -2.17811
 Alpha  occ. eigenvalues --   -1.46622  -1.44409  -1.43955  -1.43494  -1.43036
 Alpha  occ. eigenvalues --   -1.41541  -1.01783  -0.77281  -0.71118  -0.66398
 Alpha  occ. eigenvalues --   -0.58403  -0.48675  -0.45585  -0.26824  -0.25169
 Alpha  occ. eigenvalues --   -0.23476  -0.15775  -0.04229  -0.02980
 Alpha virt. eigenvalues --    0.04327   0.05634   0.06032   0.06307   0.06802
 Alpha virt. eigenvalues --    0.07605   0.08307   0.09145   0.09837   0.10167
 Alpha virt. eigenvalues --    0.10773   0.11097   0.11719   0.11953   0.13120

 Mulliken charges:
               1
     1  Si   4.576164
     2  C   -4.652463
     3  P    2.608010
     4  H   -0.668001
     5  H   -0.510276
     6  P    1.164252
     7  H   -1.901837
     8  H   -1.735603
     9  H   -0.707498
    10  H   -0.742809
    11  H    1.307463
    12  H    1.262600
 Sum of Mulliken charges =   0.00000

 Dipole moment (field-independent basis, Debye):
    X=             -0.5668    Y=             -3.2216    Z=              2.8640  Tot=              4.3477

 Test job not archived.
 1\1\GINC-SE403\SP\RHF\Aug-CC-pVDZ\C1H8P2Si1\OHZDE\08-Apr-2025\0\\#t hf
  aug-cc-pvdz iop(5/13=1,5/36=2,99/5=2) pseudo=read geom=check guess=(r
 ead,tcheck) scf=(maxcycle=1)\\title\\0,1\Si,0,0.640039,1.011058,0.2267
 33\C,0,-1.064729,0.775052,-0.552967\P,0,-2.100951,-0.568903,0.241736\H
 ,0,-1.369452,-1.685684,-0.241207\H,0,-3.089412,-0.682098,-0.771662\P,0
 ,1.977506,-0.787584,-0.208132\H,0,0.493853,1.274641,1.678272\H,0,1.299
 318,2.181117,-0.403803\H,0,1.457666,-1.589952,0.84131\H,0,3.049316,-0.
 290359,0.579351\H,0,-0.951251,0.619661,-1.628646\H,0,-1.61053,1.714854

 Normal termination of Gaussian 16 at Tue Apr  8 23:54:26 2025.
