 Gaussian 16, Revision C.01,

 ----------------------------------------------------------------------
 #t hf aug-cc-pvdz symm=none int=(grid=ultrafine) guess=(read,tcheck) s
 table=(opt,rrhf)
 ----------------------------------------------------------------------
 -----
 title
 -----
 Symbolic Z-matrix:
 Charge =  0 Multiplicity = 1

 SCF Done:  E(RHF) =  -648.473706086     A.U. after   11 cycles
 Normal termination of Gaussian 16 at Tue Apr  8 22:51:39 2025.
 Gaussian 16:  ES64L-G16RevC.01  3-Jul-2019

 ----------------------------------------------------------------------
 #t hf aug-cc-pvdz iop(5/13=1,5/36=2,99/5=2) pseudo=read geom=check gue
 ss=(read,tcheck) scf=(maxcycle=1)
 ----------------------------------------------------------------------
 -----
 title
 -----
 Structure from the checkpoint file:  "BDE49_expt_172_mol1.chk"
 Charge =  0 Multiplicity = 1

                         Standard orientation:
 ---------------------------------------------------------------------
 Center     Atomic      Atomic             Coordinates (Angstroms)
 Number     Number       Type             X           Y           Z
 ---------------------------------------------------------------------
      1          6           0        1.291565   -0.053242    0.222588
      2          8           0        0.169702   -0.335276   -0.562447
      3          9           0        1.770922    1.163542   -0.102375
      4          9           0        2.214756   -0.969142   -0.098950
      5          1           0        1.076770   -0.089370    1.290734
      6          6           0       -1.049205   -0.037560   -0.035366
      7          9           0       -1.270729   -0.707181    1.113375
      8          9           0       -1.968516   -0.388147   -0.920874
      9          9           0       -1.178494    1.269416    0.240548
 ---------------------------------------------------------------------

 SCF Done:  E(RHF) =  -650.775740296     A.U. after    2 cycles

 The electronic state is 1-A.
 Alpha  occ. eigenvalues --  -29.34382 -29.34119 -29.33961 -29.32387 -29.31868
 Alpha  occ. eigenvalues --  -21.14442 -11.64626 -11.58406  -1.94133  -1.40736
 Alpha  occ. eigenvalues --   -1.23899  -0.97112  -0.95390  -0.86868  -0.82958
 Alpha  occ. eigenvalues --   -0.78434  -0.57312  -0.50976  -0.48874  -0.47260
 Alpha  occ. eigenvalues --   -0.46791  -0.46299  -0.42138  -0.40845  -0.37068
 Alpha  occ. eigenvalues --   -0.36154  -0.33976  -0.30537  -0.29759  -0.28584
 Alpha  occ. eigenvalues --   -0.26561  -0.24715  -0.24136
 Alpha virt. eigenvalues --    0.04953   0.09968   0.10381   0.11166   0.11839
 Alpha virt. eigenvalues --    0.12079   0.12753   0.18649   0.19884   0.20555
 Alpha virt. eigenvalues --    0.20947   0.21224   0.23377   0.23749   0.24687

 Mulliken charges:
               1
     1  C   -1.559669
     2  O   -2.744972
     3  F    0.440925
     4  F    0.427343
     5  H    1.507760
     6  C    0.234176
     7  F    0.470336
     8  F    0.696632
     9  F    0.527468
 Sum of Mulliken charges =  -0.00000

 Dipole moment (field-independent basis, Debye):
    X=             -0.1700    Y=              0.8022    Z=              0.5107  Tot=              0.9660

 Test job not archived.
 1\1\GINC-SE435\SP\RHF\Aug-CC-pVDZ\C2H1F5O1\OHZDE\08-Apr-2025\0\\#t hf
 aug-cc-pvdz iop(5/13=1,5/36=2,99/5=2) pseudo=read geom=check guess=(re
 ad,tcheck) scf=(maxcycle=1)\\title\\0,1\C,0,1.291565,-0.053242,0.22258
 8\O,0,0.169702,-0.335276,-0.562447\F,0,1.770922,1.163542,-0.102375\F,0
 ,2.214756,-0.969142,-0.09895\H,0,1.07677,-0.08937,1.290734\C,0,-1.0492
 05,-0.03756,-0.035366\F,0,-1.270729,-0.707181,1.113375\F,0,-1.968516,-
 0.388147,-0.920874\F,0,-1.178494,1.269416,0.240548\\Version=ES64L-G16R
 evC.01\State=1-A\HF=-650.7757403\RMSD=4.198e-02\Dipole=-0.0668738,0.31

 Normal termination of Gaussian 16 at Tue Apr  8 22:51:43 2025.
