 Gaussian 16, Revision C.01,

 ----------------------------------------------------------------------
 #t hf aug-cc-pvdz symm=none int=(grid=ultrafine) guess=(read,tcheck) s
 table=(opt,rrhf)
 ----------------------------------------------------------------------
 -----
 title
 -----
 Symbolic Z-matrix:
 Charge =  0 Multiplicity = 1

 SCF Done:  E(RHF) =  -809.722732534     A.U. after   15 cycles
 Normal termination of Gaussian 16 at Tue Apr  8 23:28:18 2025.
 Gaussian 16:  ES64L-G16RevC.01  3-Jul-2019

 ----------------------------------------------------------------------
 #t hf aug-cc-pvdz iop(5/13=1,5/36=2,99/5=2) pseudo=read geom=check gue
 ss=(read,tcheck) scf=(maxcycle=1)
 ----------------------------------------------------------------------
 -----
 title
 -----
 Structure from the checkpoint file:  "BDE49_nonexpt_1305_mol1.chk"
 Charge =  0 Multiplicity = 1

                         Standard orientation:
 ---------------------------------------------------------------------
 Center     Atomic      Atomic             Coordinates (Angstroms)
 Number     Number       Type             X           Y           Z
 ---------------------------------------------------------------------
      1          6           0       -0.494614   -0.642706   -0.788011
      2          7           0       -1.718197   -0.051654   -0.128395
      3         15           0        1.086303   -0.069875   -0.052515
      4          1           0       -0.522945   -0.326730   -1.831877
      5          1           0       -0.582345   -1.723368   -0.716330
      6          8           0       -2.632083   -0.800158    0.134824
      7          8           0       -1.714983    1.162607    0.077603
      8          8           0        2.267215   -0.688144   -0.648850
      9          8           0        1.033550    1.510038   -0.178284
     10          1           0        0.138756    1.849990    0.009266
     11          8           0        0.803949   -0.423075    1.485867
     12          1           0        1.605871   -0.624098    1.984227
 ---------------------------------------------------------------------

 SCF Done:  E(RHF) =  -811.888172351     A.U. after    2 cycles

 The electronic state is 1-A.
 Alpha  occ. eigenvalues -- -105.33228 -21.13959 -21.13884 -21.12704 -21.12286
 Alpha  occ. eigenvalues --  -21.04616 -16.03202 -11.47528  -2.95997  -2.03260
 Alpha  occ. eigenvalues --   -2.00937  -1.94432  -1.81243  -1.72791  -1.57580
 Alpha  occ. eigenvalues --   -1.41907  -1.28051  -1.18847  -0.89048  -0.75282
 Alpha  occ. eigenvalues --   -0.74447  -0.71172  -0.65739  -0.61915  -0.59931
 Alpha  occ. eigenvalues --   -0.56132  -0.48417  -0.42400  -0.41431  -0.37418
 Alpha  occ. eigenvalues --   -0.36670  -0.35049  -0.34822  -0.30452  -0.28857
 Alpha  occ. eigenvalues --   -0.17565
 Alpha virt. eigenvalues --    0.03208   0.05282   0.05556   0.06911   0.09903
 Alpha virt. eigenvalues --    0.10597   0.10840   0.11400   0.12053   0.13446
 Alpha virt. eigenvalues --    0.13990   0.15198   0.16319   0.17695   0.18608

 Mulliken charges:
               1
     1  C   -4.097878
     2  N    4.289447
     3  P    9.317239
     4  H    1.301201
     5  H    1.359118
     6  O   -2.706994
     7  O   -2.633054
     8  O   -2.998625
     9  O   -3.117139
    10  H    1.224879
    11  O   -2.932020
    12  H    0.993826
 Sum of Mulliken charges =  -0.00000

 Dipole moment (field-independent basis, Debye):
    X=             -1.1599    Y=              0.3467    Z=              1.0600  Tot=              1.6091

 Test job not archived.
 1\1\GINC-SE080\SP\RHF\Aug-CC-pVDZ\C1H4N1O5P1\OHZDE\08-Apr-2025\0\\#t h
 f aug-cc-pvdz iop(5/13=1,5/36=2,99/5=2) pseudo=read geom=check guess=(
 read,tcheck) scf=(maxcycle=1)\\title\\0,1\C,0,-0.494614,-0.642706,-0.7
 88011\N,0,-1.718197,-0.051654,-0.128395\P,0,1.086303,-0.069875,-0.0525
 15\H,0,-0.522945,-0.32673,-1.831877\H,0,-0.582345,-1.723368,-0.71633\O
 ,0,-2.632083,-0.800158,0.134824\O,0,-1.714983,1.162607,0.077603\O,0,2.
 267215,-0.688144,-0.64885\O,0,1.03355,1.510038,-0.178284\H,0,0.138756,
 1.84999,0.009266\O,0,0.803949,-0.423075,1.485867\H,0,1.605871,-0.62409

 Normal termination of Gaussian 16 at Tue Apr  8 23:28:24 2025.
