 Gaussian 16, Revision C.01,

 ----------------------------------------------------------------------
 #t hf aug-cc-pvdz symm=none int=(grid=ultrafine) guess=(read,tcheck) s
 table=(opt,rrhf)
 ----------------------------------------------------------------------
 -----
 title
 -----
 Symbolic Z-matrix:
 Charge =  0 Multiplicity = 1

 SCF Done:  E(RHF) =  -748.509357718     A.U. after   12 cycles
 Normal termination of Gaussian 16 at Tue Apr  8 23:42:31 2025.
 Gaussian 16:  ES64L-G16RevC.01  3-Jul-2019

 ----------------------------------------------------------------------
 #t hf aug-cc-pvdz iop(5/13=1,5/36=2,99/5=2) pseudo=read geom=check gue
 ss=(read,tcheck) scf=(maxcycle=1)
 ----------------------------------------------------------------------
 -----
 title
 -----
 Structure from the checkpoint file:  "BDE49_nonexpt_1656_mol1.chk"
 Charge =  0 Multiplicity = 1

                         Standard orientation:
 ---------------------------------------------------------------------
 Center     Atomic      Atomic             Coordinates (Angstroms)
 Number     Number       Type             X           Y           Z
 ---------------------------------------------------------------------
      1         15           0       -1.988844   -0.000000   -0.455462
      2         14           0       -0.042701   -0.000000    0.739758
      3          6           0        1.240948   -1.207166    0.036148
      4          6           0        1.240948    1.207166    0.036148
      5          6           0        1.821617    0.000000   -0.775965
      6          1           0        1.937661    1.539547    0.811239
      7          1           0        0.941118    2.075908   -0.550284
      8          1           0        1.411863    0.000000   -1.788979
      9          1           0        2.911462    0.000000   -0.864461
     10          1           0        0.941118   -2.075908   -0.550284
     11          1           0        1.937661   -1.539547    0.811239
     12          1           0       -2.587178    1.035596    0.311679
     13          1           0       -2.587178   -1.035595    0.311679
     14          1           0       -0.297129   -0.000000    2.205505
 ---------------------------------------------------------------------

 SCF Done:  E(RHF) =  -749.477506188     A.U. after    2 cycles

 The electronic state is 1-A.
 Alpha  occ. eigenvalues -- -105.17042 -76.21264 -11.41503 -11.35627 -11.33976
 Alpha  occ. eigenvalues --   -5.55047  -2.73727  -2.19682  -2.17237  -2.16575
 Alpha  occ. eigenvalues --   -1.43925  -1.43057  -1.41137  -1.22161  -0.96251
 Alpha  occ. eigenvalues --   -0.84743  -0.74983  -0.66227  -0.63294  -0.58139
 Alpha  occ. eigenvalues --   -0.54516  -0.46935  -0.44980  -0.38871  -0.38415
 Alpha  occ. eigenvalues --   -0.25664  -0.14872  -0.03696
 Alpha virt. eigenvalues --    0.03972   0.05636   0.05936   0.06110   0.06265
 Alpha virt. eigenvalues --    0.06420   0.06829   0.07651   0.07910   0.09753
 Alpha virt. eigenvalues --    0.10172   0.10843   0.11868   0.11992   0.12514

 Mulliken charges:
               1
     1  P    1.411116
     2  Si   3.573142
     3  C   -3.401372
     4  C   -3.401372
     5  C   -2.434316
     6  H    1.173229
     7  H    1.302064
     8  H    1.287943
     9  H    1.310328
    10  H    1.302064
    11  H    1.173229
    12  H   -0.675400
    13  H   -0.675401
    14  H   -1.945254
 Sum of Mulliken charges =  -0.00000

 Dipole moment (field-independent basis, Debye):
    X=             -1.2841    Y=             -0.0000    Z=             -5.7673  Tot=              5.9085

 Test job not archived.
 1\1\GINC-SE165\SP\RHF\Aug-CC-pVDZ\C3H9P1Si1\OHZDE\08-Apr-2025\0\\#t hf
  aug-cc-pvdz iop(5/13=1,5/36=2,99/5=2) pseudo=read geom=check guess=(r
 ead,tcheck) scf=(maxcycle=1)\\title\\0,1\P,0,1.988844,0.,-0.455462\Si,
 0,0.042701,0.,0.739758\C,0,-1.240948,1.207166,0.036148\C,0,-1.240948,-
 1.207166,0.036148\C,0,-1.821617,0.,-0.775965\H,0,-1.937661,-1.539547,0
 .811239\H,0,-0.941118,-2.075908,-0.550284\H,0,-1.411863,0.,-1.788979\H
 ,0,-2.911462,0.,-0.864461\H,0,-0.941118,2.075908,-0.550284\H,0,-1.9376
 61,1.539547,0.811239\H,0,2.587178,-1.035596,0.311679\H,0,2.587178,1.03

 Normal termination of Gaussian 16 at Tue Apr  8 23:42:36 2025.
