 Gaussian 16, Revision C.01,

 ----------------------------------------------------------------------
 #t hf aug-cc-pvdz symm=none int=(grid=ultrafine) guess=(read,tcheck) s
 table=(opt,rrhf)
 ----------------------------------------------------------------------
 -----
 title
 -----
 Symbolic Z-matrix:
 Charge =  0 Multiplicity = 1

 SCF Done:  E(RHF) =  -1135.67074204     A.U. after   16 cycles
 Normal termination of Gaussian 16 at Tue Apr  8 22:53:47 2025.
 Gaussian 16:  ES64L-G16RevC.01  3-Jul-2019

 ----------------------------------------------------------------------
 #t hf aug-cc-pvdz iop(5/13=1,5/36=2,99/5=2) pseudo=read geom=check gue
 ss=(read,tcheck) scf=(maxcycle=1)
 ----------------------------------------------------------------------
 -----
 title
 -----
 Structure from the checkpoint file:  "BDE49_expt_1220_mol1.chk"
 Charge =  0 Multiplicity = 1

                         Standard orientation:
 ---------------------------------------------------------------------
 Center     Atomic      Atomic             Coordinates (Angstroms)
 Number     Number       Type             X           Y           Z
 ---------------------------------------------------------------------
      1          6           0        0.614555   -0.065343   -0.015172
      2          7           0        0.736413   -0.067389    1.544001
      3          8           0        0.090707    0.796532    2.088539
      4          8           0        1.480776   -0.878116    2.030274
      5          6           0       -0.842814    0.047663   -0.524954
      6          7           0        1.318527   -1.349092   -0.537112
      7          6           0       -1.027852    0.068971   -2.034629
      8          1           0       -0.521364    0.931228   -2.457709
      9          1           0       -2.095575    0.123946   -2.239255
     10          1           0       -0.635537   -0.844160   -2.477289
     11          7           0       -1.710247   -1.106246    0.099495
     12          8           0       -2.669652   -1.453601   -0.543676
     13          8           0       -1.360521   -1.524293    1.182918
     14          7           0       -1.482194    1.375186    0.019868
     15          7           0        1.543976    1.106891   -0.512990
     16          8           0       -2.526954    1.287323    0.612936
     17          8           0       -0.876485    2.380011   -0.288781
     18          8           0        0.589923   -2.269537   -0.844523
     19          8           0        2.523177   -1.311291   -0.563195
     20          8           0        2.076572    1.774695    0.331918
     21          8           0        1.665434    1.169002   -1.715168
 ---------------------------------------------------------------------

 SCF Done:  E(RHF) =  -1140.47788101     A.U. after    2 cycles

 The electronic state is 1-A.
 Alpha  occ. eigenvalues --  -21.18290 -21.18214 -21.17731 -21.17274 -21.17036
 Alpha  occ. eigenvalues --  -21.16829 -21.16496 -21.16205 -21.15857 -21.15566
 Alpha  occ. eigenvalues --  -16.09188 -16.09110 -16.08538 -16.07219 -16.06725
 Alpha  occ. eigenvalues --  -11.73607 -11.65365 -11.47627  -2.10532  -2.07635
 Alpha  occ. eigenvalues --   -2.07283  -2.06696  -2.05354  -1.78976  -1.78078
 Alpha  occ. eigenvalues --   -1.77733  -1.76983  -1.76447  -1.43557  -1.30936
 Alpha  occ. eigenvalues --   -1.11912  -1.08532  -1.06410  -1.03939  -0.93352
 Alpha  occ. eigenvalues --   -0.84675  -0.83262  -0.82654  -0.79940  -0.77647
 Alpha  occ. eigenvalues --   -0.76050  -0.72851  -0.72266  -0.70823  -0.70017
 Alpha  occ. eigenvalues --   -0.68596  -0.68097  -0.67153  -0.66996  -0.66165
 Alpha  occ. eigenvalues --   -0.63090  -0.62665  -0.60757  -0.47756  -0.44140
 Alpha  occ. eigenvalues --   -0.43635  -0.42890  -0.41835  -0.40137  -0.39516
 Alpha  occ. eigenvalues --   -0.38514  -0.38424  -0.37488  -0.37387  -0.36693
 Alpha  occ. eigenvalues --   -0.36651  -0.35146  -0.34552
 Alpha virt. eigenvalues --    0.03601   0.04645   0.05520   0.06488   0.07015
 Alpha virt. eigenvalues --    0.07635   0.08501   0.08997   0.10396   0.12057
 Alpha virt. eigenvalues --    0.12384   0.12716   0.13169   0.13350   0.13631

 Mulliken charges:
               1
     1  C    3.900898
     2  N    5.250908
     3  O   -3.518746
     4  O   -3.090697
     5  C    4.036101
     6  N    5.241702
     7  C   -4.652251
     8  H    1.490796
     9  H    1.431433
    10  H    1.204792
    11  N    4.811418
    12  O   -3.137934
    13  O   -3.264928
    14  N    4.254107
    15  N    5.380410
    16  O   -2.896385
    17  O   -3.335982
    18  O   -3.211703
    19  O   -3.306545
    20  O   -3.166042
    21  O   -3.421353
 Sum of Mulliken charges =   0.00000

 Dipole moment (field-independent basis, Debye):
    X=             -0.2504    Y=              0.1516    Z=             -1.3445  Tot=              1.3759

 Test job not archived.
 1\1\GINC-SE221\SP\RHF\Aug-CC-pVDZ\C3H3N5O10\OHZDE\08-Apr-2025\0\\#t hf
  aug-cc-pvdz iop(5/13=1,5/36=2,99/5=2) pseudo=read geom=check guess=(r
 ead,tcheck) scf=(maxcycle=1)\\title\\0,1\C,0,0.614555,-0.065343,-0.015
 172\N,0,0.736413,-0.067389,1.544001\O,0,0.090707,0.796532,2.088539\O,0
 ,1.480776,-0.878116,2.030274\C,0,-0.842814,0.047663,-0.524954\N,0,1.31
 8527,-1.349092,-0.537112\C,0,-1.027852,0.068971,-2.034629\H,0,-0.52136
 4,0.931228,-2.457709\H,0,-2.095575,0.123946,-2.239255\H,0,-0.635537,-0
 .84416,-2.477289\N,0,-1.710247,-1.106246,0.099495\O,0,-2.669652,-1.453

 Normal termination of Gaussian 16 at Tue Apr  8 22:54:14 2025.
