 Gaussian 16, Revision C.01,

 ----------------------------------------------------------------------
 #t hf aug-cc-pvdz symm=none int=(grid=ultrafine) guess=(read,tcheck) s
 table=(opt,rrhf)
 ----------------------------------------------------------------------
 -----
 title
 -----
 Symbolic Z-matrix:
 Charge =  0 Multiplicity = 1

 SCF Done:  E(RHF) =  -629.685858688     A.U. after   14 cycles
 Normal termination of Gaussian 16 at Tue Apr  8 23:24:23 2025.
 Gaussian 16:  ES64L-G16RevC.01  3-Jul-2019

 ----------------------------------------------------------------------
 #t hf aug-cc-pvdz iop(5/13=1,5/36=2,99/5=2) pseudo=read geom=check gue
 ss=(read,tcheck) scf=(maxcycle=1)
 ----------------------------------------------------------------------
 -----
 title
 -----
 Structure from the checkpoint file:  "BDE49_nonexpt_1230_mol1.chk"
 Charge =  0 Multiplicity = 1

                         Standard orientation:
 ---------------------------------------------------------------------
 Center     Atomic      Atomic             Coordinates (Angstroms)
 Number     Number       Type             X           Y           Z
 ---------------------------------------------------------------------
      1         16           0       -1.956246   -0.090714   -0.060046
      2          8           0       -0.446872   -0.063999   -0.804789
      3          6           0        0.765382    0.003966    0.030611
      4          6           0        1.872179   -0.018268   -1.024708
      5          1           0        1.806879   -0.929994   -1.621666
      6          1           0        2.854421    0.018335   -0.546755
      7          1           0        1.775979    0.838337   -1.694834
      8          6           0        0.846390   -1.218932    0.944467
      9          1           0        0.817360   -2.137532    0.353778
     10          1           0        0.015166   -1.234004    1.652446
     11          1           0        1.778178   -1.204802    1.516045
     12          6           0        0.785914    1.309708    0.825132
     13          1           0        0.675306    2.166374    0.155502
     14          1           0        1.733542    1.412493    1.360071
     15          1           0       -0.018404    1.335382    1.563714
     16          1           0       -2.182700    1.239983    0.007736
 ---------------------------------------------------------------------

 SCF Done:  E(RHF) =  -631.053091199     A.U. after    2 cycles

 The electronic state is 1-A.
 Alpha  occ. eigenvalues --  -75.72449 -21.05883 -13.21113 -13.13728 -13.08780
 Alpha  occ. eigenvalues --  -11.45305 -11.39650 -11.39383 -11.35358  -8.05940
 Alpha  occ. eigenvalues --   -1.75092  -1.22589  -1.04910  -1.01718  -1.00715
 Alpha  occ. eigenvalues --   -0.78068  -0.63247  -0.62559  -0.62023  -0.56481
 Alpha  occ. eigenvalues --   -0.55350  -0.52263  -0.51156  -0.47287  -0.46129
 Alpha  occ. eigenvalues --   -0.44356  -0.38107  -0.31886  -0.23548
 Alpha virt. eigenvalues --    0.03476   0.04750   0.05620   0.05781   0.05846
 Alpha virt. eigenvalues --    0.06097   0.06289   0.06567   0.07453   0.09584
 Alpha virt. eigenvalues --    0.10399   0.11862   0.13131   0.13460   0.14272

 Mulliken charges:
               1
     1  S   -0.602847
     2  O   -3.342395
     3  C    4.372798
     4  C   -3.907293
     5  H    1.243840
     6  H    1.166262
     7  H    1.239333
     8  C   -4.374777
     9  H    1.216217
    10  H    1.386245
    11  H    1.200129
    12  C   -4.367235
    13  H    1.188488
    14  H    1.193118
    15  H    1.317795
    16  H    1.070323
 Sum of Mulliken charges =   0.00000

 Dipole moment (field-independent basis, Debye):
    X=              0.4877    Y=             -0.8562    Z=              0.3078  Tot=              1.0324

 Test job not archived.
 1\1\GINC-SE069\SP\RHF\Aug-CC-pVDZ\C4H10O1S1\OHZDE\08-Apr-2025\0\\#t hf
  aug-cc-pvdz iop(5/13=1,5/36=2,99/5=2) pseudo=read geom=check guess=(r
 ead,tcheck) scf=(maxcycle=1)\\title\\0,1\S,0,-1.956246,-0.090714,-0.06
 0046\O,0,-0.446872,-0.063999,-0.804789\C,0,0.765382,0.003966,0.030611\
 C,0,1.872179,-0.018268,-1.024708\H,0,1.806879,-0.929994,-1.621666\H,0,
 2.854421,0.018336,-0.546755\H,0,1.775979,0.838337,-1.694834\C,0,0.8463
 9,-1.218932,0.944467\H,0,0.81736,-2.137532,0.353778\H,0,0.015166,-1.23
 4004,1.652446\H,0,1.778178,-1.204802,1.516045\C,0,0.785914,1.309708,0.

 Normal termination of Gaussian 16 at Tue Apr  8 23:24:28 2025.
