 Gaussian 16, Revision C.01,

 ----------------------------------------------------------------------
 #t hf aug-cc-pvdz symm=none int=(grid=ultrafine) guess=(read,tcheck) s
 table=(opt,rrhf)
 ----------------------------------------------------------------------
 -----
 title
 -----
 Symbolic Z-matrix:
 Charge =  0 Multiplicity = 1

 SCF Done:  E(RHF) =  -1988.60080671     A.U. after   13 cycles

 1\1\GINC-SE094\Stability\RHF\Aug-CC-pVDZ\C2Cl4O1\OHZDE\08-Apr-2025\0\\
 #t hf aug-cc-pvdz symm=none int=(grid=ultrafine) guess=(read,tcheck) s
 table=(opt,rrhf)\\title\\0,1\C,0,-0.467071,-0.059855,-0.000001\C,0,0.7
 96895,0.863308,-0.000003\O,0,0.758398,2.039438,0.000029\Cl,0,2.332901,
 -0.039149,0.000013\Cl,0,-1.928145,0.952154,-0.000548\Cl,0,-0.438734,-1
 .078516,-1.470957\Cl,0,-0.439323,-1.077796,1.471479\\Version=ES64L-G16
 RevC.01\HF=-1988.6008067\RMSD=9.750e-09\Dipole=-0.1073244,-0.5097592,-
 0.0000095\Quadrupole=0.602923,-2.3253345,1.7224115,-1.5675339,-0.00025

 Normal termination of Gaussian 16 at Tue Apr  8 22:36:29 2025.
 Gaussian 16:  ES64L-G16RevC.01  3-Jul-2019

 ----------------------------------------------------------------------
 #t hf aug-cc-pvdz iop(5/13=1,5/36=2,99/5=2) pseudo=read geom=check gue
 ss=(read,tcheck) scf=(maxcycle=1)
 ----------------------------------------------------------------------
 -----
 title
 -----
 Structure from the checkpoint file:  "BDE49_expt_1076_mol1.chk"
 Charge =  0 Multiplicity = 1

                         Standard orientation:
 ---------------------------------------------------------------------
 Center     Atomic      Atomic             Coordinates (Angstroms)
 Number     Number       Type             X           Y           Z
 ---------------------------------------------------------------------
      1          6           0       -0.467071   -0.059855   -0.000001
      2          6           0        0.796895    0.863308   -0.000003
      3          8           0        0.758398    2.039438    0.000029
      4         17           0        2.332901   -0.039149    0.000013
      5         17           0       -1.928145    0.952154   -0.000548
      6         17           0       -0.438734   -1.078516   -1.470957
      7         17           0       -0.439323   -1.077796    1.471479
 ---------------------------------------------------------------------

 SCF Done:  E(RHF) =  -1990.22214050     A.U. after    2 cycles

 The electronic state is 1-A.
 Alpha  occ. eigenvalues --  -99.94008 -99.93998 -99.93392 -99.93140 -21.13653
 Alpha  occ. eigenvalues --  -11.60698 -11.56994 -10.51469 -10.51244 -10.50735
 Alpha  occ. eigenvalues --  -10.50523  -9.71271  -9.71221  -9.70667  -9.70417
 Alpha  occ. eigenvalues --   -9.70402  -9.70370  -9.70305  -9.70263  -9.69798
 Alpha  occ. eigenvalues --   -9.69706  -9.69586  -9.69482  -1.79854  -1.48195
 Alpha  occ. eigenvalues --   -1.35092  -1.33055  -1.32598  -1.07126  -0.86921
 Alpha  occ. eigenvalues --   -0.76133  -0.74003  -0.72098  -0.62814  -0.61686
 Alpha  occ. eigenvalues --   -0.57560  -0.56591  -0.56299  -0.53631  -0.53198
 Alpha  occ. eigenvalues --   -0.51920  -0.50936  -0.48200  -0.38176
 Alpha virt. eigenvalues --   -0.01302   0.03858   0.04132   0.04573   0.06202
 Alpha virt. eigenvalues --    0.08997   0.09269   0.09435   0.10416   0.11037
 Alpha virt. eigenvalues --    0.13393   0.13563   0.14334   0.14859   0.15901

 Mulliken charges:
               1
     1  C   -1.907817
     2  C    2.776332
     3  O   -2.282243
     4  Cl   0.221661
     5  Cl   0.359646
     6  Cl   0.416168
     7  Cl   0.416253
 Sum of Mulliken charges =  -0.00000

 Dipole moment (field-independent basis, Debye):
    X=             -0.5358    Y=              1.2185    Z=              0.0000  Tot=              1.3311

 Test job not archived.
 1\1\GINC-SE094\SP\RHF\Aug-CC-pVDZ\C2Cl4O1\OHZDE\08-Apr-2025\0\\#t hf a
 ug-cc-pvdz iop(5/13=1,5/36=2,99/5=2) pseudo=read geom=check guess=(rea
 d,tcheck) scf=(maxcycle=1)\\title\\0,1\C,0,-0.467071,-0.059855,-0.0000
 01\C,0,0.796895,0.863308,-0.000003\O,0,0.758398,2.039438,0.000029\Cl,0
 ,2.332901,-0.039149,0.000013\Cl,0,-1.928145,0.952154,-0.000548\Cl,0,-0
 .438734,-1.078516,-1.470957\Cl,0,-0.439323,-1.077796,1.471479\\Version
 =ES64L-G16RevC.01\State=1-A\HF=-1990.2221405\RMSD=1.121e-01\Dipole=-0.
 2107889,0.4793975,0.0000083\Quadrupole=-1.4948087,1.0142013,0.4806074,

 Normal termination of Gaussian 16 at Tue Apr  8 22:36:32 2025.
