 Gaussian 16, Revision C.01,

 ----------------------------------------------------------------------
 #t hf aug-cc-pvdz symm=none int=(grid=ultrafine) guess=(read,tcheck) s
 table=(opt,rrhf)
 ----------------------------------------------------------------------
 -----
 title
 -----
 Symbolic Z-matrix:
 Charge =  0 Multiplicity = 1

 SCF Done:  E(RHF) =  -916.538802053     A.U. after   13 cycles
 Normal termination of Gaussian 16 at Wed Apr  9 00:15:59 2025.
 Gaussian 16:  ES64L-G16RevC.01  3-Jul-2019

 ----------------------------------------------------------------------
 #t hf aug-cc-pvdz iop(5/13=1,5/36=2,99/5=2) pseudo=read geom=check gue
 ss=(read,tcheck) scf=(maxcycle=1)
 ----------------------------------------------------------------------
 -----
 title
 -----
 Structure from the checkpoint file:  "BDE49_nonexpt_2496_mol1.chk"
 Charge =  0 Multiplicity = 1

                         Standard orientation:
 ---------------------------------------------------------------------
 Center     Atomic      Atomic             Coordinates (Angstroms)
 Number     Number       Type             X           Y           Z
 ---------------------------------------------------------------------
      1         16           0       -0.723308   -0.233583    0.000001
      2         14           0        1.260951    0.828549   -0.000002
      3          6           0       -2.022997    1.018762    0.000009
      4          8           0       -0.824356   -0.957683    1.265727
      5          8           0       -0.824365   -0.957677   -1.265727
      6          1           0       -1.937957    1.623202    0.902788
      7          1           0       -2.964201    0.465613    0.000011
      8          1           0       -1.937964    1.623207   -0.902767
      9          6           0        2.524887   -0.541576   -0.000008
     10          1           0        2.403703   -1.168029    0.886201
     11          1           0        3.536416   -0.126492   -0.000008
     12          1           0        2.403700   -1.168023   -0.886222
     13          1           0        1.297174    1.673966    1.213264
     14          1           0        1.297167    1.673970   -1.213266
 ---------------------------------------------------------------------

 SCF Done:  E(RHF) =  -918.007657424     A.U. after    2 cycles

 The electronic state is 1-A.
 Alpha  occ. eigenvalues --  -76.25907 -75.85911 -21.03050 -21.03014 -13.47471
 Alpha  occ. eigenvalues --  -13.34873 -13.29805 -11.41777 -11.37522  -8.20950
 Alpha  occ. eigenvalues --   -5.59530  -2.23168  -2.21780  -2.21597  -1.80485
 Alpha  occ. eigenvalues --   -1.63012  -1.14188  -1.06812  -0.91403  -0.75791
 Alpha  occ. eigenvalues --   -0.63528  -0.62522  -0.59537  -0.58576  -0.56363
 Alpha  occ. eigenvalues --   -0.51950  -0.50451  -0.45097  -0.43025  -0.38422
 Alpha  occ. eigenvalues --   -0.36892  -0.33774  -0.30476
 Alpha virt. eigenvalues --    0.02728   0.02909   0.05037   0.05227   0.06596
 Alpha virt. eigenvalues --    0.07030   0.07145   0.07893   0.08462   0.08827
 Alpha virt. eigenvalues --    0.10788   0.11239   0.12138   0.13574   0.13852

 Mulliken charges:
               1
     1  S    4.033311
     2  Si   5.798845
     3  C   -4.649822
     4  O   -2.268266
     5  O   -2.268268
     6  H    1.379740
     7  H    1.347959
     8  H    1.379740
     9  C   -5.019420
    10  H    1.348464
    11  H    1.300713
    12  H    1.348464
    13  H   -1.865731
    14  H   -1.865730
 Sum of Mulliken charges =  -0.00000

 Dipole moment (field-independent basis, Debye):
    X=              1.4874    Y=              1.2058    Z=              0.0000  Tot=              1.9148

 Test job not archived.
 1\1\GINC-SE273\SP\RHF\Aug-CC-pVDZ\C2H8O2S1Si1\OHZDE\09-Apr-2025\0\\#t
 hf aug-cc-pvdz iop(5/13=1,5/36=2,99/5=2) pseudo=read geom=check guess=
 (read,tcheck) scf=(maxcycle=1)\\title\\0,1\S,0,-0.723308,-0.233583,0.0
 00001\Si,0,1.260951,0.828549,-0.000002\C,0,-2.022997,1.018762,0.000009
 \O,0,-0.824356,-0.957683,1.265727\O,0,-0.824365,-0.957677,-1.265727\H,
 0,-1.937957,1.623202,0.902788\H,0,-2.964201,0.465614,0.000011\H,0,-1.9
 37964,1.623207,-0.902767\C,0,2.524887,-0.541576,-0.000008\H,0,2.403703
 ,-1.168029,0.886201\H,0,3.536416,-0.126493,-0.000008\H,0,2.4037,-1.168

 Normal termination of Gaussian 16 at Wed Apr  9 00:16:05 2025.
