 Gaussian 16, Revision C.01,

 ----------------------------------------------------------------------
 #t hf aug-cc-pvdz symm=none int=(grid=ultrafine) guess=(read,tcheck) s
 table=(opt,rrhf)
 ----------------------------------------------------------------------
 -----
 title
 -----
 Symbolic Z-matrix:
 Charge =  0 Multiplicity = 1

 SCF Done:  E(RHF) =  -840.579065713     A.U. after   14 cycles
 Normal termination of Gaussian 16 at Tue Apr  8 23:54:24 2025.
 Gaussian 16:  ES64L-G16RevC.01  3-Jul-2019

 ----------------------------------------------------------------------
 #t hf aug-cc-pvdz iop(5/13=1,5/36=2,99/5=2) pseudo=read geom=check gue
 ss=(read,tcheck) scf=(maxcycle=1)
 ----------------------------------------------------------------------
 -----
 title
 -----
 Structure from the checkpoint file:  "BDE49_nonexpt_1940_mol1.chk"
 Charge =  0 Multiplicity = 1

                         Standard orientation:
 ---------------------------------------------------------------------
 Center     Atomic      Atomic             Coordinates (Angstroms)
 Number     Number       Type             X           Y           Z
 ---------------------------------------------------------------------
      1         14           0        2.104031   -0.270149   -0.276489
      2          6           0        0.617618   -0.040414    0.895090
      3          6           0       -0.583192    0.527400    0.183871
      4          8           0       -0.678589    1.663992   -0.190697
      5          1           0        3.196707   -0.902760    0.496447
      6          1           0        2.547107    1.041439   -0.790916
      7         16           0       -1.896188   -0.704059   -0.101690
      8          1           0        1.723125   -1.151483   -1.401462
      9          1           0       -2.672496    0.145617   -0.794851
     10          1           0        0.919466    0.675633    1.665251
     11          1           0        0.390821   -0.995273    1.375236
 ---------------------------------------------------------------------

 SCF Done:  E(RHF) =  -841.646614973     A.U. after    2 cycles

 The electronic state is 1-A.
 Alpha  occ. eigenvalues --  -76.23211 -75.71156 -21.07069 -13.15652 -13.11933
 Alpha  occ. eigenvalues --  -13.03175 -11.51958 -11.39465  -8.05197  -5.56651
 Alpha  occ. eigenvalues --   -2.20173  -2.18946  -2.18874  -1.73091  -1.19162
 Alpha  occ. eigenvalues --   -1.08345  -0.79886  -0.74089  -0.64288  -0.58667
 Alpha  occ. eigenvalues --   -0.54126  -0.50682  -0.48251  -0.47633  -0.46138
 Alpha  occ. eigenvalues --   -0.40731  -0.27070  -0.26697
 Alpha virt. eigenvalues --    0.03019   0.04365   0.04721   0.05654   0.06698
 Alpha virt. eigenvalues --    0.07767   0.08375   0.08626   0.09815   0.10256
 Alpha virt. eigenvalues --    0.11088   0.12775   0.13363   0.14309   0.14882

 Mulliken charges:
               1
     1  Si   5.994740
     2  C   -4.151605
     3  C    3.077029
     4  O   -3.035623
     5  H   -1.643972
     6  H   -1.699086
     7  S   -0.778064
     8  H   -1.746368
     9  H    1.081428
    10  H    1.306465
    11  H    1.595057
 Sum of Mulliken charges =  -0.00000

 Dipole moment (field-independent basis, Debye):
    X=              0.1775    Y=             -1.8331    Z=              1.0083  Tot=              2.0997

 Test job not archived.
 1\1\GINC-SE059\SP\RHF\Aug-CC-pVDZ\C2H6O1S1Si1\OHZDE\08-Apr-2025\0\\#t
 hf aug-cc-pvdz iop(5/13=1,5/36=2,99/5=2) pseudo=read geom=check guess=
 (read,tcheck) scf=(maxcycle=1)\\title\\0,1\Si,0,2.104031,-0.270149,-0.
 276489\C,0,0.617618,-0.040414,0.89509\C,0,-0.583192,0.5274,0.183871\O,
 0,-0.678589,1.663992,-0.190697\H,0,3.196707,-0.90276,0.496447\H,0,2.54
 7107,1.041439,-0.790916\S,0,-1.896188,-0.704058,-0.10169\H,0,1.723125,
 -1.151483,-1.401462\H,0,-2.672496,0.145618,-0.794851\H,0,0.919466,0.67
 5633,1.665251\H,0,0.390821,-0.995273,1.375236\\Version=ES64L-G16RevC.0

 Normal termination of Gaussian 16 at Tue Apr  8 23:54:28 2025.
