 Gaussian 16, Revision C.01,

 ----------------------------------------------------------------------
 #t hf aug-cc-pvdz symm=none int=(grid=ultrafine) guess=(read,tcheck) s
 table=(opt,rrhf)
 ----------------------------------------------------------------------
 -----
 title
 -----
 Symbolic Z-matrix:
 Charge =  0 Multiplicity = 1

 SCF Done:  E(RHF) =  -548.131027059     A.U. after   16 cycles
 Normal termination of Gaussian 16 at Tue Apr  8 22:45:09 2025.
 Gaussian 16:  ES64L-G16RevC.01  3-Jul-2019

 ----------------------------------------------------------------------
 #t hf aug-cc-pvdz iop(5/13=1,5/36=2,99/5=2) pseudo=read geom=check gue
 ss=(read,tcheck) scf=(maxcycle=1)
 ----------------------------------------------------------------------
 -----
 title
 -----
 Structure from the checkpoint file:  "BDE49_expt_1423_mol1.chk"
 Charge =  0 Multiplicity = 1

                         Standard orientation:
 ---------------------------------------------------------------------
 Center     Atomic      Atomic             Coordinates (Angstroms)
 Number     Number       Type             X           Y           Z
 ---------------------------------------------------------------------
      1          6           0       -1.131001    0.009721    0.000005
      2          6           0       -0.571848    1.288731    0.000002
      3          6           0        0.802913    1.422280    0.000000
      4          6           0       -0.333193   -1.126841    0.000006
      5          6           0        1.050487   -0.994319    0.000004
      6          6           0        1.626097    0.283629    0.000001
      7          1           0       -0.801819   -2.101038    0.000008
      8          1           0        1.665188   -1.883375    0.000005
      9          8           0        2.956875    0.525435   -0.000001
     10          6           0        3.859883   -0.577442    0.000000
     11          1           0        4.856303   -0.140525   -0.000002
     12          1           0        3.733480   -1.194763   -0.895126
     13          1           0        3.733482   -1.194759    0.895128
     14          7           0       -2.592828   -0.137576    0.000007
     15          8           0       -3.267847    0.885368   -0.000013
     16          8           0       -3.052389   -1.274020   -0.000009
     17          1           0       -1.223216    2.151353    0.000001
     18          1           0        1.273241    2.397318   -0.000002
 ---------------------------------------------------------------------

 SCF Done:  E(RHF) =  -550.567427086     A.U. after    2 cycles

 The electronic state is 1-A.
 Alpha  occ. eigenvalues --  -21.10272 -21.08670 -21.08556 -15.99418 -11.56516
 Alpha  occ. eigenvalues --  -11.49839 -11.46994 -11.46543 -11.43683 -11.43366
 Alpha  occ. eigenvalues --  -11.40166  -1.99043  -1.81743  -1.68291  -1.36056
 Alpha  occ. eigenvalues --   -1.16928  -1.13307  -1.04529  -0.95651  -0.90873
 Alpha  occ. eigenvalues --   -0.82497  -0.74196  -0.68775  -0.67081  -0.66895
 Alpha  occ. eigenvalues --   -0.64966  -0.64649  -0.61613  -0.60209  -0.56874
 Alpha  occ. eigenvalues --   -0.54613  -0.52339  -0.48352  -0.43737  -0.41819
 Alpha  occ. eigenvalues --   -0.36605  -0.35264  -0.30803  -0.30495  -0.29106
 Alpha virt. eigenvalues --    0.02694   0.04337   0.05191   0.05422   0.06332
 Alpha virt. eigenvalues --    0.06505   0.07529   0.08658   0.08769   0.09978
 Alpha virt. eigenvalues --    0.10626   0.12466   0.12497   0.12501   0.13598

 Mulliken charges:
               1
     1  C    2.680622
     2  C   -2.228588
     3  C   -2.157543
     4  C   -1.277976
     5  C   -1.221463
     6  C    3.949489
     7  H    1.853438
     8  H    1.867738
     9  O   -4.786319
    10  C   -3.759398
    11  H    1.434118
    12  H    1.384676
    13  H    1.384677
    14  N    3.020974
    15  O   -2.948445
    16  O   -2.962468
    17  H    1.888094
    18  H    1.878371
 Sum of Mulliken charges =   0.00000

 Dipole moment (field-independent basis, Debye):
    X=              4.8604    Y=             -0.1662    Z=             -0.0000  Tot=              4.8633

 Test job not archived.
 1\1\GINC-SE128\SP\RHF\Aug-CC-pVDZ\C7H7N1O3\OHZDE\08-Apr-2025\0\\#t hf
 aug-cc-pvdz iop(5/13=1,5/36=2,99/5=2) pseudo=read geom=check guess=(re
 ad,tcheck) scf=(maxcycle=1)\\title\\0,1\C,0,-1.131001,0.009721,0.00000
 5\C,0,-0.571848,1.288731,0.000002\C,0,0.802913,1.42228,0.\C,0,-0.33319
 3,-1.126841,0.000006\C,0,1.050487,-0.994319,0.000004\C,0,1.626097,0.28
 3629,0.000001\H,0,-0.801819,-2.101038,0.000008\H,0,1.665188,-1.883375,
 0.000005\O,0,2.956875,0.525435,-0.000001\C,0,3.859883,-0.577442,0.\H,0
 ,4.856303,-0.140525,-0.000002\H,0,3.73348,-1.194763,-0.895126\H,0,3.73

 Normal termination of Gaussian 16 at Tue Apr  8 22:45:20 2025.
