 Gaussian 16, Revision C.01,

 ----------------------------------------------------------------------
 #t hf aug-cc-pvdz symm=none int=(grid=ultrafine) guess=(read,tcheck) s
 table=opt
 ----------------------------------------------------------------------
 -----
 title
 -----
 Symbolic Z-matrix:
 Charge =  0 Multiplicity = 2

 SCF Done:  E(UHF) =  -632.323448576     A.U. after   26 cycles

 1\1\GINC-SE332\Stability\UHF\Aug-CC-pVDZ\C6H13S1\OHZDE\08-Apr-2025\0\\
 #t hf aug-cc-pvdz symm=none int=(grid=ultrafine) guess=(read,tcheck) s
 table=opt\\title\\0,2\S,0,-3.010598,-0.818982,-0.164581\C,0,-2.267504,
 0.765493,0.307077\C,0,-0.865811,1.041288,-0.241117\H,0,-2.292665,0.830
 165,1.40109\H,0,-2.984022,1.519184,-0.046564\C,0,0.211975,0.118461,0.3
 35843\H,0,-0.611588,2.085025,-0.014356\H,0,-0.885048,0.951042,-1.33236
 3\C,0,1.611183,0.391554,-0.225229\H,0,-0.065318,-0.922823,0.130873\H,0
 ,0.230715,0.224095,1.428721\C,0,2.692768,-0.527998,0.353355\H,0,1.8847

 Normal termination of Gaussian 16 at Tue Apr  8 22:57:09 2025.
 Gaussian 16:  ES64L-G16RevC.01  3-Jul-2019

 ----------------------------------------------------------------------
 #t hf aug-cc-pvdz iop(5/13=1,5/36=2,99/5=2) pseudo=read geom=check gue
 ss=(read,tcheck) scf=(maxcycle=1)
 ----------------------------------------------------------------------
 -----
 title
 -----
 Structure from the checkpoint file:  "BDE49_expt_1821_mol2.chk"
 Charge =  0 Multiplicity = 2

                         Standard orientation:
 ---------------------------------------------------------------------
 Center     Atomic      Atomic             Coordinates (Angstroms)
 Number     Number       Type             X           Y           Z
 ---------------------------------------------------------------------
      1         16           0       -3.010598   -0.818982   -0.164581
      2          6           0       -2.267504    0.765493    0.307077
      3          6           0       -0.865811    1.041288   -0.241117
      4          1           0       -2.292665    0.830165    1.401090
      5          1           0       -2.984022    1.519184   -0.046564
      6          6           0        0.211975    0.118461    0.335843
      7          1           0       -0.611588    2.085025   -0.014356
      8          1           0       -0.885048    0.951042   -1.332363
      9          6           0        1.611183    0.391554   -0.225229
     10          1           0       -0.065318   -0.922823    0.130873
     11          1           0        0.230715    0.224095    1.428721
     12          6           0        2.692768   -0.527998    0.353355
     13          1           0        1.884758    1.436905   -0.030460
     14          1           0        1.590236    0.281367   -1.317034
     15          6           0        4.087897   -0.251453   -0.213856
     16          1           0        2.419356   -1.571895    0.158517
     17          1           0        2.713720   -0.418008    1.444410
     18          1           0        4.107549   -0.387936   -1.299625
     19          1           0        4.834867   -0.922877    0.218254
     20          1           0        4.403960    0.775396   -0.004602
 ---------------------------------------------------------------------

 SCF Done:  E(UHF) =  -633.746021275     A.U. after    2 cycles

 The electronic state is 2-A.
 Alpha  occ. eigenvalues --  -75.69842 -13.11389 -13.05974 -13.03528 -11.43362
 Alpha  occ. eigenvalues --  -11.42028 -11.40662 -11.38331 -11.36412 -11.34230
 Alpha  occ. eigenvalues --   -8.03434  -1.28913  -1.19909  -1.10146  -1.00511
 Alpha  occ. eigenvalues --   -0.91068  -0.83559  -0.81876  -0.66302  -0.62687
 Alpha  occ. eigenvalues --   -0.61046  -0.58519  -0.55253  -0.53190  -0.52552
 Alpha  occ. eigenvalues --   -0.48543  -0.47117  -0.45305  -0.44816  -0.40259
 Alpha  occ. eigenvalues --   -0.39500  -0.28791  -0.24009
 Alpha virt. eigenvalues --    0.03817   0.04375   0.05122   0.05346   0.05757
 Alpha virt. eigenvalues --    0.05946   0.06126   0.06477   0.07487   0.08182
 Alpha virt. eigenvalues --    0.08614   0.09030   0.09790   0.10754   0.11672

  Beta  occ. eigenvalues --  -75.68861 -13.10785 -13.03639 -12.99385 -11.43412
  Beta  occ. eigenvalues --  -11.42033 -11.40700 -11.38346 -11.36414 -11.34230
  Beta  occ. eigenvalues --   -8.02336  -1.28348  -1.18577  -1.07884  -0.98062
  Beta  occ. eigenvalues --   -0.89146  -0.82784  -0.81077  -0.66191  -0.61793
  Beta  occ. eigenvalues --   -0.60855  -0.58359  -0.55162  -0.52991  -0.52332
  Beta  occ. eigenvalues --   -0.48381  -0.47029  -0.45278  -0.44800  -0.40058
  Beta  occ. eigenvalues --   -0.38830  -0.22451
  Beta virt. eigenvalues --    0.03740   0.04316   0.04465   0.05135   0.05654
  Beta virt. eigenvalues --    0.05913   0.06147   0.06314   0.06603   0.07523
  Beta virt. eigenvalues --    0.08216   0.08659   0.09344   0.09969   0.10999

 Mulliken charges and spin densities:
               1          2
     1  S    0.543180   1.153465
     2  C   -4.335192  -0.127163
     3  C   -2.613563   0.002001
     4  H    1.519682   0.003231
     5  H    1.307345   0.008076
     6  C   -2.394167  -0.010097
     7  H    1.418461   0.004324
     8  H    1.389628  -0.000311
     9  C   -2.336552  -0.011116
    10  H    1.560240   0.001355
    11  H    1.534723  -0.005264
    12  C   -3.010075  -0.016468
    13  H    1.546952   0.000099
    14  H    1.603628  -0.001490
    15  C   -4.360106   0.001494
    16  H    1.452191  -0.001602
    17  H    1.448642  -0.000475
    18  H    1.322562   0.000039
    19  H    1.079209   0.000019
    20  H    1.323211  -0.000117
 Sum of Mulliken charges =   0.00000   1.00000

 Dipole moment (field-independent basis, Debye):
    X=              0.1060    Y=              0.1251    Z=              0.1018  Tot=              0.1930
                          Isotropic Fermi Contact Couplings
        Atom                 a.u.       MegaHertz       Gauss      10(-4) cm-1
     1  S(33)              0.26265      90.21168      32.18977      30.09138
     2  C(13)             -0.01647     -18.51980      -6.60833      -6.17754
     3  C(13)             -0.00021      -0.23929      -0.08539      -0.07982
     4  H(1)               0.00745      33.28937      11.87847      11.10414
     5  H(1)               0.01328      59.34371      21.17531      19.79493
     6  C(13)             -0.00019      -0.21904      -0.07816      -0.07306
     7  H(1)              -0.00046      -2.06697      -0.73755      -0.68947
     8  H(1)              -0.00022      -1.00136      -0.35731      -0.33402

 Normal termination of Gaussian 16 at Tue Apr  8 22:57:17 2025.
