 Gaussian 16, Revision C.01,

 ----------------------------------------------------------------------
 #t hf aug-cc-pvdz symm=none int=(grid=ultrafine) guess=(read,tcheck) s
 table=(opt,rrhf)
 ----------------------------------------------------------------------
 -----
 title
 -----
 Symbolic Z-matrix:
 Charge =  0 Multiplicity = 1

 SCF Done:  E(RHF) =  -595.723779296     A.U. after   14 cycles
 Normal termination of Gaussian 16 at Wed Apr  9 00:08:08 2025.
 Gaussian 16:  ES64L-G16RevC.01  3-Jul-2019

 ----------------------------------------------------------------------
 #t hf aug-cc-pvdz iop(5/13=1,5/36=2,99/5=2) pseudo=read geom=check gue
 ss=(read,tcheck) scf=(maxcycle=1)
 ----------------------------------------------------------------------
 -----
 title
 -----
 Structure from the checkpoint file:  "BDE49_nonexpt_2262_mol1.chk"
 Charge =  0 Multiplicity = 1

                         Standard orientation:
 ---------------------------------------------------------------------
 Center     Atomic      Atomic             Coordinates (Angstroms)
 Number     Number       Type             X           Y           Z
 ---------------------------------------------------------------------
      1          6           0        2.699427    0.000016    0.277236
      2          6           0        2.016017    1.204247    0.119254
      3          6           0        0.658114    1.210180   -0.190078
      4          6           0        2.016041   -1.204229    0.119268
      5          6           0        0.658138   -1.210193   -0.190064
      6          6           0       -0.018746   -0.000014   -0.342058
      7          1           0        3.756447    0.000028    0.515982
      8          1           0        2.540619    2.146090    0.234680
      9          1           0        0.117803    2.139532   -0.325852
     10          1           0        2.540661   -2.146061    0.234706
     11          1           0        0.117843   -2.139556   -0.325826
     12          8           0       -1.351792   -0.000031   -0.688950
     13         14           0       -2.662508    0.000008    0.327966
     14          1           0       -3.842155   -0.000018   -0.555812
     15          1           0       -2.657851    1.204322    1.190383
     16          1           0       -2.657858   -1.204247    1.190465
 ---------------------------------------------------------------------

 SCF Done:  E(RHF) =  -597.299730525     A.U. after    2 cycles

 The electronic state is 1-A.
 Alpha  occ. eigenvalues --  -76.24500 -21.06460 -11.52799 -11.45715 -11.42571
 Alpha  occ. eigenvalues --  -11.40752 -11.40055 -11.36555  -5.58016  -2.24720
 Alpha  occ. eigenvalues --   -2.19829  -2.19585  -1.73501  -1.31841  -1.09592
 Alpha  occ. eigenvalues --   -1.06991  -0.87303  -0.85531  -0.76171  -0.70522
 Alpha  occ. eigenvalues --   -0.64571  -0.59631  -0.58424  -0.56594  -0.55112
 Alpha  occ. eigenvalues --   -0.49664  -0.48926  -0.46038  -0.45704  -0.42972
 Alpha  occ. eigenvalues --   -0.36261  -0.33423  -0.29156
 Alpha virt. eigenvalues --    0.03339   0.04926   0.05059   0.05408   0.06378
 Alpha virt. eigenvalues --    0.06412   0.06929   0.08020   0.08383   0.08959
 Alpha virt. eigenvalues --    0.10093   0.11397   0.11944   0.12663   0.13540

 Mulliken charges:
               1
     1  C   -2.451258
     2  C    0.283125
     3  C   -4.044641
     4  C    0.283214
     5  C   -4.044596
     6  C    5.327718
     7  H    1.528992
     8  H    1.514342
     9  H    1.798719
    10  H    1.514340
    11  H    1.798711
    12  O   -4.674747
    13  Si   6.341578
    14  H   -1.738278
    15  H   -1.718601
    16  H   -1.718616
 Sum of Mulliken charges =  -0.00000

 Dipole moment (field-independent basis, Debye):
    X=              0.3587    Y=             -0.0000    Z=             -0.1623  Tot=              0.3937

 Test job not archived.
 1\1\GINC-SE333\SP\RHF\Aug-CC-pVDZ\C6H8O1Si1\OHZDE\09-Apr-2025\0\\#t hf
  aug-cc-pvdz iop(5/13=1,5/36=2,99/5=2) pseudo=read geom=check guess=(r
 ead,tcheck) scf=(maxcycle=1)\\title\\0,1\C,0,2.699427,0.000016,0.27723
 6\C,0,2.016017,1.204247,0.119254\C,0,0.658114,1.21018,-0.190078\C,0,2.
 016041,-1.204229,0.119268\C,0,0.658138,-1.210193,-0.190064\C,0,-0.0187
 46,-0.000014,-0.342058\H,0,3.756447,0.000028,0.515982\H,0,2.540619,2.1
 4609,0.23468\H,0,0.117803,2.139532,-0.325852\H,0,2.540661,-2.146061,0.
 234706\H,0,0.117843,-2.139556,-0.325826\O,0,-1.351792,-0.000031,-0.688

 Normal termination of Gaussian 16 at Wed Apr  9 00:08:13 2025.
