 Gaussian 16, Revision C.01,

 ----------------------------------------------------------------------
 #t hf aug-cc-pvdz symm=none int=(grid=ultrafine) guess=(read,tcheck) s
 table=(opt,rrhf)
 ----------------------------------------------------------------------
 -----
 title
 -----
 Symbolic Z-matrix:
 Charge =  0 Multiplicity = 1

 SCF Done:  E(RHF) =  -764.523791897     A.U. after   15 cycles
 Normal termination of Gaussian 16 at Tue Apr  8 23:12:18 2025.
 Gaussian 16:  ES64L-G16RevC.01  3-Jul-2019

 ----------------------------------------------------------------------
 #t hf aug-cc-pvdz iop(5/13=1,5/36=2,99/5=2) pseudo=read geom=check gue
 ss=(read,tcheck) scf=(maxcycle=1)
 ----------------------------------------------------------------------
 -----
 title
 -----
 Structure from the checkpoint file:  "BDE49_expt_725_mol1.chk"
 Charge =  0 Multiplicity = 1

                         Standard orientation:
 ---------------------------------------------------------------------
 Center     Atomic      Atomic             Coordinates (Angstroms)
 Number     Number       Type             X           Y           Z
 ---------------------------------------------------------------------
      1          6           0        1.379098    0.641606    0.000000
      2          6           0       -0.000000    0.835057   -0.000000
      3          6           0       -0.893790   -0.225767   -0.000000
      4          6           0        1.859324   -0.664445    0.000000
      5          6           0        0.988301   -1.750588    0.000000
      6          6           0       -0.390645   -1.528950    0.000000
      7          1           0        2.929042   -0.838764    0.000000
      8          1           0        1.376490   -2.764344    0.000000
      9          8           0       -1.303389   -2.541708    0.000000
     10          1           0       -0.842511   -3.387053    0.000000
     11          1           0       -1.962989   -0.064243   -0.000000
     12         17           0       -0.633971    2.473983   -0.000000
     13          1           0        2.050851    1.488882    0.000000
 ---------------------------------------------------------------------

 SCF Done:  E(RHF) =  -766.167220411     A.U. after    2 cycles

 The electronic state is 1-A'.
 Alpha  occ. eigenvalues --  -99.89492 -21.11594 -11.53378 -11.47966 -11.45577
 Alpha  occ. eigenvalues --  -11.42841 -11.42108 -11.38616 -10.46834  -9.66860
 Alpha  occ. eigenvalues --   -9.65976  -9.65799  -1.77105  -1.39245  -1.27019
 Alpha  occ. eigenvalues --   -1.10241  -1.07802  -0.88736  -0.86789  -0.72639
 Alpha  occ. eigenvalues --   -0.68865  -0.64156  -0.60420  -0.59933  -0.58095
 Alpha  occ. eigenvalues --   -0.53860  -0.52856  -0.48472  -0.48026  -0.43496
 Alpha  occ. eigenvalues --   -0.43215  -0.34564  -0.28480
 Alpha virt. eigenvalues --    0.03085   0.04501   0.05212   0.06487   0.06688
 Alpha virt. eigenvalues --    0.08165   0.09323   0.10554   0.11616   0.11762
 Alpha virt. eigenvalues --    0.13079   0.13253   0.13709   0.13896   0.14308

 Mulliken charges:
               1
     1  C   -2.230089
     2  C   -0.098294
     3  C   -1.754512
     4  C    0.372788
     5  C   -4.886610
     6  C    6.208005
     7  H    1.454685
     8  H    1.640662
     9  O   -4.381524
    10  H    1.012869
    11  H    1.777251
    12  Cl  -0.798319
    13  H    1.683089
 Sum of Mulliken charges =   0.00000

 Dipole moment (field-independent basis, Debye):
    X=              1.0558    Y=             -3.0011    Z=              0.0000  Tot=              3.1814

 Test job not archived.
 1\1\GINC-SE072\SP\RHF\Aug-CC-pVDZ\C6H5Cl1O1\OHZDE\08-Apr-2025\0\\#t hf
  aug-cc-pvdz iop(5/13=1,5/36=2,99/5=2) pseudo=read geom=check guess=(r
 ead,tcheck) scf=(maxcycle=1)\\title\\0,1\C,0,-0.559234,1.414506,0.\C,0
 ,-0.833606,0.049202,0.\C,0,0.172712,-0.905539,0.\C,0,0.772843,1.816944
 ,0.\C,0,1.805778,0.883439,0.\C,0,1.503277,-0.480053,0.\H,0,1.009887,2.
 874533,0.\H,0,2.840645,1.211222,0.\O,0,2.460496,-1.450883,0.\H,0,3.331
 527,-1.040614,0.\H,0,-0.051529,-1.963364,0.\Cl,0,-2.507039,-0.487101,0
 .\H,0,-1.365458,2.135014,0.\\Version=ES64L-G16RevC.01\State=1-A'\HF=-7

 Normal termination of Gaussian 16 at Tue Apr  8 23:12:23 2025.
