 Gaussian 16, Revision C.01,

 ----------------------------------------------------------------------
 #t hf aug-cc-pvdz symm=none int=(grid=ultrafine) guess=(read,tcheck) s
 table=(opt,rrhf)
 ----------------------------------------------------------------------
 -----
 title
 -----
 Symbolic Z-matrix:
 Charge =  0 Multiplicity = 1

 SCF Done:  E(RHF) =  -412.530494631     A.U. after   15 cycles
 Normal termination of Gaussian 16 at Tue Apr  8 23:05:58 2025.
 Gaussian 16:  ES64L-G16RevC.01  3-Jul-2019

 ----------------------------------------------------------------------
 #t hf aug-cc-pvdz iop(5/13=1,5/36=2,99/5=2) pseudo=read geom=check gue
 ss=(read,tcheck) scf=(maxcycle=1)
 ----------------------------------------------------------------------
 -----
 title
 -----
 Structure from the checkpoint file:  "BDE49_expt_375_mol1.chk"
 Charge =  0 Multiplicity = 1

                         Standard orientation:
 ---------------------------------------------------------------------
 Center     Atomic      Atomic             Coordinates (Angstroms)
 Number     Number       Type             X           Y           Z
 ---------------------------------------------------------------------
      1          7           0       -1.173060    0.986967    0.000001
      2          6           0       -1.224213   -0.406741   -0.000021
      3          7           0        0.032154   -0.987541    0.000002
      4          6           0        1.293003   -0.349684    0.000030
      5          6           0        1.203139    1.106674    0.000000
      6          6           0       -0.002325    1.706405    0.000002
      7          1           0        2.122733    1.671159   -0.000010
      8          1           0       -0.119900    2.782687    0.000001
      9          8           0        2.313410   -1.005132   -0.000012
     10          8           0       -2.264421   -1.024539    0.000001
     11          1           0       -2.070329    1.447124    0.000005
     12          1           0        0.044303   -1.999511    0.000002
 ---------------------------------------------------------------------

 SCF Done:  E(RHF) =  -414.312461848     A.U. after    2 cycles

 The electronic state is 1-A.
 Alpha  occ. eigenvalues --  -21.05172 -21.04709 -15.81908 -15.80037 -11.54284
 Alpha  occ. eigenvalues --  -11.53210 -11.50864 -11.41479  -1.75342  -1.72282
 Alpha  occ. eigenvalues --   -1.49529  -1.36843  -1.17000  -0.96409  -0.91718
 Alpha  occ. eigenvalues --   -0.80731  -0.71707  -0.69861  -0.65577  -0.61666
 Alpha  occ. eigenvalues --   -0.58590  -0.52864  -0.52523  -0.50201  -0.48579
 Alpha  occ. eigenvalues --   -0.34333  -0.33384  -0.30645  -0.29830
 Alpha virt. eigenvalues --    0.02322   0.04874   0.05276   0.06919   0.08636
 Alpha virt. eigenvalues --    0.09345   0.10400   0.10699   0.11342   0.12471
 Alpha virt. eigenvalues --    0.12616   0.13810   0.14001   0.14301   0.15246

 Mulliken charges:
               1
     1  N   -2.918159
     2  C    4.758046
     3  N   -2.509084
     4  C    4.076851
     5  C   -0.721345
     6  C   -0.075498
     7  H    1.370432
     8  H    1.492670
     9  O   -3.506010
    10  O   -3.164130
    11  H    0.614320
    12  H    0.581906
 Sum of Mulliken charges =   0.00000

 Dipole moment (field-independent basis, Debye):
    X=             -1.2268    Y=              3.0720    Z=              0.0000  Tot=              3.3079

 Test job not archived.
 1\1\GINC-SE166\SP\RHF\Aug-CC-pVDZ\C4H4N2O2\OHZDE\08-Apr-2025\0\\#t hf
 aug-cc-pvdz iop(5/13=1,5/36=2,99/5=2) pseudo=read geom=check guess=(re
 ad,tcheck) scf=(maxcycle=1)\\title\\0,1\N,0,1.17306,0.986967,-0.000001
 \C,0,1.224213,-0.406741,0.000021\N,0,-0.032154,-0.987541,-0.000002\C,0
 ,-1.293003,-0.349684,-0.00003\C,0,-1.203139,1.106674,0.\C,0,0.002325,1
 .706405,-0.000002\H,0,-2.122733,1.671159,0.00001\H,0,0.1199,2.782687,-
 0.000001\O,0,-2.31341,-1.005132,0.000012\O,0,2.264421,-1.024539,-0.000
 001\H,0,2.070329,1.447124,-0.000005\H,0,-0.044303,-1.999511,-0.000002\

 Normal termination of Gaussian 16 at Tue Apr  8 23:06:04 2025.
