 Gaussian 16, Revision C.01,

 ----------------------------------------------------------------------
 #t hf aug-cc-pvdz symm=none int=(grid=ultrafine) guess=(read,tcheck) s
 table=opt
 ----------------------------------------------------------------------
 -----
 title
 -----
 Symbolic Z-matrix:
 Charge =  0 Multiplicity = 2

 SCF Done:  E(UHF) =  -736.470358592     a.u. after    8 cycles
 Normal termination of Gaussian 16 at Tue Apr  8 23:19:39 2025.
 Gaussian 16:  ES64L-G16RevC.01  3-Jul-2019

 ----------------------------------------------------------------------
 #t hf aug-cc-pvdz iop(5/13=1,5/36=2,99/5=2) pseudo=read geom=check gue
 ss=(read,tcheck) scf=(maxcycle=1)
 ----------------------------------------------------------------------
 -----
 title
 -----
 Structure from the checkpoint file:  "BDE49_nonexpt_1063_mol2.chk"
 Charge =  0 Multiplicity = 2

                         Standard orientation:
 ---------------------------------------------------------------------
 Center     Atomic      Atomic             Coordinates (Angstroms)
 Number     Number       Type             X           Y           Z
 ---------------------------------------------------------------------
      1          8           0       -1.484910    1.035794   -0.000004
      2         16           0       -0.481446    0.021425    0.000000
      3          8           0       -0.475336   -0.916023   -1.147426
      4          8           0        0.900398    0.801579   -0.000006
      5          6           0        2.122049    0.012554   -0.000003
      6          1           0        2.923265    0.746791   -0.000009
      7          1           0        2.164515   -0.603821   -0.897961
      8          1           0        2.164518   -0.603809    0.897964
      9          8           0       -0.475334   -0.916010    1.147437
 ---------------------------------------------------------------------

 SCF Done:  E(UHF) =  -738.107513753     A.U. after    2 cycles

 The electronic state is 2-A.
 Alpha  occ. eigenvalues --  -75.96522 -21.23028 -21.13390 -21.09936 -21.09041
 Alpha  occ. eigenvalues --  -13.58599 -13.52682 -13.49507 -11.45713  -8.32494
 Alpha  occ. eigenvalues --   -2.01261  -1.81779  -1.74537  -1.69484  -1.07270
 Alpha  occ. eigenvalues --   -0.91162  -0.70653  -0.68492  -0.67761  -0.63566
 Alpha  occ. eigenvalues --   -0.60216  -0.57081  -0.49547  -0.45963  -0.44622
 Alpha  occ. eigenvalues --   -0.42498  -0.41804  -0.38741  -0.37752
 Alpha virt. eigenvalues --    0.02504   0.05161   0.05868   0.08136   0.10501
 Alpha virt. eigenvalues --    0.10804   0.11036   0.13647   0.13812   0.15282
 Alpha virt. eigenvalues --    0.16691   0.19634   0.20795   0.21620   0.22390

  Beta  occ. eigenvalues --  -75.96635 -21.19580 -21.13418 -21.08907 -21.08719
  Beta  occ. eigenvalues --  -13.58913 -13.52925 -13.49645 -11.45715  -8.32656
  Beta  occ. eigenvalues --   -1.98428  -1.78371  -1.69932  -1.65856  -1.07037
  Beta  occ. eigenvalues --   -0.89706  -0.70150  -0.67609  -0.64775  -0.59633
  Beta  occ. eigenvalues --   -0.57438  -0.48752  -0.47799  -0.43751  -0.42601
  Beta  occ. eigenvalues --   -0.40833  -0.38968  -0.36961
  Beta virt. eigenvalues --    0.02057   0.02565   0.05235   0.05928   0.08348
  Beta virt. eigenvalues --    0.10568   0.11107   0.11548   0.13660   0.13888
  Beta virt. eigenvalues --    0.15357   0.16865   0.20022   0.20863   0.21635

 Mulliken charges and spin densities:
               1          2
     1  O   -2.425539   0.046229
     2  S    8.581120  -0.291076
     3  O   -2.077623   0.921199
     4  O   -3.003067  -0.000845
     5  C   -2.870061   0.001125
     6  H    1.306029  -0.000304
     7  H    1.364396  -0.002784
     8  H    1.385328  -0.000547
     9  O   -2.260583   0.327004
 Sum of Mulliken charges =   0.00000   1.00000

 Dipole moment (field-independent basis, Debye):
    X=              2.7094    Y=             -0.1021    Z=             -0.5274  Tot=              2.7622
                          Isotropic Fermi Contact Couplings
        Atom                 a.u.       MegaHertz       Gauss      10(-4) cm-1
     1  O(17)              0.00401      -2.42975      -0.86700      -0.81048
     2  S(33)             -0.18436     -63.32345     -22.59538     -21.12243
     3  O(17)              0.14825     -89.87012     -32.06789     -29.97744
     4  O(17)             -0.00296       1.79339       0.63993       0.59821
     5  C(13)             -0.00133      -1.49457      -0.53330      -0.49853
     6  H(1)              -0.00005      -0.23157      -0.08263      -0.07725
     7  H(1)               0.00015       0.65577       0.23399       0.21874
     8  H(1)               0.00004       0.19336       0.06900       0.06450

 Normal termination of Gaussian 16 at Tue Apr  8 23:19:43 2025.
