 Gaussian 16, Revision C.01,

 ----------------------------------------------------------------------
 #t hf aug-cc-pvdz symm=none int=(grid=ultrafine) guess=(read,tcheck) s
 table=(opt,rrhf)
 ----------------------------------------------------------------------
 -----
 title
 -----
 Symbolic Z-matrix:
 Charge =  0 Multiplicity = 1

 SCF Done:  E(RHF) =  -554.913239672     A.U. after   12 cycles
 Normal termination of Gaussian 16 at Tue Apr  8 23:50:23 2025.
 Gaussian 16:  ES64L-G16RevC.01  3-Jul-2019

 ----------------------------------------------------------------------
 #t hf aug-cc-pvdz iop(5/13=1,5/36=2,99/5=2) pseudo=read geom=check gue
 ss=(read,tcheck) scf=(maxcycle=1)
 ----------------------------------------------------------------------
 -----
 title
 -----
 Structure from the checkpoint file:  "BDE49_nonexpt_1863_mol1.chk"
 Charge =  0 Multiplicity = 1

                         Standard orientation:
 ---------------------------------------------------------------------
 Center     Atomic      Atomic             Coordinates (Angstroms)
 Number     Number       Type             X           Y           Z
 ---------------------------------------------------------------------
      1          6           0        0.389847    0.014464   -0.020391
      2         14           0       -1.531811   -0.019877    0.003859
      3          8           0        0.803860    1.302581   -0.386190
      4          1           0        1.697374    1.219703   -0.750121
      5          8           0        0.875388   -0.938605   -0.929407
      6          1           0        1.497969   -1.489411   -0.436859
      7          8           0        0.944095   -0.350188    1.241109
      8          1           0        0.972138    0.449501    1.778258
      9          1           0       -2.017252    0.976628    0.987404
     10          1           0       -1.960294   -1.371681    0.421369
     11          1           0       -2.070414    0.296456   -1.335825
 ---------------------------------------------------------------------

 SCF Done:  E(RHF) =  -556.179129600     A.U. after    2 cycles

 The electronic state is 1-A.
 Alpha  occ. eigenvalues --  -76.21774 -21.09320 -21.09141 -21.08991 -11.46819
 Alpha  occ. eigenvalues --   -5.55333  -2.19606  -2.17807  -2.17625  -1.85785
 Alpha  occ. eigenvalues --   -1.67604  -1.66271  -0.91670  -0.76698  -0.68557
 Alpha  occ. eigenvalues --   -0.65856  -0.59031  -0.52557  -0.47626  -0.46929
 Alpha  occ. eigenvalues --   -0.44452  -0.43614  -0.36652  -0.32295  -0.30019
 Alpha virt. eigenvalues --    0.03786   0.05313   0.05937   0.06186   0.06679
 Alpha virt. eigenvalues --    0.06786   0.08471   0.09788   0.10218   0.13489
 Alpha virt. eigenvalues --    0.15476   0.16242   0.16525   0.17512   0.18545

 Mulliken charges:
               1
     1  C    5.606092
     2  Si   5.688823
     3  O   -2.674016
     4  H    0.546430
     5  O   -2.680434
     6  H    0.535317
     7  O   -2.840927
     8  H    0.688475
     9  H   -1.629036
    10  H   -1.644345
    11  H   -1.596379
 Sum of Mulliken charges =   0.00000

 Dipole moment (field-independent basis, Debye):
    X=              1.0673    Y=             -0.0777    Z=              0.3378  Tot=              1.1222

 Test job not archived.
 1\1\GINC-SE336\SP\RHF\Aug-CC-pVDZ\C1H6O3Si1\OHZDE\08-Apr-2025\0\\#t hf
  aug-cc-pvdz iop(5/13=1,5/36=2,99/5=2) pseudo=read geom=check guess=(r
 ead,tcheck) scf=(maxcycle=1)\\title\\0,1\C,0,0.389847,0.014464,-0.0203
 91\Si,0,-1.531811,-0.019877,0.003859\O,0,0.80386,1.302581,-0.38619\H,0
 ,1.697374,1.219703,-0.750121\O,0,0.875388,-0.938605,-0.929407\H,0,1.49
 7969,-1.489411,-0.436859\O,0,0.944095,-0.350188,1.241109\H,0,0.972138,
 0.449501,1.778258\H,0,-2.017252,0.976628,0.987404\H,0,-1.960294,-1.371
 681,0.421369\H,0,-2.070414,0.296456,-1.335825\\Version=ES64L-G16RevC.0

 Normal termination of Gaussian 16 at Tue Apr  8 23:50:26 2025.
