 Gaussian 16, Revision C.01,

 ----------------------------------------------------------------------
 #t hf aug-cc-pvdz symm=none int=(grid=ultrafine) guess=(read,tcheck) s
 table=(opt,rrhf)
 ----------------------------------------------------------------------
 -----
 title
 -----
 Symbolic Z-matrix:
 Charge =  0 Multiplicity = 1

 SCF Done:  E(RHF) =  -1489.44256147     A.U. after   14 cycles
 Normal termination of Gaussian 16 at Tue Apr  8 22:57:24 2025.
 Gaussian 16:  ES64L-G16RevC.01  3-Jul-2019

 ----------------------------------------------------------------------
 #t hf aug-cc-pvdz iop(5/13=1,5/36=2,99/5=2) pseudo=read geom=check gue
 ss=(read,tcheck) scf=(maxcycle=1)
 ----------------------------------------------------------------------
 -----
 title
 -----
 Structure from the checkpoint file:  "BDE49_expt_1721_mol1.chk"
 Charge =  0 Multiplicity = 1

                         Standard orientation:
 ---------------------------------------------------------------------
 Center     Atomic      Atomic             Coordinates (Angstroms)
 Number     Number       Type             X           Y           Z
 ---------------------------------------------------------------------
      1          6           0        0.225381    1.252272    0.304948
      2          8           0        0.399847    1.997789    1.223713
      3          6           0        1.090281   -0.000011   -0.000003
      4          8           0       -0.709206    1.362119   -0.642818
      5         17           0        2.117469   -0.389910    1.415197
      6         17           0        2.117615    0.389789   -1.415123
      7          6           0       -1.578345    2.530940   -0.578182
      8          6           0       -2.766891    2.285065    0.333188
      9          1           0       -1.883162    2.685365   -1.612382
     10          1           0       -0.983198    3.379670   -0.240637
     11          1           0       -3.337175    1.414150    0.003443
     12          1           0       -3.428269    3.155684    0.311141
     13          1           0       -2.441627    2.129300    1.362779
     14          6           0        0.225283   -1.252210   -0.305018
     15          8           0        0.399788   -1.997781   -1.223732
     16          8           0       -0.709285   -1.362055    0.642768
     17          6           0       -1.578425   -2.530874    0.578151
     18          6           0       -2.766993   -2.284996   -0.333192
     19          1           0       -1.883219   -2.685300    1.612358
     20          1           0       -0.983287   -3.379605    0.240592
     21          1           0       -3.337266   -1.414080   -0.003432
     22          1           0       -3.428371   -3.155614   -0.311130
     23          1           0       -2.441752   -2.129230   -1.362790
 ---------------------------------------------------------------------

 SCF Done:  E(RHF) =  -1492.45820181     A.U. after    2 cycles

 The electronic state is 1-A.
 Alpha  occ. eigenvalues --  -99.91064 -99.91060 -21.11139 -21.11052 -21.07737
 Alpha  occ. eigenvalues --  -21.07737 -11.58157 -11.56499 -11.51793 -11.46283
 Alpha  occ. eigenvalues --  -11.46240 -11.38773 -11.38625 -10.48477 -10.48242
 Alpha  occ. eigenvalues --   -9.68509  -9.68224  -9.67626  -9.67576  -9.67508
 Alpha  occ. eigenvalues --   -9.67434  -1.88011  -1.85439  -1.69914  -1.69049
 Alpha  occ. eigenvalues --   -1.41091  -1.29865  -1.16816  -1.15424  -1.07879
 Alpha  occ. eigenvalues --   -0.94396  -0.91842  -0.84716  -0.76202  -0.72972
 Alpha  occ. eigenvalues --   -0.71638  -0.69604  -0.64230  -0.63522  -0.62191
 Alpha  occ. eigenvalues --   -0.61116  -0.59707  -0.57115  -0.56059  -0.54081
 Alpha  occ. eigenvalues --   -0.54047  -0.53492  -0.53065  -0.50864  -0.50594
 Alpha  occ. eigenvalues --   -0.50318  -0.49951  -0.48570  -0.44321  -0.42095
 Alpha  occ. eigenvalues --   -0.35088  -0.33933  -0.33429  -0.30823
 Alpha virt. eigenvalues --    0.03217   0.04026   0.04030   0.04655   0.04881
 Alpha virt. eigenvalues --    0.05772   0.06314   0.06415   0.06879   0.07218
 Alpha virt. eigenvalues --    0.07996   0.08946   0.09184   0.10723   0.10857

 Mulliken charges:
               1
     1  C    7.272256
     2  O   -3.402979
     3  C   -2.598568
     4  O   -3.638150
     5  Cl   0.095199
     6  Cl   0.095187
     7  C   -2.223998
     8  C   -4.147492
     9  H    1.522633
    10  H    1.700786
    11  H    1.609559
    12  H    1.128457
    13  H    1.382968
    14  C    7.272390
    15  O   -3.402970
    16  O   -3.638161
    17  C   -2.224001
    18  C   -4.147492
    19  H    1.522643
    20  H    1.700765
    21  H    1.609543
    22  H    1.128454
    23  H    1.382970
 Sum of Mulliken charges =  -0.00000

 Dipole moment (field-independent basis, Debye):
    X=             -4.6417    Y=              0.0001    Z=              0.0000  Tot=              4.6417

 Test job not archived.
 1\1\GINC-SE083\SP\RHF\Aug-CC-pVDZ\C7H10Cl2O4\OHZDE\08-Apr-2025\0\\#t h
 f aug-cc-pvdz iop(5/13=1,5/36=2,99/5=2) pseudo=read geom=check guess=(
 read,tcheck) scf=(maxcycle=1)\\title\\0,1\C,0,0.225382,-1.252272,-0.30
 4948\O,0,0.399849,-1.997788,-1.223713\C,0,1.090281,0.000012,0.000003\O
 ,0,-0.709205,-1.36212,0.642818\Cl,0,2.117469,0.389912,-1.415197\Cl,0,2
 .117615,-0.389787,1.415123\C,0,-1.578342,-2.530942,0.578182\C,0,-2.766
 889,-2.285068,-0.333188\H,0,-1.883159,-2.685367,1.612382\H,0,-0.983194
 ,-3.379671,0.240637\H,0,-3.337173,-1.414153,-0.003443\H,0,-3.428266,-3

 Normal termination of Gaussian 16 at Tue Apr  8 22:57:50 2025.
