 Gaussian 16, Revision C.01,

 ----------------------------------------------------------------------
 #t hf aug-cc-pvdz symm=none int=(grid=ultrafine) guess=(read,tcheck) s
 table=(opt,rrhf)
 ----------------------------------------------------------------------
 -----
 title
 -----
 Symbolic Z-matrix:
 Charge =  0 Multiplicity = 1

 SCF Done:  E(RHF) =  -769.526493810     A.U. after   11 cycles
 Normal termination of Gaussian 16 at Wed Apr  9 00:12:04 2025.
 Gaussian 16:  ES64L-G16RevC.01  3-Jul-2019

 ----------------------------------------------------------------------
 #t hf aug-cc-pvdz iop(5/13=1,5/36=2,99/5=2) pseudo=read geom=check gue
 ss=(read,tcheck) scf=(maxcycle=1)
 ----------------------------------------------------------------------
 -----
 title
 -----
 Structure from the checkpoint file:  "BDE49_nonexpt_2378_mol1.chk"
 Charge =  0 Multiplicity = 1

                         Standard orientation:
 ---------------------------------------------------------------------
 Center     Atomic      Atomic             Coordinates (Angstroms)
 Number     Number       Type             X           Y           Z
 ---------------------------------------------------------------------
      1         14           0       -1.180119   -0.972290    0.073148
      2         14           0        1.180119   -0.972290   -0.073148
      3          7           0        1.648528    0.683281    0.123592
      4          1           0        1.672109   -1.423181   -1.401449
      5          1           0        1.767258   -1.927082    0.915515
      6          7           0       -1.648528    0.683281   -0.123593
      7          1           0       -1.672109   -1.423180    1.401449
      8          1           0       -1.767258   -1.927083   -0.915514
      9          6           0        3.020824    1.171613    0.001180
     10          1           0        1.081147    1.237235    0.750956
     11          1           0        3.517081    0.659741   -0.827827
     12          1           0        3.628853    1.010949    0.902535
     13          1           0        3.029155    2.241754   -0.227515
     14          6           0       -3.020824    1.171613   -0.001180
     15          1           0       -1.081148    1.237234   -0.750959
     16          1           0       -3.517079    0.659742    0.827829
     17          1           0       -3.628854    1.010948   -0.902534
     18          1           0       -3.029155    2.241754    0.227515
 ---------------------------------------------------------------------

 SCF Done:  E(RHF) =  -770.786645887     A.U. after    2 cycles

 The electronic state is 1-A.
 Alpha  occ. eigenvalues --  -76.21041 -76.21030 -15.70904 -15.70880 -11.38733
 Alpha  occ. eigenvalues --  -11.38605  -5.54789  -5.54782  -2.19901  -2.19806
 Alpha  occ. eigenvalues --   -2.16702  -2.16437  -2.16200  -2.15760  -1.31756
 Alpha  occ. eigenvalues --   -1.30833  -0.96476  -0.95272  -0.77538  -0.71648
 Alpha  occ. eigenvalues --   -0.63097  -0.61045  -0.58739  -0.58411  -0.55130
 Alpha  occ. eigenvalues --   -0.53564  -0.47924  -0.47647  -0.45694  -0.45107
 Alpha  occ. eigenvalues --   -0.35361  -0.34439  -0.33258
 Alpha virt. eigenvalues --    0.03741   0.04022   0.05318   0.06045   0.06277
 Alpha virt. eigenvalues --    0.06384   0.07048   0.07305   0.07757   0.07900
 Alpha virt. eigenvalues --    0.08639   0.08767   0.09404   0.09891   0.10917

 Mulliken charges:
               1
     1  Si   4.539184
     2  Si   4.539182
     3  N   -2.499057
     4  H   -1.870735
     5  H   -1.965121
     6  N   -2.499057
     7  H   -1.870735
     8  H   -1.965122
     9  C   -3.218988
    10  H    0.827844
    11  H    1.429459
    12  H    1.420887
    13  H    1.336529
    14  C   -3.218988
    15  H    0.827843
    16  H    1.429459
    17  H    1.420888
    18  H    1.336529
 Sum of Mulliken charges =  -0.00000

 Dipole moment (field-independent basis, Debye):
    X=             -0.0000    Y=              2.1394    Z=             -0.0000  Tot=              2.1394

 Test job not archived.
 1\1\GINC-SE329\SP\RHF\Aug-CC-pVDZ\C2H12N2Si2\OHZDE\09-Apr-2025\0\\#t h
 f aug-cc-pvdz iop(5/13=1,5/36=2,99/5=2) pseudo=read geom=check guess=(
 read,tcheck) scf=(maxcycle=1)\\title\\0,1\Si,0,-1.180119,-0.97229,0.07
 3148\Si,0,1.180119,-0.97229,-0.073148\N,0,1.648528,0.683281,0.123592\H
 ,0,1.672109,-1.423181,-1.401449\H,0,1.767258,-1.927082,0.915515\N,0,-1
 .648528,0.683281,-0.123593\H,0,-1.672109,-1.42318,1.401449\H,0,-1.7672
 58,-1.927083,-0.915514\C,0,3.020824,1.171613,0.00118\H,0,1.081147,1.23
 7235,0.750956\H,0,3.517081,0.659741,-0.827827\H,0,3.628853,1.010949,0.

 Normal termination of Gaussian 16 at Wed Apr  9 00:12:10 2025.
