 Gaussian 16, Revision C.01,

 ----------------------------------------------------------------------
 #t hf aug-cc-pvdz symm=none int=(grid=ultrafine) guess=(read,tcheck) s
 table=(opt,rrhf)
 ----------------------------------------------------------------------
 -----
 title
 -----
 Symbolic Z-matrix:
 Charge =  0 Multiplicity = 1

 SCF Done:  E(RHF) =  -310.256283632     A.U. after   12 cycles

 1\1\GINC-SE082\Stability\RHF\Aug-CC-pVDZ\C6H14O1\OHZDE\08-Apr-2025\0\\
 #t hf aug-cc-pvdz symm=none int=(grid=ultrafine) guess=(read,tcheck) s
 table=(opt,rrhf)\\title\\0,1\C,0,-1.207957,-0.140988,-0.233991\O,0,0.,
 -0.000001,0.521604\C,0,1.207957,0.140989,-0.233991\C,0,1.759013,-1.230
 823,-0.63007\C,0,-1.759012,1.230825,-0.630067\H,0,-1.985317,1.814851,0
 .266048\H,0,-2.674787,1.128726,-1.21998\H,0,-1.036984,1.791747,-1.2289
 53\C,0,2.180353,0.925258,0.639247\H,0,2.354364,0.389632,1.576369\H,0,1
 .769097,1.907456,0.880784\H,0,3.140119,1.06031,0.133215\C,0,-2.180353,

 Normal termination of Gaussian 16 at Tue Apr  8 22:54:30 2025.
 Gaussian 16:  ES64L-G16RevC.01  3-Jul-2019

 ----------------------------------------------------------------------
 #t hf aug-cc-pvdz iop(5/13=1,5/36=2,99/5=2) pseudo=read geom=check gue
 ss=(read,tcheck) scf=(maxcycle=1)
 ----------------------------------------------------------------------
 -----
 title
 -----
 Structure from the checkpoint file:  "BDE49_expt_178_mol1.chk"
 Charge =  0 Multiplicity = 1

                         Standard orientation:
 ---------------------------------------------------------------------
 Center     Atomic      Atomic             Coordinates (Angstroms)
 Number     Number       Type             X           Y           Z
 ---------------------------------------------------------------------
      1          6           0       -1.207957   -0.140988   -0.233991
      2          8           0       -0.000000   -0.000001    0.521604
      3          6           0        1.207957    0.140989   -0.233991
      4          6           0        1.759013   -1.230823   -0.630070
      5          6           0       -1.759012    1.230825   -0.630067
      6          1           0       -1.985317    1.814851    0.266048
      7          1           0       -2.674787    1.128726   -1.219980
      8          1           0       -1.036984    1.791747   -1.228953
      9          6           0        2.180353    0.925258    0.639247
     10          1           0        2.354364    0.389632    1.576369
     11          1           0        1.769097    1.907456    0.880784
     12          1           0        3.140119    1.060310    0.133215
     13          6           0       -2.180353   -0.925260    0.639245
     14          1           0       -1.002371   -0.721150   -1.145008
     15          1           0       -2.354364   -0.389636    1.576367
     16          1           0       -1.769097   -1.907458    0.880779
     17          1           0       -3.140119   -1.060311    0.133211
     18          1           0        1.036984   -1.791744   -1.228957
     19          1           0        1.985317   -1.814852    0.266044
     20          1           0        2.674788   -1.128723   -1.219982
     21          1           0        1.002371    0.721152   -1.145006
 ---------------------------------------------------------------------

 SCF Done:  E(RHF) =  -311.801015725     A.U. after    2 cycles

 The electronic state is 1-A.
 Alpha  occ. eigenvalues --  -21.02180 -11.44317 -11.43478 -11.38673 -11.38465
 Alpha  occ. eigenvalues --  -11.35287 -11.34771  -1.74036  -1.19706  -1.12542
 Alpha  occ. eigenvalues --   -1.00533  -1.00013  -0.84747  -0.80100  -0.65740
 Alpha  occ. eigenvalues --   -0.63617  -0.60193  -0.57405  -0.56648  -0.55218
 Alpha  occ. eigenvalues --   -0.53377  -0.53035  -0.48512  -0.47999  -0.47315
 Alpha  occ. eigenvalues --   -0.46159  -0.41750  -0.35895  -0.28083
 Alpha virt. eigenvalues --    0.04154   0.04885   0.05269   0.05406   0.05458
 Alpha virt. eigenvalues --    0.05833   0.06117   0.06517   0.06836   0.08161
 Alpha virt. eigenvalues --    0.08923   0.09004   0.09340   0.09455   0.13659

 Mulliken charges:
               1
     1  C   -0.010426
     2  O   -3.822127
     3  C   -0.010432
     4  C   -3.767798
     5  C   -3.767798
     6  H    1.368855
     7  H    1.205037
     8  H    1.402163
     9  C   -4.163992
    10  H    1.307437
    11  H    1.340332
    12  H    1.169301
    13  C   -4.163996
    14  H    2.060157
    15  H    1.307438
    16  H    1.340333
    17  H    1.169300
    18  H    1.402163
    19  H    1.368854
    20  H    1.205038
    21  H    2.060161
 Sum of Mulliken charges =   0.00000

 Dipole moment (field-independent basis, Debye):
    X=              0.0000    Y=              0.0000    Z=             -0.4740  Tot=              0.4740

 Test job not archived.
 1\1\GINC-SE082\SP\RHF\Aug-CC-pVDZ\C6H14O1\OHZDE\08-Apr-2025\0\\#t hf a
 ug-cc-pvdz iop(5/13=1,5/36=2,99/5=2) pseudo=read geom=check guess=(rea
 d,tcheck) scf=(maxcycle=1)\\title\\0,1\C,0,-1.207957,-0.140988,-0.2339
 91\O,0,0.,-0.000001,0.521604\C,0,1.207957,0.140989,-0.233991\C,0,1.759
 013,-1.230823,-0.63007\C,0,-1.759012,1.230825,-0.630067\H,0,-1.985317,
 1.814851,0.266048\H,0,-2.674787,1.128726,-1.21998\H,0,-1.036984,1.7917
 47,-1.228953\C,0,2.180353,0.925258,0.639247\H,0,2.354364,0.389632,1.57
 6369\H,0,1.769097,1.907456,0.880784\H,0,3.140119,1.06031,0.133215\C,0,

 Normal termination of Gaussian 16 at Tue Apr  8 22:54:39 2025.
