 Gaussian 16, Revision C.01,

 ----------------------------------------------------------------------
 #t hf aug-cc-pvdz symm=none int=(grid=ultrafine) guess=(read,tcheck) s
 table=(opt,rrhf)
 ----------------------------------------------------------------------
 -----
 title
 -----
 Symbolic Z-matrix:
 Charge =  0 Multiplicity = 1

 SCF Done:  E(RHF) =  -814.121300411     A.U. after   15 cycles
 Normal termination of Gaussian 16 at Tue Apr  8 23:32:31 2025.
 Gaussian 16:  ES64L-G16RevC.01  3-Jul-2019

 ----------------------------------------------------------------------
 #t hf aug-cc-pvdz iop(5/13=1,5/36=2,99/5=2) pseudo=read geom=check gue
 ss=(read,tcheck) scf=(maxcycle=1)
 ----------------------------------------------------------------------
 -----
 title
 -----
 Structure from the checkpoint file:  "BDE49_nonexpt_1365_mol1.chk"
 Charge =  0 Multiplicity = 1

                         Standard orientation:
 ---------------------------------------------------------------------
 Center     Atomic      Atomic             Coordinates (Angstroms)
 Number     Number       Type             X           Y           Z
 ---------------------------------------------------------------------
      1          6           0       -1.070487    0.110403    0.742537
      2          6           0        1.009617    0.116707    0.230548
      3          6           0        2.790594   -1.519262    0.115208
      4          6           0        3.200586    0.818627   -0.631925
      5          1           0        3.444899    0.526507   -1.660431
      6          1           0        2.728226    1.796710   -0.644210
      7          1           0        2.870637   -2.008827   -0.863480
      8          1           0        2.100856   -2.086600    0.735986
      9          7           0        0.097152   -0.706180    0.654884
     10          7           0       -0.691077    1.476099    0.378430
     11          7           0        0.520261    1.472890    0.060062
     12         15           0       -2.228028   -0.572031   -0.592754
     13          7           0        2.304900   -0.153958   -0.018392
     14          9           0       -3.650486    0.098932   -0.141959
     15          1           0        4.131249    0.875287   -0.059390
     16          1           0        3.779863   -1.510235    0.580786
     17          1           0       -2.394467   -1.793954    0.110056
     18          1           0       -1.586979    0.110389    1.706527
 ---------------------------------------------------------------------

 SCF Done:  E(RHF) =  -816.385463269     A.U. after    2 cycles

 The electronic state is 1-A.
 Alpha  occ. eigenvalues -- -105.24504 -29.26501 -15.81626 -15.80169 -15.76659
 Alpha  occ. eigenvalues --  -15.72461 -11.50289 -11.43154 -11.41444 -11.40675
 Alpha  occ. eigenvalues --   -2.82374  -1.65990  -1.56344  -1.51440  -1.49275
 Alpha  occ. eigenvalues --   -1.46560  -1.32111  -1.13571  -1.07010  -0.96311
 Alpha  occ. eigenvalues --   -0.87715  -0.80702  -0.77116  -0.71834  -0.67548
 Alpha  occ. eigenvalues --   -0.64005  -0.60606  -0.58668  -0.56958  -0.54414
 Alpha  occ. eigenvalues --   -0.53092  -0.52261  -0.48067  -0.44775  -0.40367
 Alpha  occ. eigenvalues --   -0.38600  -0.34388  -0.32863  -0.32339  -0.24092
 Alpha  occ. eigenvalues --   -0.20377  -0.01623
 Alpha virt. eigenvalues --    0.03380   0.05207   0.05426   0.05822   0.06280
 Alpha virt. eigenvalues --    0.06623   0.07090   0.07902   0.09394   0.10311
 Alpha virt. eigenvalues --    0.10889   0.11506   0.12117   0.12413   0.13096

 Mulliken charges:
               1
     1  C   -1.081620
     2  C    4.490904
     3  C   -3.638804
     4  C   -3.681719
     5  H    1.472290
     6  H    1.499043
     7  H    1.398568
     8  H    1.493215
     9  N   -2.516330
    10  N   -1.573680
    11  N   -0.751026
    12  P    2.917698
    13  N   -2.824323
    14  F   -0.355961
    15  H    1.437521
    16  H    1.406876
    17  H   -1.162318
    18  H    1.469666
 Sum of Mulliken charges =   0.00000

 Dipole moment (field-independent basis, Debye):
    X=             -2.0666    Y=              0.2151    Z=              0.4197  Tot=              2.1197

 Test job not archived.
 1\1\GINC-SE143\SP\RHF\Aug-CC-pVDZ\C4H8F1N4P1\OHZDE\08-Apr-2025\0\\#t h
 f aug-cc-pvdz iop(5/13=1,5/36=2,99/5=2) pseudo=read geom=check guess=(
 read,tcheck) scf=(maxcycle=1)\\title\\0,1\C,0,-1.070487,0.110403,0.742
 537\C,0,1.009617,0.116707,0.230548\C,0,2.790594,-1.519262,0.115208\C,0
 ,3.200586,0.818627,-0.631925\H,0,3.444899,0.526507,-1.660431\H,0,2.728
 226,1.79671,-0.64421\H,0,2.870637,-2.008827,-0.86348\H,0,2.100856,-2.0
 866,0.735986\N,0,0.097152,-0.70618,0.654884\N,0,-0.691077,1.476099,0.3
 7843\N,0,0.520261,1.47289,0.060062\P,0,-2.228028,-0.572031,-0.592754\N

 Normal termination of Gaussian 16 at Tue Apr  8 23:32:41 2025.
