 Gaussian 16, Revision C.01,

 ----------------------------------------------------------------------
 #t hf aug-cc-pvdz symm=none int=(grid=ultrafine) guess=(read,tcheck) s
 table=(opt,rrhf)
 ----------------------------------------------------------------------
 -----
 title
 -----
 Symbolic Z-matrix:
 Charge =  0 Multiplicity = 1

 SCF Done:  E(RHF) =  -878.260341717     A.U. after   14 cycles
 Normal termination of Gaussian 16 at Wed Apr  9 00:24:50 2025.
 Gaussian 16:  ES64L-G16RevC.01  3-Jul-2019

 ----------------------------------------------------------------------
 #t hf aug-cc-pvdz iop(5/13=1,5/36=2,99/5=2) pseudo=read geom=check gue
 ss=(read,tcheck) scf=(maxcycle=1)
 ----------------------------------------------------------------------
 -----
 title
 -----
 Structure from the checkpoint file:  "BDE49_nonexpt_2678_mol1.chk"
 Charge =  0 Multiplicity = 1

                         Standard orientation:
 ---------------------------------------------------------------------
 Center     Atomic      Atomic             Coordinates (Angstroms)
 Number     Number       Type             X           Y           Z
 ---------------------------------------------------------------------
      1          9           0        2.366486   -0.101436   -0.114181
      2         16           0        1.090128   -0.283421   -1.197780
      3          6           0       -0.341848    0.070726   -0.025966
      4          8           0       -1.346265   -0.515335   -0.781695
      5          8           0       -0.609172    1.407984    0.130375
      6          8           0       -0.166717   -0.478254    1.229959
      7          6           0       -2.694348   -0.104448   -0.485825
      8          1           0       -3.330870   -0.788527   -1.044092
      9          1           0       -2.866535    0.922283   -0.808812
     10          1           0       -2.897192   -0.195454    0.583603
     11          6           0        0.366720    2.186434    0.835081
     12          1           0       -0.036128    3.196930    0.868792
     13          1           0        1.318351    2.185527    0.298003
     14          1           0        0.512373    1.804040    1.845975
     15          6           0        0.147735   -1.875118    1.306470
     16          1           0       -0.037777   -2.160287    2.341088
     17          1           0        1.197530   -2.041723    1.059566
     18          1           0       -0.492503   -2.455856    0.640309
 ---------------------------------------------------------------------

 SCF Done:  E(RHF) =  -880.519777515     A.U. after    2 cycles

 The electronic state is 1-A.
 Alpha  occ. eigenvalues --  -75.74947 -29.26108 -21.07363 -21.07086 -21.06908
 Alpha  occ. eigenvalues --  -13.21217 -13.17641 -13.10880 -11.52913 -11.41967
 Alpha  occ. eigenvalues --  -11.41332 -11.41144  -8.08826  -1.90561  -1.72975
 Alpha  occ. eigenvalues --   -1.71732  -1.20189  -1.05735  -1.00072  -0.99197
 Alpha  occ. eigenvalues --   -0.80868  -0.70641  -0.68291  -0.67375  -0.63173
 Alpha  occ. eigenvalues --   -0.62362  -0.60275  -0.58990  -0.56687  -0.55461
 Alpha  occ. eigenvalues --   -0.52400  -0.46166  -0.42490  -0.39575  -0.38972
 Alpha  occ. eigenvalues --   -0.35181  -0.34092  -0.32407  -0.31230  -0.24456
 Alpha  occ. eigenvalues --   -0.17181
 Alpha virt. eigenvalues --    0.03688   0.04963   0.05037   0.05502   0.05872
 Alpha virt. eigenvalues --    0.06262   0.06988   0.07356   0.07692   0.08627
 Alpha virt. eigenvalues --    0.11195   0.12706   0.13195   0.14354   0.14873

 Mulliken charges:
               1
     1  F   -0.573820
     2  S    0.286721
     3  C    8.651492
     4  O   -3.059495
     5  O   -4.007712
     6  O   -3.733207
     7  C   -3.338409
     8  H    1.317599
     9  H    1.441694
    10  H    1.342560
    11  C   -3.584039
    12  H    1.309987
    13  H    1.517467
    14  H    1.444150
    15  C   -3.277621
    16  H    1.362386
    17  H    1.584864
    18  H    1.315381
 Sum of Mulliken charges =  -0.00000

 Dipole moment (field-independent basis, Debye):
    X=              1.3949    Y=              0.2746    Z=              1.5799  Tot=              2.1254

 Test job not archived.
 1\1\GINC-SE159\SP\RHF\Aug-CC-pVDZ\C4H9F1O3S1\OHZDE\09-Apr-2025\0\\#t h
 f aug-cc-pvdz iop(5/13=1,5/36=2,99/5=2) pseudo=read geom=check guess=(
 read,tcheck) scf=(maxcycle=1)\\title\\0,1\F,0,2.366486,-0.101436,-0.11
 4181\S,0,1.090128,-0.283421,-1.19778\C,0,-0.341848,0.070726,-0.025966\
 O,0,-1.346265,-0.515335,-0.781695\O,0,-0.609172,1.407984,0.130375\O,0,
 -0.166717,-0.478254,1.229959\C,0,-2.694348,-0.104448,-0.485825\H,0,-3.
 33087,-0.788526,-1.044092\H,0,-2.866535,0.922283,-0.808812\H,0,-2.8971
 92,-0.195453,0.583603\C,0,0.36672,2.186434,0.835081\H,0,-0.036128,3.19

 Normal termination of Gaussian 16 at Wed Apr  9 00:24:59 2025.
