 Gaussian 16, Revision C.01,

 ----------------------------------------------------------------------
 #t hf aug-cc-pvdz symm=none int=(grid=ultrafine) guess=(read,tcheck) s
 table=(opt,rrhf)
 ----------------------------------------------------------------------
 -----
 title
 -----
 Symbolic Z-matrix:
 Charge =  0 Multiplicity = 1

 SCF Done:  E(RHF) =  -1215.82327233     A.U. after   20 cycles
 Normal termination of Gaussian 16 at Tue Apr  8 22:56:44 2025.
 Gaussian 16:  ES64L-G16RevC.01  3-Jul-2019

 ----------------------------------------------------------------------
 #t hf aug-cc-pvdz iop(5/13=1,5/36=2,99/5=2) pseudo=read geom=check gue
 ss=(read,tcheck) scf=(maxcycle=1)
 ----------------------------------------------------------------------
 -----
 title
 -----
 Structure from the checkpoint file:  "BDE49_expt_1825_mol1.chk"
 Charge =  0 Multiplicity = 1

                         Standard orientation:
 ---------------------------------------------------------------------
 Center     Atomic      Atomic             Coordinates (Angstroms)
 Number     Number       Type             X           Y           Z
 ---------------------------------------------------------------------
      1          7           0       -2.458404   -0.699309    0.773779
      2          8           0       -1.800531   -0.428793    1.690451
      3         16           0       -1.527086   -0.815935   -0.947204
      4          6           0        0.134605   -0.526510   -0.439582
      5          6           0        1.007579   -1.619662   -0.310709
      6          6           0        2.323737   -1.446462    0.095573
      7          6           0        2.791545   -0.168842    0.398385
      8          6           0        1.944477    0.928993    0.293049
      9          6           0        0.626909    0.751573   -0.120961
     10          1           0        3.816137   -0.022325    0.719526
     11          1           0        2.295305    1.925242    0.528691
     12          1           0        0.630830   -2.608449   -0.541288
     13          1           0        2.979592   -2.304577    0.180831
     14         17           0       -0.391090    2.169178   -0.245122
 ---------------------------------------------------------------------

 SCF Done:  E(RHF) =  -1217.92888753     A.U. after    2 cycles

 The electronic state is 1-A.
 Alpha  occ. eigenvalues --  -99.90187 -75.71434 -21.18305 -15.93402 -13.21984
 Alpha  occ. eigenvalues --  -13.10985 -13.08098 -11.54180 -11.48142 -11.46841
 Alpha  occ. eigenvalues --  -11.44162 -11.43478 -11.39292 -10.47560  -9.67564
 Alpha  occ. eigenvalues --   -9.66737  -9.66524  -8.05339  -1.92219  -1.42130
 Alpha  occ. eigenvalues --   -1.29615  -1.19756  -1.10364  -1.07514  -0.94525
 Alpha  occ. eigenvalues --   -0.89021  -0.85119  -0.72605  -0.66836  -0.64474
 Alpha  occ. eigenvalues --   -0.63156  -0.61052  -0.60368  -0.58239  -0.57171
 Alpha  occ. eigenvalues --   -0.54703  -0.50607  -0.50297  -0.48515  -0.41378
 Alpha  occ. eigenvalues --   -0.36979  -0.34932  -0.26257  -0.24999
 Alpha virt. eigenvalues --    0.03021   0.04941   0.05038   0.06057   0.07012
 Alpha virt. eigenvalues --    0.07506   0.08682   0.09267   0.09609   0.10337
 Alpha virt. eigenvalues --    0.10869   0.12267   0.12781   0.13125   0.13502

 Mulliken charges:
               1
     1  N    1.485774
     2  O   -1.841236
     3  S    1.297689
     4  C    3.443470
     5  C   -2.395376
     6  C   -1.911235
     7  C   -0.717787
     8  C   -1.996692
     9  C   -3.011612
    10  H    1.529751
    11  H    1.726897
    12  H    1.713786
    13  H    1.565228
    14  Cl  -0.888657
 Sum of Mulliken charges =   0.00000

 Dipole moment (field-independent basis, Debye):
    X=              2.5685    Y=             -1.5801    Z=             -0.0283  Tot=              3.0157

 Test job not archived.
 1\1\GINC-SE250\SP\RHF\Aug-CC-pVDZ\C6H4Cl1N1O1S1\OHZDE\08-Apr-2025\0\\#
 t hf aug-cc-pvdz iop(5/13=1,5/36=2,99/5=2) pseudo=read geom=check gues
 s=(read,tcheck) scf=(maxcycle=1)\\title\\0,1\N,0,-2.458404,-0.699309,0
 .773779\O,0,-1.800531,-0.428793,1.690451\S,0,-1.527086,-0.815935,-0.94
 7204\C,0,0.134605,-0.52651,-0.439582\C,0,1.007579,-1.619662,-0.310709\
 C,0,2.323737,-1.446462,0.095573\C,0,2.791545,-0.168842,0.398385\C,0,1.
 944477,0.928993,0.293049\C,0,0.626909,0.751573,-0.120961\H,0,3.816137,
 -0.022325,0.719526\H,0,2.295305,1.925242,0.528691\H,0,0.63083,-2.60844

 Normal termination of Gaussian 16 at Tue Apr  8 22:56:51 2025.
