 Gaussian 16, Revision C.01,

 ----------------------------------------------------------------------
 #t hf aug-cc-pvdz symm=none int=(grid=ultrafine) guess=(read,tcheck) s
 table=(opt,rrhf)
 ----------------------------------------------------------------------
 -----
 title
 -----
 Symbolic Z-matrix:
 Charge =  0 Multiplicity = 1

 SCF Done:  E(RHF) =  -1018.84672886     A.U. after   15 cycles
 Normal termination of Gaussian 16 at Tue Apr  8 23:48:39 2025.
 Gaussian 16:  ES64L-G16RevC.01  3-Jul-2019

 ----------------------------------------------------------------------
 #t hf aug-cc-pvdz iop(5/13=1,5/36=2,99/5=2) pseudo=read geom=check gue
 ss=(read,tcheck) scf=(maxcycle=1)
 ----------------------------------------------------------------------
 -----
 title
 -----
 Structure from the checkpoint file:  "BDE49_nonexpt_1773_mol1.chk"
 Charge =  0 Multiplicity = 1

                         Standard orientation:
 ---------------------------------------------------------------------
 Center     Atomic      Atomic             Coordinates (Angstroms)
 Number     Number       Type             X           Y           Z
 ---------------------------------------------------------------------
      1          6           0       -0.399083    1.614517    0.034735
      2          6           0       -1.730928    1.808626   -0.324137
      3          6           0       -2.609577    0.730827   -0.355854
      4          6           0       -2.179983   -0.561606   -0.029498
      5          6           0       -0.842772   -0.738609    0.328882
      6          6           0        0.064231    0.333443    0.365200
      7          1           0        0.276425    2.463433    0.058335
      8          1           0       -2.084707    2.801803   -0.577873
      9         14           0        1.840792    0.059645    0.841652
     10          6           0       -3.142371   -1.724271   -0.067667
     11          1           0       -3.646081    0.892668   -0.635629
     12          1           0       -0.502603   -1.737637    0.586936
     13         17           0        3.001336   -0.482482   -0.815400
     14          1           0       -3.996254   -1.553693    0.594867
     15          1           0       -2.658067   -2.652173    0.241851
     16          1           0       -3.539236   -1.874585   -1.076365
     17          1           0        1.965070   -1.052241    1.804180
     18          1           0        2.434559    1.302040    1.372411
 ---------------------------------------------------------------------

 SCF Done:  E(RHF) =  -1020.56497323     A.U. after    2 cycles

 The electronic state is 1-A.
 Alpha  occ. eigenvalues --  -99.87353 -76.25652 -11.51143 -11.43973 -11.43506
 Alpha  occ. eigenvalues --  -11.42108 -11.41082 -11.39318 -11.36603 -10.44722
 Alpha  occ. eigenvalues --   -9.64645  -9.64045  -9.64005  -5.59229  -2.23796
 Alpha  occ. eigenvalues --   -2.22310  -2.21234  -1.35672  -1.27546  -1.15046
 Alpha  occ. eigenvalues --   -1.09818  -1.00191  -0.87436  -0.84539  -0.76622
 Alpha  occ. eigenvalues --   -0.70259  -0.62772  -0.60935  -0.58257  -0.56268
 Alpha  occ. eigenvalues --   -0.55429  -0.54935  -0.54604  -0.52234  -0.50333
 Alpha  occ. eigenvalues --   -0.49425  -0.46713  -0.44313  -0.39437  -0.34413
 Alpha  occ. eigenvalues --   -0.32704
 Alpha virt. eigenvalues --    0.03072   0.04615   0.04986   0.05340   0.05622
 Alpha virt. eigenvalues --    0.05954   0.06638   0.06962   0.07574   0.08594
 Alpha virt. eigenvalues --    0.08887   0.09738   0.10663   0.11145   0.11631

 Mulliken charges:
               1
     1  C   -3.958419
     2  C   -0.802511
     3  C   -1.754956
     4  C    3.728127
     5  C   -1.423189
     6  C   -0.821294
     7  H    1.859632
     8  H    1.518461
     9  Si   4.606806
    10  C   -5.939683
    11  H    1.797640
    12  H    2.092145
    13  Cl  -0.978580
    14  H    1.095096
    15  H    1.270185
    16  H    1.093352
    17  H   -1.684220
    18  H   -1.698593
 Sum of Mulliken charges =  -0.00000

 Dipole moment (field-independent basis, Debye):
    X=             -2.9877    Y=              0.4709    Z=              0.7041  Tot=              3.1054

 Test job not archived.
 1\1\GINC-SE273\SP\RHF\Aug-CC-pVDZ\C7H9Cl1Si1\OHZDE\08-Apr-2025\0\\#t h
 f aug-cc-pvdz iop(5/13=1,5/36=2,99/5=2) pseudo=read geom=check guess=(
 read,tcheck) scf=(maxcycle=1)\\title\\0,1\C,0,-0.399083,1.614517,0.034
 735\C,0,-1.730928,1.808626,-0.324137\C,0,-2.609577,0.730827,-0.355854\
 C,0,-2.179983,-0.561606,-0.029498\C,0,-0.842772,-0.738609,0.328882\C,0
 ,0.064231,0.333443,0.3652\H,0,0.276425,2.463433,0.058335\H,0,-2.084707
 ,2.801803,-0.577873\Si,0,1.840792,0.059645,0.841652\C,0,-3.142371,-1.7
 24271,-0.067667\H,0,-3.646081,0.892668,-0.635629\H,0,-0.502603,-1.7376

 Normal termination of Gaussian 16 at Tue Apr  8 23:48:49 2025.
