 Gaussian 16, Revision C.01,

 ----------------------------------------------------------------------
 #t hf aug-cc-pvdz symm=none int=(grid=ultrafine) guess=(read,tcheck) s
 table=(opt,rrhf)
 ----------------------------------------------------------------------
 -----
 title
 -----
 Symbolic Z-matrix:
 Charge =  0 Multiplicity = 1

 SCF Done:  E(RHF) =  -886.990081142     A.U. after   15 cycles
 Normal termination of Gaussian 16 at Tue Apr  8 23:53:48 2025.
 Gaussian 16:  ES64L-G16RevC.01  3-Jul-2019

 ----------------------------------------------------------------------
 #t hf aug-cc-pvdz iop(5/13=1,5/36=2,99/5=2) pseudo=read geom=check gue
 ss=(read,tcheck) scf=(maxcycle=1)
 ----------------------------------------------------------------------
 -----
 title
 -----
 Structure from the checkpoint file:  "BDE49_nonexpt_1917_mol1.chk"
 Charge =  0 Multiplicity = 1

                         Standard orientation:
 ---------------------------------------------------------------------
 Center     Atomic      Atomic             Coordinates (Angstroms)
 Number     Number       Type             X           Y           Z
 ---------------------------------------------------------------------
      1         14           0        0.235763   -0.791046   -0.008565
      2          6           0       -0.524181    0.952989   -0.040866
      3          8           0       -1.900403    1.006184   -0.511609
      4          7           0       -2.725190    0.010783    0.037365
      5          8           0       -2.174996   -0.857818    0.699070
      6          8           0       -3.881107    0.135911   -0.222134
      7          8           0        1.845230   -0.652040   -0.664740
      8          1           0       -0.312629   -1.672773   -1.046412
      9          1           0        0.384548   -1.377929    1.325357
     10          7           0        2.739467    0.145801    0.039644
     11          8           0        2.260808    0.784126    0.965622
     12          8           0        3.869262    0.120851   -0.345891
     13          1           0       -0.005674    1.589094   -0.758613
     14          1           0       -0.472118    1.424513    0.943165
 ---------------------------------------------------------------------

 SCF Done:  E(RHF) =  -889.618110450     A.U. after    2 cycles

 The electronic state is 1-A.
 Alpha  occ. eigenvalues --  -76.28475 -21.17019 -21.15947 -21.14644 -21.14159
 Alpha  occ. eigenvalues --  -21.13739 -21.12783 -16.08453 -16.07244 -11.44683
 Alpha  occ. eigenvalues --   -5.61911  -2.27719  -2.24880  -2.24094  -2.11702
 Alpha  occ. eigenvalues --   -2.09239  -1.79025  -1.76904  -1.75221  -1.73463
 Alpha  occ. eigenvalues --   -1.09096  -0.95451  -0.90325  -0.80733  -0.76405
 Alpha  occ. eigenvalues --   -0.75167  -0.74140  -0.71489  -0.70058  -0.67355
 Alpha  occ. eigenvalues --   -0.64417  -0.57525  -0.52927  -0.51097  -0.46464
 Alpha  occ. eigenvalues --   -0.43009  -0.40016  -0.39006  -0.38214  -0.37143
 Alpha  occ. eigenvalues --   -0.36521  -0.35287  -0.32660
 Alpha virt. eigenvalues --    0.03784   0.04829   0.05571   0.06194   0.06969
 Alpha virt. eigenvalues --    0.07206   0.09694   0.10749   0.11765   0.12298
 Alpha virt. eigenvalues --    0.12944   0.13169   0.13881   0.14568   0.15529

 Mulliken charges:
               1
     1  Si   6.925665
     2  C   -2.501347
     3  O   -2.939104
     4  N    6.862368
     5  O   -2.700019
     6  O   -2.780000
     7  O   -2.849278
     8  H   -2.131182
     9  H   -2.109424
    10  N    6.773757
    11  O   -2.678010
    12  O   -2.706792
    13  H    1.451544
    14  H    1.381821
 Sum of Mulliken charges =   0.00000

 Dipole moment (field-independent basis, Debye):
    X=             -0.9631    Y=              0.6141    Z=             -0.3832  Tot=              1.2048

 Test job not archived.
 1\1\GINC-SE106\SP\RHF\Aug-CC-pVDZ\C1H4N2O6Si1\OHZDE\08-Apr-2025\0\\#t
 hf aug-cc-pvdz iop(5/13=1,5/36=2,99/5=2) pseudo=read geom=check guess=
 (read,tcheck) scf=(maxcycle=1)\\title\\0,1\Si,0,0.235763,-0.791046,-0.
 008565\C,0,-0.524181,0.952989,-0.040866\O,0,-1.900403,1.006184,-0.5116
 09\N,0,-2.72519,0.010783,0.037365\O,0,-2.174996,-0.857818,0.69907\O,0,
 -3.881107,0.135911,-0.222134\O,0,1.84523,-0.65204,-0.66474\H,0,-0.3126
 29,-1.672773,-1.046412\H,0,0.384548,-1.377929,1.325357\N,0,2.739467,0.
 145801,0.039644\O,0,2.260808,0.784126,0.965622\O,0,3.869262,0.120851,-

 Normal termination of Gaussian 16 at Tue Apr  8 23:53:55 2025.
