 Gaussian 16, Revision C.01,

 ----------------------------------------------------------------------
 #t hf aug-cc-pvdz symm=none int=(grid=ultrafine) guess=(read,tcheck) s
 table=(opt,rrhf)
 ----------------------------------------------------------------------
 -----
 title
 -----
 Symbolic Z-matrix:
 Charge =  0 Multiplicity = 1

 SCF Done:  E(RHF) =  -491.142447686     A.U. after   13 cycles
 Normal termination of Gaussian 16 at Wed Apr  9 00:34:16 2025.
 Gaussian 16:  ES64L-G16RevC.01  3-Jul-2019

 ----------------------------------------------------------------------
 #t hf aug-cc-pvdz iop(5/13=1,5/36=2,99/5=2) pseudo=read geom=check gue
 ss=(read,tcheck) scf=(maxcycle=1)
 ----------------------------------------------------------------------
 -----
 title
 -----
 Structure from the checkpoint file:  "BDE49_nonexpt_418_mol1.chk"
 Charge =  0 Multiplicity = 1

                         Standard orientation:
 ---------------------------------------------------------------------
 Center     Atomic      Atomic             Coordinates (Angstroms)
 Number     Number       Type             X           Y           Z
 ---------------------------------------------------------------------
      1          9           0       -1.961385    0.947730   -0.708810
      2          5           0       -1.274295   -0.035507   -0.155029
      3          9           0       -1.894952   -1.197689    0.002629
      4          6           0        0.236399    0.122568    0.315648
      5          8           0        0.908813   -0.361401   -0.851939
      6          8           0        0.515025   -0.691470    1.447170
      7          6           0        2.337668   -0.357744   -0.819900
      8          1           0        2.742404    0.652382   -0.943460
      9          1           0        2.660833   -0.972366   -1.659586
     10          1           0        2.709624   -0.790813    0.112360
     11          6           0        0.631131    1.543199    0.700925
     12          1           0        0.518662    2.213554   -0.152493
     13          1           0        1.664571    1.570488    1.051117
     14          1           0       -0.004252    1.900935    1.513483
     15          1           0        0.164763   -1.572181    1.267482
 ---------------------------------------------------------------------

 SCF Done:  E(RHF) =  -493.125577023     A.U. after    2 cycles

 The electronic state is 1-A.
 Alpha  occ. eigenvalues --  -29.26528 -29.26385 -21.08218 -21.05709 -11.47200
 Alpha  occ. eigenvalues --  -11.40973 -11.37984  -7.70751  -1.81155  -1.67868
 Alpha  occ. eigenvalues --   -1.19200  -1.08448  -1.00305  -0.83173  -0.76377
 Alpha  occ. eigenvalues --   -0.70257  -0.65189  -0.62187  -0.57820  -0.57080
 Alpha  occ. eigenvalues --   -0.52709  -0.52263  -0.50343  -0.47757  -0.46113
 Alpha  occ. eigenvalues --   -0.45278  -0.39428  -0.35810  -0.34423  -0.32956
 Alpha  occ. eigenvalues --   -0.30325  -0.24935
 Alpha virt. eigenvalues --    0.03443   0.04586   0.05172   0.05261   0.05753
 Alpha virt. eigenvalues --    0.06165   0.06326   0.06581   0.08509   0.09249
 Alpha virt. eigenvalues --    0.10070   0.11965   0.13478   0.14654   0.15216

 Mulliken charges:
               1
     1  F   -0.419074
     2  B    1.304153
     3  F   -0.892577
     4  C    5.517019
     5  O   -3.813943
     6  O   -3.467368
     7  C   -3.246335
     8  H    1.496403
     9  H    1.307961
    10  H    1.319500
    11  C   -3.729963
    12  H    1.315948
    13  H    1.245755
    14  H    1.178833
    15  H    0.883688
 Sum of Mulliken charges =  -0.00000

 Dipole moment (field-independent basis, Debye):
    X=             -1.6149    Y=             -0.1686    Z=             -0.8901  Tot=              1.8516

 Test job not archived.
 1\1\GINC-SE332\SP\RHF\Aug-CC-pVDZ\C3H7B1F2O2\OHZDE\09-Apr-2025\0\\#t h
 f aug-cc-pvdz iop(5/13=1,5/36=2,99/5=2) pseudo=read geom=check guess=(
 read,tcheck) scf=(maxcycle=1)\\title\\0,1\F,0,-1.961385,0.94773,-0.708
 81\B,0,-1.274295,-0.035507,-0.155029\F,0,-1.894952,-1.197689,0.002629\
 C,0,0.236399,0.122568,0.315648\O,0,0.908813,-0.361401,-0.851939\O,0,0.
 515025,-0.69147,1.44717\C,0,2.337668,-0.357744,-0.8199\H,0,2.742404,0.
 652382,-0.94346\H,0,2.660833,-0.972366,-1.659586\H,0,2.709624,-0.79081
 3,0.11236\C,0,0.631131,1.543199,0.700925\H,0,0.518662,2.213554,-0.1524

 Normal termination of Gaussian 16 at Wed Apr  9 00:34:20 2025.
