 Gaussian 16, Revision C.01,

 ----------------------------------------------------------------------
 #t hf aug-cc-pvdz symm=none int=(grid=ultrafine) guess=(read,tcheck) s
 table=opt
 ----------------------------------------------------------------------
 -----
 title
 -----
 Symbolic Z-matrix:
 Charge =  0 Multiplicity = 2

 SCF Done:  E(UHF) =  -472.944078827     A.U. after   18 cycles
 Normal termination of Gaussian 16 at Tue Apr  8 22:47:26 2025.
 Gaussian 16:  ES64L-G16RevC.01  3-Jul-2019

 ----------------------------------------------------------------------
 #t hf aug-cc-pvdz iop(5/13=1,5/36=2,99/5=2) pseudo=read geom=check gue
 ss=(read,tcheck) scf=(maxcycle=1)
 ----------------------------------------------------------------------
 -----
 title
 -----
 Structure from the checkpoint file:  "BDE49_expt_1595_mol2.chk"
 Charge =  0 Multiplicity = 2

                         Standard orientation:
 ---------------------------------------------------------------------
 Center     Atomic      Atomic             Coordinates (Angstroms)
 Number     Number       Type             X           Y           Z
 ---------------------------------------------------------------------
      1         16           0        0.036809   -0.608062    0.000000
      2          8           0        0.036809    1.047795    0.000000
      3          1           0       -0.883419    1.346626    0.000000
 ---------------------------------------------------------------------

 SCF Done:  E(UHF) =  -473.443427533     A.U. after    2 cycles

 The electronic state is 2-A".
 Alpha  occ. eigenvalues --  -75.74889 -21.13345 -13.18353 -13.06639 -13.06291
 Alpha  occ. eigenvalues --   -8.08215  -1.76156  -1.04352  -0.62467  -0.49157
 Alpha  occ. eigenvalues --   -0.45687  -0.25896  -0.25137
 Alpha virt. eigenvalues --    0.03382   0.07072   0.11896   0.12122   0.13623
 Alpha virt. eigenvalues --    0.20235   0.22378   0.24422   0.25593   0.26173
 Alpha virt. eigenvalues --    0.28933   0.34142   0.36051   0.38228   0.43560

  Beta  occ. eigenvalues --  -75.73946 -21.12643 -13.17994 -13.05737 -13.00852
  Beta  occ. eigenvalues --   -8.07159  -1.74533  -0.95681  -0.61530  -0.44393
  Beta  occ. eigenvalues --   -0.43016  -0.23757
  Beta virt. eigenvalues --    0.03431   0.05687   0.07494   0.12152   0.13930
  Beta virt. eigenvalues --    0.16797   0.20426   0.22633   0.25334   0.25919
  Beta virt. eigenvalues --    0.28224   0.31127   0.34620   0.36759   0.41867

 Mulliken charges and spin densities:
               1          2
     1  S    1.035806   0.913772
     2  O   -2.014562   0.097516
     3  H    0.978756  -0.011288
 Sum of Mulliken charges =  -0.00000   1.00000

 Dipole moment (field-independent basis, Debye):
    X=             -0.5999    Y=              0.0481    Z=              0.0000  Tot=              0.6019
                          Isotropic Fermi Contact Couplings
        Atom                 a.u.       MegaHertz       Gauss      10(-4) cm-1
     1  S(33)              0.31070     106.71876      38.07991      35.59755
     2  O(17)              0.04035     -24.46065      -8.72817      -8.15920
     3  H(1)              -0.00232     -10.38462      -3.70549      -3.46394
 --------------------------------------------------------
       Center         ----  Spin Dipole Couplings  ----
                      3XX-RR        3YY-RR        3ZZ-RR
 --------------------------------------------------------
     1   Atom       -0.231209     -0.256888      0.488097

 Normal termination of Gaussian 16 at Tue Apr  8 22:47:27 2025.
