 Gaussian 16, Revision C.01,

 ----------------------------------------------------------------------
 #t hf aug-cc-pvdz symm=none int=(grid=ultrafine) guess=(read,tcheck) s
 table=(opt,rrhf)
 ----------------------------------------------------------------------
 -----
 title
 -----
 Symbolic Z-matrix:
 Charge =  0 Multiplicity = 1

 SCF Done:  E(RHF) =  -1007.21366657     A.U. after   16 cycles
 Normal termination of Gaussian 16 at Wed Apr  9 00:17:55 2025.
 Gaussian 16:  ES64L-G16RevC.01  3-Jul-2019

 ----------------------------------------------------------------------
 #t hf aug-cc-pvdz iop(5/13=1,5/36=2,99/5=2) pseudo=read geom=check gue
 ss=(read,tcheck) scf=(maxcycle=1)
 ----------------------------------------------------------------------
 -----
 title
 -----
 Structure from the checkpoint file:  "BDE49_nonexpt_2558_mol1.chk"
 Charge =  0 Multiplicity = 1

                         Standard orientation:
 ---------------------------------------------------------------------
 Center     Atomic      Atomic             Coordinates (Angstroms)
 Number     Number       Type             X           Y           Z
 ---------------------------------------------------------------------
      1         17           0        1.604364   -0.480432    0.027388
      2         16           0        0.020688    0.878374   -0.164489
      3          8           0       -1.215079    0.191376    0.577905
      4          8           0       -1.997474   -0.733527   -0.330362
      5          1           0       -1.904780   -1.549433    0.185877
 ---------------------------------------------------------------------

 SCF Done:  E(RHF) =  -1008.28088105     A.U. after    2 cycles

 The electronic state is 1-A.
 Alpha  occ. eigenvalues --  -99.91727 -75.79815 -21.16656 -21.16166 -13.28049
 Alpha  occ. eigenvalues --  -13.12848 -13.12306 -10.48865  -9.68566  -9.67927
 Alpha  occ. eigenvalues --   -9.67873  -8.13556  -1.95119  -1.53203  -1.32491
 Alpha  occ. eigenvalues --   -1.01706  -0.65888  -0.61845  -0.59013  -0.56287
 Alpha  occ. eigenvalues --   -0.52256  -0.48805  -0.40859  -0.35599  -0.26483
 Alpha virt. eigenvalues --    0.03801   0.04379   0.07995   0.09728   0.11829
 Alpha virt. eigenvalues --    0.12848   0.13789   0.15178   0.16171   0.16900
 Alpha virt. eigenvalues --    0.19556   0.19968   0.21825   0.23613   0.24496

 Mulliken charges:
               1
     1  Cl  -0.467801
     2  S    1.623429
     3  O   -1.235251
     4  O   -0.849925
     5  H    0.929549
 Sum of Mulliken charges =  -0.00000

 Dipole moment (field-independent basis, Debye):
    X=             -2.2702    Y=              1.4504    Z=             -0.6379  Tot=              2.7685

 Test job not archived.
 1\1\GINC-SE120\SP\RHF\Aug-CC-pVDZ\Cl1H1O2S1\OHZDE\09-Apr-2025\0\\#t hf
  aug-cc-pvdz iop(5/13=1,5/36=2,99/5=2) pseudo=read geom=check guess=(r
 ead,tcheck) scf=(maxcycle=1)\\title\\0,1\Cl,0,1.604364,-0.480432,0.027
 388\S,0,0.020688,0.878374,-0.164489\O,0,-1.215079,0.191376,0.577905\O,
 0,-1.997474,-0.733527,-0.330362\H,0,-1.90478,-1.549433,0.185877\\Versi
 on=ES64L-G16RevC.01\State=1-A\HF=-1008.280881\RMSD=3.679e-02\Dipole=-0
 .8931716,0.5706295,-0.2509842\Quadrupole=-1.7435639,3.850723,-2.107159
 1,1.4484661,-0.441752,-1.9242792\PG=C01 [X(Cl1H1O2S1)]\\@

 Normal termination of Gaussian 16 at Wed Apr  9 00:17:58 2025.
