 Gaussian 16, Revision C.01,

 ----------------------------------------------------------------------
 #t hf aug-cc-pvdz symm=none int=(grid=ultrafine) guess=(read,tcheck) s
 table=(opt,rrhf)
 ----------------------------------------------------------------------
 -----
 title
 -----
 Symbolic Z-matrix:
 Charge =  0 Multiplicity = 1

 SCF Done:  E(RHF) =  -538.165095239     A.U. after   12 cycles

 1\1\GINC-SE249\Stability\RHF\Aug-CC-pVDZ\C2H5Cl1\OHZDE\08-Apr-2025\0\\
 #t hf aug-cc-pvdz symm=none int=(grid=ultrafine) guess=(read,tcheck) s
 table=(opt,rrhf)\\title\\0,1\C,0,0.,0.821956,0.\C,0,-1.509911,0.681526
 ,0.\Cl,0,0.823861,-0.803603,0.\H,0,0.36545,1.335886,0.887486\H,0,0.365
 45,1.335886,-0.887486\H,0,-1.855885,0.145579,0.885635\H,0,-1.855885,0.
 145579,-0.885635\H,0,-1.965297,1.677422,0.\\Version=ES64L-G16RevC.01\H
 F=-538.1650952\RMSD=2.750e-09\Dipole=-0.5149551,0.8300051,0.\Quadrupol
 e=-0.5027299,0.4446083,0.0581216,0.3195242,0.,0.\PG=Unknown\\@

 Normal termination of Gaussian 16 at Tue Apr  8 22:31:19 2025.
 Gaussian 16:  ES64L-G16RevC.01  3-Jul-2019

 ----------------------------------------------------------------------
 #t hf aug-cc-pvdz iop(5/13=1,5/36=2,99/5=2) pseudo=read geom=check gue
 ss=(read,tcheck) scf=(maxcycle=1)
 ----------------------------------------------------------------------
 -----
 title
 -----
 Structure from the checkpoint file:  "BDE49_expt_1019_mol1.chk"
 Charge =  0 Multiplicity = 1

                         Standard orientation:
 ---------------------------------------------------------------------
 Center     Atomic      Atomic             Coordinates (Angstroms)
 Number     Number       Type             X           Y           Z
 ---------------------------------------------------------------------
      1          6           0       -0.000000    0.821956    0.000000
      2          6           0       -1.509911    0.681526    0.000000
      3         17           0        0.823861   -0.803603    0.000000
      4          1           0        0.365450    1.335886    0.887486
      5          1           0        0.365450    1.335886   -0.887486
      6          1           0       -1.855885    0.145579    0.885635
      7          1           0       -1.855885    0.145579   -0.885635
      8          1           0       -1.965297    1.677422    0.000000
 ---------------------------------------------------------------------

 SCF Done:  E(RHF) =  -538.825410439     A.U. after    2 cycles

 The electronic state is 1-A'.
 Alpha  occ. eigenvalues --  -99.87143 -11.44635 -11.38169 -10.44386  -9.64227
 Alpha  occ. eigenvalues --   -9.63545  -9.63498  -1.32628  -1.12195  -0.90122
 Alpha  occ. eigenvalues --   -0.66216  -0.63443  -0.56589  -0.53264  -0.51618
 Alpha  occ. eigenvalues --   -0.46639  -0.46341
 Alpha virt. eigenvalues --    0.03034   0.05299   0.05983   0.06213   0.07532
 Alpha virt. eigenvalues --    0.07913   0.11623   0.12856   0.13416   0.13983
 Alpha virt. eigenvalues --    0.15339   0.17386   0.18575   0.18737   0.19512

 Mulliken charges:
               1
     1  C   -3.814055
     2  C   -3.115595
     3  Cl   0.065834
     4  H    1.560120
     5  H    1.560120
     6  H    1.276454
     7  H    1.276454
     8  H    1.190669
 Sum of Mulliken charges =  -0.00000

 Dipole moment (field-independent basis, Debye):
    X=             -1.3415    Y=              2.1567    Z=             -0.0000  Tot=              2.5399

 Test job not archived.
 1\1\GINC-SE249\SP\RHF\Aug-CC-pVDZ\C2H5Cl1\OHZDE\08-Apr-2025\0\\#t hf a
 ug-cc-pvdz iop(5/13=1,5/36=2,99/5=2) pseudo=read geom=check guess=(rea
 d,tcheck) scf=(maxcycle=1)\\title\\0,1\C,0,0.,0.821956,0.\C,0,-1.50991
 1,0.681526,0.\Cl,0,0.823861,-0.803603,0.\H,0,0.36545,1.335886,0.887486
 \H,0,0.36545,1.335886,-0.887486\H,0,-1.855885,0.145579,0.885635\H,0,-1
 .855885,0.145579,-0.885635\H,0,-1.965297,1.677422,0.\\Version=ES64L-G1
 6RevC.01\State=1-A'\HF=-538.8254104\RMSD=1.482e-01\Dipole=-0.5277679,0
 .8485252,0.\Quadrupole=-0.6218323,0.8075124,-0.1856801,-0.0876823,0.,0

 Normal termination of Gaussian 16 at Tue Apr  8 22:31:21 2025.
