 Gaussian 16, Revision C.01,

 ----------------------------------------------------------------------
 #t hf aug-cc-pvdz symm=none int=(grid=ultrafine) guess=(read,tcheck) s
 table=(opt,rrhf)
 ----------------------------------------------------------------------
 -----
 title
 -----
 Symbolic Z-matrix:
 Charge =  0 Multiplicity = 1

 SCF Done:  E(RHF) =  -256.192852466     A.U. after   12 cycles
 Normal termination of Gaussian 16 at Tue Apr  8 22:45:42 2025.
 Gaussian 16:  ES64L-G16RevC.01  3-Jul-2019

 ----------------------------------------------------------------------
 #t hf aug-cc-pvdz iop(5/13=1,5/36=2,99/5=2) pseudo=read geom=check gue
 ss=(read,tcheck) scf=(maxcycle=1)
 ----------------------------------------------------------------------
 -----
 title
 -----
 Structure from the checkpoint file:  "BDE49_expt_1523_mol1.chk"
 Charge =  0 Multiplicity = 1

                         Standard orientation:
 ---------------------------------------------------------------------
 Center     Atomic      Atomic             Coordinates (Angstroms)
 Number     Number       Type             X           Y           Z
 ---------------------------------------------------------------------
      1          6           0        0.000005   -0.000014   -0.006964
      2          6           0       -0.344730    1.421591   -0.435798
      3          9           0       -0.000044    0.000053    1.416153
      4          1           0        0.396591    2.123452   -0.047508
      5          1           0       -1.325064    1.706048   -0.047241
      6          6           0        1.403556   -0.412267   -0.435681
      7          1           0        2.139976    0.294735   -0.047382
      8          1           0        1.486475   -0.436850   -1.525543
      9          1           0        1.640839   -1.405026   -0.047020
     10          1           0       -0.365240    1.505462   -1.525668
     11          6           0       -1.058788   -1.009368   -0.435715
     12          1           0       -2.037218   -0.718327   -0.047255
     13          1           0       -0.814884   -2.000600   -0.047239
     14          1           0       -1.121340   -1.069023   -1.525577
 ---------------------------------------------------------------------

 SCF Done:  E(RHF) =  -257.357600992     A.U. after    2 cycles

 The electronic state is 1-A.
 Alpha  occ. eigenvalues --  -29.22611 -11.46343 -11.39569 -11.39569 -11.35652
 Alpha  occ. eigenvalues --   -1.30519  -1.02488  -1.02487  -0.87619  -0.68441
 Alpha  occ. eigenvalues --   -0.62553  -0.62553  -0.55551  -0.55551  -0.52172
 Alpha  occ. eigenvalues --   -0.51207  -0.46965  -0.46965  -0.33205  -0.23219
 Alpha  occ. eigenvalues --   -0.23219
 Alpha virt. eigenvalues --    0.03805   0.05876   0.05887   0.05887   0.06155
 Alpha virt. eigenvalues --    0.06155   0.06763   0.06763   0.09431   0.11303
 Alpha virt. eigenvalues --    0.13973   0.14482   0.14483   0.15569   0.15570

 Mulliken charges:
               1
     1  C    1.310145
     2  C   -4.106268
     3  F    0.069790
     4  H    1.230202
     5  H    1.230147
     6  C   -4.106258
     7  H    1.230197
     8  H    1.185889
     9  H    1.230149
    10  H    1.185912
    11  C   -4.106164
    12  H    1.230166
    13  H    1.230164
    14  H    1.185930
 Sum of Mulliken charges =   0.00000

 Dipole moment (field-independent basis, Debye):
    X=             -0.0000    Y=              0.0000    Z=              0.9007  Tot=              0.9007

 Test job not archived.
 1\1\GINC-SE252\SP\RHF\Aug-CC-pVDZ\C4H9F1\OHZDE\08-Apr-2025\0\\#t hf au
 g-cc-pvdz iop(5/13=1,5/36=2,99/5=2) pseudo=read geom=check guess=(read
 ,tcheck) scf=(maxcycle=1)\\title\\0,1\C,0,-0.000005,0.000014,-0.006964
 \C,0,0.345549,-1.421392,-0.435798\F,0,0.000044,-0.000053,1.416153\H,0,
 -0.395367,-2.12368,-0.047508\H,0,1.326047,-1.705284,-0.047241\C,0,-1.4
 03793,0.411458,-0.435681\H,0,-2.139806,-0.295968,-0.047382\H,0,-1.4867
 26,0.435993,-1.525543\H,0,-1.641648,1.40408,-0.04702\H,0,0.366108,-1.5
 05251,-1.525668\C,0,1.058206,1.009978,-0.435715\H,0,2.036804,0.719501,

 Normal termination of Gaussian 16 at Tue Apr  8 22:45:45 2025.
