 Gaussian 16, Revision C.01,

 ----------------------------------------------------------------------
 #t hf aug-cc-pvdz symm=none int=(grid=ultrafine) guess=(read,tcheck) s
 table=opt
 ----------------------------------------------------------------------
 -----
 title
 -----
 Symbolic Z-matrix:
 Charge =  0 Multiplicity = 2

 SCF Done:  E(UHF) =  -273.804190363     A.U. after   16 cycles
 Normal termination of Gaussian 16 at Tue Apr  8 22:51:08 2025.
 Gaussian 16:  ES64L-G16RevC.01  3-Jul-2019

 ----------------------------------------------------------------------
 #t hf aug-cc-pvdz iop(5/13=1,5/36=2,99/5=2) pseudo=read geom=check gue
 ss=(read,tcheck) scf=(maxcycle=1)
 ----------------------------------------------------------------------
 -----
 title
 -----
 Structure from the checkpoint file:  "BDE49_expt_1667_mol2.chk"
 Charge =  0 Multiplicity = 2

                         Standard orientation:
 ---------------------------------------------------------------------
 Center     Atomic      Atomic             Coordinates (Angstroms)
 Number     Number       Type             X           Y           Z
 ---------------------------------------------------------------------
      1          6           0        2.586916    0.427994    0.061343
      2          6           0        1.322313   -0.363612    0.104323
      3          6           0        0.046878    0.482484   -0.015725
      4          1           0        1.272517   -0.945293    1.044146
      5          1           0        1.336729   -1.123506   -0.691285
      6          6           0        3.911903   -0.231247   -0.115668
      7          1           0        4.223228   -0.785183    0.786638
      8          1           0        4.702690    0.491398   -0.332300
      9          1           0        3.891599   -0.966635   -0.929690
     10          1           0        2.557280    1.464240    0.385467
     11          6           0       -1.243471   -0.341181    0.044059
     12          1           0        0.078946    1.044974   -0.956532
     13          1           0        0.037612    1.230419    0.787191
     14          6           0       -2.517520    0.503247   -0.072268
     15          1           0       -1.270228   -0.906422    0.984939
     16          1           0       -1.233426   -1.090058   -0.758731
     17          6           0       -3.802622   -0.327445   -0.013457
     18          1           0       -2.490595    1.068211   -1.011908
     19          1           0       -2.528870    1.250561    0.730436
     20          1           0       -3.837089   -1.060602   -0.825454
     21          1           0       -4.691441    0.303735   -0.098743
     22          1           0       -3.875328   -0.877280    0.930184
 ---------------------------------------------------------------------

 SCF Done:  E(UHF) =  -275.221388754     A.U. after    2 cycles

 The electronic state is 2-A.
 Alpha  occ. eigenvalues --  -11.42209 -11.41666 -11.39823 -11.38146 -11.36524
 Alpha  occ. eigenvalues --  -11.35317 -11.33599  -1.27511  -1.18209  -1.08047
 Alpha  occ. eigenvalues --   -0.98295  -0.88499  -0.81897  -0.80774  -0.65706
 Alpha  occ. eigenvalues --   -0.61244  -0.59499  -0.58290  -0.56477  -0.55226
 Alpha  occ. eigenvalues --   -0.52317  -0.50272  -0.49242  -0.47119  -0.45839
 Alpha  occ. eigenvalues --   -0.44776  -0.44218  -0.38684  -0.28924
 Alpha virt. eigenvalues --    0.04122   0.04700   0.05142   0.05605   0.05792
 Alpha virt. eigenvalues --    0.06030   0.06159   0.06758   0.07283   0.07359
 Alpha virt. eigenvalues --    0.07920   0.08690   0.09671   0.10387   0.10696

  Beta  occ. eigenvalues --  -11.41984 -11.41642 -11.39352 -11.38171 -11.36472
  Beta  occ. eigenvalues --  -11.34772 -11.33170  -1.26585  -1.16201  -1.07152
  Beta  occ. eigenvalues --   -0.98184  -0.87624  -0.81783  -0.76750  -0.65257
  Beta  occ. eigenvalues --   -0.60133  -0.58751  -0.57956  -0.54801  -0.54114
  Beta  occ. eigenvalues --   -0.51814  -0.49619  -0.49071  -0.46614  -0.45341
  Beta  occ. eigenvalues --   -0.44679  -0.44119  -0.38310
  Beta virt. eigenvalues --    0.04135   0.04703   0.05027   0.05617   0.05786
  Beta virt. eigenvalues --    0.06043   0.06165   0.06776   0.07290   0.07382
  Beta virt. eigenvalues --    0.07828   0.08591   0.09363   0.10315   0.10702

 Mulliken charges and spin densities:
               1          2
     1  C   -0.376695   1.808932
     2  C   -3.210877  -0.563824
     3  C   -1.969768   0.074698
     4  H    1.408238   0.026476
     5  H    1.462677   0.009842
     6  C   -4.906889  -0.400419
     7  H    1.267200   0.033519
     8  H    1.209748  -0.002716
     9  H    1.254443   0.013177
    10  H    1.409668  -0.003081
    11  C   -2.663463   0.006924
    12  H    1.561644  -0.002763
    13  H    1.584589  -0.005825
    14  C   -3.284650   0.004634
    15  H    1.529812   0.000089
    16  H    1.595998  -0.000189
    17  C   -4.508206   0.000316
    18  H    1.447689   0.000216
    19  H    1.444089  -0.000043
    20  H    1.322543   0.000181
    21  H    1.077463  -0.000163
    22  H    1.344746   0.000020
 Sum of Mulliken charges =  -0.00000   1.00000

 Dipole moment (field-independent basis, Debye):
    X=              0.0008    Y=              0.0375    Z=              0.1251  Tot=              0.1306
                          Isotropic Fermi Contact Couplings
        Atom                 a.u.       MegaHertz       Gauss      10(-4) cm-1
     1  C(13)              0.14380     161.65791      57.68356      53.92327
     2  C(13)             -0.03679     -41.36072     -14.75853     -13.79645
     3  C(13)              0.00787       8.84821       3.15726       2.95145
     4  H(1)               0.01854      82.87874      29.57319      27.64537
     5  H(1)               0.00829      37.05709      13.22289      12.36091
     6  C(13)             -0.03692     -41.50299     -14.80930     -13.84391
     7  H(1)               0.02022      90.39942      32.25676      30.15400
     8  H(1)               0.00343      15.32834       5.46953       5.11298

 Normal termination of Gaussian 16 at Tue Apr  8 22:51:18 2025.
