 Gaussian 16, Revision C.01,

 ----------------------------------------------------------------------
 #t hf aug-cc-pvdz symm=none int=(grid=ultrafine) guess=(read,tcheck) s
 table=(opt,rrhf)
 ----------------------------------------------------------------------
 -----
 title
 -----
 Symbolic Z-matrix:
 Charge =  0 Multiplicity = 1

 SCF Done:  E(RHF) =  -808.613179192     A.U. after   13 cycles
 Normal termination of Gaussian 16 at Tue Apr  8 23:25:22 2025.
 Gaussian 16:  ES64L-G16RevC.01  3-Jul-2019

 ----------------------------------------------------------------------
 #t hf aug-cc-pvdz iop(5/13=1,5/36=2,99/5=2) pseudo=read geom=check gue
 ss=(read,tcheck) scf=(maxcycle=1)
 ----------------------------------------------------------------------
 -----
 title
 -----
 Structure from the checkpoint file:  "BDE49_expt_823_mol1.chk"
 Charge =  0 Multiplicity = 1

                         Standard orientation:
 ---------------------------------------------------------------------
 Center     Atomic      Atomic             Coordinates (Angstroms)
 Number     Number       Type             X           Y           Z
 ---------------------------------------------------------------------
      1         15           0        0.009580   -1.392770   -0.148924
      2          6           0        1.445654   -0.233010    0.212170
      3          6           0        2.651221   -1.055430    0.710663
      4          6           0       -1.483904   -0.257943   -0.296033
      5          1           0       -0.218840   -1.792762    1.196586
      6          6           0       -1.709719    0.730611    0.861447
      7          6           0        3.885652   -0.172827    0.953771
      8          1           0        2.897212   -1.822458   -0.034995
      9          1           0        2.387364   -1.589267    1.629626
     10          6           0        4.255794    0.636825   -0.296067
     11          1           0        4.730320   -0.794849    1.267773
     12          1           0        3.680106    0.515792    1.783479
     13          6           0        3.062920    1.460519   -0.798998
     14          1           0        4.578929   -0.050750   -1.088413
     15          1           0        5.107381    1.291986   -0.085812
     16          6           0        1.826220    0.579881   -1.040223
     17          1           0        3.327324    1.989162   -1.720771
     18          1           0        2.817737    2.231516   -0.057118
     19          1           0        0.986291    1.205368   -1.359774
     20          1           0        2.029828   -0.112877   -1.867425
     21          1           0        1.159593    0.464865    1.007130
     22          6           0       -2.968846    1.588487    0.648647
     23          1           0       -0.840815    1.382728    0.986740
     24          1           0       -1.812085    0.163952    1.796157
     25          6           0       -2.742269   -1.122952   -0.523555
     26          1           0       -1.311440    0.317931   -1.216044
     27          6           0       -3.999749   -0.265273   -0.734803
     28          1           0       -2.894144   -1.771902    0.349474
     29          1           0       -2.589816   -1.787118   -1.379690
     30          6           0       -4.213999    0.721825    0.420140
     31          1           0       -4.875550   -0.912362   -0.849817
     32          1           0       -3.899478    0.293374   -1.674415
     33          1           0       -5.085877    1.353941    0.222777
     34          1           0       -4.436396    0.161157    1.337430
     35          1           0       -2.817671    2.240722   -0.221357
     36          1           0       -3.117513    2.249118    1.509361
 ---------------------------------------------------------------------

 SCF Done:  E(RHF) =  -811.236056407     A.U. after    2 cycles

 The electronic state is 1-A.
 Alpha  occ. eigenvalues -- -105.15901 -11.43962 -11.43833 -11.43584 -11.43006
 Alpha  occ. eigenvalues --  -11.42237 -11.41984 -11.37742 -11.37393 -11.37220
 Alpha  occ. eigenvalues --  -11.37095 -11.34099 -11.33786  -2.73077  -1.49224
 Alpha  occ. eigenvalues --   -1.45366  -1.43119  -1.30913  -1.28742  -1.10152
 Alpha  occ. eigenvalues --   -1.09749  -1.08974  -1.07529  -0.88190  -0.88158
 Alpha  occ. eigenvalues --   -0.87273  -0.85419  -0.77959  -0.77660  -0.69874
 Alpha  occ. eigenvalues --   -0.64724  -0.64486  -0.61187  -0.60898  -0.60489
 Alpha  occ. eigenvalues --   -0.60442  -0.58034  -0.56581  -0.52463  -0.52382
 Alpha  occ. eigenvalues --   -0.48597  -0.48124  -0.46809  -0.46760  -0.46587
 Alpha  occ. eigenvalues --   -0.46511  -0.44983  -0.44068  -0.43522  -0.41459
 Alpha  occ. eigenvalues --   -0.38877  -0.38863  -0.22635  -0.16430  -0.00714
 Alpha virt. eigenvalues --    0.04384   0.04598   0.04733   0.05225   0.05456
 Alpha virt. eigenvalues --    0.05512   0.05595   0.05736   0.06032   0.06351
 Alpha virt. eigenvalues --    0.06481   0.06827   0.06907   0.07526   0.08585

 Mulliken charges:
               1
     1  P    2.855932
     2  C    2.199333
     3  C   -3.938755
     4  C    1.430289
     5  H   -1.393269
     6  C   -3.919267
     7  C   -3.682152
     8  H    1.250485
     9  H    1.578079
    10  C   -3.287722
    11  H    1.340476
    12  H    1.360355
    13  C   -3.678184
    14  H    1.428922
    15  H    1.294946
    16  C   -4.078036
    17  H    1.400851
    18  H    1.278495
    19  H    1.644356
    20  H    1.292148
    21  H    2.215104
    22  C   -3.842777
    23  H    1.627388
    24  H    1.469237
    25  C   -3.791369
    26  H    1.962409
    27  C   -3.733078
    28  H    1.415817
    29  H    1.299288
    30  C   -3.121170
    31  H    1.358368
    32  H    1.458920
    33  H    1.260288
    34  H    1.378968
    35  H    1.377826
    36  H    1.287495
 Sum of Mulliken charges =   0.00000

 Dipole moment (field-independent basis, Debye):
    X=              0.2730    Y=              0.2366    Z=             -0.5002  Tot=              0.6170

 Test job not archived.
 1\1\GINC-SE103\SP\RHF\Aug-CC-pVDZ\C12H23P1\OHZDE\08-Apr-2025\0\\#t hf
 aug-cc-pvdz iop(5/13=1,5/36=2,99/5=2) pseudo=read geom=check guess=(re
 ad,tcheck) scf=(maxcycle=1)\\title\\0,1\P,0,0.00958,-1.39277,-0.148924
 \C,0,1.445654,-0.23301,0.21217\C,0,2.651221,-1.05543,0.710663\C,0,-1.4
 83904,-0.257943,-0.296033\H,0,-0.21884,-1.792762,1.196586\C,0,-1.70971
 9,0.730611,0.861447\C,0,3.885652,-0.172827,0.953771\H,0,2.897212,-1.82
 2458,-0.034995\H,0,2.387364,-1.589267,1.629626\C,0,4.255794,0.636825,-
 0.296067\H,0,4.73032,-0.794849,1.267773\H,0,3.680106,0.515792,1.783479

 Normal termination of Gaussian 16 at Tue Apr  8 23:26:11 2025.
