 Gaussian 16, Revision C.01,

 ----------------------------------------------------------------------
 #t hf aug-cc-pvdz symm=none int=(grid=ultrafine) guess=(read,tcheck) s
 table=(opt,rrhf)
 ----------------------------------------------------------------------
 -----
 title
 -----
 Symbolic Z-matrix:
 Charge =  0 Multiplicity = 1

 SCF Done:  E(RHF) =  -627.383466065     A.U. after   15 cycles
 Normal termination of Gaussian 16 at Tue Apr  8 23:39:50 2025.
 Gaussian 16:  ES64L-G16RevC.01  3-Jul-2019

 ----------------------------------------------------------------------
 #t hf aug-cc-pvdz iop(5/13=1,5/36=2,99/5=2) pseudo=read geom=check gue
 ss=(read,tcheck) scf=(maxcycle=1)
 ----------------------------------------------------------------------
 -----
 title
 -----
 Structure from the checkpoint file:  "BDE49_nonexpt_1580_mol1.chk"
 Charge =  0 Multiplicity = 1

                         Standard orientation:
 ---------------------------------------------------------------------
 Center     Atomic      Atomic             Coordinates (Angstroms)
 Number     Number       Type             X           Y           Z
 ---------------------------------------------------------------------
      1          6           0        2.785407    0.451674    0.924199
      2          6           0        2.433814   -0.185544   -0.423515
      3          1           0        2.055810    1.216213    1.201415
      4          1           0        3.767119    0.930568    0.885621
      5          1           0        2.813114   -0.297194    1.722319
      6          6           0        1.075897   -0.896778   -0.423672
      7          1           0        3.205928   -0.909935   -0.701532
      8          1           0        2.422924    0.582564   -1.201239
      9          6           0       -0.122869    0.036347   -0.359493
     10          1           0        1.005929   -1.628111    0.391319
     11          1           0        0.945925   -1.476020   -1.348059
     12          8           0       -0.073392    1.202368   -0.685108
     13          7           0       -2.728339    0.689152    0.299938
     14         15           0       -1.772305   -0.714290    0.181545
     15          1           0       -1.313764   -0.849712    1.521148
     16          1           0       -3.472541    0.714671   -0.383768
     17          1           0       -2.193858    1.554105    0.265785
 ---------------------------------------------------------------------

 SCF Done:  E(RHF) =  -628.927387756     A.U. after    2 cycles

 The electronic state is 1-A.
 Alpha  occ. eigenvalues -- -105.19823 -21.06247 -15.74437 -11.48987 -11.42733
 Alpha  occ. eigenvalues --  -11.39467 -11.35785  -2.77917  -1.72062  -1.57368
 Alpha  occ. eigenvalues --   -1.47518  -1.45291  -1.22681  -1.17531  -1.04403
 Alpha  occ. eigenvalues --   -0.88224  -0.77643  -0.69679  -0.64653  -0.63257
 Alpha  occ. eigenvalues --   -0.60773  -0.56915  -0.52915  -0.48488  -0.47959
 Alpha  occ. eigenvalues --   -0.47142  -0.44027  -0.42643  -0.38865  -0.27579
 Alpha  occ. eigenvalues --   -0.17963  -0.02698
 Alpha virt. eigenvalues --    0.04005   0.05369   0.05475   0.05701   0.05994
 Alpha virt. eigenvalues --    0.06403   0.07118   0.07280   0.07852   0.09272
 Alpha virt. eigenvalues --    0.10107   0.11857   0.12208   0.12835   0.13893

 Mulliken charges:
               1
     1  C   -3.643217
     2  C   -3.141565
     3  H    1.361272
     4  H    1.165568
     5  H    1.278412
     6  C   -3.481765
     7  H    1.277785
     8  H    1.522639
     9  C    1.961036
    10  H    1.651562
    11  H    1.447771
    12  O   -2.989936
    13  N   -2.352685
    14  P    3.535639
    15  H   -0.806544
    16  H    0.594122
    17  H    0.619908
 Sum of Mulliken charges =   0.00000

 Dipole moment (field-independent basis, Debye):
    X=             -0.0910    Y=             -0.0856    Z=             -1.0066  Tot=              1.0143

 Test job not archived.
 1\1\GINC-SE423\SP\RHF\Aug-CC-pVDZ\C4H10N1O1P1\OHZDE\08-Apr-2025\0\\#t
 hf aug-cc-pvdz iop(5/13=1,5/36=2,99/5=2) pseudo=read geom=check guess=
 (read,tcheck) scf=(maxcycle=1)\\title\\0,1\C,0,2.785407,0.451674,0.924
 199\C,0,2.433814,-0.185544,-0.423515\H,0,2.05581,1.216213,1.201415\H,0
 ,3.767119,0.930568,0.885621\H,0,2.813114,-0.297194,1.722319\C,0,1.0758
 97,-0.896778,-0.423672\H,0,3.205928,-0.909935,-0.701532\H,0,2.422924,0
 .582564,-1.201239\C,0,-0.122869,0.036347,-0.359493\H,0,1.005929,-1.628
 111,0.391319\H,0,0.945925,-1.47602,-1.348059\O,0,-0.073392,1.202368,-0

 Normal termination of Gaussian 16 at Tue Apr  8 23:39:56 2025.
