 Gaussian 16, Revision C.01,

 ----------------------------------------------------------------------
 #t hf aug-cc-pvdz symm=none int=(grid=ultrafine) guess=(read,tcheck) s
 table=(opt,rrhf)
 ----------------------------------------------------------------------
 -----
 title
 -----
 Symbolic Z-matrix:
 Charge =  0 Multiplicity = 1

 SCF Done:  E(RHF) =  -1643.78974394     A.U. after   11 cycles
 Normal termination of Gaussian 16 at Tue Apr  8 23:50:25 2025.
 Gaussian 16:  ES64L-G16RevC.01  3-Jul-2019

 ----------------------------------------------------------------------
 #t hf aug-cc-pvdz iop(5/13=1,5/36=2,99/5=2) pseudo=read geom=check gue
 ss=(read,tcheck) scf=(maxcycle=1)
 ----------------------------------------------------------------------
 -----
 title
 -----
 Structure from the checkpoint file:  "BDE49_nonexpt_1855_mol1.chk"
 Charge =  0 Multiplicity = 1

                         Standard orientation:
 ---------------------------------------------------------------------
 Center     Atomic      Atomic             Coordinates (Angstroms)
 Number     Number       Type             X           Y           Z
 ---------------------------------------------------------------------
      1          6           0        0.443849    1.312880   -0.000000
      2         14           0       -0.415287   -0.402242    0.000000
      3          9           0       -1.979481   -0.134878    0.000000
      4         17           0        0.093762   -1.420428    1.682017
      5          9           0        0.093762    2.028429    1.089848
      6          9           0        1.787851    1.194537   -0.000000
      7         17           0        0.093762   -1.420428   -1.682017
      8          9           0        0.093762    2.028429   -1.089848
 ---------------------------------------------------------------------

 SCF Done:  E(RHF) =  -1645.93289120     A.U. after    2 cycles

 The electronic state is 1-A'.
 Alpha  occ. eigenvalues --  -99.93390 -99.93388 -76.36868 -29.33000 -29.32945
 Alpha  occ. eigenvalues --  -29.32889 -29.32337 -11.57981 -10.50940 -10.50876
 Alpha  occ. eigenvalues --   -9.70755  -9.70749  -9.70184  -9.70135  -9.70078
 Alpha  occ. eigenvalues --   -9.69979  -5.71872  -2.36242  -2.33761  -2.33366
 Alpha  occ. eigenvalues --   -1.41158  -1.35544  -1.33127  -0.93602  -0.89794
 Alpha  occ. eigenvalues --   -0.89703  -0.75094  -0.68128  -0.64395  -0.59646
 Alpha  occ. eigenvalues --   -0.58226  -0.58215  -0.55839  -0.49693  -0.45278
 Alpha  occ. eigenvalues --   -0.45259  -0.41280  -0.40012  -0.39145  -0.38128
 Alpha  occ. eigenvalues --   -0.37397  -0.28067  -0.28005  -0.26233  -0.23325
 Alpha virt. eigenvalues --    0.04633   0.06023   0.06843   0.07447   0.09441
 Alpha virt. eigenvalues --    0.11645   0.11691   0.13157   0.13323   0.13549
 Alpha virt. eigenvalues --    0.14567   0.15398   0.16102   0.17088   0.17125

 Mulliken charges:
               1
     1  C   -0.994831
     2  Si   2.645698
     3  F   -0.608474
     4  Cl  -0.798689
     5  F    0.209201
     6  F    0.136584
     7  Cl  -0.798689
     8  F    0.209201
 Sum of Mulliken charges =  -0.00000

 Dipole moment (field-independent basis, Debye):
    X=             -1.9634    Y=              3.1125    Z=              0.0000  Tot=              3.6800

 Test job not archived.
 1\1\GINC-SE329\SP\RHF\Aug-CC-pVDZ\C1Cl2F4Si1\OHZDE\08-Apr-2025\0\\#t h
 f aug-cc-pvdz iop(5/13=1,5/36=2,99/5=2) pseudo=read geom=check guess=(
 read,tcheck) scf=(maxcycle=1)\\title\\0,1\C,0,-1.381007,0.,-0.11608\Si
 ,0,0.490089,0.,0.306716\F,0,0.605609,0.,1.889385\Cl,0,1.356502,1.68201
 7,-0.431635\F,0,-1.991731,1.089848,0.395377\F,0,-1.588399,0.,-1.449247
 \Cl,0,1.356502,-1.682017,-0.431635\F,0,-1.991731,-1.089848,0.395377\\V
 ersion=ES64L-G16RevC.01\State=1-A'\HF=-1645.9328912\RMSD=4.258e-02\Dip
 ole=-1.003592,0.,1.0435481\Quadrupole=0.232951,-2.3017341,2.0687831,0.

 Normal termination of Gaussian 16 at Tue Apr  8 23:50:29 2025.
