 Gaussian 16, Revision C.01,

 ----------------------------------------------------------------------
 #t hf aug-cc-pvdz symm=none int=(grid=ultrafine) guess=(read,tcheck) s
 table=opt
 ----------------------------------------------------------------------
 -----
 title
 -----
 Symbolic Z-matrix:
 Charge =  0 Multiplicity = 2

 SCF Done:  E(UHF) =  -670.202650849     A.U. after   33 cycles

 1\1\GINC-SE273\Stability\UHF\Aug-CC-pVDZ\C7H13S1\OHZDE\09-Apr-2025\0\\
 #t hf aug-cc-pvdz symm=none int=(grid=ultrafine) guess=(read,tcheck) s
 table=opt\\title\\0,2\C,0,0.23261,-1.06143,0.343023\C,0,1.6245,-1.4616
 32,-0.164897\C,0,2.674896,-0.392205,0.165701\C,0,2.251312,0.986675,-0.
 358644\C,0,0.856164,1.381733,0.148207\C,0,-1.577269,0.728533,0.348185\
 C,0,-0.202767,0.314017,-0.188805\S,0,-2.989289,-0.276209,-0.181192\H,0
 ,0.242899,-1.029048,1.44177\H,0,-0.50744,-1.815809,0.057066\H,0,1.5834
 73,-1.604996,-1.252167\H,0,1.915841,-2.425561,0.264166\H,0,3.647094,-0

 Normal termination of Gaussian 16 at Wed Apr  9 00:24:05 2025.
 Gaussian 16:  ES64L-G16RevC.01  3-Jul-2019

 ----------------------------------------------------------------------
 #t hf aug-cc-pvdz iop(5/13=1,5/36=2,99/5=2) pseudo=read geom=check gue
 ss=(read,tcheck) scf=(maxcycle=1)
 ----------------------------------------------------------------------
 -----
 title
 -----
 Structure from the checkpoint file:  "BDE49_nonexpt_2609_mol2.chk"
 Charge =  0 Multiplicity = 2

                         Standard orientation:
 ---------------------------------------------------------------------
 Center     Atomic      Atomic             Coordinates (Angstroms)
 Number     Number       Type             X           Y           Z
 ---------------------------------------------------------------------
      1          6           0        0.232610   -1.061430    0.343023
      2          6           0        1.624500   -1.461632   -0.164897
      3          6           0        2.674896   -0.392205    0.165701
      4          6           0        2.251312    0.986675   -0.358644
      5          6           0        0.856164    1.381733    0.148207
      6          6           0       -1.577269    0.728533    0.348185
      7          6           0       -0.202767    0.314017   -0.188805
      8         16           0       -2.989289   -0.276209   -0.181192
      9          1           0        0.242899   -1.029048    1.441770
     10          1           0       -0.507440   -1.815809    0.057066
     11          1           0        1.583473   -1.604996   -1.252167
     12          1           0        1.915841   -2.425561    0.264166
     13          1           0        3.647094   -0.672858   -0.251894
     14          1           0        2.806316   -0.339685    1.254329
     15          1           0        2.242872    0.968737   -1.455939
     16          1           0        2.983281    1.746343   -0.066220
     17          1           0        0.561542    2.347557   -0.277560
     18          1           0        0.892436    1.518856    1.237659
     19          1           0       -1.829785    1.749131    0.028279
     20          1           0       -1.584721    0.757056    1.444793
     21          1           0       -0.281849    0.245476   -1.281837
 ---------------------------------------------------------------------

 SCF Done:  E(UHF) =  -671.799638813     A.U. after    2 cycles

 The electronic state is 2-A.
 Alpha  occ. eigenvalues --  -75.69863 -13.12700 -13.06059 -13.03797 -11.43851
 Alpha  occ. eigenvalues --  -11.43674 -11.42144 -11.41861 -11.37771 -11.37233
 Alpha  occ. eigenvalues --  -11.34032  -8.03432  -1.34152  -1.19456  -1.10234
 Alpha  occ. eigenvalues --   -1.08617  -0.93659  -0.88400  -0.83975  -0.78248
 Alpha  occ. eigenvalues --   -0.66192  -0.63412  -0.61578  -0.60634  -0.57140
 Alpha  occ. eigenvalues --   -0.53293  -0.52398  -0.49174  -0.46945  -0.46217
 Alpha  occ. eigenvalues --   -0.44222  -0.42730  -0.38929  -0.36434  -0.28734
 Alpha  occ. eigenvalues --   -0.23726
 Alpha virt. eigenvalues --    0.04103   0.04689   0.05103   0.05287   0.05317
 Alpha virt. eigenvalues --    0.05518   0.05636   0.06134   0.06481   0.08464
 Alpha virt. eigenvalues --    0.08531   0.08751   0.09078   0.09528   0.12359

  Beta  occ. eigenvalues --  -75.68882 -13.12108 -13.03725 -12.99642 -11.43861
  Beta  occ. eigenvalues --  -11.43684 -11.42175 -11.41910 -11.37772 -11.37242
  Beta  occ. eigenvalues --  -11.34034  -8.02335  -1.33869  -1.17567  -1.10213
  Beta  occ. eigenvalues --   -1.05586  -0.90380  -0.88356  -0.82480  -0.78209
  Beta  occ. eigenvalues --   -0.66116  -0.62724  -0.61561  -0.60541  -0.56391
  Beta  occ. eigenvalues --   -0.53123  -0.52367  -0.48899  -0.46943  -0.46074
  Beta  occ. eigenvalues --   -0.44210  -0.42417  -0.38836  -0.36021  -0.22184
  Beta virt. eigenvalues --    0.03806   0.04128   0.04883   0.05119   0.05313
  Beta virt. eigenvalues --    0.05510   0.05646   0.06168   0.06446   0.06755
  Beta virt. eigenvalues --    0.08557   0.08758   0.08858   0.09222   0.09904

 Mulliken charges and spin densities:
               1          2
     1  C   -3.829896   0.032640
     2  C   -2.823222  -0.001380
     3  C   -2.604960   0.003316
     4  C   -2.807147  -0.002923
     5  C   -3.274693   0.012107
     6  C   -4.798628  -0.154963
     7  C    1.389349  -0.053058
     8  S    0.392802   1.154985
     9  H    1.395410  -0.006205
    10  H    1.393492  -0.000912
    11  H    1.370908  -0.000688
    12  H    1.268310  -0.001498
    13  H    1.336147  -0.000231
    14  H    1.382158   0.000931
    15  H    1.386523   0.000309
    16  H    1.263284  -0.000368
    17  H    1.422759   0.000042
    18  H    1.396601  -0.001356
    19  H    1.363257   0.017722
    20  H    1.469935   0.007063
    21  H    1.907612  -0.005534
 Sum of Mulliken charges =   0.00000   1.00000

 Dipole moment (field-independent basis, Debye):
    X=              0.5072    Y=              0.0384    Z=             -0.0531  Tot=              0.5114
                          Isotropic Fermi Contact Couplings
        Atom                 a.u.       MegaHertz       Gauss      10(-4) cm-1
     1  C(13)             -0.00018      -0.19715      -0.07035      -0.06576
     2  C(13)             -0.00017      -0.18765      -0.06696      -0.06259
     3  C(13)              0.00049       0.54531       0.19458       0.18189
     4  C(13)             -0.00012      -0.13674      -0.04879      -0.04561
     5  C(13)             -0.00071      -0.79416      -0.28338      -0.26490
     6  C(13)             -0.01664     -18.71000      -6.67619      -6.24098
     7  C(13)              0.00021       0.23913       0.08533       0.07976
     8  S(33)              0.25856      88.80836      31.68903      29.62328

 Normal termination of Gaussian 16 at Wed Apr  9 00:24:18 2025.
