 Gaussian 16, Revision C.01,

 ----------------------------------------------------------------------
 #t hf aug-cc-pvdz symm=none int=(grid=ultrafine) guess=(read,tcheck) s
 table=(opt,rrhf)
 ----------------------------------------------------------------------
 -----
 title
 -----
 Symbolic Z-matrix:
 Charge =  0 Multiplicity = 1

 SCF Done:  E(RHF) =  -510.510194573     A.U. after   12 cycles
 Normal termination of Gaussian 16 at Wed Apr  9 00:47:23 2025.
 Gaussian 16:  ES64L-G16RevC.01  3-Jul-2019

 ----------------------------------------------------------------------
 #t hf aug-cc-pvdz iop(5/13=1,5/36=2,99/5=2) pseudo=read geom=check gue
 ss=(read,tcheck) scf=(maxcycle=1)
 ----------------------------------------------------------------------
 -----
 title
 -----
 Structure from the checkpoint file:  "BDE49_nonexpt_806_mol1.chk"
 Charge =  0 Multiplicity = 1

                         Standard orientation:
 ---------------------------------------------------------------------
 Center     Atomic      Atomic             Coordinates (Angstroms)
 Number     Number       Type             X           Y           Z
 ---------------------------------------------------------------------
      1          5           0       -2.636659    0.000198    1.309556
      2          6           0        0.059816   -0.000104   -0.620001
      3          6           0        0.749898   -1.203302    0.060635
      4          6           0        0.749877    1.203332    0.060243
      5          6           0        2.232121    0.778381    0.202518
      6          1           0        0.315240    1.367838    1.053566
      7          1           0        0.630845    2.134063   -0.500041
      8          6           0        2.232147   -0.778313    0.202571
      9          1           0        2.684406    1.191367    1.107257
     10          1           0        2.813967    1.157463   -0.641829
     11          1           0        2.813788   -1.157419   -0.641910
     12          1           0        2.684672   -1.191241    1.107217
     13          1           0        0.630789   -2.134252   -0.499271
     14          1           0        0.315364   -1.367402    1.054073
     15         14           0       -1.831754   -0.000100   -0.539931
     16          1           0        0.341289   -0.000283   -1.682591
     17          1           0       -2.361747   -1.193276   -1.261745
     18          1           0       -2.361755    1.192858   -1.262101
     19          1           0       -1.997976    0.000503    2.317082
     20          1           0       -3.824194    0.000232    1.425750
 ---------------------------------------------------------------------

 SCF Done:  E(RHF) =  -511.803105556     A.U. after    2 cycles

 The electronic state is 1-A.
 Alpha  occ. eigenvalues --  -76.18805 -11.46277 -11.41764 -11.37702 -11.36312
 Alpha  occ. eigenvalues --  -11.33317  -7.61729  -5.52573  -2.17032  -2.15170
 Alpha  occ. eigenvalues --   -2.15022  -1.31317  -1.03583  -1.03400  -0.86780
 Alpha  occ. eigenvalues --   -0.81254  -0.81190  -0.70408  -0.66113  -0.61431
 Alpha  occ. eigenvalues --   -0.57649  -0.56784  -0.48311  -0.47574  -0.45960
 Alpha  occ. eigenvalues --   -0.45103  -0.43855  -0.43514  -0.41821  -0.37925
 Alpha  occ. eigenvalues --   -0.34679
 Alpha virt. eigenvalues --    0.02850   0.03591   0.03706   0.04147   0.05916
 Alpha virt. eigenvalues --    0.06007   0.06069   0.06076   0.06351   0.06819
 Alpha virt. eigenvalues --    0.08322   0.09061   0.09212   0.09921   0.09967

 Mulliken charges:
               1
     1  B    2.886054
     2  C   -1.812923
     3  C   -2.968805
     4  C   -2.969102
     5  C   -2.876737
     6  H    1.668156
     7  H    1.411895
     8  C   -2.877066
     9  H    1.321522
    10  H    1.351642
    11  H    1.351639
    12  H    1.321477
    13  H    1.411916
    14  H    1.668206
    15  Si   5.270729
    16  H    1.662094
    17  H   -1.814481
    18  H   -1.814407
    19  H   -1.958532
    20  H   -2.233278
 Sum of Mulliken charges =  -0.00000

 Dipole moment (field-independent basis, Debye):
    X=              1.0322    Y=             -0.0000    Z=              0.4239  Tot=              1.1158

 Test job not archived.
 1\1\GINC-SE083\SP\RHF\Aug-CC-pVDZ\C5H13B1Si1\OHZDE\09-Apr-2025\0\\#t h
 f aug-cc-pvdz iop(5/13=1,5/36=2,99/5=2) pseudo=read geom=check guess=(
 read,tcheck) scf=(maxcycle=1)\\title\\0,1\B,0,-2.636659,0.000198,1.309
 556\C,0,0.059816,-0.000104,-0.620001\C,0,0.749898,-1.203302,0.060635\C
 ,0,0.749877,1.203332,0.060243\C,0,2.232121,0.778381,0.202518\H,0,0.315
 24,1.367838,1.053566\H,0,0.630845,2.134063,-0.500041\C,0,2.232147,-0.7
 78313,0.202571\H,0,2.684406,1.191367,1.107257\H,0,2.813967,1.157463,-0
 .641829\H,0,2.813788,-1.157419,-0.64191\H,0,2.684672,-1.191241,1.10721

 Normal termination of Gaussian 16 at Wed Apr  9 00:47:34 2025.
