 Gaussian 16, Revision C.01,

 ----------------------------------------------------------------------
 #t hf aug-cc-pvdz symm=none int=(grid=ultrafine) guess=(read,tcheck) s
 table=(opt,rrhf)
 ----------------------------------------------------------------------
 -----
 title
 -----
 Symbolic Z-matrix:
 Charge =  0 Multiplicity = 1

 SCF Done:  E(RHF) =  -1242.50082999     A.U. after   14 cycles
 Normal termination of Gaussian 16 at Wed Apr  9 00:16:39 2025.
 Gaussian 16:  ES64L-G16RevC.01  3-Jul-2019

 ----------------------------------------------------------------------
 #t hf aug-cc-pvdz iop(5/13=1,5/36=2,99/5=2) pseudo=read geom=check gue
 ss=(read,tcheck) scf=(maxcycle=1)
 ----------------------------------------------------------------------
 -----
 title
 -----
 Structure from the checkpoint file:  "BDE49_nonexpt_2513_mol1.chk"
 Charge =  0 Multiplicity = 1

                         Standard orientation:
 ---------------------------------------------------------------------
 Center     Atomic      Atomic             Coordinates (Angstroms)
 Number     Number       Type             X           Y           Z
 ---------------------------------------------------------------------
      1          6           0       -1.609734    0.187796    0.124474
      2         16           0       -0.231734   -0.458607   -0.981390
      3         16           0        1.332383   -0.997824    0.325441
      4         14           0        2.683355    0.661191   -0.025070
      5          6           0       -2.718737    0.520343   -0.887165
      6          1           0       -2.402135    1.293139   -1.592071
      7          1           0       -3.595325    0.893775   -0.348774
      8          1           0       -3.023810   -0.362724   -1.454185
      9          6           0       -2.067357   -0.909364    1.089521
     10          1           0       -1.265316   -1.194449    1.773761
     11          1           0       -2.391449   -1.800972    0.548923
     12          1           0       -2.907462   -0.545694    1.691347
     13          6           0       -1.170979    1.442369    0.881541
     14          1           0       -0.859251    2.232375    0.195329
     15          1           0       -0.343286    1.225867    1.559759
     16          1           0       -2.004992    1.819457    1.483535
     17          1           0        3.890116    0.349033    0.776005
     18          1           0        2.095797    1.942085    0.420604
     19          1           0        3.030617    0.747476   -1.458291
 ---------------------------------------------------------------------

 SCF Done:  E(RHF) =  -1243.95115292     A.U. after    2 cycles

 The electronic state is 1-A.
 Alpha  occ. eigenvalues --  -76.24446 -75.69991 -75.69334 -13.15083 -13.12898
 Alpha  occ. eigenvalues --  -13.10394 -13.08100 -13.06932 -13.05222 -11.44028
 Alpha  occ. eigenvalues --  -11.39883 -11.39405 -11.36076  -8.03741  -8.03298
 Alpha  occ. eigenvalues --   -5.57688  -2.19730  -2.19684  -2.19602  -1.31243
 Alpha  occ. eigenvalues --   -1.15726  -1.02003  -1.01375  -0.97564  -0.78088
 Alpha  occ. eigenvalues --   -0.75620  -0.62754  -0.61557  -0.61351  -0.55437
 Alpha  occ. eigenvalues --   -0.54879  -0.52203  -0.49078  -0.48691  -0.45919
 Alpha  occ. eigenvalues --   -0.45757  -0.39634  -0.39215  -0.35104  -0.26247
 Alpha  occ. eigenvalues --   -0.22340
 Alpha virt. eigenvalues --    0.03245   0.03724   0.04249   0.05390   0.05907
 Alpha virt. eigenvalues --    0.05996   0.06189   0.06596   0.06937   0.08082
 Alpha virt. eigenvalues --    0.08974   0.09208   0.09526   0.10091   0.10705

 Mulliken charges:
               1
     1  C    2.310242
     2  S   -0.486880
     3  S   -1.682771
     4  Si   6.695027
     5  C   -4.178732
     6  H    1.295290
     7  H    1.222742
     8  H    1.327579
     9  C   -4.730009
    10  H    1.338614
    11  H    1.383277
    12  H    1.189944
    13  C   -4.607378
    14  H    1.446829
    15  H    1.634151
    16  H    1.139064
    17  H   -1.789430
    18  H   -1.646292
    19  H   -1.861267
 Sum of Mulliken charges =  -0.00000

 Dipole moment (field-independent basis, Debye):
    X=             -1.6843    Y=             -1.2189    Z=             -0.0881  Tot=              2.0810

 Test job not archived.
 1\1\GINC-SE080\SP\RHF\Aug-CC-pVDZ\C4H12S2Si1\OHZDE\09-Apr-2025\0\\#t h
 f aug-cc-pvdz iop(5/13=1,5/36=2,99/5=2) pseudo=read geom=check guess=(
 read,tcheck) scf=(maxcycle=1)\\title\\0,1\C,0,-1.609734,0.187796,0.124
 474\S,0,-0.231734,-0.458607,-0.98139\S,0,1.332383,-0.997824,0.325441\S
 i,0,2.683355,0.661191,-0.02507\C,0,-2.718737,0.520343,-0.887165\H,0,-2
 .402135,1.293139,-1.592071\H,0,-3.595325,0.893775,-0.348774\H,0,-3.023
 81,-0.362724,-1.454185\C,0,-2.067357,-0.909364,1.089521\H,0,-1.265316,
 -1.194449,1.773761\H,0,-2.391449,-1.800972,0.548923\H,0,-2.907462,-0.5

 Normal termination of Gaussian 16 at Wed Apr  9 00:16:48 2025.
