 Gaussian 16, Revision C.01,

 ----------------------------------------------------------------------
 #t hf aug-cc-pvdz symm=none int=(grid=ultrafine) guess=(read,tcheck) s
 table=(opt,rrhf)
 ----------------------------------------------------------------------
 -----
 title
 -----
 Symbolic Z-matrix:
 Charge =  0 Multiplicity = 1

 SCF Done:  E(RHF) =  -745.590631426     A.U. after   15 cycles
 Normal termination of Gaussian 16 at Wed Apr  9 00:08:55 2025.
 Gaussian 16:  ES64L-G16RevC.01  3-Jul-2019

 ----------------------------------------------------------------------
 #t hf aug-cc-pvdz iop(5/13=1,5/36=2,99/5=2) pseudo=read geom=check gue
 ss=(read,tcheck) scf=(maxcycle=1)
 ----------------------------------------------------------------------
 -----
 title
 -----
 Structure from the checkpoint file:  "BDE49_nonexpt_2247_mol1.chk"
 Charge =  0 Multiplicity = 1

                         Standard orientation:
 ---------------------------------------------------------------------
 Center     Atomic      Atomic             Coordinates (Angstroms)
 Number     Number       Type             X           Y           Z
 ---------------------------------------------------------------------
      1          8           0        0.649856   -0.669457   -0.227705
      2         14           0        2.023162    0.047369    0.352282
      3          6           0       -0.671767   -0.310949   -0.113259
      4          8           0        2.334525    1.513867   -0.294331
      5          6           0       -1.622650   -1.332038   -0.111920
      6          6           0       -1.073830    1.023466   -0.025209
      7          6           0       -2.430813    1.325527    0.072729
      8          6           0       -3.385811    0.312038    0.077780
      9          6           0       -2.974323   -1.016825   -0.017962
     10          1           0       -3.708678   -1.814590   -0.017577
     11          1           0       -1.286013   -2.359047   -0.185570
     12          1           0       -2.738467    2.362909    0.142196
     13          1           0       -4.439375    0.554087    0.152291
     14          1           0       -0.331515    1.812509   -0.050056
     15          1           0        2.656403    1.562101   -1.198419
     16          8           0        3.218117   -0.990742   -0.055627
     17          1           0        2.970681   -1.900338   -0.238118
     18          1           0        1.887874    0.282533    1.791653
 ---------------------------------------------------------------------

 SCF Done:  E(RHF) =  -747.768535908     A.U. after    2 cycles

 The electronic state is 1-A.
 Alpha  occ. eigenvalues --  -76.26285 -21.08454 -21.08388 -21.06922 -11.53091
 Alpha  occ. eigenvalues --  -11.46014 -11.42832 -11.40716 -11.40384 -11.36573
 Alpha  occ. eigenvalues --   -5.61027  -2.29291  -2.28022  -2.23606  -1.75480
 Alpha  occ. eigenvalues --   -1.68003  -1.64699  -1.31849  -1.09588  -1.07020
 Alpha  occ. eigenvalues --   -0.87535  -0.85185  -0.74952  -0.70726  -0.65601
 Alpha  occ. eigenvalues --   -0.62104  -0.59990  -0.58786  -0.58268  -0.56278
 Alpha  occ. eigenvalues --   -0.51979  -0.48623  -0.46831  -0.44698  -0.43653
 Alpha  occ. eigenvalues --   -0.43058  -0.41111  -0.38163  -0.35454  -0.33399
 Alpha  occ. eigenvalues --   -0.28983
 Alpha virt. eigenvalues --    0.03315   0.04964   0.05195   0.05507   0.06188
 Alpha virt. eigenvalues --    0.06663   0.06924   0.07504   0.07713   0.08309
 Alpha virt. eigenvalues --    0.09688   0.11205   0.12202   0.12654   0.13417

 Mulliken charges:
               1
     1  O   -5.765795
     2  Si   7.264635
     3  C    6.832201
     4  O   -2.736380
     5  C   -4.741509
     6  C   -3.237755
     7  C   -0.462142
     8  C   -2.687064
     9  C    0.061508
    10  H    1.485609
    11  H    1.758703
    12  H    1.517694
    13  H    1.543782
    14  H    1.927244
    15  H    1.039832
    16  O   -2.917615
    17  H    1.207418
    18  H   -2.090366
 Sum of Mulliken charges =  -0.00000

 Dipole moment (field-independent basis, Debye):
    X=              0.0299    Y=             -0.4907    Z=             -0.9810  Tot=              1.0973

 Test job not archived.
 1\1\GINC-SE094\SP\RHF\Aug-CC-pVDZ\C6H8O3Si1\OHZDE\09-Apr-2025\0\\#t hf
  aug-cc-pvdz iop(5/13=1,5/36=2,99/5=2) pseudo=read geom=check guess=(r
 ead,tcheck) scf=(maxcycle=1)\\title\\0,1\O,0,0.649856,-0.669457,-0.227
 705\Si,0,2.023162,0.047369,0.352282\C,0,-0.671767,-0.310949,-0.113259\
 O,0,2.334525,1.513867,-0.294331\C,0,-1.62265,-1.332038,-0.11192\C,0,-1
 .07383,1.023466,-0.025209\C,0,-2.430813,1.325527,0.072729\C,0,-3.38581
 1,0.312038,0.07778\C,0,-2.974323,-1.016825,-0.017962\H,0,-3.708678,-1.
 81459,-0.017577\H,0,-1.286013,-2.359047,-0.18557\H,0,-2.738467,2.36290

 Normal termination of Gaussian 16 at Wed Apr  9 00:09:04 2025.
