 Gaussian 16, Revision C.01,

 ----------------------------------------------------------------------
 #t hf aug-cc-pvdz symm=none int=(grid=ultrafine) guess=(read,tcheck) s
 table=(opt,rrhf)
 ----------------------------------------------------------------------
 -----
 title
 -----
 Symbolic Z-matrix:
 Charge =  0 Multiplicity = 1

 SCF Done:  E(RHF) =  -743.087710503     A.U. after   15 cycles
 Normal termination of Gaussian 16 at Wed Apr  9 00:23:53 2025.
 Gaussian 16:  ES64L-G16RevC.01  3-Jul-2019

 ----------------------------------------------------------------------
 #t hf aug-cc-pvdz iop(5/13=1,5/36=2,99/5=2) pseudo=read geom=check gue
 ss=(read,tcheck) scf=(maxcycle=1)
 ----------------------------------------------------------------------
 -----
 title
 -----
 Structure from the checkpoint file:  "BDE49_nonexpt_2690_mol1.chk"
 Charge =  0 Multiplicity = 1

                         Standard orientation:
 ---------------------------------------------------------------------
 Center     Atomic      Atomic             Coordinates (Angstroms)
 Number     Number       Type             X           Y           Z
 ---------------------------------------------------------------------
      1          9           0       -2.516209    0.886034    0.000012
      2         16           0       -1.849283   -0.634772   -0.000009
      3          6           0       -0.141057   -0.218516   -0.000003
      4          6           0        0.325504    1.095403    0.000015
      5          6           0        0.786805   -1.265731   -0.000017
      6          6           0        2.137746   -0.939261   -0.000013
      7          6           0        1.703585    1.294076    0.000018
      8          7           0        2.609064    0.312106    0.000004
      9          1           0       -0.359373    1.931383    0.000026
     10          1           0        2.096820    2.306963    0.000032
     11          1           0        0.477340   -2.304977   -0.000032
     12          1           0        2.880660   -1.731895   -0.000024
 ---------------------------------------------------------------------

 SCF Done:  E(RHF) =  -744.792252031     A.U. after    2 cycles

 The electronic state is 1-A.
 Alpha  occ. eigenvalues --  -75.78454 -29.29276 -15.74688 -13.25555 -13.22808
 Alpha  occ. eigenvalues --  -13.09123 -11.49924 -11.46458 -11.46332 -11.43379
 Alpha  occ. eigenvalues --  -11.39963  -8.12532  -1.46669  -1.29413  -1.14434
 Alpha  occ. eigenvalues --   -1.12952  -0.91444  -0.89170  -0.74264  -0.68949
 Alpha  occ. eigenvalues --   -0.65398  -0.61730  -0.60319  -0.56560  -0.50774
 Alpha  occ. eigenvalues --   -0.49312  -0.46250  -0.37763  -0.37366  -0.35697
 Alpha  occ. eigenvalues --   -0.34997  -0.30538  -0.19121
 Alpha virt. eigenvalues --    0.02962   0.04736   0.05533   0.06825   0.07081
 Alpha virt. eigenvalues --    0.08430   0.09334   0.10519   0.11297   0.11773
 Alpha virt. eigenvalues --    0.12323   0.13025   0.13848   0.14094   0.14390

 Mulliken charges:
               1
     1  F   -0.302109
     2  S    0.998838
     3  C    2.733232
     4  C   -2.165111
     5  C   -2.155775
     6  C   -0.961036
     7  C   -0.881599
     8  N   -3.493923
     9  H    1.568058
    10  H    1.544771
    11  H    1.580856
    12  H    1.533798
 Sum of Mulliken charges =   0.00000

 Dipole moment (field-independent basis, Debye):
    X=             -3.8337    Y=              1.1623    Z=              0.0000  Tot=              4.0060

 Test job not archived.
 1\1\GINC-SE460\SP\RHF\Aug-CC-pVDZ\C5H4F1N1S1\OHZDE\09-Apr-2025\0\\#t h
 f aug-cc-pvdz iop(5/13=1,5/36=2,99/5=2) pseudo=read geom=check guess=(
 read,tcheck) scf=(maxcycle=1)\\title\\0,1\F,0,-2.516209,0.886034,0.000
 012\S,0,-1.849283,-0.634772,-0.000009\C,0,-0.141057,-0.218516,-0.00000
 3\C,0,0.325504,1.095403,0.000015\C,0,0.786805,-1.265731,-0.000017\C,0,
 2.137746,-0.939261,-0.000013\C,0,1.703585,1.294076,0.000018\N,0,2.6090
 64,0.312106,0.000004\H,0,-0.359373,1.931383,0.000026\H,0,2.09682,2.306
 963,0.000032\H,0,0.47734,-2.304977,-0.000032\H,0,2.88066,-1.731895,-0.

 Normal termination of Gaussian 16 at Wed Apr  9 00:23:59 2025.
