 Gaussian 16, Revision C.01,

 ----------------------------------------------------------------------
 #t hf aug-cc-pvdz symm=none int=(grid=ultrafine) guess=(read,tcheck) s
 table=(opt,rrhf)
 ----------------------------------------------------------------------
 -----
 title
 -----
 Symbolic Z-matrix:
 Charge =  0 Multiplicity = 1

 SCF Done:  E(RHF) =  -190.882434977     A.U. after   13 cycles
 Normal termination of Gaussian 16 at Tue Apr  8 23:35:09 2025.
 Gaussian 16:  ES64L-G16RevC.01  3-Jul-2019

 ----------------------------------------------------------------------
 #t hf aug-cc-pvdz iop(5/13=1,5/36=2,99/5=2) pseudo=read geom=check gue
 ss=(read,tcheck) scf=(maxcycle=1)
 ----------------------------------------------------------------------
 -----
 title
 -----
 Structure from the checkpoint file:  "BDE49_nonexpt_147_mol1.chk"
 Charge =  0 Multiplicity = 1

                         Standard orientation:
 ---------------------------------------------------------------------
 Center     Atomic      Atomic             Coordinates (Angstroms)
 Number     Number       Type             X           Y           Z
 ---------------------------------------------------------------------
      1          5           0       -2.421813    0.135383   -0.348931
      2          5           0       -1.134857   -0.009494    0.621872
      3          5           0        0.475711   -0.115094    0.118439
      4          8           0        0.990748   -1.357332   -0.115360
      5          6           0        1.341996    1.193893   -0.086386
      6          1           0        1.919834   -1.342181   -0.372691
      7          1           0        1.151430    1.956135    0.675289
      8          1           0        1.076450    1.653268   -1.047691
      9          1           0        2.422084    1.000405   -0.105326
     10          1           0       -1.303190    0.000886    1.812861
     11          1           0       -3.026674   -0.823345   -0.734264
     12          1           0       -2.813103    1.196159   -0.743889
 ---------------------------------------------------------------------

 SCF Done:  E(RHF) =  -191.742920461     A.U. after    2 cycles

 The electronic state is 1-A.
 Alpha  occ. eigenvalues --  -21.05961 -11.33851  -7.59678  -7.58484  -7.56068
 Alpha  occ. eigenvalues --   -1.73542  -1.06915  -0.93707  -0.76363  -0.65026
 Alpha  occ. eigenvalues --   -0.57964  -0.56428  -0.55202  -0.47274  -0.44007
 Alpha  occ. eigenvalues --   -0.40959  -0.38321  -0.33364
 Alpha virt. eigenvalues --    0.01540   0.01885   0.02027   0.03823   0.06776
 Alpha virt. eigenvalues --    0.07553   0.07679   0.08196   0.08302   0.08993
 Alpha virt. eigenvalues --    0.09409   0.10088   0.10339   0.11050   0.11511

 Mulliken charges:
               1
     1  B    4.857665
     2  B   -0.693215
     3  B    7.354143
     4  O   -3.951494
     5  C   -5.864427
     6  H    1.322346
     7  H    1.302630
     8  H    1.147806
     9  H    1.182971
    10  H   -1.718299
    11  H   -2.498757
    12  H   -2.441369
 Sum of Mulliken charges =  -0.00000

 Dipole moment (field-independent basis, Debye):
    X=              1.2593    Y=              0.2035    Z=             -0.1909  Tot=              1.2899

 Test job not archived.
 1\1\GINC-SE334\SP\RHF\Aug-CC-pVDZ\C1H7B3O1\OHZDE\08-Apr-2025\0\\#t hf
 aug-cc-pvdz iop(5/13=1,5/36=2,99/5=2) pseudo=read geom=check guess=(re
 ad,tcheck) scf=(maxcycle=1)\\title\\0,1\B,0,-2.421813,0.135383,-0.3489
 31\B,0,-1.134857,-0.009494,0.621872\B,0,0.475711,-0.115094,0.118439\O,
 0,0.990748,-1.357332,-0.11536\C,0,1.341996,1.193893,-0.086386\H,0,1.91
 9834,-1.342181,-0.372691\H,0,1.15143,1.956135,0.675289\H,0,1.07645,1.6
 53268,-1.047691\H,0,2.422084,1.000405,-0.105326\H,0,-1.30319,0.000886,
 1.812861\H,0,-3.026674,-0.823345,-0.734264\H,0,-2.813103,1.196159,-0.7

 Normal termination of Gaussian 16 at Tue Apr  8 23:35:12 2025.
