 Gaussian 16, Revision C.01,

 ----------------------------------------------------------------------
 #t hf aug-cc-pvdz symm=none int=(grid=ultrafine) guess=(read,tcheck) s
 table=(opt,rrhf)
 ----------------------------------------------------------------------
 -----
 title
 -----
 Symbolic Z-matrix:
 Charge =  0 Multiplicity = 1

 SCF Done:  E(RHF) =  -881.041303998     A.U. after   12 cycles

 1\1\GINC-SE080\Stability\RHF\Aug-CC-pVDZ\H6O4Si2\OHZDE\09-Apr-2025\0\\
 #t hf aug-cc-pvdz symm=none int=(grid=ultrafine) guess=(read,tcheck) s
 table=(opt,rrhf)\\title\\0,1\Si,0,-1.170236,0.102926,0.42723\Si,0,1.17
 0237,-0.102927,0.427228\O,0,1.838689,1.282281,-0.173622\H,0,1.262708,1
 .796091,-0.749871\O,0,-1.838689,-1.28228,-0.173621\H,0,-1.262709,-1.79
 6091,-0.749871\O,0,1.325171,-1.411265,-0.58868\H,0,1.904068,-0.353991,
 1.686252\H,0,2.202757,-1.728746,-0.81919\O,0,-1.325172,1.411266,-0.588
 677\H,0,-1.904065,0.35399,1.686255\H,0,-2.202759,1.728747,-0.819185\\V

 Normal termination of Gaussian 16 at Wed Apr  9 00:09:39 2025.
 Gaussian 16:  ES64L-G16RevC.01  3-Jul-2019

 ----------------------------------------------------------------------
 #t hf aug-cc-pvdz iop(5/13=1,5/36=2,99/5=2) pseudo=read geom=check gue
 ss=(read,tcheck) scf=(maxcycle=1)
 ----------------------------------------------------------------------
 -----
 title
 -----
 Structure from the checkpoint file:  "BDE49_nonexpt_2331_mol1.chk"
 Charge =  0 Multiplicity = 1

                         Standard orientation:
 ---------------------------------------------------------------------
 Center     Atomic      Atomic             Coordinates (Angstroms)
 Number     Number       Type             X           Y           Z
 ---------------------------------------------------------------------
      1         14           0       -1.170236    0.102926    0.427230
      2         14           0        1.170237   -0.102927    0.427228
      3          8           0        1.838689    1.282281   -0.173622
      4          1           0        1.262708    1.796091   -0.749871
      5          8           0       -1.838689   -1.282280   -0.173621
      6          1           0       -1.262709   -1.796091   -0.749871
      7          8           0        1.325171   -1.411265   -0.588680
      8          1           0        1.904068   -0.353991    1.686252
      9          1           0        2.202757   -1.728746   -0.819190
     10          8           0       -1.325172    1.411266   -0.588677
     11          1           0       -1.904065    0.353990    1.686255
     12          1           0       -2.202759    1.728747   -0.819185
 ---------------------------------------------------------------------

 SCF Done:  E(RHF) =  -882.595144339     A.U. after    2 cycles

 The electronic state is 1-A.
 Alpha  occ. eigenvalues --  -76.24509 -76.24496 -21.08157 -21.08151 -21.07338
 Alpha  occ. eigenvalues --  -21.07333  -5.58606  -5.58605  -2.26391  -2.26341
 Alpha  occ. eigenvalues --   -2.22077  -2.22044  -2.19799  -2.19102  -1.68548
 Alpha  occ. eigenvalues --   -1.68047  -1.64124  -1.63585  -0.77302  -0.71080
 Alpha  occ. eigenvalues --   -0.63019  -0.60826  -0.54233  -0.54233  -0.47659
 Alpha  occ. eigenvalues --   -0.47193  -0.45540  -0.42707  -0.39447  -0.38663
 Alpha  occ. eigenvalues --   -0.36314  -0.35479  -0.31682
 Alpha virt. eigenvalues --    0.03851   0.04785   0.06096   0.06293   0.06897
 Alpha virt. eigenvalues --    0.07428   0.07628   0.08080   0.08784   0.09429
 Alpha virt. eigenvalues --    0.09562   0.11026   0.13084   0.14153   0.15091

 Mulliken charges:
               1
     1  Si   5.254559
     2  Si   5.254558
     3  O   -3.063726
     4  H    1.240686
     5  O   -3.063729
     6  H    1.240686
     7  O   -2.494244
     8  H   -2.006859
     9  H    1.069586
    10  O   -2.494242
    11  H   -2.006860
    12  H    1.069585
 Sum of Mulliken charges =  -0.00000

 Dipole moment (field-independent basis, Debye):
    X=              0.0000    Y=             -0.0000    Z=             -1.4723  Tot=              1.4723

 Test job not archived.
 1\1\GINC-SE080\SP\RHF\Aug-CC-pVDZ\H6O4Si2\OHZDE\09-Apr-2025\0\\#t hf a
 ug-cc-pvdz iop(5/13=1,5/36=2,99/5=2) pseudo=read geom=check guess=(rea
 d,tcheck) scf=(maxcycle=1)\\title\\0,1\Si,0,-1.170236,0.102926,0.42723
 \Si,0,1.170237,-0.102927,0.427228\O,0,1.838689,1.282281,-0.173622\H,0,
 1.262708,1.796091,-0.749871\O,0,-1.838689,-1.28228,-0.173621\H,0,-1.26
 2709,-1.796091,-0.749871\O,0,1.325171,-1.411265,-0.58868\H,0,1.904068,
 -0.353991,1.686252\H,0,2.202757,-1.728746,-0.81919\O,0,-1.325172,1.411
 266,-0.588677\H,0,-1.904065,0.35399,1.686255\H,0,-2.202759,1.728747,-0

 Normal termination of Gaussian 16 at Wed Apr  9 00:09:43 2025.
