 Gaussian 16, Revision C.01,

 ----------------------------------------------------------------------
 #t hf aug-cc-pvdz symm=none int=(grid=ultrafine) guess=(read,tcheck) s
 table=(opt,rrhf)
 ----------------------------------------------------------------------
 -----
 title
 -----
 Symbolic Z-matrix:
 Charge =  0 Multiplicity = 1

 SCF Done:  E(RHF) =  -421.875416214     A.U. after   14 cycles
 Normal termination of Gaussian 16 at Wed Apr  9 00:40:32 2025.
 Gaussian 16:  ES64L-G16RevC.01  3-Jul-2019

 ----------------------------------------------------------------------
 #t hf aug-cc-pvdz iop(5/13=1,5/36=2,99/5=2) pseudo=read geom=check gue
 ss=(read,tcheck) scf=(maxcycle=1)
 ----------------------------------------------------------------------
 -----
 title
 -----
 Structure from the checkpoint file:  "BDE49_nonexpt_624_mol1.chk"
 Charge =  0 Multiplicity = 1

                         Standard orientation:
 ---------------------------------------------------------------------
 Center     Atomic      Atomic             Coordinates (Angstroms)
 Number     Number       Type             X           Y           Z
 ---------------------------------------------------------------------
      1          1           0        3.665602   -0.198026    0.016843
      2          8           0       -2.516238    1.124039    0.103296
      3          1           0       -2.030677    1.943217    0.223798
      4          8           0       -2.358912   -1.200322   -0.113675
      5          1           0       -3.317480   -1.110754   -0.089069
      6          5           0       -1.731222    0.004948   -0.004025
      7          7           0        1.897644   -1.255062    0.065751
      8          6           0        2.582429   -0.108413    0.009251
      9          6           0        1.979898    1.145718   -0.058646
     10          1           0        2.585970    2.042735   -0.107427
     11          6           0        0.591503    1.207908   -0.064333
     12          1           0        0.107843    2.179891   -0.126690
     13          6           0       -0.163231    0.029769   -0.004343
     14          6           0        0.564899   -1.170357    0.055781
     15          1           0        0.029548   -2.113855    0.099183
 ---------------------------------------------------------------------

 SCF Done:  E(RHF) =  -423.742807324     A.U. after    2 cycles

 The electronic state is 1-A.
 Alpha  occ. eigenvalues --  -21.06904 -21.05689 -15.73870 -11.48794 -11.45289
 Alpha  occ. eigenvalues --  -11.44459 -11.41440 -11.37401  -7.66526  -1.82597
 Alpha  occ. eigenvalues --   -1.66099  -1.44594  -1.19449  -1.11959  -0.90858
 Alpha  occ. eigenvalues --   -0.89400  -0.77332  -0.73227  -0.65884  -0.63952
 Alpha  occ. eigenvalues --   -0.60484  -0.57042  -0.55577  -0.54731  -0.50237
 Alpha  occ. eigenvalues --   -0.48760  -0.42667  -0.40568  -0.37284  -0.36964
 Alpha  occ. eigenvalues --   -0.34187  -0.33917
 Alpha virt. eigenvalues --    0.02756   0.04486   0.04715   0.05587   0.05659
 Alpha virt. eigenvalues --    0.06389   0.07631   0.08281   0.08843   0.09503
 Alpha virt. eigenvalues --    0.10147   0.10986   0.12519   0.12737   0.13171

 Mulliken charges:
               1
     1  H    1.531520
     2  O   -4.627605
     3  H    1.463783
     4  O   -4.280988
     5  H    1.085318
     6  B    5.187313
     7  N   -3.425763
     8  C   -1.474502
     9  C   -0.972411
    10  H    1.401736
    11  C    1.222316
    12  H    1.789008
    13  C   -0.032467
    14  C   -0.705113
    15  H    1.837856
 Sum of Mulliken charges =  -0.00000

 Dipole moment (field-independent basis, Debye):
    X=             -0.5279    Y=              2.2832    Z=              0.0252  Tot=              2.3436

 Test job not archived.
 1\1\GINC-SE419\SP\RHF\Aug-CC-pVDZ\C5H6B1N1O2\OHZDE\09-Apr-2025\0\\#t h
 f aug-cc-pvdz iop(5/13=1,5/36=2,99/5=2) pseudo=read geom=check guess=(
 read,tcheck) scf=(maxcycle=1)\\title\\0,1\H,0,3.665602,-0.198027,0.016
 843\O,0,-2.516238,1.124039,0.103296\H,0,-2.030677,1.943217,0.223798\O,
 0,-2.358912,-1.200322,-0.113675\H,0,-3.31748,-1.110753,-0.089069\B,0,-
 1.731222,0.004948,-0.004025\N,0,1.897644,-1.255062,0.065751\C,0,2.5824
 29,-0.108413,0.009251\C,0,1.979898,1.145718,-0.058646\H,0,2.58597,2.04
 2735,-0.107427\C,0,0.591503,1.207908,-0.064333\H,0,0.107843,2.179891,-

 Normal termination of Gaussian 16 at Wed Apr  9 00:40:38 2025.
