 Gaussian 16, Revision C.01,

 ----------------------------------------------------------------------
 #t hf aug-cc-pvdz symm=none int=(grid=ultrafine) guess=(read,tcheck) s
 table=(opt,rrhf)
 ----------------------------------------------------------------------
 -----
 title
 -----
 Symbolic Z-matrix:
 Charge =  0 Multiplicity = 1

 SCF Done:  E(RHF) =  -433.613711352     A.U. after   12 cycles
 Normal termination of Gaussian 16 at Wed Apr  9 00:45:44 2025.
 Gaussian 16:  ES64L-G16RevC.01  3-Jul-2019

 ----------------------------------------------------------------------
 #t hf aug-cc-pvdz iop(5/13=1,5/36=2,99/5=2) pseudo=read geom=check gue
 ss=(read,tcheck) scf=(maxcycle=1)
 ----------------------------------------------------------------------
 -----
 title
 -----
 Structure from the checkpoint file:  "BDE49_nonexpt_777_mol1.chk"
 Charge =  0 Multiplicity = 1

                         Standard orientation:
 ---------------------------------------------------------------------
 Center     Atomic      Atomic             Coordinates (Angstroms)
 Number     Number       Type             X           Y           Z
 ---------------------------------------------------------------------
      1          5           0       -0.721939    2.004001   -0.248018
      2         14           0       -0.491232    0.075101    0.294318
      3          6           0        1.097354   -0.738437   -0.347974
      4          6           0        2.399589   -0.044268    0.085361
      5          1           0        1.044515   -0.783226   -1.442895
      6          1           0        1.100527   -1.781824   -0.010026
      7          1           0        2.437965    0.991941   -0.262237
      8          1           0        3.279946   -0.556340   -0.314702
      9          6           0       -1.991602   -0.993279   -0.132388
     10          1           0       -2.907042   -0.563362    0.282978
     11          1           0       -1.881559   -2.004957    0.268483
     12          1           0       -2.124812   -1.077137   -1.215147
     13          1           0        2.497584   -0.026491    1.174728
     14          1           0        0.195336    2.705882   -0.549939
     15          1           0       -1.799640    2.518787   -0.228422
     16          1           0       -0.387924    0.161215    1.786831
 ---------------------------------------------------------------------

 SCF Done:  E(RHF) =  -434.529355892     A.U. after    2 cycles

 The electronic state is 1-A.
 Alpha  occ. eigenvalues --  -76.18089 -11.38959 -11.34304 -11.33944  -7.61173
 Alpha  occ. eigenvalues --   -5.52045  -2.16124  -2.15325  -2.14042  -1.14574
 Alpha  occ. eigenvalues --   -1.02926  -0.88546  -0.84268  -0.66460  -0.60339
 Alpha  occ. eigenvalues --   -0.56181  -0.55283  -0.55097  -0.49135  -0.48247
 Alpha  occ. eigenvalues --   -0.47951  -0.42392  -0.37171  -0.34302
 Alpha virt. eigenvalues --    0.02233   0.03568   0.03950   0.04140   0.06127
 Alpha virt. eigenvalues --    0.06389   0.06807   0.07155   0.07509   0.08281
 Alpha virt. eigenvalues --    0.08701   0.08943   0.09121   0.10366   0.10611

 Mulliken charges:
               1
     1  B    3.020206
     2  Si   6.229119
     3  C   -3.783157
     4  C   -3.846485
     5  H    1.471017
     6  H    1.320504
     7  H    1.359368
     8  H    1.112118
     9  C   -5.146519
    10  H    1.316300
    11  H    1.301935
    12  H    1.352041
    13  H    1.300397
    14  H   -2.244259
    15  H   -2.405378
    16  H   -2.357207
 Sum of Mulliken charges =  -0.00000

 Dipole moment (field-independent basis, Debye):
    X=              0.0124    Y=             -0.5173    Z=             -0.7725  Tot=              0.9298

 Test job not archived.
 1\1\GINC-SE044\SP\RHF\Aug-CC-pVDZ\C3H11B1Si1\OHZDE\09-Apr-2025\0\\#t h
 f aug-cc-pvdz iop(5/13=1,5/36=2,99/5=2) pseudo=read geom=check guess=(
 read,tcheck) scf=(maxcycle=1)\\title\\0,1\B,0,-0.721939,2.004001,-0.24
 8018\Si,0,-0.491232,0.075101,0.294318\C,0,1.097354,-0.738437,-0.347974
 \C,0,2.399589,-0.044268,0.085361\H,0,1.044515,-0.783226,-1.442895\H,0,
 1.100527,-1.781824,-0.010026\H,0,2.437965,0.991941,-0.262237\H,0,3.279
 946,-0.55634,-0.314702\C,0,-1.991602,-0.993279,-0.132388\H,0,-2.907042
 ,-0.563362,0.282978\H,0,-1.881559,-2.004957,0.268483\H,0,-2.124812,-1.

 Normal termination of Gaussian 16 at Wed Apr  9 00:45:49 2025.
