 Gaussian 16, Revision C.01,

 ----------------------------------------------------------------------
 #t hf aug-cc-pvdz symm=none int=(grid=ultrafine) guess=(read,tcheck) s
 table=(opt,rrhf)
 ----------------------------------------------------------------------
 -----
 title
 -----
 Symbolic Z-matrix:
 Charge =  0 Multiplicity = 1

 SCF Done:  E(RHF) =  -979.652604910     A.U. after   16 cycles
 Normal termination of Gaussian 16 at Tue Apr  8 22:55:42 2025.
 Gaussian 16:  ES64L-G16RevC.01  3-Jul-2019

 ----------------------------------------------------------------------
 #t hf aug-cc-pvdz iop(5/13=1,5/36=2,99/5=2) pseudo=read geom=check gue
 ss=(read,tcheck) scf=(maxcycle=1)
 ----------------------------------------------------------------------
 -----
 title
 -----
 Structure from the checkpoint file:  "BDE49_expt_1832_mol1.chk"
 Charge =  0 Multiplicity = 1

                         Standard orientation:
 ---------------------------------------------------------------------
 Center     Atomic      Atomic             Coordinates (Angstroms)
 Number     Number       Type             X           Y           Z
 ---------------------------------------------------------------------
      1         16           0        2.448775    0.390531   -0.000041
      2          6           0        1.125499   -0.441158    0.000098
      3          7           0        0.145079   -1.155099    0.000043
      4         16           0       -1.526777   -0.883568   -0.000046
      5          6           0       -1.663696    0.811825    0.000013
      6          7           0       -1.791191    1.964326    0.000061
 ---------------------------------------------------------------------

 SCF Done:  E(RHF) =  -980.894601650     A.U. after    2 cycles

 The electronic state is 1-A.
 Alpha  occ. eigenvalues --  -75.81690 -75.73242 -15.82396 -15.80332 -13.29339
 Alpha  occ. eigenvalues --  -13.25592 -13.24055 -13.13138 -13.04549 -13.04454
 Alpha  occ. eigenvalues --  -11.56237 -11.46583  -8.15598  -8.07535  -1.48795
 Alpha  occ. eigenvalues --   -1.33890  -1.22808  -1.13592  -0.81534  -0.62902
 Alpha  occ. eigenvalues --   -0.61135  -0.60207  -0.56644  -0.51706  -0.50467
 Alpha  occ. eigenvalues --   -0.47346  -0.34620  -0.32577  -0.24545
 Alpha virt. eigenvalues --    0.02062   0.04492   0.06467   0.07618   0.08225
 Alpha virt. eigenvalues --    0.09433   0.10359   0.10440   0.12351   0.13025
 Alpha virt. eigenvalues --    0.13097   0.14152   0.15246   0.16369   0.17433

 Mulliken charges:
               1
     1  S    1.808179
     2  C    0.158180
     3  N   -2.854361
     4  S    2.157591
     5  C    0.743720
     6  N   -2.013310
 Sum of Mulliken charges =  -0.00000

 Dipole moment (field-independent basis, Debye):
    X=              2.4979    Y=             -1.4594    Z=             -0.0006  Tot=              2.8930

 Test job not archived.
 1\1\GINC-SE339\SP\RHF\Aug-CC-pVDZ\C2N2S2\OHZDE\08-Apr-2025\0\\#t hf au
 g-cc-pvdz iop(5/13=1,5/36=2,99/5=2) pseudo=read geom=check guess=(read
 ,tcheck) scf=(maxcycle=1)\\title\\0,1\S,0,2.448775,0.390531,-0.000041\
 C,0,1.125499,-0.441158,0.000098\N,0,0.145079,-1.155099,0.000043\S,0,-1
 .526777,-0.883568,-0.000046\C,0,-1.663696,0.811825,0.000013\N,0,-1.791
 191,1.964326,0.000061\\Version=ES64L-G16RevC.01\State=1-A\HF=-980.8946
 017\RMSD=1.358e-01\Dipole=0.9827425,-0.5741721,-0.0002469\Quadrupole=9
 .3212271,-4.5058999,-4.8153272,9.0010996,-0.0004757,-0.0001212\PG=C01

 Normal termination of Gaussian 16 at Tue Apr  8 22:55:45 2025.
