 Gaussian 16, Revision C.01,

 ----------------------------------------------------------------------
 #t hf aug-cc-pvdz symm=none int=(grid=ultrafine) guess=(read,tcheck) s
 table=(opt,rrhf)
 ----------------------------------------------------------------------
 -----
 title
 -----
 Symbolic Z-matrix:
 Charge =  0 Multiplicity = 1

 SCF Done:  E(RHF) =  -1394.35951354     A.U. after   13 cycles
 Normal termination of Gaussian 16 at Tue Apr  8 23:42:08 2025.
 Gaussian 16:  ES64L-G16RevC.01  3-Jul-2019

 ----------------------------------------------------------------------
 #t hf aug-cc-pvdz iop(5/13=1,5/36=2,99/5=2) pseudo=read geom=check gue
 ss=(read,tcheck) scf=(maxcycle=1)
 ----------------------------------------------------------------------
 -----
 title
 -----
 Structure from the checkpoint file:  "BDE49_nonexpt_1637_mol1.chk"
 Charge =  0 Multiplicity = 1

                         Standard orientation:
 ---------------------------------------------------------------------
 Center     Atomic      Atomic             Coordinates (Angstroms)
 Number     Number       Type             X           Y           Z
 ---------------------------------------------------------------------
      1         14           0       -0.878984    0.424324    0.001681
      2         15           0        1.327706   -0.131222    0.142949
      3          8           0        1.791777   -0.665899    1.435410
      4          6           0       -1.254529    1.308057   -1.595888
      5          1           0       -0.962038    0.700046   -2.454381
      6          1           0       -0.706317    2.253103   -1.640951
      7          6           0       -1.365822    1.360979    1.536175
      8         17           0       -1.869445   -1.423281   -0.010927
      9          1           0       -0.843897    2.321918    1.571606
     10          1           0       -1.103446    0.794849    2.432153
     11          1           0       -2.442659    1.550479    1.544115
     12          1           0       -2.324998    1.519226   -1.670150
     13          8           0        1.667986   -1.102458   -1.113291
     14          1           0        1.668787   -2.029901   -0.844112
     15          8           0        1.996200    1.248080   -0.358137
     16          1           0        2.959717    1.261838   -0.273883
 ---------------------------------------------------------------------

 SCF Done:  E(RHF) =  -1396.31032674     A.U. after    2 cycles

 The electronic state is 1-A.
 Alpha  occ. eigenvalues -- -105.29568 -99.88645 -76.26486 -21.11752 -21.11141
 Alpha  occ. eigenvalues --  -21.01963 -11.37174 -11.36997 -10.46001  -9.65960
 Alpha  occ. eigenvalues --   -9.65428  -9.65409  -5.60504  -2.91418  -2.24017
 Alpha  occ. eigenvalues --   -2.23044  -2.22053  -1.96243  -1.88064  -1.78764
 Alpha  occ. eigenvalues --   -1.49933  -1.39786  -1.29080  -1.25438  -1.07948
 Alpha  occ. eigenvalues --   -1.03461  -0.73459  -0.67536  -0.60678  -0.59113
 Alpha  occ. eigenvalues --   -0.58818  -0.58075  -0.57382  -0.54762  -0.53140
 Alpha  occ. eigenvalues --   -0.52881  -0.50442  -0.44643  -0.42325  -0.41049
 Alpha  occ. eigenvalues --   -0.34033  -0.33886  -0.29480  -0.21866  -0.13689
 Alpha virt. eigenvalues --    0.03138   0.04941   0.05451   0.05924   0.06153
 Alpha virt. eigenvalues --    0.06843   0.07293   0.07372   0.08022   0.09498
 Alpha virt. eigenvalues --    0.10003   0.10961   0.11864   0.12523   0.13186

 Mulliken charges:
               1
     1  Si   3.769157
     2  P    7.448807
     3  O   -3.029840
     4  C   -5.423067
     5  H    1.235316
     6  H    1.401786
     7  C   -5.264158
     8  Cl  -1.041016
     9  H    1.358156
    10  H    1.198448
    11  H    1.192520
    12  H    1.222708
    13  O   -2.812493
    14  H    0.752268
    15  O   -2.866097
    16  H    0.857505
 Sum of Mulliken charges =  -0.00000

 Dipole moment (field-independent basis, Debye):
    X=              1.4349    Y=              2.6881    Z=             -2.4415  Tot=              3.9046

 Test job not archived.
 1\1\GINC-SE186\SP\RHF\Aug-CC-pVDZ\C2H8Cl1O3P1Si1\OHZDE\08-Apr-2025\0\\
 #t hf aug-cc-pvdz iop(5/13=1,5/36=2,99/5=2) pseudo=read geom=check gue
 ss=(read,tcheck) scf=(maxcycle=1)\\title\\0,1\Si,0,-0.878984,0.424324,
 0.001681\P,0,1.327706,-0.131222,0.142949\O,0,1.791777,-0.665899,1.4354
 1\C,0,-1.254529,1.308057,-1.595888\H,0,-0.962038,0.700046,-2.454381\H,
 0,-0.706316,2.253103,-1.640951\C,0,-1.365822,1.36098,1.536175\Cl,0,-1.
 869445,-1.42328,-0.010927\H,0,-0.843896,2.321918,1.571606\H,0,-1.10344
 6,0.794849,2.432153\H,0,-2.442659,1.55048,1.544115\H,0,-2.324998,1.519

 Normal termination of Gaussian 16 at Tue Apr  8 23:42:17 2025.
