 Gaussian 16, Revision C.01,

 ----------------------------------------------------------------------
 #t hf aug-cc-pvdz symm=none int=(grid=ultrafine) guess=(read,tcheck) s
 table=(opt,rrhf)
 ----------------------------------------------------------------------
 -----
 title
 -----
 Symbolic Z-matrix:
 Charge =  0 Multiplicity = 1

 SCF Done:  E(RHF) =  -1265.74556162     A.U. after   15 cycles
 Normal termination of Gaussian 16 at Wed Apr  9 00:10:45 2025.
 Gaussian 16:  ES64L-G16RevC.01  3-Jul-2019

 ----------------------------------------------------------------------
 #t hf aug-cc-pvdz iop(5/13=1,5/36=2,99/5=2) pseudo=read geom=check gue
 ss=(read,tcheck) scf=(maxcycle=1)
 ----------------------------------------------------------------------
 -----
 title
 -----
 Structure from the checkpoint file:  "BDE49_nonexpt_2348_mol1.chk"
 Charge =  0 Multiplicity = 1

                         Standard orientation:
 ---------------------------------------------------------------------
 Center     Atomic      Atomic             Coordinates (Angstroms)
 Number     Number       Type             X           Y           Z
 ---------------------------------------------------------------------
      1         14           0       -0.072454    1.327519   -0.659093
      2         14           0        1.779276    0.629554    0.621559
      3          6           0       -1.443749   -0.017485   -0.568474
      4          8           0       -2.047110   -0.570095   -1.407002
      5          1           0        0.249881    1.526154   -2.087515
      6          1           0       -0.698763    2.542645   -0.095684
      7         17           0       -1.808690   -0.406656    1.262331
      8          6           0        2.118134   -1.186319    0.044475
      9          1           0        1.555656    0.699492    2.082847
     10          1           0        2.973453    1.446355    0.284558
     11          8           0        1.529465   -1.637585   -0.912163
     12          1           0        2.866837   -1.816245    0.578956
 ---------------------------------------------------------------------

 SCF Done:  E(RHF) =  -1267.23497168     A.U. after    2 cycles

 The electronic state is 1-A.
 Alpha  occ. eigenvalues --  -99.88445 -76.26154 -76.25121 -21.12501 -21.09560
 Alpha  occ. eigenvalues --  -11.53401 -11.47318 -10.45597  -9.65471  -9.64963
 Alpha  occ. eigenvalues --   -9.64855  -5.59690  -5.58741  -2.23011  -2.22083
 Alpha  occ. eigenvalues --   -2.21847  -2.21368  -2.20743  -2.19811  -1.76904
 Alpha  occ. eigenvalues --   -1.72727  -1.28957  -0.92432  -0.89633  -0.78107
 Alpha  occ. eigenvalues --   -0.72467  -0.62020  -0.60892  -0.58299  -0.56949
 Alpha  occ. eigenvalues --   -0.52384  -0.51717  -0.49909  -0.48661  -0.46574
 Alpha  occ. eigenvalues --   -0.46210  -0.39829  -0.33805  -0.29396
 Alpha virt. eigenvalues --    0.03398   0.03649   0.04492   0.05654   0.05963
 Alpha virt. eigenvalues --    0.06678   0.07249   0.07741   0.07986   0.08637
 Alpha virt. eigenvalues --    0.08718   0.09649   0.09715   0.11005   0.11559

 Mulliken charges:
               1
     1  Si   4.841882
     2  Si   4.714417
     3  C    0.768955
     4  O   -2.050417
     5  H   -1.769059
     6  H   -1.785259
     7  Cl  -0.104037
     8  C   -0.542404
     9  H   -1.666731
    10  H   -1.791141
    11  O   -2.021450
    12  H    1.405243
 Sum of Mulliken charges =  -0.00000

 Dipole moment (field-independent basis, Debye):
    X=              1.9713    Y=              0.9952    Z=             -2.6574  Tot=              3.4551

 Test job not archived.
 1\1\GINC-SE362\SP\RHF\Aug-CC-pVDZ\C2H5Cl1O2Si2\OHZDE\09-Apr-2025\0\\#t
  hf aug-cc-pvdz iop(5/13=1,5/36=2,99/5=2) pseudo=read geom=check guess
 =(read,tcheck) scf=(maxcycle=1)\\title\\0,1\Si,0,0.072454,1.327519,0.6
 59093\Si,0,-1.779276,0.629554,-0.621559\C,0,1.443749,-0.017485,0.56847
 4\O,0,2.04711,-0.570095,1.407002\H,0,-0.249881,1.526154,2.087515\H,0,0
 .698763,2.542645,0.095684\Cl,0,1.80869,-0.406656,-1.262331\C,0,-2.1181
 34,-1.186319,-0.044475\H,0,-1.555656,0.699492,-2.082847\H,0,-2.973453,
 1.446355,-0.284558\O,0,-1.529465,-1.637585,0.912163\H,0,-2.866837,-1.8

 Normal termination of Gaussian 16 at Wed Apr  9 00:10:50 2025.
