 Gaussian 16, Revision C.01,

 ----------------------------------------------------------------------
 #t hf aug-cc-pvdz symm=none int=(grid=ultrafine) guess=(read,tcheck) s
 table=(opt,rrhf)
 ----------------------------------------------------------------------
 -----
 title
 -----
 Symbolic Z-matrix:
 Charge =  0 Multiplicity = 1

 SCF Done:  E(RHF) =  -1112.09174341     A.U. after   14 cycles
 Normal termination of Gaussian 16 at Wed Apr  9 00:05:32 2025.
 Gaussian 16:  ES64L-G16RevC.01  3-Jul-2019

 ----------------------------------------------------------------------
 #t hf aug-cc-pvdz iop(5/13=1,5/36=2,99/5=2) pseudo=read geom=check gue
 ss=(read,tcheck) scf=(maxcycle=1)
 ----------------------------------------------------------------------
 -----
 title
 -----
 Structure from the checkpoint file:  "BDE49_nonexpt_220_mol1.chk"
 Charge =  0 Multiplicity = 1

                         Standard orientation:
 ---------------------------------------------------------------------
 Center     Atomic      Atomic             Coordinates (Angstroms)
 Number     Number       Type             X           Y           Z
 ---------------------------------------------------------------------
      1         17           0        0.857144    1.664745   -0.000097
      2          5           0        0.512850   -0.056431    0.000869
      3         17           0        1.861921   -1.195855   -0.000408
      4          6           0       -0.920859   -0.625346    0.000413
      5          7           0       -1.915553    0.186842    0.000299
      6          1           0       -1.106343   -1.701453    0.000207
      7          8           0       -3.122352   -0.473221   -0.000059
      8          1           0       -3.769175    0.242422   -0.000077
 ---------------------------------------------------------------------

 SCF Done:  E(RHF) =  -1113.39853419     A.U. after    2 cycles

 The electronic state is 1-A.
 Alpha  occ. eigenvalues --  -99.90608 -99.90169 -21.13094 -15.82894 -11.40029
 Alpha  occ. eigenvalues --  -10.47946 -10.47455  -9.67897  -9.67402  -9.67377
 Alpha  occ. eigenvalues --   -9.67202  -9.66948  -9.66750  -7.72493  -1.83143
 Alpha  occ. eigenvalues --   -1.41071  -1.30184  -1.27074  -0.91925  -0.78507
 Alpha  occ. eigenvalues --   -0.70389  -0.64675  -0.60486  -0.58932  -0.57438
 Alpha  occ. eigenvalues --   -0.54502  -0.52800  -0.50813  -0.47560  -0.38912
 Alpha  occ. eigenvalues --   -0.34034
 Alpha virt. eigenvalues --    0.03574   0.04047   0.04128   0.04419   0.04588
 Alpha virt. eigenvalues --    0.06734   0.08793   0.11451   0.13261   0.13652
 Alpha virt. eigenvalues --    0.14442   0.15267   0.16533   0.16696   0.17139

 Mulliken charges:
               1
     1  Cl  -1.113409
     2  B    3.294218
     3  Cl  -1.237373
     4  C   -0.951080
     5  N   -0.412204
     6  H    1.707535
     7  O   -2.135875
     8  H    0.848188
 Sum of Mulliken charges =  -0.00000

 Dipole moment (field-independent basis, Debye):
    X=             -2.8209    Y=             -0.5789    Z=              0.0010  Tot=              2.8796

 Test job not archived.
 1\1\GINC-SE253\SP\RHF\Aug-CC-pVDZ\C1H2B1Cl2N1O1\OHZDE\09-Apr-2025\0\\#
 t hf aug-cc-pvdz iop(5/13=1,5/36=2,99/5=2) pseudo=read geom=check gues
 s=(read,tcheck) scf=(maxcycle=1)\\title\\0,1\Cl,0,-0.857144,1.664745,0
 .000097\B,0,-0.51285,-0.056431,-0.000869\Cl,0,-1.861921,-1.195855,0.00
 0408\C,0,0.920859,-0.625346,-0.000413\N,0,1.915553,0.186842,-0.000299\
 H,0,1.106343,-1.701453,-0.000207\O,0,3.122352,-0.47322,0.000059\H,0,3.
 769175,0.242423,0.000077\\Version=ES64L-G16RevC.01\State=1-A\HF=-1113.
 3985342\RMSD=5.733e-02\Dipole=1.1098085,-0.2277695,-0.0003899\Quadrupo

 Normal termination of Gaussian 16 at Wed Apr  9 00:05:35 2025.
