 Gaussian 16, Revision C.01,

 ----------------------------------------------------------------------
 #t hf aug-cc-pvdz symm=none int=(grid=ultrafine) guess=(read,tcheck) s
 table=(opt,rrhf)
 ----------------------------------------------------------------------
 -----
 title
 -----
 Symbolic Z-matrix:
 Charge =  0 Multiplicity = 1

 SCF Done:  E(RHF) =  -1025.23191068     A.U. after   15 cycles
 Normal termination of Gaussian 16 at Tue Apr  8 23:34:20 2025.
 Gaussian 16:  ES64L-G16RevC.01  3-Jul-2019

 ----------------------------------------------------------------------
 #t hf aug-cc-pvdz iop(5/13=1,5/36=2,99/5=2) pseudo=read geom=check gue
 ss=(read,tcheck) scf=(maxcycle=1)
 ----------------------------------------------------------------------
 -----
 title
 -----
 Structure from the checkpoint file:  "BDE49_nonexpt_1406_mol1.chk"
 Charge =  0 Multiplicity = 1

                         Standard orientation:
 ---------------------------------------------------------------------
 Center     Atomic      Atomic             Coordinates (Angstroms)
 Number     Number       Type             X           Y           Z
 ---------------------------------------------------------------------
      1          6           0        0.222501   -1.245469   -0.216609
      2          6           0        1.040123    0.000004    0.161171
      3          6           0        0.222500    1.245503   -0.216522
      4         15           0       -1.656713    1.129878    0.104145
      5         15           0       -1.656698   -1.129888    0.104143
      6          6           0        1.185670   -0.000046    1.709235
      7          1           0        0.222097   -0.000065    2.225799
      8          1           0        1.738038    0.888363    2.022942
      9          1           0        1.738042   -0.888474    2.022883
     10          6           0        2.407235    0.000028   -0.522698
     11          1           0        2.302111    0.000064   -1.608929
     12          1           0        2.967481   -0.891217   -0.237179
     13          1           0        2.967479    0.891255   -0.237119
     14          8           0        0.702310    2.261151   -0.642966
     15          8           0        0.702328   -2.261136   -0.642987
     16          1           0       -1.969699   -1.361055   -1.256274
     17          1           0       -1.969667    1.361042   -1.256283
 ---------------------------------------------------------------------

 SCF Done:  E(RHF) =  -1027.14263690     A.U. after    2 cycles

 The electronic state is 1-A.
 Alpha  occ. eigenvalues -- -105.21316-105.20847 -21.08483 -21.08469 -11.51696
 Alpha  occ. eigenvalues --  -11.51388 -11.45223 -11.41898 -11.39047  -2.78535
 Alpha  occ. eigenvalues --   -2.77942  -1.75024  -1.73043  -1.54517  -1.50293
 Alpha  occ. eigenvalues --   -1.48021  -1.47700  -1.47118  -1.33934  -1.27649
 Alpha  occ. eigenvalues --   -1.03630  -0.97444  -0.83273  -0.81727  -0.69118
 Alpha  occ. eigenvalues --   -0.65861  -0.61509  -0.59587  -0.58752  -0.56325
 Alpha  occ. eigenvalues --   -0.52557  -0.51290  -0.49909  -0.46916  -0.45951
 Alpha  occ. eigenvalues --   -0.41774  -0.38761  -0.23041  -0.19607  -0.10884
 Alpha  occ. eigenvalues --   -0.04106   0.02679
 Alpha virt. eigenvalues --    0.05020   0.05551   0.05850   0.06188   0.06693
 Alpha virt. eigenvalues --    0.07095   0.07558   0.07651   0.08377   0.08963
 Alpha virt. eigenvalues --    0.09947   0.11183   0.11535   0.11801   0.12463

 Mulliken charges:
               1
     1  C    3.442797
     2  C   -2.022437
     3  C    3.442689
     4  P    3.564451
     5  P    3.564463
     6  C   -2.146503
     7  H    0.427486
     8  H    0.728572
     9  H    0.728640
    10  C   -5.028060
    11  H    0.428088
    12  H    1.178929
    13  H    1.178994
    14  O   -3.460646
    15  O   -3.460660
    16  H   -1.283363
    17  H   -1.283440
 Sum of Mulliken charges =   0.00000

 Dipole moment (field-independent basis, Debye):
    X=            -15.6323    Y=             -0.0007    Z=              0.5394  Tot=             15.6416

 Test job not archived.
 1\1\GINC-SE120\SP\RHF\Aug-CC-pVDZ\C5H8O2P2\OHZDE\08-Apr-2025\0\\#t hf
 aug-cc-pvdz iop(5/13=1,5/36=2,99/5=2) pseudo=read geom=check guess=(re
 ad,tcheck) scf=(maxcycle=1)\\title\\0,1\C,0,-0.222502,1.245469,-0.2166
 09\C,0,-1.040123,-0.000005,0.161171\C,0,-0.222499,-1.245503,-0.216522\
 P,0,1.656714,-1.129877,0.104145\P,0,1.656697,1.129889,0.104143\C,0,-1.
 18567,0.000045,1.709235\H,0,-0.222097,0.000065,2.225799\H,0,-1.738037,
 -0.888364,2.022942\H,0,-1.738042,0.888473,2.022883\C,0,-2.407235,-0.00
 0029,-0.522698\H,0,-2.302111,-0.000065,-1.608929\H,0,-2.967481,0.89121

 Normal termination of Gaussian 16 at Tue Apr  8 23:34:30 2025.
