 Gaussian 16, Revision C.01,

 ----------------------------------------------------------------------
 #t hf aug-cc-pvdz symm=none int=(grid=ultrafine) guess=(read,tcheck) s
 table=(opt,rrhf)
 ----------------------------------------------------------------------
 -----
 title
 -----
 Symbolic Z-matrix:
 Charge =  0 Multiplicity = 1

 SCF Done:  E(RHF) =  -707.765238862     A.U. after   14 cycles
 Normal termination of Gaussian 16 at Tue Apr  8 23:25:30 2025.
 Gaussian 16:  ES64L-G16RevC.01  3-Jul-2019

 ----------------------------------------------------------------------
 #t hf aug-cc-pvdz iop(5/13=1,5/36=2,99/5=2) pseudo=read geom=check gue
 ss=(read,tcheck) scf=(maxcycle=1)
 ----------------------------------------------------------------------
 -----
 title
 -----
 Structure from the checkpoint file:  "BDE49_nonexpt_1213_mol1.chk"
 Charge =  0 Multiplicity = 1

                         Standard orientation:
 ---------------------------------------------------------------------
 Center     Atomic      Atomic             Coordinates (Angstroms)
 Number     Number       Type             X           Y           Z
 ---------------------------------------------------------------------
      1          6           0        1.803588    0.067022    0.378807
      2          8           0        0.775749    0.194828   -0.643238
      3         16           0       -0.546884   -0.846579   -0.508592
      4          6           0       -1.739299    0.217437    0.402882
      5          6           0        2.600178    1.362917    0.312057
      6          6           0       -2.983125   -0.643022    0.645989
      7          1           0        1.957769    2.223377    0.509086
      8          1           0        3.042039    1.483680   -0.680292
      9          1           0       -2.751464   -1.536613    1.230550
     10          1           0       -3.435133   -0.957640   -0.299385
     11          6           0        2.655850   -1.171132    0.129045
     12          1           0        2.041157   -2.073657    0.149876
     13          1           0        3.427489   -1.268568    0.898181
     14          1           0        3.143503   -1.103635   -0.847180
     15          6           0       -2.042224    1.502173   -0.364226
     16          1           0       -1.119931    2.028609   -0.614289
     17          1           0       -2.668322    2.168334    0.239418
     18          1           0       -2.570033    1.280153   -1.295573
     19          1           0       -1.278079    0.458594    1.365468
     20          1           0       -3.731059   -0.063943    1.194693
     21          1           0        1.310335   -0.017107    1.354709
     22          1           0        3.406081    1.352690    1.050788
 ---------------------------------------------------------------------

 SCF Done:  E(RHF) =  -709.539891587     A.U. after    2 cycles

 The electronic state is 1-A.
 Alpha  occ. eigenvalues --  -75.70452 -21.05080 -13.19974 -13.12638 -13.07246
 Alpha  occ. eigenvalues --  -11.44733 -11.42815 -11.39019 -11.38744 -11.36080
 Alpha  occ. eigenvalues --  -11.35514  -8.04160  -1.74529  -1.25293  -1.17347
 Alpha  occ. eigenvalues --   -1.01707  -1.00882  -0.99888  -0.83367  -0.80351
 Alpha  occ. eigenvalues --   -0.65602  -0.62848  -0.60794  -0.60118  -0.57260
 Alpha  occ. eigenvalues --   -0.56401  -0.54026  -0.53708  -0.50697  -0.48049
 Alpha  occ. eigenvalues --   -0.47736  -0.47136  -0.45311  -0.41242  -0.36907
 Alpha  occ. eigenvalues --   -0.29176  -0.22055
 Alpha virt. eigenvalues --    0.03850   0.04321   0.05203   0.05491   0.05762
 Alpha virt. eigenvalues --    0.05940   0.06352   0.06442   0.06658   0.07733
 Alpha virt. eigenvalues --    0.07918   0.08464   0.08956   0.09987   0.11442

 Mulliken charges:
               1
     1  C   -0.544511
     2  O   -2.742278
     3  S    1.209809
     4  C   -2.255859
     5  C   -3.629638
     6  C   -3.975857
     7  H    1.320612
     8  H    1.264639
     9  H    1.333223
    10  H    1.357993
    11  C   -3.730726
    12  H    1.374298
    13  H    1.259403
    14  H    1.301565
    15  C   -3.885368
    16  H    1.447746
    17  H    1.185723
    18  H    1.413350
    19  H    1.766590
    20  H    1.202198
    21  H    2.130343
    22  H    1.196746
 Sum of Mulliken charges =  -0.00000

 Dipole moment (field-independent basis, Debye):
    X=              0.0461    Y=             -0.1988    Z=              0.4925  Tot=              0.5331

 Test job not archived.
 1\1\GINC-SE143\SP\RHF\Aug-CC-pVDZ\C6H14O1S1\OHZDE\08-Apr-2025\0\\#t hf
  aug-cc-pvdz iop(5/13=1,5/36=2,99/5=2) pseudo=read geom=check guess=(r
 ead,tcheck) scf=(maxcycle=1)\\title\\0,1\C,0,1.803588,0.067022,0.37880
 7\O,0,0.775749,0.194828,-0.643238\S,0,-0.546884,-0.846579,-0.508592\C,
 0,-1.739299,0.217437,0.402882\C,0,2.600178,1.362917,0.312057\C,0,-2.98
 3125,-0.643022,0.645989\H,0,1.957769,2.223377,0.509086\H,0,3.042039,1.
 48368,-0.680292\H,0,-2.751464,-1.536613,1.23055\H,0,-3.435133,-0.95764
 ,-0.299385\C,0,2.65585,-1.171132,0.129045\H,0,2.041157,-2.073657,0.149

 Normal termination of Gaussian 16 at Tue Apr  8 23:25:41 2025.
