 Gaussian 16, Revision C.01,

 ----------------------------------------------------------------------
 #t hf aug-cc-pvdz symm=none int=(grid=ultrafine) guess=(read,tcheck) s
 table=(opt,rrhf)
 ----------------------------------------------------------------------
 -----
 title
 -----
 Symbolic Z-matrix:
 Charge =  0 Multiplicity = 1

 SCF Done:  E(RHF) =  -781.199512273     A.U. after   16 cycles
 Normal termination of Gaussian 16 at Tue Apr  8 23:17:25 2025.
 Gaussian 16:  ES64L-G16RevC.01  3-Jul-2019

 ----------------------------------------------------------------------
 #t hf aug-cc-pvdz iop(5/13=1,5/36=2,99/5=2) pseudo=read geom=check gue
 ss=(read,tcheck) scf=(maxcycle=1)
 ----------------------------------------------------------------------
 -----
 title
 -----
 Structure from the checkpoint file:  "BDE49_expt_861_mol1.chk"
 Charge =  0 Multiplicity = 1

                         Standard orientation:
 ---------------------------------------------------------------------
 Center     Atomic      Atomic             Coordinates (Angstroms)
 Number     Number       Type             X           Y           Z
 ---------------------------------------------------------------------
      1          6           0        0.872727    0.265010    0.000221
      2          6           0        0.295460   -1.008384   -0.005288
      3          6           0       -1.093566   -1.138044   -0.009627
      4          6           0        0.045805    1.396812   -0.004373
      5          6           0       -1.332373    1.256500   -0.012638
      6          6           0       -1.918656   -0.015742   -0.004460
      7          1           0        0.511234    2.374918   -0.007201
      8          1           0       -1.964755    2.135775   -0.026585
      9         16           0       -3.706287   -0.200895   -0.070069
     10          1           0        0.907943   -1.899612   -0.007698
     11          1           0       -1.537471   -2.126084   -0.016528
     12          8           0        2.210301    0.509957    0.005468
     13          6           0        3.121572   -0.592889    0.003126
     14          6           0        4.526095   -0.021325    0.008323
     15          1           0        2.952752   -1.209832   -0.887888
     16          1           0        2.949036   -1.216715    0.888664
     17          1           0        4.691135    0.599300   -0.874721
     18          1           0        5.261229   -0.830125    0.006929
     19          1           0        4.687304    0.592789    0.896628
     20          1           0       -3.942613   -0.137379    1.254055
 ---------------------------------------------------------------------

 SCF Done:  E(RHF) =  -783.236056259     A.U. after    2 cycles

 The electronic state is 1-A.
 Alpha  occ. eigenvalues --  -75.68826 -21.07558 -13.17138 -13.11652 -13.05862
 Alpha  occ. eigenvalues --  -11.53285 -11.46681 -11.45078 -11.43795 -11.42994
 Alpha  occ. eigenvalues --  -11.40913 -11.37915 -11.37266  -8.02689  -1.79468
 Alpha  occ. eigenvalues --   -1.34113  -1.16804  -1.12319  -1.09901  -1.01212
 Alpha  occ. eigenvalues --   -0.90813  -0.87212  -0.82088  -0.70245  -0.66138
 Alpha  occ. eigenvalues --   -0.65114  -0.61341  -0.60025  -0.58605  -0.54808
 Alpha  occ. eigenvalues --   -0.53458  -0.51745  -0.50217  -0.48652  -0.46109
 Alpha  occ. eigenvalues --   -0.41908  -0.39559  -0.37673  -0.33927  -0.26829
 Alpha  occ. eigenvalues --   -0.24216
 Alpha virt. eigenvalues --    0.03200   0.04393   0.04776   0.05157   0.05968
 Alpha virt. eigenvalues --    0.06142   0.06321   0.06596   0.07116   0.07855
 Alpha virt. eigenvalues --    0.08137   0.09896   0.11189   0.11384   0.12588

 Mulliken charges:
               1
     1  C    6.244318
     2  C   -3.169743
     3  C   -2.521819
     4  C   -3.991507
     5  C   -2.665714
     6  C    2.883870
     7  H    1.977040
     8  H    1.868436
     9  S   -0.770417
    10  H    1.919942
    11  H    1.867739
    12  O   -5.023641
    13  C   -2.886543
    14  C   -3.873858
    15  H    1.668634
    16  H    1.669859
    17  H    1.312180
    18  H    1.055359
    19  H    1.311753
    20  H    1.124113
 Sum of Mulliken charges =  -0.00000

 Dipole moment (field-independent basis, Debye):
    X=              2.0445    Y=             -0.3646    Z=             -0.8539  Tot=              2.2455

 Test job not archived.
 1\1\GINC-SE461\SP\RHF\Aug-CC-pVDZ\C8H10O1S1\OHZDE\08-Apr-2025\0\\#t hf
  aug-cc-pvdz iop(5/13=1,5/36=2,99/5=2) pseudo=read geom=check guess=(r
 ead,tcheck) scf=(maxcycle=1)\\title\\0,1\C,0,0.872727,0.26501,0.000221
 \C,0,0.29546,-1.008384,-0.005288\C,0,-1.093566,-1.138044,-0.009627\C,0
 ,0.045805,1.396812,-0.004373\C,0,-1.332373,1.2565,-0.012638\C,0,-1.918
 656,-0.015742,-0.00446\H,0,0.511234,2.374918,-0.007201\H,0,-1.964755,2
 .135775,-0.026585\S,0,-3.706287,-0.200895,-0.070069\H,0,0.907943,-1.89
 9612,-0.007698\H,0,-1.537471,-2.126084,-0.016528\O,0,2.210301,0.509957

 Normal termination of Gaussian 16 at Tue Apr  8 23:17:35 2025.
