 Gaussian 16, Revision C.01,

 ----------------------------------------------------------------------
 #t hf aug-cc-pvdz symm=none int=(grid=ultrafine) guess=(read,tcheck) s
 table=(opt,rrhf)
 ----------------------------------------------------------------------
 -----
 title
 -----
 Symbolic Z-matrix:
 Charge =  0 Multiplicity = 1

 SCF Done:  E(RHF) =  -111.194394773     A.U. after   11 cycles
 Normal termination of Gaussian 16 at Tue Apr  8 22:52:31 2025.
 Gaussian 16:  ES64L-G16RevC.01  3-Jul-2019

 ----------------------------------------------------------------------
 #t hf aug-cc-pvdz iop(5/13=1,5/36=2,99/5=2) pseudo=read geom=check gue
 ss=(read,tcheck) scf=(maxcycle=1)
 ----------------------------------------------------------------------
 -----
 title
 -----
 Structure from the checkpoint file:  "BDE49_expt_1740_mol1.chk"
 Charge =  0 Multiplicity = 1

                         Standard orientation:
 ---------------------------------------------------------------------
 Center     Atomic      Atomic             Coordinates (Angstroms)
 Number     Number       Type             X           Y           Z
 ---------------------------------------------------------------------
      1          7           0       -0.000000    0.743553   -0.000003
      2          7           0       -0.000000   -0.743553   -0.000003
      3          1           0       -0.589969    0.986757    0.795178
      4          1           0       -0.590000    0.986755   -0.795160
      5          1           0        0.589969   -0.986757    0.795178
      6          1           0        0.590000   -0.986755   -0.795160
 ---------------------------------------------------------------------

 SCF Done:  E(RHF) =  -111.717171044     A.U. after    2 cycles

 The electronic state is 1-A.
 Alpha  occ. eigenvalues --  -15.75322 -15.74924  -1.41233  -1.07746  -0.68800
 Alpha  occ. eigenvalues --   -0.55215  -0.54374  -0.51799  -0.31159
 Alpha virt. eigenvalues --    0.04518   0.05135   0.05642   0.08523   0.13561
 Alpha virt. eigenvalues --    0.17627   0.17722   0.18868   0.19172   0.21609
 Alpha virt. eigenvalues --    0.22030   0.28370   0.29067   0.30698   0.31432

 Mulliken charges:
               1
     1  N   -1.307100
     2  N   -1.307100
     3  H    0.653546
     4  H    0.653554
     5  H    0.653546
     6  H    0.653554
 Sum of Mulliken charges =  -0.00000

 Dipole moment (field-independent basis, Debye):
    X=              0.0000    Y=             -0.0000    Z=              0.0000  Tot=              0.0000

 Test job not archived.
 1\1\GINC-SE227\SP\RHF\Aug-CC-pVDZ\H4N2\OHZDE\08-Apr-2025\0\\#t hf aug-
 cc-pvdz iop(5/13=1,5/36=2,99/5=2) pseudo=read geom=check guess=(read,t
 check) scf=(maxcycle=1)\\title\\0,1\N,0,0.,0.743553,-0.000003\N,0,0.,-
 0.743553,-0.000003\H,0,-0.589969,0.986757,0.795178\H,0,-0.59,0.986755,
 -0.79516\H,0,0.589969,-0.986757,0.795178\H,0,0.59,-0.986755,-0.79516\\
 Version=ES64L-G16RevC.01\State=1-A\HF=-111.717171\RMSD=3.077e-02\Dipol
 e=0.,0.,0.0000197\Quadrupole=-0.7652921,-1.0715392,1.8368313,-2.965830
 3,0.,0.\PG=C02 [X(H4N2)]\\@

 Normal termination of Gaussian 16 at Tue Apr  8 22:52:32 2025.
