 Gaussian 16, Revision C.01,

 ----------------------------------------------------------------------
 #t hf aug-cc-pvdz symm=none int=(grid=ultrafine) guess=(read,tcheck) s
 table=opt
 ----------------------------------------------------------------------
 -----
 title
 -----
 Symbolic Z-matrix:
 Charge =  0 Multiplicity = 2

 SCF Done:  E(UHF) =  -515.206981438     A.U. after   24 cycles
 Normal termination of Gaussian 16 at Tue Apr  8 22:46:38 2025.
 Gaussian 16:  ES64L-G16RevC.01  3-Jul-2019

 ----------------------------------------------------------------------
 #t hf aug-cc-pvdz iop(5/13=1,5/36=2,99/5=2) pseudo=read geom=check gue
 ss=(read,tcheck) scf=(maxcycle=1)
 ----------------------------------------------------------------------
 -----
 title
 -----
 Structure from the checkpoint file:  "BDE49_expt_1565_mol2.chk"
 Charge =  0 Multiplicity = 2

                         Standard orientation:
 ---------------------------------------------------------------------
 Center     Atomic      Atomic             Coordinates (Angstroms)
 Number     Number       Type             X           Y           Z
 ---------------------------------------------------------------------
      1         16           0       -1.533525   -0.354911   -0.073421
      2          6           0       -0.215409    0.830188    0.307422
      3          6           0        1.139429    0.567765   -0.354929
      4          1           0       -0.126732    0.873915    1.399740
      5          1           0       -0.620463    1.805965    0.008851
      6          6           0        1.825212   -0.706510    0.140868
      7          1           0        1.783874    1.433385   -0.157454
      8          1           0        1.001347    0.518923   -1.439424
      9          1           0        2.009192   -0.663004    1.219202
     10          1           0        2.787261   -0.853897   -0.355859
     11          1           0        1.206533   -1.585378   -0.060481
 ---------------------------------------------------------------------

 SCF Done:  E(UHF) =  -516.015886290     A.U. after    2 cycles

 The electronic state is 2-A.
 Alpha  occ. eigenvalues --  -75.69869 -13.10857 -13.05184 -13.03158 -11.42739
 Alpha  occ. eigenvalues --  -11.39415 -11.35707  -8.03472  -1.25564  -1.10233
 Alpha  occ. eigenvalues --   -0.95285  -0.83063  -0.63738  -0.62564  -0.56997
 Alpha  occ. eigenvalues --   -0.50766  -0.47852  -0.47455  -0.39626  -0.28889
 Alpha  occ. eigenvalues --   -0.24116
 Alpha virt. eigenvalues --    0.03347   0.04958   0.05545   0.06124   0.06421
 Alpha virt. eigenvalues --    0.06752   0.07081   0.08118   0.11792   0.13162
 Alpha virt. eigenvalues --    0.14435   0.14895   0.15623   0.16179   0.16498

  Beta  occ. eigenvalues --  -75.68888 -13.10267 -13.02851 -12.99007 -11.42809
  Beta  occ. eigenvalues --  -11.39453 -11.35713  -8.02374  -1.24139  -1.06625
  Beta  occ. eigenvalues --   -0.91938  -0.81353  -0.63009  -0.62206  -0.56521
  Beta  occ. eigenvalues --   -0.50560  -0.47803  -0.47047  -0.38892  -0.22552
  Beta virt. eigenvalues --    0.03395   0.04163   0.05270   0.05776   0.06253
  Beta virt. eigenvalues --    0.06633   0.06845   0.07212   0.08438   0.12620
  Beta virt. eigenvalues --    0.13413   0.14508   0.14922   0.15730   0.16466

 Mulliken charges and spin densities:
               1          2
     1  S    0.581025   1.143729
     2  C   -3.651496  -0.136244
     3  C   -2.658608  -0.038662
     4  H    1.518272   0.004393
     5  H    1.427176   0.007515
     6  C   -3.623652   0.031167
     7  H    1.333518   0.003409
     8  H    1.315668  -0.001603
     9  H    1.242575  -0.000181
    10  H    1.189224  -0.000864
    11  H    1.326299  -0.012659
 Sum of Mulliken charges =  -0.00000   1.00000

 Dipole moment (field-independent basis, Debye):
    X=              0.0833    Y=              0.2121    Z=              0.0445  Tot=              0.2321
                          Isotropic Fermi Contact Couplings
        Atom                 a.u.       MegaHertz       Gauss      10(-4) cm-1
     1  S(33)              0.26310      90.36714      32.24524      30.14323
     2  C(13)             -0.01630     -18.32414      -6.53851      -6.11227
     3  C(13)             -0.00055      -0.61458      -0.21930      -0.20500
     4  H(1)               0.00839      37.51847      13.38752      12.51482
     5  H(1)               0.01267      56.62770      20.20617      18.88897
     6  C(13)             -0.00042      -0.46709      -0.16667      -0.15580
     7  H(1)              -0.00045      -2.01967      -0.72067      -0.67369
     8  H(1)              -0.00022      -0.99739      -0.35589      -0.33269

 Normal termination of Gaussian 16 at Tue Apr  8 22:46:42 2025.
