 Gaussian 16, Revision C.01,

 ----------------------------------------------------------------------
 #t hf aug-cc-pvdz symm=none int=(grid=ultrafine) guess=(read,tcheck) s
 table=(opt,rrhf)
 ----------------------------------------------------------------------
 -----
 title
 -----
 Symbolic Z-matrix:
 Charge =  0 Multiplicity = 1

 SCF Done:  E(RHF) =  -2814.45784769     A.U. after   12 cycles
 Normal termination of Gaussian 16 at Tue Apr  8 23:27:52 2025.
 Gaussian 16:  ES64L-G16RevC.01  3-Jul-2019

 ----------------------------------------------------------------------
 #t hf aug-cc-pvdz iop(5/13=1,5/36=2,99/5=2) pseudo=read geom=check gue
 ss=(read,tcheck) scf=(maxcycle=1)
 ----------------------------------------------------------------------
 -----
 title
 -----
 Structure from the checkpoint file:  "BDE49_nonexpt_1251_mol1.chk"
 Charge =  0 Multiplicity = 1

                         Standard orientation:
 ---------------------------------------------------------------------
 Center     Atomic      Atomic             Coordinates (Angstroms)
 Number     Number       Type             X           Y           Z
 ---------------------------------------------------------------------
      1          9           0        1.385078    0.858626    1.253126
      2         15           0       -0.054696    1.740701   -0.925419
      3          6           0        1.406690    0.872106   -0.122886
      4         17           0       -0.109199    3.478566    0.222605
      5         15           0        1.534787   -0.823064   -0.925343
      6          6           0       -1.458730    0.782140   -0.122880
      7          6           0        0.052037   -1.654198   -0.122467
      8         17           0        3.067228   -1.644682    0.222510
      9          9           0       -1.436555    0.770224    1.253146
     10         15           0       -1.480008   -0.917756   -0.925274
     11          9           0        0.051209   -1.628378    1.253570
     12         17           0       -2.957962   -1.834038    0.222406
     13          1           0        0.084938   -2.701378   -0.445056
     14          1           0       -2.381997    1.277139   -0.445797
     15          1           0        2.297102    1.424105   -0.445681
 ---------------------------------------------------------------------

 SCF Done:  E(RHF) =  -2817.30411644     A.U. after    2 cycles

 The electronic state is 1-A.
 Alpha  occ. eigenvalues -- -105.26467-105.26466-105.25714 -99.91424 -99.91424
 Alpha  occ. eigenvalues --  -99.91419 -29.28540 -29.28519 -29.28518 -11.48360
 Alpha  occ. eigenvalues --  -11.48359 -11.48074 -10.48722 -10.48722 -10.48714
 Alpha  occ. eigenvalues --   -9.68631  -9.68631  -9.68576  -9.67979  -9.67979
 Alpha  occ. eigenvalues --   -9.67915  -9.67915  -9.67886  -9.67886  -2.84890
 Alpha  occ. eigenvalues --   -2.84498  -2.84498  -1.58895  -1.58894  -1.58817
 Alpha  occ. eigenvalues --   -1.55215  -1.55214  -1.54654  -1.53738  -1.53394
 Alpha  occ. eigenvalues --   -1.53393  -1.26114  -1.25060  -1.25060  -1.14491
 Alpha  occ. eigenvalues --   -1.09670  -1.09668  -0.80516  -0.77654  -0.77653
 Alpha  occ. eigenvalues --   -0.74209  -0.70016  -0.70014  -0.56640  -0.56639
 Alpha  occ. eigenvalues --   -0.56063  -0.56063  -0.55847  -0.54798  -0.48365
 Alpha  occ. eigenvalues --   -0.47575  -0.47574  -0.43731  -0.43730  -0.41646
 Alpha  occ. eigenvalues --   -0.41253  -0.36078  -0.36075  -0.32905  -0.30113
 Alpha  occ. eigenvalues --   -0.30109  -0.18258  -0.18255  -0.10254  -0.10222
 Alpha  occ. eigenvalues --   -0.01481  -0.01480
 Alpha virt. eigenvalues --    0.04516   0.05605   0.05605   0.07813   0.07813
 Alpha virt. eigenvalues --    0.08173   0.08941   0.09178   0.09179   0.10654
 Alpha virt. eigenvalues --    0.10654   0.11138   0.11426   0.12671   0.13997

 Mulliken charges:
               1
     1  F   -0.265789
     2  P    4.903582
     3  C   -4.752568
     4  Cl  -1.387394
     5  P    4.903620
     6  C   -4.752736
     7  C   -4.752645
     8  Cl  -1.387424
     9  F   -0.265866
    10  P    4.903774
    11  F   -0.265914
    12  Cl  -1.387334
    13  H    1.502005
    14  H    1.502393
    15  H    1.502297
 Sum of Mulliken charges =   0.00000

 Dipole moment (field-independent basis, Debye):
    X=             -0.0011    Y=              0.0008    Z=              3.5613  Tot=              3.5613

 Test job not archived.
 1\1\GINC-SE060\SP\RHF\Aug-CC-pVDZ\C3H3Cl3F3P3\OHZDE\08-Apr-2025\0\\#t
 hf aug-cc-pvdz iop(5/13=1,5/36=2,99/5=2) pseudo=read geom=check guess=
 (read,tcheck) scf=(maxcycle=1)\\title\\0,1\F,0,-1.385228,-0.858384,1.2
 53126\P,0,0.054391,-1.740711,-0.925419\C,0,-1.406843,-0.87186,-0.12288
 6\Cl,0,0.10859,-3.478585,0.222605\P,0,-1.534643,0.823333,-0.925343\C,0
 ,1.458593,-0.782395,-0.12288\C,0,-0.051748,1.654207,-0.122467\Cl,0,-3.
 06694,1.645219,0.22251\F,0,1.43642,-0.770475,1.253146\P,0,1.480168,0.9
 17497,-0.925274\F,0,-0.050924,1.628387,1.25357\Cl,0,2.958283,1.83352,0

 Normal termination of Gaussian 16 at Tue Apr  8 23:28:05 2025.
