 Gaussian 16, Revision C.01,

 ----------------------------------------------------------------------
 #t hf aug-cc-pvdz symm=none int=(grid=ultrafine) guess=(read,tcheck) s
 table=opt
 ----------------------------------------------------------------------
 -----
 title
 -----
 Symbolic Z-matrix:
 Charge =  0 Multiplicity = 2

 SCF Done:  E(UHF) =  -352.511245149     A.U. after   17 cycles
 Normal termination of Gaussian 16 at Wed Apr  9 00:33:58 2025.
 Gaussian 16:  ES64L-G16RevC.01  3-Jul-2019

 ----------------------------------------------------------------------
 #t hf aug-cc-pvdz iop(5/13=1,5/36=2,99/5=2) pseudo=read geom=check gue
 ss=(read,tcheck) scf=(maxcycle=1)
 ----------------------------------------------------------------------
 -----
 title
 -----
 Structure from the checkpoint file:  "BDE49_nonexpt_419_mol2.chk"
 Charge =  0 Multiplicity = 2

                         Standard orientation:
 ---------------------------------------------------------------------
 Center     Atomic      Atomic             Coordinates (Angstroms)
 Number     Number       Type             X           Y           Z
 ---------------------------------------------------------------------
      1          9           0        2.411499   -0.646745    0.169311
      2          5           0        1.479427    0.051850   -0.429318
      3          6           0        0.040119    0.315689    0.211417
      4          8           0       -0.806650   -0.586591   -0.463403
      5          8           0       -0.365886    1.664789    0.097343
      6          6           0       -2.083162   -0.758607    0.152642
      7          1           0       -1.978829   -1.200746    1.151716
      8          1           0       -2.649604   -1.437596   -0.483780
      9          1           0       -2.610293    0.196019    0.232846
     10          1           0       -0.257650    1.919537   -0.827502
     11          1           0        0.034301    0.116163    1.293640
 ---------------------------------------------------------------------

 SCF Done:  E(UHF) =  -353.925276025     A.U. after    2 cycles

 The electronic state is 2-A.
 Alpha  occ. eigenvalues --  -29.27243 -21.08550 -21.06166 -11.43299 -11.40816
 Alpha  occ. eigenvalues --   -7.68813  -1.81087  -1.67605  -1.08208  -0.97944
 Alpha  occ. eigenvalues --   -0.86886  -0.69676  -0.64016  -0.62710  -0.56926
 Alpha  occ. eigenvalues --   -0.54351  -0.49447  -0.48598  -0.43378  -0.41642
 Alpha  occ. eigenvalues --   -0.37521  -0.33489  -0.30810  -0.22587
 Alpha virt. eigenvalues --    0.03851   0.04218   0.04528   0.05620   0.06244
 Alpha virt. eigenvalues --    0.06701   0.06832   0.08512   0.12283   0.13252
 Alpha virt. eigenvalues --    0.14256   0.14740   0.15825   0.16087   0.17493

  Beta  occ. eigenvalues --  -29.26959 -21.08590 -21.06193 -11.42996 -11.40804
  Beta  occ. eigenvalues --   -7.66964  -1.81001  -1.67637  -1.06255  -0.96732
  Beta  occ. eigenvalues --   -0.85273  -0.68543  -0.63655  -0.62644  -0.56297
  Beta  occ. eigenvalues --   -0.53805  -0.48889  -0.43096  -0.41975  -0.41355
  Beta  occ. eigenvalues --   -0.36968  -0.30818  -0.30685
  Beta virt. eigenvalues --    0.03244   0.04165   0.04584   0.05609   0.06148
  Beta virt. eigenvalues --    0.06562   0.06811   0.07667   0.10461   0.13065
  Beta virt. eigenvalues --    0.13804   0.15119   0.15597   0.16206   0.16334

 Mulliken charges and spin densities:
               1          2
     1  F   -0.384135  -0.093026
     2  B    0.657600   1.102989
     3  C    1.743467  -0.023078
     4  O   -2.986862   0.011334
     5  O   -2.761780   0.019734
     6  C   -2.869426  -0.018505
     7  H    1.327603   0.007694
     8  H    1.276672  -0.002052
     9  H    1.296306   0.000091
    10  H    0.860459  -0.021725
    11  H    1.840096   0.016544
 Sum of Mulliken charges =  -0.00000   1.00000

 Dipole moment (field-independent basis, Debye):
    X=              1.7501    Y=             -2.1093    Z=              1.8072  Tot=              3.2830
                          Isotropic Fermi Contact Couplings
        Atom                 a.u.       MegaHertz       Gauss      10(-4) cm-1
     1  F(19)              0.05115     215.22975      76.79933      71.79292
     2  B(11)              0.18558     266.18903      94.98287      88.79110
     3  C(13)              0.05817      65.39238      23.33363      21.81255
     4  O(17)             -0.00898       5.44164       1.94171       1.81514
     5  O(17)              0.00454      -2.75043      -0.98142      -0.91744
     6  C(13)              0.00144       1.62218       0.57883       0.54110
     7  H(1)               0.00066       2.93175       1.04612       0.97793
     8  H(1)               0.00064       2.85386       1.01833       0.95194

 Normal termination of Gaussian 16 at Wed Apr  9 00:34:02 2025.
