 Gaussian 16, Revision C.01,

 ----------------------------------------------------------------------
 #t hf aug-cc-pvdz symm=none int=(grid=ultrafine) guess=(read,tcheck) s
 table=(opt,rrhf)
 ----------------------------------------------------------------------
 -----
 title
 -----
 Symbolic Z-matrix:
 Charge =  0 Multiplicity = 1

 SCF Done:  E(RHF) =  -756.470603169     A.U. after   11 cycles
 Normal termination of Gaussian 16 at Wed Apr  9 00:14:04 2025.
 Gaussian 16:  ES64L-G16RevC.01  3-Jul-2019

 ----------------------------------------------------------------------
 #t hf aug-cc-pvdz iop(5/13=1,5/36=2,99/5=2) pseudo=read geom=check gue
 ss=(read,tcheck) scf=(maxcycle=1)
 ----------------------------------------------------------------------
 -----
 title
 -----
 Structure from the checkpoint file:  "BDE49_nonexpt_2455_mol1.chk"
 Charge =  0 Multiplicity = 1

                         Standard orientation:
 ---------------------------------------------------------------------
 Center     Atomic      Atomic             Coordinates (Angstroms)
 Number     Number       Type             X           Y           Z
 ---------------------------------------------------------------------
      1         14           0       -2.164807    0.001712   -0.546320
      2         14           0       -0.361924   -0.003087    0.978245
      3          5           0        1.415829    0.000035   -0.009320
      4          1           0       -0.498157   -1.207650    1.836787
      5          1           0       -0.498179    1.196055    1.844343
      6          1           0       -2.114048    1.204908   -1.414334
      7          1           0       -3.468354   -0.000440    0.163442
      8          8           0        1.962854    1.209558   -0.330689
      9          8           0        1.962923   -1.207432   -0.338212
     10          1           0       -2.114149   -1.196068   -1.421798
     11          1           0        2.790851    1.177524   -0.825136
     12          1           0        2.790917   -1.172273   -0.832452
 ---------------------------------------------------------------------

 SCF Done:  E(RHF) =  -757.511957271     A.U. after    2 cycles

 The electronic state is 1-A.
 Alpha  occ. eigenvalues --  -76.20762 -76.19362 -21.07519 -21.07473  -7.64910
 Alpha  occ. eigenvalues --   -5.54136  -5.53052  -2.16211  -2.16154  -2.15991
 Alpha  occ. eigenvalues --   -2.15581  -2.15055  -2.14025  -1.81496  -1.66979
 Alpha  occ. eigenvalues --   -0.83008  -0.75676  -0.68160  -0.67482  -0.54556
 Alpha  occ. eigenvalues --   -0.49950  -0.47350  -0.46460  -0.44873  -0.39030
 Alpha  occ. eigenvalues --   -0.38261  -0.37526  -0.32366
 Alpha virt. eigenvalues --    0.02442   0.04333   0.04999   0.05309   0.06853
 Alpha virt. eigenvalues --    0.07767   0.08045   0.08814   0.08948   0.09508
 Alpha virt. eigenvalues --    0.09656   0.09864   0.10161   0.11051   0.11128

 Mulliken charges:
               1
     1  Si   4.860130
     2  Si   2.843499
     3  B    5.410115
     4  H   -1.648522
     5  H   -1.648511
     6  H   -1.506186
     7  H   -1.573171
     8  O   -3.773599
     9  O   -3.773609
    10  H   -1.506192
    11  H    1.158029
    12  H    1.158015
 Sum of Mulliken charges =  -0.00000

 Dipole moment (field-independent basis, Debye):
    X=              2.1000    Y=              0.0024    Z=             -0.7582  Tot=              2.2327

 Test job not archived.
 1\1\GINC-SE038\SP\RHF\Aug-CC-pVDZ\B1H7O2Si2\OHZDE\09-Apr-2025\0\\#t hf
  aug-cc-pvdz iop(5/13=1,5/36=2,99/5=2) pseudo=read geom=check guess=(r
 ead,tcheck) scf=(maxcycle=1)\\title\\0,1\Si,0,2.164807,0.001712,0.5463
 2\Si,0,0.361924,-0.003087,-0.978245\B,0,-1.415829,0.000035,0.00932\H,0
 ,0.498157,-1.20765,-1.836787\H,0,0.498179,1.196055,-1.844343\H,0,2.114
 048,1.204908,1.414334\H,0,3.468354,-0.00044,-0.163442\O,0,-1.962854,1.
 209558,0.330689\O,0,-1.962923,-1.207432,0.338212\H,0,2.114149,-1.19606
 8,1.421798\H,0,-2.790851,1.177524,0.825136\H,0,-2.790917,-1.172273,0.8

 Normal termination of Gaussian 16 at Wed Apr  9 00:14:09 2025.
