 Gaussian 16, Revision C.01,

 ----------------------------------------------------------------------
 #t hf aug-cc-pvdz symm=none int=(grid=ultrafine) guess=(read,tcheck) s
 table=(opt,rrhf)
 ----------------------------------------------------------------------
 -----
 title
 -----
 Symbolic Z-matrix:
 Charge =  0 Multiplicity = 1

 SCF Done:  E(RHF) =  -196.352663747     A.U. after   11 cycles
 Normal termination of Gaussian 16 at Tue Apr  8 22:42:47 2025.
 Gaussian 16:  ES64L-G16RevC.01  3-Jul-2019

 ----------------------------------------------------------------------
 #t hf aug-cc-pvdz iop(5/13=1,5/36=2,99/5=2) pseudo=read geom=check gue
 ss=(read,tcheck) scf=(maxcycle=1)
 ----------------------------------------------------------------------
 -----
 title
 -----
 Structure from the checkpoint file:  "BDE49_expt_13_mol1.chk"
 Charge =  0 Multiplicity = 1

                         Standard orientation:
 ---------------------------------------------------------------------
 Center     Atomic      Atomic             Coordinates (Angstroms)
 Number     Number       Type             X           Y           Z
 ---------------------------------------------------------------------
      1          6           0        2.101170   -0.032798   -0.115015
      2          6           0        0.764497   -0.661779    0.291854
      3          1           0        2.191810    0.999705    0.231732
      4          1           0        2.219908   -0.029564   -1.203407
      5          1           0        2.940409   -0.592778    0.306627
      6          6           0       -0.482303   -0.002691   -0.328636
      7          1           0        0.667073   -0.641948    1.385339
      8          1           0        0.772186   -1.720824    0.008397
      9          6           0       -1.740276   -0.823144   -0.011728
     10          1           0       -2.627456   -0.388470   -0.481507
     11          1           0       -1.920871   -0.858458    1.068337
     12          1           0       -1.644168   -1.853620   -0.366396
     13          6           0       -0.661431    1.454206    0.121540
     14          1           0       -0.347321   -0.003889   -1.419376
     15          1           0       -1.554352    1.895850   -0.330436
     16          1           0        0.190415    2.079049   -0.157112
     17          1           0       -0.777576    1.512182    1.209715
 ---------------------------------------------------------------------

 SCF Done:  E(RHF) =  -197.402348870     A.U. after    2 cycles

 The electronic state is 1-A.
 Alpha  occ. eigenvalues --  -11.41158 -11.39361 -11.37567 -11.36219 -11.33527
 Alpha  occ. eigenvalues --   -1.26378  -1.08386  -0.99284  -0.90131  -0.79046
 Alpha  occ. eigenvalues --   -0.63827  -0.60356  -0.58772  -0.55996  -0.52827
 Alpha  occ. eigenvalues --   -0.52464  -0.48719  -0.48013  -0.43746  -0.41917
 Alpha  occ. eigenvalues --   -0.40407
 Alpha virt. eigenvalues --    0.04216   0.05351   0.05675   0.05791   0.05904
 Alpha virt. eigenvalues --    0.06231   0.06382   0.06480   0.06713   0.08790
 Alpha virt. eigenvalues --    0.09185   0.09630   0.13401   0.13537   0.13940

 Mulliken charges:
               1
     1  C   -3.767455
     2  C   -3.065700
     3  H    1.423915
     4  H    1.244447
     5  H    1.069371
     6  C   -1.368261
     7  H    1.439616
     8  H    1.448359
     9  C   -4.049170
    10  H    1.215291
    11  H    1.329234
    12  H    1.279084
    13  C   -3.915502
    14  H    1.787423
    15  H    1.244495
    16  H    1.389271
    17  H    1.295581
 Sum of Mulliken charges =  -0.00000

 Dipole moment (field-independent basis, Debye):
    X=              0.0527    Y=             -0.0578    Z=             -0.1283  Tot=              0.1503

 Test job not archived.
 1\1\GINC-SE073\SP\RHF\Aug-CC-pVDZ\C5H12\OHZDE\08-Apr-2025\0\\#t hf aug
 -cc-pvdz iop(5/13=1,5/36=2,99/5=2) pseudo=read geom=check guess=(read,
 tcheck) scf=(maxcycle=1)\\title\\0,1\C,0,2.10117,-0.032798,-0.115015\C
 ,0,0.764497,-0.661779,0.291854\H,0,2.19181,0.999705,0.231732\H,0,2.219
 908,-0.029564,-1.203407\H,0,2.940409,-0.592778,0.306627\C,0,-0.482303,
 -0.002691,-0.328636\H,0,0.667073,-0.641948,1.385339\H,0,0.772186,-1.72
 0824,0.008397\C,0,-1.740276,-0.823144,-0.011728\H,0,-2.627456,-0.38847
 ,-0.481507\H,0,-1.920871,-0.858458,1.068337\H,0,-1.644168,-1.85362,-0.

 Normal termination of Gaussian 16 at Tue Apr  8 22:42:52 2025.
