 Gaussian 16, Revision C.01,

 ----------------------------------------------------------------------
 #t hf aug-cc-pvdz symm=none int=(grid=ultrafine) guess=(read,tcheck) s
 table=(opt,rrhf)
 ----------------------------------------------------------------------
 -----
 title
 -----
 Symbolic Z-matrix:
 Charge =  0 Multiplicity = 1

 SCF Done:  E(RHF) =  -441.936209458     A.U. after   11 cycles
 Normal termination of Gaussian 16 at Wed Apr  9 00:37:23 2025.
 Gaussian 16:  ES64L-G16RevC.01  3-Jul-2019

 ----------------------------------------------------------------------
 #t hf aug-cc-pvdz iop(5/13=1,5/36=2,99/5=2) pseudo=read geom=check gue
 ss=(read,tcheck) scf=(maxcycle=1)
 ----------------------------------------------------------------------
 -----
 title
 -----
 Structure from the checkpoint file:  "BDE49_nonexpt_539_mol1.chk"
 Charge =  0 Multiplicity = 1

                         Standard orientation:
 ---------------------------------------------------------------------
 Center     Atomic      Atomic             Coordinates (Angstroms)
 Number     Number       Type             X           Y           Z
 ---------------------------------------------------------------------
      1          6           0       -0.003031   -1.600006    0.432514
      2          8           0        1.059328   -1.190534   -0.386825
      3          6           0        1.724087   -0.005806   -0.024718
      4          8           0        1.067711    1.183732   -0.386323
      5          6           0        0.007712    1.599778    0.432751
      6          8           0       -1.265419    1.235120   -0.058822
      7          5           0       -1.808015    0.006074   -0.287192
      8          1           0       -2.911097    0.009797   -0.733461
      9          8           0       -1.273970   -1.226595   -0.058174
     10          1           0        2.656731   -0.008964   -0.584006
     11          1           0        1.919671   -0.006739    1.059762
     12          1           0        0.018686    2.688659    0.427908
     13          1           0        0.144703    1.229999    1.458349
     14          1           0        0.136905   -1.231764    1.458265
     15          1           0        0.000669   -2.688935    0.427009
 ---------------------------------------------------------------------

 SCF Done:  E(RHF) =  -443.810507901     A.U. after    2 cycles

 The electronic state is 1-A.
 Alpha  occ. eigenvalues --  -21.07258 -21.07216 -21.03737 -21.03708 -11.46905
 Alpha  occ. eigenvalues --  -11.46772 -11.45932  -7.65078  -1.88573  -1.78897
 Alpha  occ. eigenvalues --   -1.78371  -1.65437  -1.07197  -0.95208  -0.91066
 Alpha  occ. eigenvalues --   -0.77423  -0.71432  -0.68040  -0.64989  -0.64754
 Alpha  occ. eigenvalues --   -0.60347  -0.60276  -0.53969  -0.50879  -0.43971
 Alpha  occ. eigenvalues --   -0.42118  -0.39485  -0.35558  -0.34697  -0.32599
 Alpha  occ. eigenvalues --   -0.30132
 Alpha virt. eigenvalues --    0.03252   0.04450   0.04830   0.04835   0.05184
 Alpha virt. eigenvalues --    0.05524   0.06604   0.07325   0.07626   0.10550
 Alpha virt. eigenvalues --    0.11208   0.12405   0.13319   0.13681   0.14525

 Mulliken charges:
               1
     1  C    0.484188
     2  O   -2.926788
     3  C   -0.338088
     4  O   -2.926699
     5  C    0.484102
     6  O   -4.360789
     7  B    9.613174
     8  H   -4.345069
     9  O   -4.361595
    10  H    1.417444
    11  H    1.564088
    12  H    1.452354
    13  H    1.395421
    14  H    1.395753
    15  H    1.452504
 Sum of Mulliken charges =  -0.00000

 Dipole moment (field-independent basis, Debye):
    X=              1.8645    Y=             -0.0068    Z=              1.3705  Tot=              2.3140

 Test job not archived.
 1\1\GINC-SE249\SP\RHF\Aug-CC-pVDZ\C3H7B1O4\OHZDE\09-Apr-2025\0\\#t hf
 aug-cc-pvdz iop(5/13=1,5/36=2,99/5=2) pseudo=read geom=check guess=(re
 ad,tcheck) scf=(maxcycle=1)\\title\\0,1\C,0,-0.003027,-1.600006,0.4325
 14\O,0,1.059331,-1.190532,-0.386825\C,0,1.724087,-0.005802,-0.024718\O
 ,0,1.067708,1.183734,-0.386323\C,0,0.007708,1.599778,0.432751\O,0,-1.2
 65422,1.235117,-0.058822\B,0,-1.808015,0.00607,-0.287192\H,0,-2.911097
 ,0.00979,-0.733461\O,0,-1.273967,-1.226598,-0.058174\H,0,2.656731,-0.0
 08958,-0.584006\H,0,1.919671,-0.006735,1.059762\H,0,0.01868,2.688659,0

 Normal termination of Gaussian 16 at Wed Apr  9 00:37:29 2025.
