 Gaussian 16, Revision C.01,

 ----------------------------------------------------------------------
 #t hf aug-cc-pvdz symm=none int=(grid=ultrafine) guess=(read,tcheck) s
 table=(opt,rrhf)
 ----------------------------------------------------------------------
 -----
 title
 -----
 Symbolic Z-matrix:
 Charge =  0 Multiplicity = 1

 SCF Done:  E(RHF) =  -966.447031138     A.U. after   15 cycles
 Normal termination of Gaussian 16 at Wed Apr  9 00:19:55 2025.
 Gaussian 16:  ES64L-G16RevC.01  3-Jul-2019

 ----------------------------------------------------------------------
 #t hf aug-cc-pvdz iop(5/13=1,5/36=2,99/5=2) pseudo=read geom=check gue
 ss=(read,tcheck) scf=(maxcycle=1)
 ----------------------------------------------------------------------
 -----
 title
 -----
 Structure from the checkpoint file:  "BDE49_nonexpt_2593_mol1.chk"
 Charge =  0 Multiplicity = 1

                         Standard orientation:
 ---------------------------------------------------------------------
 Center     Atomic      Atomic             Coordinates (Angstroms)
 Number     Number       Type             X           Y           Z
 ---------------------------------------------------------------------
      1         17           0       -1.547157   -0.477847    0.000032
      2         16           0        0.045144    0.923288   -0.000009
      3          7           0        1.489379    0.205241    0.000017
      4          7           0        1.765740   -1.002614   -0.000083
      5          1           0        2.793526   -1.067594    0.000071
 ---------------------------------------------------------------------

 SCF Done:  E(RHF) =  -967.388867802     A.U. after    2 cycles

 The electronic state is 1-A.
 Alpha  occ. eigenvalues --  -99.91287 -75.78568 -15.85954 -15.83054 -13.27427
 Alpha  occ. eigenvalues --  -13.13412 -13.09253 -10.48353  -9.68040  -9.67452
 Alpha  occ. eigenvalues --   -9.67380  -8.12669  -1.58000  -1.33101  -1.18726
 Alpha  occ. eigenvalues --   -0.88208  -0.71069  -0.62234  -0.58608  -0.54604
 Alpha  occ. eigenvalues --   -0.54169  -0.48683  -0.37463  -0.28405
 Alpha virt. eigenvalues --    0.03679   0.04731   0.07862   0.08685   0.10377
 Alpha virt. eigenvalues --    0.12725   0.13440   0.13730   0.14700   0.16468
 Alpha virt. eigenvalues --    0.16918   0.19014   0.19099   0.19997   0.21385

 Mulliken charges:
               1
     1  Cl  -0.353752
     2  S    1.604944
     3  N   -0.620973
     4  N   -1.403094
     5  H    0.772875
 Sum of Mulliken charges =  -0.00000

 Dipole moment (field-independent basis, Debye):
    X=              1.8299    Y=              2.8124    Z=              0.0001  Tot=              3.3553

 Test job not archived.
 1\1\GINC-SE049\SP\RHF\Aug-CC-pVDZ\Cl1H1N2S1\OHZDE\09-Apr-2025\0\\#t hf
  aug-cc-pvdz iop(5/13=1,5/36=2,99/5=2) pseudo=read geom=check guess=(r
 ead,tcheck) scf=(maxcycle=1)\\title\\0,1\Cl,0,1.547157,-0.477847,-0.00
 0032\S,0,-0.045144,0.923288,0.000009\N,0,-1.489379,0.205241,-0.000017\
 N,0,-1.76574,-1.002615,0.000083\H,0,-2.793526,-1.067595,-0.000071\\Ver
 sion=ES64L-G16RevC.01\State=1-A\HF=-967.3888678\RMSD=9.666e-02\Dipole=
 -0.719936,1.1064717,-0.0000454\Quadrupole=1.1777681,1.0168179,-2.19458
 6,1.2369018,0.0002523,0.0002524\PG=C01 [X(Cl1H1N2S1)]\\@

 Normal termination of Gaussian 16 at Wed Apr  9 00:19:56 2025.
