 Gaussian 16, Revision C.01,

 ----------------------------------------------------------------------
 #t hf aug-cc-pvdz symm=none int=(grid=ultrafine) guess=(read,tcheck) s
 table=opt
 ----------------------------------------------------------------------
 -----
 title
 -----
 Symbolic Z-matrix:
 Charge =  0 Multiplicity = 2

 SCF Done:  E(UHF) =  -1420.50799640     A.U. after   27 cycles
 Normal termination of Gaussian 16 at Wed Apr  9 00:52:20 2025.
 Gaussian 16:  ES64L-G16RevC.01  3-Jul-2019

 ----------------------------------------------------------------------
 #t hf aug-cc-pvdz iop(5/13=1,5/36=2,99/5=2) pseudo=read geom=check gue
 ss=(read,tcheck) scf=(maxcycle=1)
 ----------------------------------------------------------------------
 -----
 title
 -----
 Structure from the checkpoint file:  "BDE49_nonexpt_924_mol2.chk"
 Charge =  0 Multiplicity = 2

                         Standard orientation:
 ---------------------------------------------------------------------
 Center     Atomic      Atomic             Coordinates (Angstroms)
 Number     Number       Type             X           Y           Z
 ---------------------------------------------------------------------
      1         17           0        2.659730   -0.985595   -0.069738
      2         17           0       -2.659729   -0.985596   -0.069738
      3          7           0       -0.000000    1.832424    0.446575
      4          7           0        1.170312   -0.153113    0.056561
      5          7           0       -1.170312   -0.153113    0.056560
      6          6           0       -1.208103    1.257578    0.046482
      7          6           0        1.208103    1.257578    0.046486
      8          6           0        0.000000   -0.945615    0.086128
      9          8           0       -2.182453    1.906844   -0.212640
     10          8           0        2.182452    1.906844   -0.212642
     11          8           0        0.000000   -2.137487    0.097611
 ---------------------------------------------------------------------

 SCF Done:  E(UHF) =  -1423.04499043     A.U. after    2 cycles

 The electronic state is 2-A.
 Alpha  occ. eigenvalues --  -99.97262 -99.97252 -21.12221 -21.12198 -21.10604
 Alpha  occ. eigenvalues --  -15.87154 -15.86704 -15.86666 -11.59985 -11.59386
 Alpha  occ. eigenvalues --  -11.57586 -10.54393 -10.54377  -9.74566  -9.74356
 Alpha  occ. eigenvalues --   -9.73471  -9.73428  -9.73096  -9.73089  -1.83090
 Alpha  occ. eigenvalues --   -1.79961  -1.79630  -1.58316  -1.52225  -1.45579
 Alpha  occ. eigenvalues --   -1.29583  -1.24666  -0.98689  -0.97517  -0.83884
 Alpha  occ. eigenvalues --   -0.81191  -0.76755  -0.68836  -0.66935  -0.65764
 Alpha  occ. eigenvalues --   -0.63255  -0.60287  -0.58924  -0.58776  -0.56067
 Alpha  occ. eigenvalues --   -0.55328  -0.54515  -0.50584  -0.44802  -0.41918
 Alpha  occ. eigenvalues --   -0.40487  -0.39609  -0.38809  -0.33998
 Alpha virt. eigenvalues --   -0.00213   0.03754   0.04761   0.08651   0.08987
 Alpha virt. eigenvalues --    0.09301   0.09457   0.09779   0.10608   0.11016
 Alpha virt. eigenvalues --    0.11434   0.12133   0.13007   0.13243   0.13722

  Beta  occ. eigenvalues --  -99.97253 -99.97244 -21.11423 -21.11400 -21.10610
  Beta  occ. eigenvalues --  -15.86665 -15.86628 -15.84172 -11.60066 -11.59912
  Beta  occ. eigenvalues --  -11.58032 -10.54384 -10.54368  -9.74540  -9.74333
  Beta  occ. eigenvalues --   -9.73458  -9.73418  -9.73082  -9.73076  -1.82196
  Beta  occ. eigenvalues --   -1.78901  -1.78632  -1.57287  -1.52064  -1.39467
  Beta  occ. eigenvalues --   -1.27339  -1.24554  -0.97962  -0.97213  -0.83362
  Beta  occ. eigenvalues --   -0.80177  -0.75106  -0.68750  -0.66946  -0.63034
  Beta  occ. eigenvalues --   -0.62011  -0.59469  -0.58459  -0.56564  -0.55578
  Beta  occ. eigenvalues --   -0.55206  -0.54338  -0.45616  -0.41127  -0.39269
  Beta  occ. eigenvalues --   -0.39213  -0.36762  -0.33310
  Beta virt. eigenvalues --   -0.02066   0.01517   0.03807   0.04853   0.08646
  Beta virt. eigenvalues --    0.09022   0.09394   0.09517   0.09917   0.10611
  Beta virt. eigenvalues --    0.11087   0.11581   0.12472   0.13280   0.13683

 Mulliken charges and spin densities:
               1          2
     1  Cl   0.615460   0.002338
     2  Cl   0.615462   0.002338
     3  N   -2.653650   1.135666
     4  N   -2.150662   0.017960
     5  N   -2.150665   0.017959
     6  C    4.912401  -0.310605
     7  C    4.912411  -0.310605
     8  C    4.512922   0.011397
     9  O   -2.859891   0.219833
    10  O   -2.859892   0.219834
    11  O   -2.893897  -0.006116
 Sum of Mulliken charges =  -0.00000   1.00000

 Dipole moment (field-independent basis, Debye):
    X=             -0.0000    Y=             -0.2309    Z=             -0.1055  Tot=              0.2539
                          Isotropic Fermi Contact Couplings
        Atom                 a.u.       MegaHertz       Gauss      10(-4) cm-1
     1  Cl(35)             0.00260       1.14118       0.40720       0.38066
     2  Cl(35)             0.00260       1.14118       0.40720       0.38066
     3  N(14)              0.23176      74.88214      26.71981      24.97799
     4  N(14)              0.00690       2.22795       0.79499       0.74316
     5  N(14)              0.00690       2.22804       0.79502       0.74319
     6  C(13)             -0.04135     -46.48226     -16.58603     -15.50481
     7  C(13)             -0.04135     -46.48230     -16.58604     -15.50483
     8  C(13)             -0.00066      -0.74177      -0.26468      -0.24743

 Normal termination of Gaussian 16 at Wed Apr  9 00:52:30 2025.
