 Gaussian 16, Revision C.01,

 ----------------------------------------------------------------------
 #t hf aug-cc-pvdz symm=none int=(grid=ultrafine) guess=(read,tcheck) s
 table=(opt,rrhf)
 ----------------------------------------------------------------------
 -----
 title
 -----
 Symbolic Z-matrix:
 Charge =  0 Multiplicity = 1

 SCF Done:  E(RHF) =  -561.364994224     A.U. after   12 cycles
 Normal termination of Gaussian 16 at Wed Apr  9 00:09:26 2025.
 Gaussian 16:  ES64L-G16RevC.01  3-Jul-2019

 ----------------------------------------------------------------------
 #t hf aug-cc-pvdz iop(5/13=1,5/36=2,99/5=2) pseudo=read geom=check gue
 ss=(read,tcheck) scf=(maxcycle=1)
 ----------------------------------------------------------------------
 -----
 title
 -----
 Structure from the checkpoint file:  "BDE49_nonexpt_2289_mol1.chk"
 Charge =  0 Multiplicity = 1

                         Standard orientation:
 ---------------------------------------------------------------------
 Center     Atomic      Atomic             Coordinates (Angstroms)
 Number     Number       Type             X           Y           Z
 ---------------------------------------------------------------------
      1          6           0        1.223616    0.074048   -0.000721
      2          8           0       -0.178248    0.391296   -0.136269
      3         14           0       -1.548248   -0.515510   -0.000030
      4          6           0       -2.987222    0.672628   -0.019609
      5          6           0        1.557176   -0.061246    1.490268
      6          1           0        2.625604   -0.244912    1.633925
      7          1           0        1.006296   -0.890687    1.940671
      8          1           0        1.289478    0.856032    2.019715
      9          6           0        1.553649   -1.219478   -0.756141
     10          1           0        1.027541   -2.076369   -0.325114
     11          1           0        2.625640   -1.428732   -0.707741
     12          1           0        1.267584   -1.133579   -1.807091
     13          1           0       -2.935363    1.365488    0.824132
     14          1           0       -3.933363    0.126142    0.043899
     15          1           0       -2.994338    1.259103   -0.942061
     16          6           0        1.968678    1.261548   -0.616075
     17          1           0        3.051064    1.128657   -0.536747
     18          1           0        1.690425    2.184153   -0.102176
     19          1           0        1.705076    1.366289   -1.670933
     20          1           0       -1.550018   -1.309702    1.257945
     21          1           0       -1.669557   -1.480111   -1.124183
 ---------------------------------------------------------------------

 SCF Done:  E(RHF) =  -562.876390654     A.U. after    2 cycles

 The electronic state is 1-A.
 Alpha  occ. eigenvalues --  -76.21573 -21.02359 -11.45041 -11.39395 -11.38983
 Alpha  occ. eigenvalues --  -11.34950 -11.34210  -5.55424  -2.22545  -2.18476
 Alpha  occ. eigenvalues --   -2.16912  -1.69225  -1.20337  -1.03079  -1.01299
 Alpha  occ. eigenvalues --   -1.00884  -0.80046  -0.69771  -0.62263  -0.61648
 Alpha  occ. eigenvalues --   -0.60989  -0.56033  -0.54998  -0.54877  -0.54646
 Alpha  occ. eigenvalues --   -0.51395  -0.47196  -0.46797  -0.45670  -0.45167
 Alpha  occ. eigenvalues --   -0.40772  -0.34097  -0.33204
 Alpha virt. eigenvalues --    0.03821   0.04702   0.05333   0.05453   0.05752
 Alpha virt. eigenvalues --    0.05914   0.06034   0.06287   0.06503   0.08069
 Alpha virt. eigenvalues --    0.08688   0.08909   0.09434   0.09726   0.10544

 Mulliken charges:
               1
     1  C    4.552946
     2  O   -4.891176
     3  Si   7.207954
     4  C   -5.090989
     5  C   -4.354720
     6  H    1.186988
     7  H    1.435827
     8  H    1.288076
     9  C   -4.430906
    10  H    1.258309
    11  H    1.159133
    12  H    1.363911
    13  H    1.293703
    14  H    1.236719
    15  H    1.340709
    16  C   -4.156921
    17  H    1.216747
    18  H    1.338293
    19  H    1.283567
    20  H   -2.070094
    21  H   -2.168073
 Sum of Mulliken charges =  -0.00000

 Dipole moment (field-independent basis, Debye):
    X=              0.6080    Y=              0.7241    Z=             -0.0284  Tot=              0.9459

 Test job not archived.
 1\1\GINC-SE333\SP\RHF\Aug-CC-pVDZ\C5H14O1Si1\OHZDE\09-Apr-2025\0\\#t h
 f aug-cc-pvdz iop(5/13=1,5/36=2,99/5=2) pseudo=read geom=check guess=(
 read,tcheck) scf=(maxcycle=1)\\title\\0,1\C,0,-1.223616,-0.074048,-0.0
 00721\O,0,0.178248,-0.391296,-0.136269\Si,0,1.548248,0.51551,-0.00003\
 C,0,2.987222,-0.672628,-0.019609\C,0,-1.557176,0.061246,1.490268\H,0,-
 2.625604,0.244912,1.633925\H,0,-1.006296,0.890687,1.940671\H,0,-1.2894
 78,-0.856032,2.019715\C,0,-1.553649,1.219478,-0.756141\H,0,-1.027541,2
 .076369,-0.325114\H,0,-2.62564,1.428732,-0.707741\H,0,-1.267584,1.1335

 Normal termination of Gaussian 16 at Wed Apr  9 00:09:35 2025.
