 Gaussian 16, Revision C.01,

 ----------------------------------------------------------------------
 #t hf aug-cc-pvdz symm=none int=(grid=ultrafine) guess=(read,tcheck) s
 table=(opt,rrhf)
 ----------------------------------------------------------------------
 -----
 title
 -----
 Symbolic Z-matrix:
 Charge =  0 Multiplicity = 1

 SCF Done:  E(RHF) =  -1297.32292693     A.U. after   15 cycles
 Normal termination of Gaussian 16 at Wed Apr  9 00:54:38 2025.
 Gaussian 16:  ES64L-G16RevC.01  3-Jul-2019

 ----------------------------------------------------------------------
 #t hf aug-cc-pvdz iop(5/13=1,5/36=2,99/5=2) pseudo=read geom=check gue
 ss=(read,tcheck) scf=(maxcycle=1)
 ----------------------------------------------------------------------
 -----
 title
 -----
 Structure from the checkpoint file:  "BDE49_nonexpt_999_mol1.chk"
 Charge =  0 Multiplicity = 1

                         Standard orientation:
 ---------------------------------------------------------------------
 Center     Atomic      Atomic             Coordinates (Angstroms)
 Number     Number       Type             X           Y           Z
 ---------------------------------------------------------------------
      1          7           0        1.557127    0.027818   -0.390769
      2         16           0        0.470552   -0.087237    1.018377
      3          9           0        2.433377   -1.055540   -0.279219
      4          9           0        2.403680    1.107095   -0.114883
      5         16           0       -1.318072   -0.135616   -0.103666
      6          8           0       -2.325399   -0.343904    0.882969
      7          8           0       -1.183338   -0.882057   -1.305884
      8          9           0       -1.422575    1.412734   -0.552195
 ---------------------------------------------------------------------

 SCF Done:  E(RHF) =  -1299.68726503     A.U. after    2 cycles

 The electronic state is 1-A.
 Alpha  occ. eigenvalues --  -76.00088 -75.81733 -29.34852 -29.34582 -29.34536
 Alpha  occ. eigenvalues --  -21.13177 -21.13069 -15.95815 -13.64080 -13.52264
 Alpha  occ. eigenvalues --  -13.41498 -13.27447 -13.19231 -13.14498  -8.35590
 Alpha  occ. eigenvalues --   -8.15845  -1.92151  -1.73397  -1.58448  -1.22878
 Alpha  occ. eigenvalues --   -1.08763  -0.88074  -0.80438  -0.74611  -0.70043
 Alpha  occ. eigenvalues --   -0.61169  -0.56916  -0.52520  -0.49125  -0.47874
 Alpha  occ. eigenvalues --   -0.46466  -0.43737  -0.43552  -0.40102  -0.38349
 Alpha  occ. eigenvalues --   -0.36850  -0.33999  -0.33512  -0.28062  -0.25294
 Alpha  occ. eigenvalues --   -0.23691
 Alpha virt. eigenvalues --    0.05074   0.07305   0.08629   0.10532   0.11366
 Alpha virt. eigenvalues --    0.11531   0.13748   0.14289   0.15750   0.17981
 Alpha virt. eigenvalues --    0.18524   0.19241   0.20455   0.20507   0.22105

 Mulliken charges:
               1
     1  N    0.042460
     2  S    0.345149
     3  F   -0.121761
     4  F   -0.134381
     5  S    4.651111
     6  O   -2.388572
     7  O   -2.536556
     8  F    0.142550
 Sum of Mulliken charges =  -0.00000

 Dipole moment (field-independent basis, Debye):
    X=              3.5368    Y=              3.8107    Z=              0.6413  Tot=              5.2385

 Test job not archived.
 1\1\GINC-SE009\SP\RHF\Aug-CC-pVDZ\F3N1O2S2\OHZDE\09-Apr-2025\0\\#t hf
 aug-cc-pvdz iop(5/13=1,5/36=2,99/5=2) pseudo=read geom=check guess=(re
 ad,tcheck) scf=(maxcycle=1)\\title\\0,1\N,0,1.557127,0.027818,-0.39076
 9\S,0,0.470552,-0.087237,1.018377\F,0,2.433377,-1.05554,-0.279219\F,0,
 2.40368,1.107095,-0.114883\S,0,-1.318072,-0.135616,-0.103666\O,0,-2.32
 5399,-0.343904,0.882969\O,0,-1.183338,-0.882057,-1.305884\F,0,-1.42257
 5,1.412734,-0.552195\\Version=ES64L-G16RevC.01\State=1-A\HF=-1299.6872
 65\RMSD=5.229e-02\Dipole=1.391497,1.4992352,0.2523241\Quadrupole=2.447

 Normal termination of Gaussian 16 at Wed Apr  9 00:54:42 2025.
