 Gaussian 16, Revision C.01,

 ----------------------------------------------------------------------
 #t hf aug-cc-pvdz symm=none int=(grid=ultrafine) guess=(read,tcheck) s
 table=(opt,rrhf)
 ----------------------------------------------------------------------
 -----
 title
 -----
 Symbolic Z-matrix:
 Charge =  0 Multiplicity = 1

 SCF Done:  E(RHF) =  -731.017181075     A.U. after   13 cycles

 1\1\GINC-SE082\Stability\RHF\Aug-CC-pVDZ\H6O2Si2\OHZDE\09-Apr-2025\0\\
 #t hf aug-cc-pvdz symm=none int=(grid=ultrafine) guess=(read,tcheck) s
 table=(opt,rrhf)\\title\\0,1\Si,0,-0.156697,0.679095,0.013798\Si,0,2.0
 08052,-0.255603,-0.000816\O,0,-1.15858,-0.678183,-0.025965\H,0,-0.3948
 19,1.542924,-1.165055\H,0,-0.410585,1.473187,1.240421\H,0,2.989592,0.8
 55462,0.065842\H,0,2.242534,-1.027312,-1.242927\O,0,-2.546664,-0.19416
 9,-0.090102\H,0,-2.913021,-0.655622,0.676882\H,0,2.209274,-1.138711,1.
 171617\\Version=ES64L-G16RevC.01\HF=-731.0171811\RMSD=3.473e-09\Dipole

 Normal termination of Gaussian 16 at Wed Apr  9 00:10:49 2025.
 Gaussian 16:  ES64L-G16RevC.01  3-Jul-2019

 ----------------------------------------------------------------------
 #t hf aug-cc-pvdz iop(5/13=1,5/36=2,99/5=2) pseudo=read geom=check gue
 ss=(read,tcheck) scf=(maxcycle=1)
 ----------------------------------------------------------------------
 -----
 title
 -----
 Structure from the checkpoint file:  "BDE49_nonexpt_2359_mol1.chk"
 Charge =  0 Multiplicity = 1

                         Standard orientation:
 ---------------------------------------------------------------------
 Center     Atomic      Atomic             Coordinates (Angstroms)
 Number     Number       Type             X           Y           Z
 ---------------------------------------------------------------------
      1         14           0       -0.156697    0.679095    0.013798
      2         14           0        2.008052   -0.255603   -0.000816
      3          8           0       -1.158580   -0.678183   -0.025965
      4          1           0       -0.394819    1.542924   -1.165055
      5          1           0       -0.410585    1.473187    1.240421
      6          1           0        2.989592    0.855462    0.065842
      7          1           0        2.242534   -1.027312   -1.242927
      8          8           0       -2.546664   -0.194169   -0.090102
      9          1           0       -2.913021   -0.655622    0.676882
     10          1           0        2.209274   -1.138711    1.171617
 ---------------------------------------------------------------------

 SCF Done:  E(RHF) =  -731.949318227     A.U. after    2 cycles

 The electronic state is 1-A.
 Alpha  occ. eigenvalues --  -76.24381 -76.22055 -21.13153 -21.09234  -5.58008
 Alpha  occ. eigenvalues --   -5.55496  -2.23968  -2.19481  -2.18868  -2.17567
 Alpha  occ. eigenvalues --   -2.17557  -2.16590  -1.90182  -1.40888  -0.80475
 Alpha  occ. eigenvalues --   -0.71286  -0.62851  -0.52392  -0.50578  -0.48145
 Alpha  occ. eigenvalues --   -0.47312  -0.46471  -0.36548  -0.35424  -0.30407
 Alpha virt. eigenvalues --    0.04195   0.04491   0.05909   0.06597   0.06983
 Alpha virt. eigenvalues --    0.07501   0.08599   0.08730   0.09397   0.09451
 Alpha virt. eigenvalues --    0.09992   0.10341   0.12722   0.14231   0.14921

 Mulliken charges:
               1
     1  Si   4.784039
     2  Si   4.271167
     3  O   -1.242290
     4  H   -1.668607
     5  H   -1.699740
     6  H   -1.491436
     7  H   -1.481333
     8  O   -1.016517
     9  H    1.022711
    10  H   -1.477994
 Sum of Mulliken charges =  -0.00000

 Dipole moment (field-independent basis, Debye):
    X=             -0.5560    Y=             -0.3427    Z=              0.5678  Tot=              0.8655

 Test job not archived.
 1\1\GINC-SE082\SP\RHF\Aug-CC-pVDZ\H6O2Si2\OHZDE\09-Apr-2025\0\\#t hf a
 ug-cc-pvdz iop(5/13=1,5/36=2,99/5=2) pseudo=read geom=check guess=(rea
 d,tcheck) scf=(maxcycle=1)\\title\\0,1\Si,0,-0.156697,0.679095,0.01379
 8\Si,0,2.008052,-0.255603,-0.000816\O,0,-1.15858,-0.678183,-0.025965\H
 ,0,-0.394819,1.542924,-1.165055\H,0,-0.410585,1.473187,1.240421\H,0,2.
 989592,0.855462,0.065842\H,0,2.242534,-1.027312,-1.242927\O,0,-2.54666
 4,-0.194169,-0.090102\H,0,-2.913021,-0.655622,0.676882\H,0,2.209274,-1
 .138711,1.171617\\Version=ES64L-G16RevC.01\State=1-A\HF=-731.9493182\R

 Normal termination of Gaussian 16 at Wed Apr  9 00:10:52 2025.
