 Gaussian 16, Revision C.01,

 ----------------------------------------------------------------------
 #t hf aug-cc-pvdz symm=none int=(grid=ultrafine) guess=(read,tcheck) s
 table=opt
 ----------------------------------------------------------------------
 -----
 title
 -----
 Symbolic Z-matrix:
 Charge =  0 Multiplicity = 2

 SCF Done:  E(UHF) =  -1013.22855507     A.U. after   27 cycles
 Normal termination of Gaussian 16 at Tue Apr  8 23:26:28 2025.
 Gaussian 16:  ES64L-G16RevC.01  3-Jul-2019

 ----------------------------------------------------------------------
 #t hf aug-cc-pvdz iop(5/13=1,5/36=2,99/5=2) pseudo=read geom=check gue
 ss=(read,tcheck) scf=(maxcycle=1)
 ----------------------------------------------------------------------
 -----
 title
 -----
 Structure from the checkpoint file:  "BDE49_expt_714_mol2.chk"
 Charge =  0 Multiplicity = 2

                         Standard orientation:
 ---------------------------------------------------------------------
 Center     Atomic      Atomic             Coordinates (Angstroms)
 Number     Number       Type             X           Y           Z
 ---------------------------------------------------------------------
      1          6           0        0.429644    1.129671    0.487048
      2          6           0        1.407918   -0.045537    0.321240
      3          6           0        0.824731   -1.392131    0.759029
      4          6           0       -0.682388   -1.561136    0.665433
      5          6           0       -1.491350   -0.566659   -0.195869
      6          1           0       -1.031472   -1.520482    1.703942
      7          1           0       -0.878326   -2.583119    0.333536
      8          7           0       -0.860282    0.795106   -0.184709
      9          6           0        0.187019    1.352025    2.001254
     10          1           0       -0.145695    0.450180    2.518385
     11          1           0       -0.581787    2.117011    2.121519
     12          1           0        1.101653    1.701805    2.486584
     13          6           0        0.985163    2.422509   -0.120622
     14          1           0        1.079064    2.342534   -1.201857
     15          1           0        1.970207    2.626765    0.306695
     16          1           0        0.319606    3.254055    0.102223
     17          6           0       -2.911580   -0.438900    0.383164
     18          1           0       -2.883260   -0.064883    1.409877
     19          1           0       -3.400111   -1.416786    0.384382
     20          1           0       -3.500589    0.252416   -0.217555
     21          6           0       -1.575270   -1.033277   -1.661554
     22          1           0       -0.586144   -1.211920   -2.084159
     23          1           0       -2.073097   -0.265722   -2.255414
     24          1           0       -2.154942   -1.957977   -1.725607
     25          8           0       -1.556295    1.754377   -0.658227
     26          8           0        1.533599   -2.250993    1.220811
     27         17           0        1.976858   -0.273462   -1.400911
     28          1           0        2.318535    0.132765    0.890482
 ---------------------------------------------------------------------

 SCF Done:  E(UHF) =  -1016.08482348     A.U. after    2 cycles

 The electronic state is 2-A.
 Alpha  occ. eigenvalues --  -99.89542 -21.07419 -21.07339 -15.80169 -11.56175
 Alpha  occ. eigenvalues --  -11.50856 -11.48745 -11.47864 -11.44312 -11.41907
 Alpha  occ. eigenvalues --  -11.40636 -11.38874 -11.37500 -10.46771  -9.66833
 Alpha  occ. eigenvalues --   -9.66257  -9.66206  -1.82723  -1.73230  -1.39816
 Alpha  occ. eigenvalues --   -1.31816  -1.25920  -1.11933  -1.07508  -1.03919
 Alpha  occ. eigenvalues --   -1.03742  -1.02384  -0.87494  -0.82770  -0.72561
 Alpha  occ. eigenvalues --   -0.71369  -0.69996  -0.67081  -0.63790  -0.62987
 Alpha  occ. eigenvalues --   -0.61248  -0.59333  -0.58849  -0.56660  -0.55810
 Alpha  occ. eigenvalues --   -0.55360  -0.54135  -0.53783  -0.52827  -0.52218
 Alpha  occ. eigenvalues --   -0.50465  -0.49204  -0.47181  -0.46348  -0.45349
 Alpha  occ. eigenvalues --   -0.42932  -0.41929  -0.31270  -0.29632  -0.25613
 Alpha virt. eigenvalues --    0.03545   0.04165   0.04211   0.05208   0.05634
 Alpha virt. eigenvalues --    0.05666   0.06263   0.06418   0.06613   0.07180
 Alpha virt. eigenvalues --    0.07489   0.07798   0.08104   0.08477   0.09332

  Beta  occ. eigenvalues --  -99.89543 -21.07411 -21.04593 -15.78219 -11.56185
  Beta  occ. eigenvalues --  -11.50938 -11.48868 -11.47932 -11.44321 -11.41838
  Beta  occ. eigenvalues --  -11.40575 -11.38845 -11.37457 -10.46773  -9.66842
  Beta  occ. eigenvalues --   -9.66258  -9.66204  -1.77035  -1.73033  -1.38721
  Beta  occ. eigenvalues --   -1.30777  -1.25725  -1.10509  -1.04959  -1.03669
  Beta  occ. eigenvalues --   -1.03436  -1.02198  -0.87343  -0.82513  -0.71641
  Beta  occ. eigenvalues --   -0.70970  -0.68164  -0.66897  -0.63045  -0.62215
  Beta  occ. eigenvalues --   -0.59800  -0.59003  -0.58005  -0.56619  -0.55712
  Beta  occ. eigenvalues --   -0.55205  -0.53900  -0.53692  -0.51423  -0.50350
  Beta  occ. eigenvalues --   -0.49765  -0.48713  -0.46807  -0.46052  -0.42831
  Beta  occ. eigenvalues --   -0.42009  -0.36765  -0.29663  -0.29394
  Beta virt. eigenvalues --    0.03554   0.04165   0.04191   0.05197   0.05634
  Beta virt. eigenvalues --    0.05672   0.06260   0.06381   0.06591   0.07146
  Beta virt. eigenvalues --    0.07466   0.07777   0.08096   0.08479   0.09336

 Mulliken charges and spin densities:
               1          2
     1  C    7.838899  -0.124858
     2  C   -5.194308   0.048494
     3  C    7.084154  -0.006547
     4  C   -4.069011   0.030447
     5  C    5.996974  -0.131678
     6  H    1.342391   0.001314
     7  H    1.016743  -0.002727
     8  N   -1.207241   0.326555
     9  C   -4.703322   0.042473
    10  H    1.328061  -0.002281
    11  H    1.311711  -0.011632
    12  H    1.134451  -0.001332
    13  C   -6.077620   0.029081
    14  H    1.282921  -0.007925
    15  H    1.037045  -0.001267
    16  H    1.323331  -0.007472
    17  C   -5.638030   0.035932
    18  H    1.184582  -0.005270
    19  H    1.191376  -0.003136
    20  H    1.284774  -0.016253
    21  C   -5.501542   0.041494
    22  H    1.229769  -0.005031
    23  H    1.289424  -0.008729
    24  H    1.212737  -0.002814
    25  O   -2.967415   0.790973
    26  O   -4.045524   0.002034
    27  Cl   0.009460  -0.004485
    28  H    1.305211  -0.005360
 Sum of Mulliken charges =   0.00000   1.00000

 Dipole moment (field-independent basis, Debye):
    X=             -1.1538    Y=              0.4565    Z=              2.0267  Tot=              2.3763
                          Isotropic Fermi Contact Couplings
        Atom                 a.u.       MegaHertz       Gauss      10(-4) cm-1
     1  C(13)             -0.02106     -23.67019      -8.44611      -7.89553
     2  C(13)              0.00831       9.34184       3.33340       3.11610
     3  C(13)             -0.00101      -1.13149      -0.40374      -0.37743
     4  C(13)              0.00108       1.21063       0.43198       0.40382
     5  C(13)             -0.02081     -23.39793      -8.34896      -7.80471
     6  H(1)              -0.00025      -1.12657      -0.40199      -0.37578
     7  H(1)              -0.00038      -1.68473      -0.60115      -0.56197
     8  N(14)              0.17015      54.97518      19.61651      18.33775

 Normal termination of Gaussian 16 at Tue Apr  8 23:27:02 2025.
