 Gaussian 16, Revision C.01,

 ----------------------------------------------------------------------
 #t hf aug-cc-pvdz symm=none int=(grid=ultrafine) guess=(read,tcheck) s
 table=(opt,rrhf)
 ----------------------------------------------------------------------
 -----
 title
 -----
 Symbolic Z-matrix:
 Charge =  0 Multiplicity = 1

 SCF Done:  E(RHF) =  -901.970332583     A.U. after   13 cycles
 Normal termination of Gaussian 16 at Tue Apr  8 23:50:21 2025.
 Gaussian 16:  ES64L-G16RevC.01  3-Jul-2019

 ----------------------------------------------------------------------
 #t hf aug-cc-pvdz iop(5/13=1,5/36=2,99/5=2) pseudo=read geom=check gue
 ss=(read,tcheck) scf=(maxcycle=1)
 ----------------------------------------------------------------------
 -----
 title
 -----
 Structure from the checkpoint file:  "BDE49_nonexpt_1872_mol1.chk"
 Charge =  0 Multiplicity = 1

                         Standard orientation:
 ---------------------------------------------------------------------
 Center     Atomic      Atomic             Coordinates (Angstroms)
 Number     Number       Type             X           Y           Z
 ---------------------------------------------------------------------
      1          6           0       -0.619265    0.396339    0.857752
      2         14           0       -2.015875   -0.317637   -0.238604
      3          6           0        0.640266    0.656303    0.104181
      4          8           0        1.000219    1.657704   -0.406089
      5          1           0       -3.217991   -0.413872    0.617439
      6          1           0       -1.640028   -1.653921   -0.739745
      7          1           0       -2.266989    0.603898   -1.365917
      8         17           0        1.684325   -0.865356   -0.036877
      9          1           0       -0.443735   -0.306377    1.673119
     10          1           0       -0.970295    1.350756    1.259587
 ---------------------------------------------------------------------

 SCF Done:  E(RHF) =  -903.051592739     A.U. after    2 cycles

 The electronic state is 1-A.
 Alpha  occ. eigenvalues --  -99.89471 -76.24325 -21.10357 -11.56045 -11.40928
 Alpha  occ. eigenvalues --  -10.46727  -9.66585  -9.65931  -9.65848  -5.57763
 Alpha  occ. eigenvalues --   -2.21226  -2.20066  -2.19989  -1.76414  -1.31420
 Alpha  occ. eigenvalues --   -1.13446  -0.82774  -0.77043  -0.67941  -0.62605
 Alpha  occ. eigenvalues --   -0.59098  -0.54872  -0.50972  -0.49476  -0.48861
 Alpha  occ. eigenvalues --   -0.48125  -0.41509  -0.34947
 Alpha virt. eigenvalues --    0.03290   0.04259   0.05251   0.06203   0.07407
 Alpha virt. eigenvalues --    0.07637   0.08215   0.09109   0.09908   0.10036
 Alpha virt. eigenvalues --    0.11944   0.12579   0.13092   0.13773   0.14769

 Mulliken charges:
               1
     1  C   -3.349356
     2  Si   6.021592
     3  C    2.320795
     4  O   -2.668924
     5  H   -1.645194
     6  H   -1.673545
     7  H   -1.672230
     8  Cl  -0.093700
     9  H    1.486840
    10  H    1.273722
 Sum of Mulliken charges =   0.00000

 Dipole moment (field-independent basis, Debye):
    X=             -2.4258    Y=              1.5932    Z=              0.8933  Tot=              3.0366

 Test job not archived.
 1\1\GINC-SE073\SP\RHF\Aug-CC-pVDZ\C2H5Cl1O1Si1\OHZDE\08-Apr-2025\0\\#t
  hf aug-cc-pvdz iop(5/13=1,5/36=2,99/5=2) pseudo=read geom=check guess
 =(read,tcheck) scf=(maxcycle=1)\\title\\0,1\C,0,-0.619265,0.396339,0.8
 57752\Si,0,-2.015875,-0.317637,-0.238604\C,0,0.640266,0.656303,0.10418
 1\O,0,1.000219,1.657704,-0.406089\H,0,-3.217991,-0.413872,0.617439\H,0
 ,-1.640028,-1.653921,-0.739745\H,0,-2.266989,0.603898,-1.365917\Cl,0,1
 .684325,-0.865356,-0.036877\H,0,-0.443735,-0.306377,1.673119\H,0,-0.97
 0295,1.350756,1.259587\\Version=ES64L-G16RevC.01\State=1-A\HF=-903.051

 Normal termination of Gaussian 16 at Tue Apr  8 23:50:25 2025.
