 Gaussian 16, Revision C.01,

 ----------------------------------------------------------------------
 #t hf aug-cc-pvdz symm=none int=(grid=ultrafine) guess=(read,tcheck) s
 table=opt
 ----------------------------------------------------------------------
 -----
 title
 -----
 Symbolic Z-matrix:
 Charge =  0 Multiplicity = 2

 SCF Done:  E(UHF) =  -308.483712915     A.U. after   17 cycles

 1\1\GINC-SE097\Stability\UHF\Aug-CC-pVDZ\C6H11O1\OHZDE\08-Apr-2025\0\\
 #t hf aug-cc-pvdz symm=none int=(grid=ultrafine) guess=(read,tcheck) s
 table=opt\\title\\0,2\C,0,-1.834643,0.025483,0.256933\C,0,-1.150757,-1
 .252515,-0.248421\C,0,0.329315,-1.301712,0.167402\C,0,1.02991,-0.02605
 1,-0.165042\H,0,0.845554,-2.139524,-0.311876\H,0,0.392924,-1.487886,1.
 25655\H,0,-1.218131,-1.286676,-1.34201\H,0,-1.671535,-2.137548,0.12950
 6\C,0,0.372445,1.276338,0.1734\C,0,-1.109616,1.283674,-0.240865\H,0,0.
 903036,2.109681,-0.307416\H,0,0.443578,1.459632,1.263559\H,0,-1.597889

 Normal termination of Gaussian 16 at Tue Apr  8 22:49:55 2025.
 Gaussian 16:  ES64L-G16RevC.01  3-Jul-2019

 ----------------------------------------------------------------------
 #t hf aug-cc-pvdz iop(5/13=1,5/36=2,99/5=2) pseudo=read geom=check gue
 ss=(read,tcheck) scf=(maxcycle=1)
 ----------------------------------------------------------------------
 -----
 title
 -----
 Structure from the checkpoint file:  "BDE49_expt_165_mol2.chk"
 Charge =  0 Multiplicity = 2

                         Standard orientation:
 ---------------------------------------------------------------------
 Center     Atomic      Atomic             Coordinates (Angstroms)
 Number     Number       Type             X           Y           Z
 ---------------------------------------------------------------------
      1          6           0       -1.834643    0.025483    0.256933
      2          6           0       -1.150757   -1.252515   -0.248421
      3          6           0        0.329315   -1.301712    0.167402
      4          6           0        1.029910   -0.026051   -0.165042
      5          1           0        0.845554   -2.139524   -0.311876
      6          1           0        0.392924   -1.487886    1.256550
      7          1           0       -1.218131   -1.286676   -1.342010
      8          1           0       -1.671535   -2.137548    0.129506
      9          6           0        0.372445    1.276338    0.173400
     10          6           0       -1.109616    1.283674   -0.240865
     11          1           0        0.903036    2.109681   -0.307416
     12          1           0        0.443578    1.459632    1.263559
     13          1           0       -1.597889    2.184429    0.143185
     14          1           0       -1.174452    1.326419   -1.334131
     15          1           0       -1.844672    0.022733    1.354906
     16          1           0       -2.880755    0.045552   -0.064804
     17          8           0        2.400226   -0.111101   -0.032848
     18          1           0        2.780614    0.760694   -0.185134
 ---------------------------------------------------------------------

 SCF Done:  E(UHF) =  -309.962217933     A.U. after    2 cycles

 The electronic state is 2-A.
 Alpha  occ. eigenvalues --  -21.08316 -11.43969 -11.43162 -11.41929 -11.38072
 Alpha  occ. eigenvalues --  -11.37449 -11.34079  -1.73424  -1.29401  -1.10841
 Alpha  occ. eigenvalues --   -1.07151  -0.89492  -0.85615  -0.76013  -0.66212
 Alpha  occ. eigenvalues --   -0.63767  -0.61347  -0.59730  -0.57245  -0.52951
 Alpha  occ. eigenvalues --   -0.51032  -0.47309  -0.46520  -0.44143  -0.42664
 Alpha  occ. eigenvalues --   -0.40229  -0.37113  -0.23162
 Alpha virt. eigenvalues --    0.04139   0.05162   0.05321   0.05475   0.05644
 Alpha virt. eigenvalues --    0.05952   0.06180   0.06819   0.07350   0.08313
 Alpha virt. eigenvalues --    0.08883   0.11394   0.13271   0.13709   0.14253

  Beta  occ. eigenvalues --  -21.07884 -11.43461 -11.42487 -11.41861 -11.38086
  Beta  occ. eigenvalues --  -11.36860 -11.33914  -1.71877  -1.28668  -1.10765
  Beta  occ. eigenvalues --   -1.05094  -0.89267  -0.83811  -0.73294  -0.65814
  Beta  occ. eigenvalues --   -0.62700  -0.60648  -0.56769  -0.56086  -0.52824
  Beta  occ. eigenvalues --   -0.50278  -0.46775  -0.45172  -0.43694  -0.40009
  Beta  occ. eigenvalues --   -0.38640  -0.35636
  Beta virt. eigenvalues --    0.03824   0.05124   0.05288   0.05417   0.05577
  Beta virt. eigenvalues --    0.05960   0.06193   0.06838   0.07318   0.08319
  Beta virt. eigenvalues --    0.08896   0.11104   0.12605   0.13585   0.13839

 Mulliken charges and spin densities:
               1          2
     1  C   -2.660488  -0.065656
     2  C   -2.699556   0.004213
     3  C   -3.175825  -0.416313
     4  C    4.254116   1.654393
     5  H    1.445846   0.000141
     6  H    1.239997   0.025270
     7  H    1.386487  -0.004379
     8  H    1.280687  -0.001975
     9  C   -3.527580  -0.266488
    10  C   -2.748229  -0.032304
    11  H    1.413955   0.003683
    12  H    1.192073   0.031874
    13  H    1.278835  -0.004840
    14  H    1.375149  -0.006012
    15  H    1.419680  -0.007325
    16  H    1.299022   0.001146
    17  O   -3.731083   0.094628
    18  H    0.956913  -0.010056
 Sum of Mulliken charges =   0.00000   1.00000

 Dipole moment (field-independent basis, Debye):
    X=             -0.3338    Y=              0.5858    Z=              0.1126  Tot=              0.6836
                          Isotropic Fermi Contact Couplings
        Atom                 a.u.       MegaHertz       Gauss      10(-4) cm-1
     1  C(13)             -0.00198      -2.22708      -0.79468      -0.74287
     2  C(13)              0.00816       9.17169       3.27269       3.05935
     3  C(13)             -0.01913     -21.50113      -7.67214      -7.17201
     4  C(13)              0.18416     207.03522      73.87531      69.05952
     5  H(1)               0.00498      22.27399       7.94791       7.42980
     6  H(1)               0.01486      66.43501      23.70567      22.16034
     7  H(1)              -0.00044      -1.95640      -0.69809      -0.65258
     8  H(1)              -0.00059      -2.65637      -0.94786      -0.88607

 Normal termination of Gaussian 16 at Tue Apr  8 22:50:03 2025.
