 Gaussian 16, Revision C.01,

 ----------------------------------------------------------------------
 #t hf aug-cc-pvdz symm=none int=(grid=ultrafine) guess=(read,tcheck) s
 table=(opt,rrhf)
 ----------------------------------------------------------------------
 -----
 title
 -----
 Symbolic Z-matrix:
 Charge =  0 Multiplicity = 1

 SCF Done:  E(RHF) =  -745.112017201     A.U. after   14 cycles
 Normal termination of Gaussian 16 at Wed Apr  9 00:42:52 2025.
 Gaussian 16:  ES64L-G16RevC.01  3-Jul-2019

 ----------------------------------------------------------------------
 #t hf aug-cc-pvdz iop(5/13=1,5/36=2,99/5=2) pseudo=read geom=check gue
 ss=(read,tcheck) scf=(maxcycle=1)
 ----------------------------------------------------------------------
 -----
 title
 -----
 Structure from the checkpoint file:  "BDE49_nonexpt_694_mol1.chk"
 Charge =  0 Multiplicity = 1

                         Standard orientation:
 ---------------------------------------------------------------------
 Center     Atomic      Atomic             Coordinates (Angstroms)
 Number     Number       Type             X           Y           Z
 ---------------------------------------------------------------------
      1          8           0       -1.083178    0.807478    0.455940
      2          6           0       -2.399760    1.068005    0.205431
      3          6           0       -0.836870   -0.500357    0.065410
      4          6           0       -3.004030   -0.021740   -0.329027
      5          6           0       -1.993425   -1.031668   -0.424098
      6          1           0       -4.039192   -0.100847   -0.620114
      7          1           0       -2.740074    2.057119    0.462291
      8          1           0       -2.108145   -2.033773   -0.805587
      9          5           0        2.008537    0.326312   -0.112055
     10          8           0        1.573182    1.597734   -0.253888
     11          8           0        3.349502    0.107258   -0.216714
     12          1           0        3.595547   -0.820439   -0.195777
     13          1           0        0.630202    1.687976   -0.072087
     14         15           0        0.823193   -1.228954    0.211798
     15          1           0        0.959555   -1.172490    1.625584
 ---------------------------------------------------------------------

 SCF Done:  E(RHF) =  -747.052692415     A.U. after    2 cycles

 The electronic state is 1-A.
 Alpha  occ. eigenvalues -- -105.18066 -21.12806 -21.06300 -21.05074 -11.49394
 Alpha  occ. eigenvalues --  -11.45387 -11.43637 -11.38485  -7.65546  -2.75621
 Alpha  occ. eigenvalues --   -1.85797  -1.81242  -1.65902  -1.50893  -1.46141
 Alpha  occ. eigenvalues --   -1.44007  -1.21023  -1.05574  -0.82559  -0.81387
 Alpha  occ. eigenvalues --   -0.76612  -0.74781  -0.66508  -0.59387  -0.56847
 Alpha  occ. eigenvalues --   -0.54265  -0.54141  -0.49693  -0.48401  -0.47511
 Alpha  occ. eigenvalues --   -0.44626  -0.36515  -0.34876  -0.34367  -0.26991
 Alpha  occ. eigenvalues --   -0.15651  -0.02931
 Alpha virt. eigenvalues --    0.03149   0.04474   0.05199   0.05608   0.06181
 Alpha virt. eigenvalues --    0.07019   0.07112   0.09004   0.09706   0.10109
 Alpha virt. eigenvalues --    0.10757   0.11608   0.11795   0.12579   0.12848

 Mulliken charges:
               1
     1  O   -3.869810
     2  C   -0.108315
     3  C    2.804057
     4  C   -0.870634
     5  C   -3.531716
     6  H    1.287867
     7  H    1.558440
     8  H    1.426943
     9  B    5.293053
    10  O   -3.791826
    11  O   -3.798738
    12  H    1.420691
    13  H    2.027217
    14  P    0.855294
    15  H   -0.702520
 Sum of Mulliken charges =   0.00000

 Dipole moment (field-independent basis, Debye):
    X=             -3.1037    Y=             -1.7280    Z=             -1.2424  Tot=              3.7633

 Test job not archived.
 1\1\GINC-SE229\SP\RHF\Aug-CC-pVDZ\C4H6B1O3P1\OHZDE\09-Apr-2025\0\\#t h
 f aug-cc-pvdz iop(5/13=1,5/36=2,99/5=2) pseudo=read geom=check guess=(
 read,tcheck) scf=(maxcycle=1)\\title\\0,1\O,0,-1.083178,0.807478,0.455
 94\C,0,-2.39976,1.068005,0.205431\C,0,-0.83687,-0.500357,0.06541\C,0,-
 3.00403,-0.02174,-0.329027\C,0,-1.993425,-1.031668,-0.424098\H,0,-4.03
 9192,-0.100847,-0.620114\H,0,-2.740074,2.057119,0.462291\H,0,-2.108145
 ,-2.033773,-0.805587\B,0,2.008537,0.326312,-0.112055\O,0,1.573182,1.59
 7734,-0.253888\O,0,3.349502,0.107258,-0.216714\H,0,3.595547,-0.820439,

 Normal termination of Gaussian 16 at Wed Apr  9 00:42:59 2025.
