 Gaussian 16, Revision C.01,

 ----------------------------------------------------------------------
 #t hf aug-cc-pvdz symm=none int=(grid=ultrafine) guess=(read,tcheck) s
 table=(opt,rrhf)
 ----------------------------------------------------------------------
 -----
 title
 -----
 Symbolic Z-matrix:
 Charge =  0 Multiplicity = 1

 SCF Done:  E(RHF) =  -477.790313448     A.U. after   14 cycles
 Normal termination of Gaussian 16 at Wed Apr  9 00:41:22 2025.
 Gaussian 16:  ES64L-G16RevC.01  3-Jul-2019

 ----------------------------------------------------------------------
 #t hf aug-cc-pvdz iop(5/13=1,5/36=2,99/5=2) pseudo=read geom=check gue
 ss=(read,tcheck) scf=(maxcycle=1)
 ----------------------------------------------------------------------
 -----
 title
 -----
 Structure from the checkpoint file:  "BDE49_nonexpt_668_mol1.chk"
 Charge =  0 Multiplicity = 1

                         Standard orientation:
 ---------------------------------------------------------------------
 Center     Atomic      Atomic             Coordinates (Angstroms)
 Number     Number       Type             X           Y           Z
 ---------------------------------------------------------------------
      1          8           0       -0.610309   -0.476958   -0.695782
      2          5           0       -1.668278    0.136395   -0.002067
      3          8           0       -2.818826   -0.579453    0.047957
      4          8           0       -1.589308    1.357399    0.571989
      5          8           0        0.582806    0.336159   -0.667716
      6          6           0        1.572586   -0.260092    0.099035
      7          6           0        2.841143    0.538624   -0.071423
      8          1           0        3.525797   -0.040450   -0.695796
      9          1           0        3.303473    0.670318    0.906951
     10          1           0        2.665471    1.504186   -0.543441
     11          8           0        1.415928   -1.238884    0.758184
     12          1           0       -0.740191    1.778133    0.409101
     13          1           0       -2.737864   -1.451455   -0.349215
 ---------------------------------------------------------------------

 SCF Done:  E(RHF) =  -479.758481650     A.U. after    2 cycles

 The electronic state is 1-A.
 Alpha  occ. eigenvalues --  -21.15340 -21.10265 -21.07838 -21.06783 -21.06473
 Alpha  occ. eigenvalues --  -11.54622 -11.41825  -7.67771  -2.03706  -1.82680
 Alpha  occ. eigenvalues --   -1.72832  -1.68041  -1.49221  -1.12530  -0.81692
 Alpha  occ. eigenvalues --   -0.76257  -0.68366  -0.66606  -0.64046  -0.61269
 Alpha  occ. eigenvalues --   -0.59390  -0.55775  -0.53662  -0.50678  -0.50177
 Alpha  occ. eigenvalues --   -0.43808  -0.38465  -0.37682  -0.36748  -0.32665
 Alpha  occ. eigenvalues --   -0.31463
 Alpha virt. eigenvalues --    0.02618   0.04315   0.05165   0.05408   0.05748
 Alpha virt. eigenvalues --    0.06103   0.06992   0.07574   0.10226   0.11014
 Alpha virt. eigenvalues --    0.12170   0.13011   0.14006   0.14901   0.15391

 Mulliken charges:
               1
     1  O   -2.807297
     2  B    8.186534
     3  O   -3.794186
     4  O   -3.857393
     5  O   -1.566013
     6  C    5.353833
     7  C   -4.344136
     8  H    1.199507
     9  H    1.189514
    10  H    1.393311
    11  O   -3.112462
    12  H    1.209918
    13  H    0.948868
 Sum of Mulliken charges =   0.00000

 Dipole moment (field-independent basis, Debye):
    X=              1.7944    Y=              0.6843    Z=             -0.9950  Tot=              2.1629

 Test job not archived.
 1\1\GINC-SE284\SP\RHF\Aug-CC-pVDZ\C2H5B1O5\OHZDE\09-Apr-2025\0\\#t hf
 aug-cc-pvdz iop(5/13=1,5/36=2,99/5=2) pseudo=read geom=check guess=(re
 ad,tcheck) scf=(maxcycle=1)\\title\\0,1\O,0,0.610309,-0.476958,0.69578
 2\B,0,1.668278,0.136395,0.002067\O,0,2.818826,-0.579453,-0.047957\O,0,
 1.589308,1.357399,-0.571989\O,0,-0.582806,0.336159,0.667716\C,0,-1.572
 586,-0.260092,-0.099035\C,0,-2.841143,0.538624,0.071423\H,0,-3.525797,
 -0.04045,0.695796\H,0,-3.303473,0.670318,-0.906951\H,0,-2.665471,1.504
 186,0.543441\O,0,-1.415928,-1.238884,-0.758184\H,0,0.740191,1.778133,-

 Normal termination of Gaussian 16 at Wed Apr  9 00:41:27 2025.
