 Gaussian 16, Revision C.01,

 ----------------------------------------------------------------------
 #t hf aug-cc-pvdz symm=none int=(grid=ultrafine) guess=(read,tcheck) s
 table=(opt,rrhf)
 ----------------------------------------------------------------------
 -----
 title
 -----
 Symbolic Z-matrix:
 Charge =  0 Multiplicity = 1

 SCF Done:  E(RHF) =  -838.852481107     A.U. after   13 cycles
 Normal termination of Gaussian 16 at Wed Apr  9 00:21:36 2025.
 Gaussian 16:  ES64L-G16RevC.01  3-Jul-2019

 ----------------------------------------------------------------------
 #t hf aug-cc-pvdz iop(5/13=1,5/36=2,99/5=2) pseudo=read geom=check gue
 ss=(read,tcheck) scf=(maxcycle=1)
 ----------------------------------------------------------------------
 -----
 title
 -----
 Structure from the checkpoint file:  "BDE49_nonexpt_2628_mol1.chk"
 Charge =  0 Multiplicity = 1

                         Standard orientation:
 ---------------------------------------------------------------------
 Center     Atomic      Atomic             Coordinates (Angstroms)
 Number     Number       Type             X           Y           Z
 ---------------------------------------------------------------------
      1          9           0        1.531511   -0.750862   -0.000050
      2         16           0        0.596569    0.648160    0.000045
      3         15           0       -1.301715   -0.300877   -0.000149
      4          1           0       -1.902020    0.451311   -1.040196
      5          1           0       -1.900951    0.449042    1.042168
 ---------------------------------------------------------------------

 SCF Done:  E(RHF) =  -839.602209742     A.U. after    2 cycles

 The electronic state is 1-A.
 Alpha  occ. eigenvalues -- -105.22541 -75.76635 -29.26947 -13.19222 -13.12504
 Alpha  occ. eigenvalues --  -13.07354  -8.10507  -2.79701  -1.49374  -1.48257
 Alpha  occ. eigenvalues --   -1.46699  -1.15203  -0.75899  -0.62682  -0.41921
 Alpha  occ. eigenvalues --   -0.38579  -0.33317  -0.28119  -0.19072  -0.15488
 Alpha  occ. eigenvalues --   -0.04758
 Alpha virt. eigenvalues --    0.03978   0.06551   0.07489   0.10649   0.11040
 Alpha virt. eigenvalues --    0.12010   0.14399   0.14654   0.17544   0.18678
 Alpha virt. eigenvalues --    0.21221   0.24779   0.25912   0.26801   0.28097

 Mulliken charges:
               1
     1  F   -0.157860
     2  S   -1.164951
     3  P    1.875541
     4  H   -0.276235
     5  H   -0.276494
 Sum of Mulliken charges =  -0.00000

 Dipole moment (field-independent basis, Debye):
    X=              0.4053    Y=             -7.1602    Z=             -0.0050  Tot=              7.1716

 Test job not archived.
 1\1\GINC-SE058\SP\RHF\Aug-CC-pVDZ\F1H2P1S1\OHZDE\09-Apr-2025\0\\#t hf
 aug-cc-pvdz iop(5/13=1,5/36=2,99/5=2) pseudo=read geom=check guess=(re
 ad,tcheck) scf=(maxcycle=1)\\title\\0,1\F,0,1.531511,-0.750862,-0.0000
 5\S,0,0.596569,0.64816,0.000045\P,0,-1.301715,-0.300877,-0.000149\H,0,
 -1.90202,0.451311,-1.040196\H,0,-1.900951,0.449042,1.042168\\Version=E
 S64L-G16RevC.01\State=1-A\HF=-839.6022097\RMSD=2.686e-01\Dipole=0.1594
 669,-2.8170258,-0.0019492\Quadrupole=1.1907172,-2.5978956,1.4071784,2.
 0159411,0.0054433,-0.0047502\PG=C01 [X(F1H2P1S1)]\\@

 Normal termination of Gaussian 16 at Wed Apr  9 00:21:38 2025.
