 Gaussian 16, Revision C.01,

 ----------------------------------------------------------------------
 #t hf aug-cc-pvdz symm=none int=(grid=ultrafine) guess=(read,tcheck) s
 table=(opt,rrhf)
 ----------------------------------------------------------------------
 -----
 title
 -----
 Symbolic Z-matrix:
 Charge =  0 Multiplicity = 1

 SCF Done:  E(RHF) =  -633.859242150     A.U. after   13 cycles
 Normal termination of Gaussian 16 at Tue Apr  8 23:51:09 2025.
 Gaussian 16:  ES64L-G16RevC.01  3-Jul-2019

 ----------------------------------------------------------------------
 #t hf aug-cc-pvdz iop(5/13=1,5/36=2,99/5=2) pseudo=read geom=check gue
 ss=(read,tcheck) scf=(maxcycle=1)
 ----------------------------------------------------------------------
 -----
 title
 -----
 Structure from the checkpoint file:  "BDE49_nonexpt_1870_mol1.chk"
 Charge =  0 Multiplicity = 1

                         Standard orientation:
 ---------------------------------------------------------------------
 Center     Atomic      Atomic             Coordinates (Angstroms)
 Number     Number       Type             X           Y           Z
 ---------------------------------------------------------------------
      1         14           0       -0.326525    1.451028    0.190345
      2          6           0        0.794441    0.434869    1.332933
      3          6           0        2.055309   -0.843631   -0.499668
      4          8           0        1.987764    0.086317   -1.269156
      5          6           0        1.343113   -0.906364    0.821824
      6          1           0        2.020213   -1.369098    1.551002
      7          1           0        0.523878   -1.628304    0.685318
      8          1           0        2.648295   -1.745511   -0.764027
      9          6           0       -1.383767    0.349459   -0.962888
     10          1           0        0.391020    2.440523   -0.636786
     11          1           0       -1.273092    2.199284    1.060803
     12          6           0       -2.237194   -0.600470   -0.187818
     13          1           0       -2.001339    1.016094   -1.572124
     14          1           0       -0.690830   -0.196083   -1.607554
     15          8           0       -1.870645   -1.676809    0.230232
     16          1           0       -3.267426   -0.245487    0.032293
     17          1           0        0.227049    0.245809    2.249357
     18          1           0        1.625215    1.089134    1.621981
 ---------------------------------------------------------------------

 SCF Done:  E(RHF) =  -635.576749895     A.U. after    2 cycles

 The electronic state is 1-A.
 Alpha  occ. eigenvalues --  -76.21505 -21.06839 -21.05964 -11.49365 -11.48911
 Alpha  occ. eigenvalues --  -11.42114 -11.37698 -11.36736  -5.55079  -2.19320
 Alpha  occ. eigenvalues --   -2.18222  -2.17399  -1.71835  -1.70795  -1.19117
 Alpha  occ. eigenvalues --   -1.11377  -0.97110  -0.82263  -0.79887  -0.72240
 Alpha  occ. eigenvalues --   -0.66674  -0.65167  -0.62372  -0.57864  -0.54374
 Alpha  occ. eigenvalues --   -0.52414  -0.50610  -0.50015  -0.48778  -0.45772
 Alpha  occ. eigenvalues --   -0.43078  -0.40746  -0.37076  -0.30740  -0.29444
 Alpha virt. eigenvalues --    0.03636   0.04772   0.04874   0.05162   0.05402
 Alpha virt. eigenvalues --    0.06416   0.06461   0.07525   0.08108   0.08376
 Alpha virt. eigenvalues --    0.09052   0.09858   0.11222   0.11428   0.12904

 Mulliken charges:
               1
     1  Si   6.550505
     2  C   -3.874247
     3  C    1.466065
     4  O   -2.827898
     5  C   -3.070188
     6  H    1.297343
     7  H    1.746852
     8  H    1.554355
     9  C   -4.493054
    10  H   -2.159636
    11  H   -2.055048
    12  C    1.720830
    13  H    1.237783
    14  H    1.505046
    15  O   -2.854131
    16  H    1.571883
    17  H    1.361383
    18  H    1.322156
 Sum of Mulliken charges =   0.00000

 Dipole moment (field-independent basis, Debye):
    X=              0.6396    Y=             -0.2954    Z=              0.3051  Tot=              0.7677

 Test job not archived.
 1\1\GINC-SE460\SP\RHF\Aug-CC-pVDZ\C5H10O2Si1\OHZDE\08-Apr-2025\0\\#t h
 f aug-cc-pvdz iop(5/13=1,5/36=2,99/5=2) pseudo=read geom=check guess=(
 read,tcheck) scf=(maxcycle=1)\\title\\0,1\Si,0,-0.326525,1.451028,0.19
 0345\C,0,0.794441,0.434869,1.332933\C,0,2.055309,-0.843631,-0.499668\O
 ,0,1.987764,0.086317,-1.269156\C,0,1.343113,-0.906364,0.821824\H,0,2.0
 20213,-1.369098,1.551002\H,0,0.523878,-1.628304,0.685318\H,0,2.648295,
 -1.745511,-0.764027\C,0,-1.383767,0.349459,-0.962888\H,0,0.39102,2.440
 523,-0.636786\H,0,-1.273092,2.199284,1.060803\C,0,-2.237194,-0.60047,-

 Normal termination of Gaussian 16 at Tue Apr  8 23:51:17 2025.
