 Gaussian 16, Revision C.01,

 ----------------------------------------------------------------------
 #t hf aug-cc-pvdz symm=none int=(grid=ultrafine) guess=(read,tcheck) s
 table=opt
 ----------------------------------------------------------------------
 -----
 title
 -----
 Symbolic Z-matrix:
 Charge =  0 Multiplicity = 2

 SCF Done:  E(UHF) =  -788.660208098     A.U. after   15 cycles
 Normal termination of Gaussian 16 at Tue Apr  8 23:46:15 2025.
 Gaussian 16:  ES64L-G16RevC.01  3-Jul-2019

 ----------------------------------------------------------------------
 #t hf aug-cc-pvdz iop(5/13=1,5/36=2,99/5=2) pseudo=read geom=check gue
 ss=(read,tcheck) scf=(maxcycle=1)
 ----------------------------------------------------------------------
 -----
 title
 -----
 Structure from the checkpoint file:  "BDE49_nonexpt_1756_mol2.chk"
 Charge =  0 Multiplicity = 2

                         Standard orientation:
 ---------------------------------------------------------------------
 Center     Atomic      Atomic             Coordinates (Angstroms)
 Number     Number       Type             X           Y           Z
 ---------------------------------------------------------------------
      1          6           0       -1.813674   -0.623523    0.043751
      2         14           0       -0.456184    0.661933   -0.132203
      3          1           0       -1.761951   -1.366744   -0.754420
      4          1           0       -2.791317   -0.134602    0.001258
      5          1           0       -1.722665   -1.138607    1.005511
      6         17           0        1.415167   -0.267948    0.022083
      7          1           0       -0.513293    1.669150    0.960579
 ---------------------------------------------------------------------

 SCF Done:  E(UHF) =  -789.250376293     A.U. after    2 cycles

 The electronic state is 2-A.
 Alpha  occ. eigenvalues --  -99.87996 -76.26715 -11.36956 -10.45364  -9.65270
 Alpha  occ. eigenvalues --   -9.64624  -9.64574  -5.60143  -2.23057  -2.21796
 Alpha  occ. eigenvalues --   -2.20746  -1.28511  -1.05740  -0.74580  -0.58757
 Alpha  occ. eigenvalues --   -0.58146  -0.54274  -0.53340  -0.52258  -0.44319
 Alpha  occ. eigenvalues --   -0.29328
 Alpha virt. eigenvalues --    0.03045   0.05219   0.05495   0.06103   0.07149
 Alpha virt. eigenvalues --    0.08262   0.08953   0.11722   0.13041   0.14420
 Alpha virt. eigenvalues --    0.14635   0.15248   0.16375   0.17196   0.17452

  Beta  occ. eigenvalues --  -99.87910 -76.26155 -11.36820 -10.45269  -9.65139
  Beta  occ. eigenvalues --   -9.64556  -9.64326  -5.59242  -2.22380  -2.21184
  Beta  occ. eigenvalues --   -2.17305  -1.27787  -1.04948  -0.70704  -0.58437
  Beta  occ. eigenvalues --   -0.57250  -0.53286  -0.52409  -0.51429  -0.42979
  Beta virt. eigenvalues --    0.01900   0.04557   0.05537   0.05873   0.06553
  Beta virt. eigenvalues --    0.07284   0.08609   0.09572   0.12677   0.13702
  Beta virt. eigenvalues --    0.14715   0.15369   0.16056   0.16950   0.17628

 Mulliken charges and spin densities:
               1          2
     1  C   -4.789998   0.076982
     2  Si   3.610721   0.803368
     3  H    1.243422  -0.015358
     4  H    1.300236   0.019003
     5  H    1.188538  -0.005978
     6  Cl  -0.887884   0.049169
     7  H   -1.665034   0.072815
 Sum of Mulliken charges =   0.00000   1.00000

 Dipole moment (field-independent basis, Debye):
    X=             -2.2796    Y=              0.1924    Z=             -0.3655  Tot=              2.3167
                          Isotropic Fermi Contact Couplings
        Atom                 a.u.       MegaHertz       Gauss      10(-4) cm-1
     1  C(13)              0.03259      36.63347      13.07173      12.21961
     2  Si(29)             0.58667    -521.38919    -186.04463    -173.91671
     3  H(1)              -0.00002      -0.07252      -0.02588      -0.02419
     4  H(1)              -0.00075      -3.35691      -1.19783      -1.11975
     5  H(1)               0.00660      29.52291      10.53451       9.84778
     6  Cl(35)             0.06667      29.23240      10.43085       9.75088
     7  H(1)               0.01467      65.58984      23.40408      21.87841
 --------------------------------------------------------

 Normal termination of Gaussian 16 at Tue Apr  8 23:46:17 2025.
