 Gaussian 16, Revision C.01,

 ----------------------------------------------------------------------
 #t hf aug-cc-pvdz symm=none int=(grid=ultrafine) guess=(read,tcheck) s
 table=(opt,rrhf)
 ----------------------------------------------------------------------
 -----
 title
 -----
 Symbolic Z-matrix:
 Charge =  0 Multiplicity = 1

 SCF Done:  E(RHF) =  -440.393471864     A.U. after   11 cycles
 Normal termination of Gaussian 16 at Tue Apr  8 23:52:21 2025.
 Gaussian 16:  ES64L-G16RevC.01  3-Jul-2019

 ----------------------------------------------------------------------
 #t hf aug-cc-pvdz iop(5/13=1,5/36=2,99/5=2) pseudo=read geom=check gue
 ss=(read,tcheck) scf=(maxcycle=1)
 ----------------------------------------------------------------------
 -----
 title
 -----
 Structure from the checkpoint file:  "BDE49_nonexpt_1900_mol1.chk"
 Charge =  0 Multiplicity = 1

                         Standard orientation:
 ---------------------------------------------------------------------
 Center     Atomic      Atomic             Coordinates (Angstroms)
 Number     Number       Type             X           Y           Z
 ---------------------------------------------------------------------
      1          6           0       -1.057050   -0.508384   -0.430718
      2         14           0        0.732115   -0.570899    0.166320
      3          7           0        1.411594    0.962459   -0.224001
      4          1           0        1.499530   -1.641617   -0.516885
      5          1           0        0.708875   -0.914333    1.620833
      6          7           0       -1.723559    0.638875    0.225206
      7          1           0       -1.872101    0.437780    1.209530
      8          1           0       -2.642353    0.799657   -0.176291
      9          1           0        0.804784    1.758649   -0.075142
     10          1           0        2.373021    1.186114   -0.013473
     11          1           0       -1.566076   -1.475582   -0.292937
     12          1           0       -1.029246   -0.317123   -1.508247
 ---------------------------------------------------------------------

 SCF Done:  E(RHF) =  -441.293258257     A.U. after    2 cycles

 The electronic state is 1-A.
 Alpha  occ. eigenvalues --  -76.20334 -15.73448 -15.71592 -11.36076  -5.54302
 Alpha  occ. eigenvalues --   -2.19442  -2.17711  -2.15954  -1.31762  -1.23816
 Alpha  occ. eigenvalues --   -0.94809  -0.72979  -0.64992  -0.64439  -0.59328
 Alpha  occ. eigenvalues --   -0.53488  -0.49648  -0.46158  -0.41486  -0.37275
 Alpha  occ. eigenvalues --   -0.34234
 Alpha virt. eigenvalues --    0.03902   0.04890   0.05471   0.05958   0.06801
 Alpha virt. eigenvalues --    0.07160   0.07582   0.08004   0.09342   0.10217
 Alpha virt. eigenvalues --    0.10732   0.13063   0.15095   0.15504   0.16515

 Mulliken charges:
               1
     1  C   -2.964789
     2  Si   5.417646
     3  N   -2.228309
     4  H   -1.781245
     5  H   -1.765705
     6  N   -2.075321
     7  H    0.636859
     8  H    0.613238
     9  H    0.688712
    10  H    0.701907
    11  H    1.345021
    12  H    1.411986
 Sum of Mulliken charges =  -0.00000

 Dipole moment (field-independent basis, Debye):
    X=             -0.8775    Y=              0.5119    Z=              0.2488  Tot=              1.0459

 Test job not archived.
 1\1\GINC-SE247\SP\RHF\Aug-CC-pVDZ\C1H8N2Si1\OHZDE\08-Apr-2025\0\\#t hf
  aug-cc-pvdz iop(5/13=1,5/36=2,99/5=2) pseudo=read geom=check guess=(r
 ead,tcheck) scf=(maxcycle=1)\\title\\0,1\C,0,-1.05705,-0.508384,-0.430
 718\Si,0,0.732115,-0.570899,0.16632\N,0,1.411594,0.962459,-0.224001\H,
 0,1.49953,-1.641617,-0.516885\H,0,0.708875,-0.914333,1.620833\N,0,-1.7
 23559,0.638875,0.225206\H,0,-1.872101,0.43778,1.20953\H,0,-2.642353,0.
 799657,-0.176291\H,0,0.804784,1.758649,-0.075142\H,0,2.373021,1.186114
 ,-0.013473\H,0,-1.566076,-1.475582,-0.292937\H,0,-1.029246,-0.317123,-

 Normal termination of Gaussian 16 at Tue Apr  8 23:52:24 2025.
