 Gaussian 16, Revision C.01,

 ----------------------------------------------------------------------
 #t hf aug-cc-pvdz symm=none int=(grid=ultrafine) guess=(read,tcheck) s
 table=(opt,rrhf)
 ----------------------------------------------------------------------
 -----
 title
 -----
 Symbolic Z-matrix:
 Charge =  0 Multiplicity = 1

 SCF Done:  E(RHF) =  -820.435527765     A.U. after   17 cycles
 Normal termination of Gaussian 16 at Tue Apr  8 22:51:44 2025.
 Gaussian 16:  ES64L-G16RevC.01  3-Jul-2019

 ----------------------------------------------------------------------
 #t hf aug-cc-pvdz iop(5/13=1,5/36=2,99/5=2) pseudo=read geom=check gue
 ss=(read,tcheck) scf=(maxcycle=1)
 ----------------------------------------------------------------------
 -----
 title
 -----
 Structure from the checkpoint file:  "BDE49_expt_1695_mol1.chk"
 Charge =  0 Multiplicity = 1

                         Standard orientation:
 ---------------------------------------------------------------------
 Center     Atomic      Atomic             Coordinates (Angstroms)
 Number     Number       Type             X           Y           Z
 ---------------------------------------------------------------------
      1          6           0        0.109152    1.205551    0.382487
      2          6           0       -1.253448    1.212871    0.120021
      3          6           0       -1.944173   -0.000001   -0.012331
      4          6           0       -1.253447   -1.212871    0.120025
      5          6           0        0.109153   -1.205547    0.382492
      6          6           0        0.805035    0.000003    0.518174
      7          1           0        0.639856    2.146004    0.480431
      8          1           0       -1.789248    2.148216    0.018340
      9          6           0        2.275048    0.000004    0.805682
     10          1           0        0.639859   -2.145999    0.480439
     11          1           0        2.585295    0.889386    1.349224
     12         17           0        3.267257   -0.000003   -0.735213
     13          1           0        2.585295   -0.889372    1.349233
     14          1           0       -1.789244   -2.148217    0.018348
     15          6           0       -3.350116   -0.000002   -0.277539
     16          7           0       -4.485485   -0.000002   -0.490209
 ---------------------------------------------------------------------

 SCF Done:  E(RHF) =  -822.370070566     A.U. after    2 cycles

 The electronic state is 1-A.
 Alpha  occ. eigenvalues --  -99.89105 -15.76731 -11.56299 -11.48903 -11.48050
 Alpha  occ. eigenvalues --  -11.47746 -11.46554 -11.44369 -11.44257 -11.40205
 Alpha  occ. eigenvalues --  -10.46282  -9.66244  -9.65542  -9.65455  -1.41772
 Alpha  occ. eigenvalues --   -1.33308  -1.28877  -1.16735  -1.13210  -1.02839
 Alpha  occ. eigenvalues --   -0.90755  -0.89624  -0.78199  -0.70152  -0.68043
 Alpha  occ. eigenvalues --   -0.63793  -0.62339  -0.61609  -0.59519  -0.55330
 Alpha  occ. eigenvalues --   -0.54945  -0.50855  -0.50054  -0.47945  -0.46967
 Alpha  occ. eigenvalues --   -0.46297  -0.43640  -0.36516  -0.34499
 Alpha virt. eigenvalues --    0.02338   0.04010   0.04804   0.05217   0.06340
 Alpha virt. eigenvalues --    0.06437   0.07536   0.07892   0.08739   0.09145
 Alpha virt. eigenvalues --    0.09952   0.10505   0.11155   0.11802   0.12398

 Mulliken charges:
               1
     1  C   -1.602304
     2  C   -2.880701
     3  C    4.087903
     4  C   -2.880720
     5  C   -1.602296
     6  C    3.454029
     7  H    1.835074
     8  H    1.795308
     9  C   -5.390186
    10  H    1.835070
    11  H    1.267702
    12  Cl   0.162455
    13  H    1.267698
    14  H    1.795310
    15  C   -1.017888
    16  N   -2.126454
 Sum of Mulliken charges =   0.00000

 Dipole moment (field-independent basis, Debye):
    X=              2.3461    Y=              0.0000    Z=              2.4293  Tot=              3.3772

 Test job not archived.
 1\1\GINC-SE184\SP\RHF\Aug-CC-pVDZ\C8H6Cl1N1\OHZDE\08-Apr-2025\0\\#t hf
  aug-cc-pvdz iop(5/13=1,5/36=2,99/5=2) pseudo=read geom=check guess=(r
 ead,tcheck) scf=(maxcycle=1)\\title\\0,1\C,0,0.109152,1.205551,0.38248
 7\C,0,-1.253448,1.212871,0.120021\C,0,-1.944173,-0.000001,-0.012331\C,
 0,-1.253447,-1.212871,0.120025\C,0,0.109153,-1.205547,0.382492\C,0,0.8
 05035,0.000003,0.518174\H,0,0.639856,2.146004,0.480431\H,0,-1.789248,2
 .148216,0.01834\C,0,2.275048,0.000004,0.805682\H,0,0.639859,-2.145999,
 0.480439\H,0,2.585295,0.889386,1.349224\Cl,0,3.267257,-0.000003,-0.735

 Normal termination of Gaussian 16 at Tue Apr  8 22:51:53 2025.
