 Gaussian 16, Revision C.01,

 ----------------------------------------------------------------------
 #t hf aug-cc-pvdz symm=none int=(grid=ultrafine) guess=(read,tcheck) s
 table=(opt,rrhf)
 ----------------------------------------------------------------------
 -----
 title
 -----
 Symbolic Z-matrix:
 Charge =  0 Multiplicity = 1

 SCF Done:  E(RHF) =  -839.284504808     A.U. after   15 cycles
 Normal termination of Gaussian 16 at Tue Apr  8 23:12:31 2025.
 Gaussian 16:  ES64L-G16RevC.01  3-Jul-2019

 ----------------------------------------------------------------------
 #t hf aug-cc-pvdz iop(5/13=1,5/36=2,99/5=2) pseudo=read geom=check gue
 ss=(read,tcheck) scf=(maxcycle=1)
 ----------------------------------------------------------------------
 -----
 title
 -----
 Structure from the checkpoint file:  "BDE49_expt_635_mol1.chk"
 Charge =  0 Multiplicity = 1

                         Standard orientation:
 ---------------------------------------------------------------------
 Center     Atomic      Atomic             Coordinates (Angstroms)
 Number     Number       Type             X           Y           Z
 ---------------------------------------------------------------------
      1          6           0       -1.385642   -0.019376    0.002043
      2          6           0       -0.830716    1.258337   -0.003139
      3          6           0        0.549576    1.405557   -0.008773
      4          6           0       -0.574039   -1.145821    0.001321
      5          6           0        0.813001   -1.004809   -0.000373
      6          6           0        1.365549    0.271678    0.000645
      7          1           0       -1.472480    2.129682   -0.007278
      8          1           0        1.003891    2.388523   -0.018427
      9          1           0       -1.017464   -2.133097   -0.000464
     10          1           0        1.456875   -1.870985   -0.006752
     11          8           0        2.716470    0.542602    0.011879
     12          8           0        3.490125   -0.672075   -0.099877
     13          1           0        4.022666   -0.599130    0.704803
     14         17           0       -3.133683   -0.204271    0.004809
 ---------------------------------------------------------------------

 SCF Done:  E(RHF) =  -841.215443270     A.U. after    2 cycles

 The electronic state is 1-A.
 Alpha  occ. eigenvalues --  -99.89316 -21.14603 -21.13146 -11.53489 -11.47484
 Alpha  occ. eigenvalues --  -11.45274 -11.44976 -11.42252 -11.38771 -10.46649
 Alpha  occ. eigenvalues --   -9.66683  -9.65788  -9.65619  -1.97808  -1.48998
 Alpha  occ. eigenvalues --   -1.38804  -1.26412  -1.11745  -1.05831  -0.90332
 Alpha  occ. eigenvalues --   -0.85143  -0.72192  -0.67674  -0.66422  -0.61888
 Alpha  occ. eigenvalues --   -0.60553  -0.59550  -0.57588  -0.54240  -0.51407
 Alpha  occ. eigenvalues --   -0.49104  -0.47285  -0.45212  -0.40763  -0.36104
 Alpha  occ. eigenvalues --   -0.35172  -0.27324
 Alpha virt. eigenvalues --    0.03204   0.04722   0.05629   0.06450   0.06565
 Alpha virt. eigenvalues --    0.08470   0.09480   0.10279   0.10965   0.11791
 Alpha virt. eigenvalues --    0.12648   0.13369   0.13735   0.13894   0.14362

 Mulliken charges:
               1
     1  C   -1.972001
     2  C   -0.419894
     3  C   -1.755698
     4  C    0.343642
     5  C   -3.136207
     6  C    3.782466
     7  H    1.807258
     8  H    1.737778
     9  H    1.715223
    10  H    1.992844
    11  O   -3.290901
    12  O   -0.868649
    13  H    0.916071
    14  Cl  -0.851932
 Sum of Mulliken charges =   0.00000

 Dipole moment (field-independent basis, Debye):
    X=              3.1815    Y=             -0.0116    Z=              0.6102  Tot=              3.2395

 Test job not archived.
 1\1\GINC-SE043\SP\RHF\Aug-CC-pVDZ\C6H5Cl1O2\OHZDE\08-Apr-2025\0\\#t hf
  aug-cc-pvdz iop(5/13=1,5/36=2,99/5=2) pseudo=read geom=check guess=(r
 ead,tcheck) scf=(maxcycle=1)\\title\\0,1\C,0,-1.385642,-0.019376,0.002
 043\C,0,-0.830716,1.258337,-0.003139\C,0,0.549576,1.405557,-0.008773\C
 ,0,-0.574039,-1.145821,0.001321\C,0,0.813001,-1.004809,-0.000373\C,0,1
 .365549,0.271678,0.000645\H,0,-1.47248,2.129682,-0.007278\H,0,1.003891
 ,2.388523,-0.018427\H,0,-1.017464,-2.133097,-0.000464\H,0,1.456875,-1.
 870985,-0.006752\O,0,2.71647,0.542602,0.011879\O,0,3.490125,-0.672075,

 Normal termination of Gaussian 16 at Tue Apr  8 23:12:38 2025.
