 Gaussian 16, Revision C.01,

 ----------------------------------------------------------------------
 #t hf aug-cc-pvdz symm=none int=(grid=ultrafine) guess=(read,tcheck) s
 table=(opt,rrhf)
 ----------------------------------------------------------------------
 -----
 title
 -----
 Symbolic Z-matrix:
 Charge =  0 Multiplicity = 1

 SCF Done:  E(RHF) =  -459.586878984     A.U. after   12 cycles
 Normal termination of Gaussian 16 at Tue Apr  8 23:27:08 2025.
 Gaussian 16:  ES64L-G16RevC.01  3-Jul-2019

 ----------------------------------------------------------------------
 #t hf aug-cc-pvdz iop(5/13=1,5/36=2,99/5=2) pseudo=read geom=check gue
 ss=(read,tcheck) scf=(maxcycle=1)
 ----------------------------------------------------------------------
 -----
 title
 -----
 Structure from the checkpoint file:  "BDE49_nonexpt_1277_mol1.chk"
 Charge =  0 Multiplicity = 1

                         Standard orientation:
 ---------------------------------------------------------------------
 Center     Atomic      Atomic             Coordinates (Angstroms)
 Number     Number       Type             X           Y           Z
 ---------------------------------------------------------------------
      1         15           0       -1.413191   -0.118283   -0.000027
      2          6           0        0.423626    0.010701   -0.394823
      3          6           0        1.100157    1.286508    0.118280
      4          1           0        1.064696    1.335147    1.210980
      5          6           0        1.141698   -1.252905    0.105031
      6          1           0        1.114772   -1.314558    1.197896
      7          1           0        2.193348   -1.241482   -0.197794
      8          1           0        0.686879   -2.163539   -0.292928
      9          1           0        0.616377    2.185298   -0.271189
     10          1           0        2.153790    1.314204   -0.182507
     11          1           0        0.461820    0.010184   -1.491213
     12          1           0       -1.770998    1.215486   -0.333129
     13          1           0       -1.315708    0.167692    1.389372
 ---------------------------------------------------------------------

 SCF Done:  E(RHF) =  -460.414434684     A.U. after    2 cycles

 The electronic state is 1-A.
 Alpha  occ. eigenvalues -- -105.16977 -11.41260 -11.38235 -11.35323  -2.73819
 Alpha  occ. eigenvalues --   -1.46779  -1.43199  -1.42574  -1.18621  -1.00353
 Alpha  occ. eigenvalues --   -0.83293  -0.70503  -0.61972  -0.56202  -0.55817
 Alpha  occ. eigenvalues --   -0.53651  -0.47049  -0.45773  -0.25238  -0.20230
 Alpha  occ. eigenvalues --   -0.01911
 Alpha virt. eigenvalues --    0.03995   0.05942   0.06114   0.06369   0.06514
 Alpha virt. eigenvalues --    0.06803   0.07031   0.07743   0.09084   0.11138
 Alpha virt. eigenvalues --    0.12289   0.13136   0.14068   0.14929   0.15280

 Mulliken charges:
               1
     1  P    2.385039
     2  C   -1.789596
     3  C   -3.933273
     4  H    1.279402
     5  C   -4.001146
     6  H    1.269639
     7  H    1.229783
     8  H    1.192530
     9  H    1.208522
    10  H    1.261519
    11  H    1.453338
    12  H   -0.726158
    13  H   -0.829600
 Sum of Mulliken charges =   0.00000

 Dipole moment (field-independent basis, Debye):
    X=              0.1729    Y=             -1.6722    Z=             -1.2824  Tot=              2.1145

 Test job not archived.
 1\1\GINC-SE336\SP\RHF\Aug-CC-pVDZ\C3H9P1\OHZDE\08-Apr-2025\0\\#t hf au
 g-cc-pvdz iop(5/13=1,5/36=2,99/5=2) pseudo=read geom=check guess=(read
 ,tcheck) scf=(maxcycle=1)\\title\\0,1\P,0,-1.413191,-0.118284,-0.00002
 7\C,0,0.423626,0.010701,-0.394823\C,0,1.100156,1.286508,0.11828\H,0,1.
 064695,1.335147,1.21098\C,0,1.141699,-1.252905,0.105031\H,0,1.114773,-
 1.314558,1.197896\H,0,2.193349,-1.241481,-0.197794\H,0,0.68688,-2.1635
 39,-0.292928\H,0,0.616376,2.185298,-0.271189\H,0,2.153789,1.314205,-0.
 182507\H,0,0.46182,0.010184,-1.491213\H,0,-1.770999,1.215485,-0.333129

 Normal termination of Gaussian 16 at Tue Apr  8 23:27:11 2025.
