 Gaussian 16, Revision C.01,

 ----------------------------------------------------------------------
 #t hf aug-cc-pvdz symm=none int=(grid=ultrafine) guess=(read,tcheck) s
 table=opt
 ----------------------------------------------------------------------
 -----
 title
 -----
 Symbolic Z-matrix:
 Charge =  0 Multiplicity = 2

 SCF Done:  E(UHF) =  -912.703220783     A.U. after   17 cycles
 Normal termination of Gaussian 16 at Tue Apr  8 23:53:24 2025.
 Gaussian 16:  ES64L-G16RevC.01  3-Jul-2019

 ----------------------------------------------------------------------
 #t hf aug-cc-pvdz iop(5/13=1,5/36=2,99/5=2) pseudo=read geom=check gue
 ss=(read,tcheck) scf=(maxcycle=1)
 ----------------------------------------------------------------------
 -----
 title
 -----
 Structure from the checkpoint file:  "BDE49_nonexpt_1933_mol2.chk"
 Charge =  0 Multiplicity = 2

                         Standard orientation:
 ---------------------------------------------------------------------
 Center     Atomic      Atomic             Coordinates (Angstroms)
 Number     Number       Type             X           Y           Z
 ---------------------------------------------------------------------
      1         14           0        1.783174   -0.053884   -0.116876
      2         16           0       -0.433644    0.145019    0.066063
      3          1           0        2.337864    1.137960    0.565320
      4          1           0        2.161157   -1.321929    0.551448
      5          8           0       -0.867740   -0.124002    1.424094
      6          8           0       -0.914634   -1.152712   -0.826278
      7          8           0       -0.863281    1.324670   -0.637316
      8          1           0       -1.359904   -1.765609   -0.221516
 ---------------------------------------------------------------------

 SCF Done:  E(UHF) =  -914.027728019     A.U. after    2 cycles

 The electronic state is 2-A.
 Alpha  occ. eigenvalues --  -76.29947 -75.91294 -21.13279 -21.06679 -21.06448
 Alpha  occ. eigenvalues --  -13.53778 -13.42504 -13.34320  -8.26300  -5.63166
 Alpha  occ. eigenvalues --   -2.25328  -2.25033  -2.24061  -1.89391  -1.71790
 Alpha  occ. eigenvalues --   -1.66717  -0.98525  -0.80380  -0.66001  -0.61322
 Alpha  occ. eigenvalues --   -0.57303  -0.52802  -0.47953  -0.44891  -0.39563
 Alpha  occ. eigenvalues --   -0.38839  -0.38122  -0.35867  -0.29978
 Alpha virt. eigenvalues --    0.02721   0.04228   0.05633   0.06047   0.06978
 Alpha virt. eigenvalues --    0.08717   0.10347   0.12158   0.13018   0.13355
 Alpha virt. eigenvalues --    0.13842   0.15504   0.15843   0.15934   0.17272

  Beta  occ. eigenvalues --  -76.29344 -75.91282 -21.13299 -21.06483 -21.06448
  Beta  occ. eigenvalues --  -13.53790 -13.42519 -13.34239  -8.26284  -5.62201
  Beta  occ. eigenvalues --   -2.24596  -2.24367  -2.20328  -1.89306  -1.71763
  Beta  occ. eigenvalues --   -1.66465  -0.97691  -0.76399  -0.65709  -0.60717
  Beta  occ. eigenvalues --   -0.57131  -0.51876  -0.47714  -0.43751  -0.39522
  Beta  occ. eigenvalues --   -0.38466  -0.36752  -0.33978
  Beta virt. eigenvalues --    0.00102   0.03143   0.04370   0.05817   0.06940
  Beta virt. eigenvalues --    0.07702   0.09158   0.11025   0.12570   0.13494
  Beta virt. eigenvalues --    0.14293   0.14706   0.16825   0.17113   0.17576

 Mulliken charges and spin densities:
               1          2
     1  Si   3.837249   0.945159
     2  S    5.237802  -0.014547
     3  H   -1.433917   0.021757
     4  H   -1.448890   0.027354
     5  O   -2.396228   0.036895
     6  O   -2.222198  -0.015808
     7  O   -2.408265  -0.002693
     8  H    0.834447   0.001882
 Sum of Mulliken charges =   0.00000   1.00000

 Dipole moment (field-independent basis, Debye):
    X=              1.5162    Y=             -1.5317    Z=             -0.8953  Tot=              2.3338
                          Isotropic Fermi Contact Couplings
        Atom                 a.u.       MegaHertz       Gauss      10(-4) cm-1
     1  Si(29)             0.52833    -469.54587    -167.54564    -156.62364
     2  S(33)              0.05432      18.65674       6.65719       6.22322
     3  H(1)               0.00665      29.71768      10.60401       9.91275
     4  H(1)               0.00877      39.21085      13.99141      13.07933
     5  O(17)              0.01686     -10.22164      -3.64734      -3.40957
     6  O(17)             -0.00518       3.13966       1.12031       1.04728
     7  O(17)             -0.00116       0.70112       0.25018       0.23387
     8  H(1)              -0.00008      -0.33910      -0.12100      -0.11311

 Normal termination of Gaussian 16 at Tue Apr  8 23:53:27 2025.
