 Gaussian 16, Revision C.01,

 ----------------------------------------------------------------------
 #t hf aug-cc-pvdz symm=none int=(grid=ultrafine) guess=(read,tcheck) s
 table=(opt,rrhf)
 ----------------------------------------------------------------------
 -----
 title
 -----
 Symbolic Z-matrix:
 Charge =  0 Multiplicity = 1

 SCF Done:  E(RHF) =  -330.293115332     A.U. after   10 cycles

 1\1\GINC-SE403\Stability\RHF\Aug-CC-pVDZ\C1H6Si1\OHZDE\08-Apr-2025\0\\
 #t hf aug-cc-pvdz symm=none int=(grid=ultrafine) guess=(read,tcheck) s
 table=(opt,rrhf)\\title\\0,1\Si,0,-0.634984,0.000001,0.\C,0,1.243607,0
 .000001,0.000002\H,0,1.634968,0.659438,0.779248\H,0,1.634964,0.345126,
 -0.960714\H,0,1.63496,-1.004568,0.181467\H,0,-1.158927,1.365754,-0.246
 707\H,0,-1.158929,-0.469232,1.306123\H,0,-1.158907,-0.896541,-1.05942\
 \Version=ES64L-G16RevC.01\HF=-330.2931153\RMSD=2.914e-09\Dipole=0.2878
 586,0.0000085,0.0000009\Quadrupole=-0.1815152,0.0907578,0.0907574,-0.0

 Normal termination of Gaussian 16 at Tue Apr  8 22:45:27 2025.
 Gaussian 16:  ES64L-G16RevC.01  3-Jul-2019

 ----------------------------------------------------------------------
 #t hf aug-cc-pvdz iop(5/13=1,5/36=2,99/5=2) pseudo=read geom=check gue
 ss=(read,tcheck) scf=(maxcycle=1)
 ----------------------------------------------------------------------
 -----
 title
 -----
 Structure from the checkpoint file:  "BDE49_expt_1536_mol1.chk"
 Charge =  0 Multiplicity = 1

                         Standard orientation:
 ---------------------------------------------------------------------
 Center     Atomic      Atomic             Coordinates (Angstroms)
 Number     Number       Type             X           Y           Z
 ---------------------------------------------------------------------
      1         14           0       -0.634984    0.000001   -0.000000
      2          6           0        1.243607    0.000001    0.000002
      3          1           0        1.634968    0.660988    0.777933
      4          1           0        1.634964    0.343212   -0.961400
      5          1           0        1.634960   -1.004205    0.183467
      6          1           0       -1.158927    1.365260   -0.249427
      7          1           0       -1.158929   -0.466630    1.307055
      8          1           0       -1.158907   -0.898649   -1.057633
 ---------------------------------------------------------------------

 SCF Done:  E(RHF) =  -330.686295829     A.U. after    2 cycles

 The electronic state is 1-A.
 Alpha  occ. eigenvalues --  -76.20830 -11.35082  -5.54336  -2.17789  -2.16405
 Alpha  occ. eigenvalues --   -2.16405  -1.04098  -0.74306  -0.56193  -0.56193
 Alpha  occ. eigenvalues --   -0.45838  -0.45838  -0.41759
 Alpha virt. eigenvalues --    0.03398   0.04907   0.05906   0.05906   0.08128
 Alpha virt. eigenvalues --    0.08347   0.08347   0.09992   0.09992   0.14576
 Alpha virt. eigenvalues --    0.16256   0.17000   0.17108   0.17108   0.19448

 Mulliken charges:
               1
     1  Si   5.909943
     2  C   -4.738324
     3  H    1.257680
     4  H    1.257678
     5  H    1.257679
     6  H   -1.648214
     7  H   -1.648220
     8  H   -1.648222
 Sum of Mulliken charges =  -0.00000

 Dipole moment (field-independent basis, Debye):
    X=              0.9306    Y=              0.0000    Z=              0.0000  Tot=              0.9306

 Test job not archived.
 1\1\GINC-SE403\SP\RHF\Aug-CC-pVDZ\C1H6Si1\OHZDE\08-Apr-2025\0\\#t hf a
 ug-cc-pvdz iop(5/13=1,5/36=2,99/5=2) pseudo=read geom=check guess=(rea
 d,tcheck) scf=(maxcycle=1)\\title\\0,1\Si,0,-0.634984,0.000001,0.\C,0,
 1.243607,0.000001,0.000002\H,0,1.634968,0.659438,0.779248\H,0,1.634964
 ,0.345126,-0.960714\H,0,1.63496,-1.004568,0.181467\H,0,-1.158927,1.365
 754,-0.246707\H,0,-1.158929,-0.469232,1.306123\H,0,-1.158907,-0.896541
 ,-1.05942\\Version=ES64L-G16RevC.01\State=1-A\HF=-330.6862958\RMSD=9.1
 25e-02\Dipole=0.3661382,0.0000134,0.0000016\Quadrupole=-0.1970645,0.09

 Normal termination of Gaussian 16 at Tue Apr  8 22:45:29 2025.
