 Gaussian 16, Revision C.01,

 ----------------------------------------------------------------------
 #t hf aug-cc-pvdz symm=none int=(grid=ultrafine) guess=(read,tcheck) s
 table=opt
 ----------------------------------------------------------------------
 -----
 title
 -----
 Symbolic Z-matrix:
 Charge =  0 Multiplicity = 2

 SCF Done:  E(UHF) =  -735.267941895     A.U. after   17 cycles
 Normal termination of Gaussian 16 at Tue Apr  8 22:40:30 2025.
 Gaussian 16:  ES64L-G16RevC.01  3-Jul-2019

 ----------------------------------------------------------------------
 #t hf aug-cc-pvdz iop(5/13=1,5/36=2,99/5=2) pseudo=read geom=check gue
 ss=(read,tcheck) scf=(maxcycle=1)
 ----------------------------------------------------------------------
 -----
 title
 -----
 Structure from the checkpoint file:  "BDE49_expt_129_mol2.chk"
 Charge =  0 Multiplicity = 2

                         Standard orientation:
 ---------------------------------------------------------------------
 Center     Atomic      Atomic             Coordinates (Angstroms)
 Number     Number       Type             X           Y           Z
 ---------------------------------------------------------------------
      1          6           0       -0.412939   -0.011576   -0.000002
      2          6           0       -0.976843    1.338132   -0.000015
      3          9           0       -0.766453   -0.721555    1.091226
      4         17           0        1.429541    0.077454    0.000005
      5          9           0       -0.766444   -0.721574   -1.091220
      6          1           0       -1.083719    1.856065    0.941568
      7          1           0       -1.083708    1.856050   -0.941607
 ---------------------------------------------------------------------

 SCF Done:  E(UHF) =  -736.531099180     A.U. after    2 cycles

 The electronic state is 2-A.
 Alpha  occ. eigenvalues --  -99.90382 -29.31577 -29.31531 -11.59274 -11.43123
 Alpha  occ. eigenvalues --  -10.47746  -9.67722  -9.66768  -9.66722  -1.43596
 Alpha  occ. eigenvalues --   -1.24292  -1.03739  -0.87382  -0.75028  -0.70444
 Alpha  occ. eigenvalues --   -0.62072  -0.53809  -0.53290  -0.46700  -0.40802
 Alpha  occ. eigenvalues --   -0.40547  -0.36148  -0.31040  -0.30577  -0.24290
 Alpha virt. eigenvalues --    0.03963   0.05865   0.08008   0.08906   0.10785
 Alpha virt. eigenvalues --    0.11887   0.12200   0.13611   0.15357   0.15399
 Alpha virt. eigenvalues --    0.17441   0.18998   0.19430   0.22320   0.25021

  Beta  occ. eigenvalues --  -99.90239 -29.31534 -29.31487 -11.59588 -11.40900
  Beta  occ. eigenvalues --  -10.47590  -9.67239  -9.66638  -9.66570  -1.42640
  Beta  occ. eigenvalues --   -1.22480  -0.97585  -0.87273  -0.73061  -0.69356
  Beta  occ. eigenvalues --   -0.60920  -0.53030  -0.52270  -0.46616  -0.40774
  Beta  occ. eigenvalues --   -0.35654  -0.31398  -0.30965  -0.24220
  Beta virt. eigenvalues --    0.03829   0.04672   0.05892   0.08783   0.09387
  Beta virt. eigenvalues --    0.10850   0.12074   0.13548   0.13654   0.15417
  Beta virt. eigenvalues --    0.16369   0.18244   0.19124   0.20260   0.22396

 Mulliken charges and spin densities:
               1          2
     1  C   -1.074196  -0.251262
     2  C   -2.430191   1.354844
     3  F    0.615907  -0.005908
     4  Cl  -0.392847   0.059896
     5  F    0.615908  -0.005908
     6  H    1.332709  -0.075832
     7  H    1.332710  -0.075832
 Sum of Mulliken charges =  -0.00000   1.00000

 Dipole moment (field-independent basis, Debye):
    X=             -3.9558    Y=             -1.4827    Z=             -0.0000  Tot=              4.2245
                          Isotropic Fermi Contact Couplings
        Atom                 a.u.       MegaHertz       Gauss      10(-4) cm-1
     1  C(13)             -0.02666     -29.97233     -10.69487      -9.99769
     2  C(13)              0.13434     151.02134      53.88817      50.37530
     3  F(19)              0.00639      26.89889       9.59819       8.97250
     4  Cl(35)             0.06067      26.60152       9.49208       8.87331
     5  F(19)              0.00639      26.89916       9.59829       8.97259
     6  H(1)              -0.01770     -79.11794     -28.23125     -26.39090
     7  H(1)              -0.01770     -79.11783     -28.23121     -26.39087
 --------------------------------------------------------

 Normal termination of Gaussian 16 at Tue Apr  8 22:40:33 2025.
