 Gaussian 16, Revision C.01,

 ----------------------------------------------------------------------
 #t hf aug-cc-pvdz symm=none int=(grid=ultrafine) guess=(read,tcheck) s
 table=(opt,rrhf)
 ----------------------------------------------------------------------
 -----
 title
 -----
 Symbolic Z-matrix:
 Charge =  0 Multiplicity = 1

 SCF Done:  E(RHF) =  -718.827643494     A.U. after   16 cycles
 Normal termination of Gaussian 16 at Tue Apr  8 23:36:28 2025.
 Gaussian 16:  ES64L-G16RevC.01  3-Jul-2019

 ----------------------------------------------------------------------
 #t hf aug-cc-pvdz iop(5/13=1,5/36=2,99/5=2) pseudo=read geom=check gue
 ss=(read,tcheck) scf=(maxcycle=1)
 ----------------------------------------------------------------------
 -----
 title
 -----
 Structure from the checkpoint file:  "BDE49_nonexpt_1483_mol1.chk"
 Charge =  0 Multiplicity = 1

                         Standard orientation:
 ---------------------------------------------------------------------
 Center     Atomic      Atomic             Coordinates (Angstroms)
 Number     Number       Type             X           Y           Z
 ---------------------------------------------------------------------
      1          6           0        2.007626   -0.049249   -0.000001
      2          6           0        1.486449    1.253443   -0.000000
      3          6           0        0.119092    1.462175   -0.000000
      4          6           0        1.114497   -1.131108   -0.000001
      5          6           0       -0.254678   -0.924756   -0.000001
      6          6           0       -0.780061    0.379439   -0.000000
      7          1           0        2.161807    2.100136    0.000001
      8          1           0       -0.266883    2.476408    0.000001
      9          1           0        1.503182   -2.142095   -0.000002
     10          1           0       -0.922124   -1.776697   -0.000002
     11          7           0       -2.147956    0.640357   -0.000000
     12         15           0       -3.413059   -0.533028    0.000002
     13          1           0       -2.382359    1.622232    0.000001
     14          6           0        3.417455   -0.268369   -0.000001
     15          7           0        4.560216   -0.445188   -0.000002
     16          1           0       -4.222923    0.009907   -1.032908
     17          1           0       -4.222917    0.009903    1.032919
 ---------------------------------------------------------------------

 SCF Done:  E(RHF) =  -720.774724512     A.U. after    2 cycles

 The electronic state is 1-A.
 Alpha  occ. eigenvalues -- -105.22598 -15.77418 -15.74889 -11.55288 -11.48525
 Alpha  occ. eigenvalues --  -11.46755 -11.46265 -11.42721 -11.42657 -11.38984
 Alpha  occ. eigenvalues --   -2.79513  -1.59873  -1.48540  -1.47002  -1.40270
 Alpha  occ. eigenvalues --   -1.30736  -1.24367  -1.12121  -1.08545  -0.90437
 Alpha  occ. eigenvalues --   -0.89976  -0.76952  -0.76202  -0.71487  -0.63132
 Alpha  occ. eigenvalues --   -0.60468  -0.60251  -0.56689  -0.54792  -0.50477
 Alpha  occ. eigenvalues --   -0.49193  -0.48149  -0.42230  -0.42088  -0.35784
 Alpha  occ. eigenvalues --   -0.33348  -0.29254  -0.27662  -0.04735
 Alpha virt. eigenvalues --    0.02887   0.04650   0.05055   0.06591   0.06904
 Alpha virt. eigenvalues --    0.07333   0.07612   0.08438   0.08821   0.10043
 Alpha virt. eigenvalues --    0.10443   0.10689   0.11382   0.12146   0.12473

 Mulliken charges:
               1
     1  C    4.800849
     2  C   -2.074860
     3  C   -2.268973
     4  C   -1.496103
     5  C   -1.775999
     6  C    0.978020
     7  H    1.790534
     8  H    1.769851
     9  H    1.802200
    10  H    1.861440
    11  N   -3.367535
    12  P    1.665303
    13  H    0.695220
    14  C   -0.629542
    15  N   -2.205555
    16  H   -0.772424
    17  H   -0.772425
 Sum of Mulliken charges =  -0.00000

 Dipole moment (field-independent basis, Debye):
    X=             -3.7243    Y=             -0.8245    Z=             -0.0000  Tot=              3.8145

 Test job not archived.
 1\1\GINC-SE072\SP\RHF\Aug-CC-pVDZ\C7H7N2P1\OHZDE\08-Apr-2025\0\\#t hf
 aug-cc-pvdz iop(5/13=1,5/36=2,99/5=2) pseudo=read geom=check guess=(re
 ad,tcheck) scf=(maxcycle=1)\\title\\0,1\C,0,2.007626,-0.049249,-0.0000
 01\C,0,1.486449,1.253443,0.\C,0,0.119092,1.462175,0.\C,0,1.114497,-1.1
 31108,-0.000001\C,0,-0.254678,-0.924756,-0.000001\C,0,-0.780061,0.3794
 39,0.\H,0,2.161807,2.100136,0.000001\H,0,-0.266883,2.476408,0.000001\H
 ,0,1.503182,-2.142095,-0.000002\H,0,-0.922124,-1.776697,-0.000002\N,0,
 -2.147956,0.640357,0.\P,0,-3.413059,-0.533028,0.000002\H,0,-2.382359,1

 Normal termination of Gaussian 16 at Tue Apr  8 23:36:37 2025.
