 Gaussian 16, Revision C.01,

 ----------------------------------------------------------------------
 #t hf aug-cc-pvdz symm=none int=(grid=ultrafine) guess=(read,tcheck) s
 table=(opt,rrhf)
 ----------------------------------------------------------------------
 -----
 title
 -----
 Symbolic Z-matrix:
 Charge =  0 Multiplicity = 1

 SCF Done:  E(RHF) =  -611.939245852     A.U. after   14 cycles
 Normal termination of Gaussian 16 at Wed Apr  9 00:08:59 2025.
 Gaussian 16:  ES64L-G16RevC.01  3-Jul-2019

 ----------------------------------------------------------------------
 #t hf aug-cc-pvdz iop(5/13=1,5/36=2,99/5=2) pseudo=read geom=check gue
 ss=(read,tcheck) scf=(maxcycle=1)
 ----------------------------------------------------------------------
 -----
 title
 -----
 Structure from the checkpoint file:  "BDE49_nonexpt_2284_mol1.chk"
 Charge =  0 Multiplicity = 1

                         Standard orientation:
 ---------------------------------------------------------------------
 Center     Atomic      Atomic             Coordinates (Angstroms)
 Number     Number       Type             X           Y           Z
 ---------------------------------------------------------------------
      1         14           0       -0.509300    0.669046    0.432409
      2          8           0        0.962241   -0.160520    0.705673
      3          7           0        1.748039   -0.457604   -0.460293
      4          8           0        2.730035   -1.020081   -0.178508
      5          6           0       -1.671278   -0.389722   -0.589328
      6          6           0       -0.174856    2.327211   -0.361539
      7          1           0       -1.103807    2.899149   -0.451393
      8          1           0        0.249462    2.213391   -1.362795
      9          1           0        0.523841    2.915502    0.239211
     10          6           0       -2.014351   -1.757032    0.029765
     11          1           0       -1.231510   -0.523014   -1.585033
     12          1           0       -2.588193    0.193664   -0.745257
     13          1           0       -1.117977   -2.364896    0.176540
     14          1           0       -2.696909   -2.323443   -0.609608
     15          1           0       -2.494510   -1.643633    1.005732
     16          1           0       -1.021762    0.831924    1.810214
 ---------------------------------------------------------------------

 SCF Done:  E(RHF) =  -613.556139546     A.U. after    2 cycles

 The electronic state is 1-A.
 Alpha  occ. eigenvalues --  -76.22952 -21.15603 -21.07654 -15.93827 -11.40105
 Alpha  occ. eigenvalues --  -11.35671 -11.35159  -5.56943  -2.23261  -2.20798
 Alpha  occ. eigenvalues --   -2.19410  -1.95413  -1.67996  -1.15643  -1.04655
 Alpha  occ. eigenvalues --   -0.95328  -0.89667  -0.72336  -0.63926  -0.61660
 Alpha  occ. eigenvalues --   -0.60799  -0.60144  -0.57192  -0.56912  -0.56095
 Alpha  occ. eigenvalues --   -0.50429  -0.49485  -0.45362  -0.41926  -0.37622
 Alpha  occ. eigenvalues --   -0.35054  -0.29729
 Alpha virt. eigenvalues --    0.03463   0.04429   0.05668   0.05883   0.06196
 Alpha virt. eigenvalues --    0.06386   0.07103   0.07717   0.07936   0.08788
 Alpha virt. eigenvalues --    0.09513   0.11089   0.12457   0.12861   0.13833

 Mulliken charges:
               1
     1  Si   6.972187
     2  O   -2.692853
     3  N    2.599591
     4  O   -1.820033
     5  C   -4.145729
     6  C   -5.272046
     7  H    1.328459
     8  H    1.279165
     9  H    1.220562
    10  C   -3.668989
    11  H    1.452957
    12  H    1.343116
    13  H    1.278972
    14  H    1.110933
    15  H    1.306837
    16  H   -2.293128
 Sum of Mulliken charges =  -0.00000

 Dipole moment (field-independent basis, Debye):
    X=             -0.8896    Y=              0.3683    Z=             -0.1759  Tot=              0.9788

 Test job not archived.
 1\1\GINC-SE340\SP\RHF\Aug-CC-pVDZ\C3H9N1O2Si1\OHZDE\09-Apr-2025\0\\#t
 hf aug-cc-pvdz iop(5/13=1,5/36=2,99/5=2) pseudo=read geom=check guess=
 (read,tcheck) scf=(maxcycle=1)\\title\\0,1\Si,0,-0.5093,0.669046,0.432
 409\O,0,0.962241,-0.160519,0.705673\N,0,1.748039,-0.457603,-0.460293\O
 ,0,2.730035,-1.02008,-0.178508\C,0,-1.671278,-0.389722,-0.589328\C,0,-
 0.174857,2.327211,-0.361539\H,0,-1.103808,2.899149,-0.451393\H,0,0.249
 461,2.213391,-1.362795\H,0,0.52384,2.915502,0.239211\C,0,-2.01435,-1.7
 57032,0.029765\H,0,-1.23151,-0.523014,-1.585033\H,0,-2.588193,0.193663

 Normal termination of Gaussian 16 at Wed Apr  9 00:09:04 2025.
