 Gaussian 16, Revision C.01,

 ----------------------------------------------------------------------
 #t hf aug-cc-pvdz symm=none int=(grid=ultrafine) guess=(read,tcheck) s
 table=opt
 ----------------------------------------------------------------------
 -----
 title
 -----
 Symbolic Z-matrix:
 Charge =  0 Multiplicity = 2

 SCF Done:  E(UHF) =  -982.642641881     A.U. after   17 cycles
 Normal termination of Gaussian 16 at Wed Apr  9 00:35:48 2025.
 Gaussian 16:  ES64L-G16RevC.01  3-Jul-2019

 ----------------------------------------------------------------------
 #t hf aug-cc-pvdz iop(5/13=1,5/36=2,99/5=2) pseudo=read geom=check gue
 ss=(read,tcheck) scf=(maxcycle=1)
 ----------------------------------------------------------------------
 -----
 title
 -----
 Structure from the checkpoint file:  "BDE49_nonexpt_463_mol2.chk"
 Charge =  0 Multiplicity = 2

                         Standard orientation:
 ---------------------------------------------------------------------
 Center     Atomic      Atomic             Coordinates (Angstroms)
 Number     Number       Type             X           Y           Z
 ---------------------------------------------------------------------
      1          1           0       -1.456095    2.310602    0.001411
      2          5           0       -0.650073    1.528222   -0.371181
      3          6           0        0.083292    0.468649    0.465131
      4         17           0        1.630373   -0.200817   -0.098048
      5         17           0       -1.388277   -0.577159   -0.048277
      6          1           0        0.091081    0.461997    1.551238
 ---------------------------------------------------------------------

 SCF Done:  E(UHF) =  -983.410349348     A.U. after    2 cycles

 The electronic state is 2-A.
 Alpha  occ. eigenvalues --  -99.92200 -99.91206 -11.48083 -10.49418 -10.48488
 Alpha  occ. eigenvalues --   -9.69259  -9.68666  -9.68540  -9.68331  -9.67559
 Alpha  occ. eigenvalues --   -9.67503  -7.65996  -1.41983  -1.30566  -1.04203
 Alpha  occ. eigenvalues --   -0.82047  -0.70045  -0.64611  -0.58169  -0.54679
 Alpha  occ. eigenvalues --   -0.52501  -0.50770  -0.46643  -0.33425
 Alpha virt. eigenvalues --    0.01303   0.03404   0.03885   0.05023   0.05460
 Alpha virt. eigenvalues --    0.07856   0.09539   0.10752   0.12395   0.13354
 Alpha virt. eigenvalues --    0.13772   0.14962   0.16076   0.16529   0.16884

  Beta  occ. eigenvalues --  -99.92203 -99.91178 -11.48180 -10.49421 -10.48455
  Beta  occ. eigenvalues --   -9.69302  -9.68697  -9.68481  -9.68234  -9.67538
  Beta  occ. eigenvalues --   -9.67485  -7.64048  -1.41624  -1.30400  -1.03040
  Beta  occ. eigenvalues --   -0.78692  -0.69381  -0.64209  -0.57192  -0.54527
  Beta  occ. eigenvalues --   -0.52190  -0.50644  -0.46136
  Beta virt. eigenvalues --    0.01174   0.03382   0.03618   0.04320   0.05313
  Beta virt. eigenvalues --    0.07674   0.08311   0.09795   0.12220   0.12478
  Beta virt. eigenvalues --    0.13577   0.14820   0.15789   0.16290   0.16814

 Mulliken charges and spin densities:
               1          2
     1  H   -1.659224  -0.016464
     2  B    2.704228   1.066395
     3  C   -2.939100  -0.110746
     4  Cl   0.036933   0.053593
     5  Cl   0.046803   0.011394
     6  H    1.810359  -0.004171
 Sum of Mulliken charges =  -0.00000   1.00000

 Dipole moment (field-independent basis, Debye):
    X=             -0.1347    Y=              0.9441    Z=              1.5062  Tot=              1.7827
                          Isotropic Fermi Contact Couplings
        Atom                 a.u.       MegaHertz       Gauss      10(-4) cm-1
     1  H(1)               0.00516      23.06245       8.22926       7.69281
     2  B(11)              0.21597     309.77902     110.53686     103.33116
     3  C(13)             -0.00534      -6.00324      -2.14211      -2.00247
     4  Cl(35)             0.04222      18.51371       6.60615       6.17551
     5  Cl(35)             0.00835       3.65933       1.30574       1.22062
     6  H(1)               0.00676      30.19643      10.77484      10.07244
 --------------------------------------------------------
       Center         ----  Spin Dipole Couplings  ----

 Normal termination of Gaussian 16 at Wed Apr  9 00:35:50 2025.
