 Gaussian 16, Revision C.01,

 ----------------------------------------------------------------------
 #t hf aug-cc-pvdz symm=none int=(grid=ultrafine) guess=(read,tcheck) s
 table=(opt,rrhf)
 ----------------------------------------------------------------------
 -----
 title
 -----
 Symbolic Z-matrix:
 Charge =  0 Multiplicity = 1

 SCF Done:  E(RHF) =  -332.456125550     A.U. after   12 cycles
 Normal termination of Gaussian 16 at Wed Apr  9 00:27:15 2025.
 Gaussian 16:  ES64L-G16RevC.01  3-Jul-2019

 ----------------------------------------------------------------------
 #t hf aug-cc-pvdz iop(5/13=1,5/36=2,99/5=2) pseudo=read geom=check gue
 ss=(read,tcheck) scf=(maxcycle=1)
 ----------------------------------------------------------------------
 -----
 title
 -----
 Structure from the checkpoint file:  "BDE49_nonexpt_274_mol1.chk"
 Charge =  0 Multiplicity = 1

                         Standard orientation:
 ---------------------------------------------------------------------
 Center     Atomic      Atomic             Coordinates (Angstroms)
 Number     Number       Type             X           Y           Z
 ---------------------------------------------------------------------
      1          6           0        0.225367    0.667314   -0.324439
      2          5           0       -0.965036   -0.330775   -0.007806
      3          8           0       -2.041165   -0.523155   -0.841494
      4          8           0       -0.970898   -1.008346    1.177571
      5          6           0        1.586120    0.188423    0.218018
      6          6           0        2.074863   -1.121921   -0.406517
      7          1           0        1.509930    0.065457    1.303627
      8          1           0        2.333931    0.972779    0.045691
      9          1           0        2.160890   -1.035620   -1.494932
     10          1           0        1.388698   -1.944845   -0.186806
     11          6           0       -0.129891    2.064996    0.237918
     12          1           0        0.319328    0.770105   -1.416886
     13          1           0        0.650273    2.794406   -0.002727
     14          1           0       -0.229847    2.032588    1.326931
     15          1           0       -1.073363    2.442940   -0.168267
     16          1           0        3.058399   -1.402652   -0.019669
     17          1           0       -1.972840   -0.033859   -1.665140
     18          1           0       -1.762466   -1.548291    1.278706
 ---------------------------------------------------------------------

 SCF Done:  E(RHF) =  -334.008715916     A.U. after    2 cycles

 The electronic state is 1-A.
 Alpha  occ. eigenvalues --  -21.05820 -21.04749 -11.40619 -11.39080 -11.36370
 Alpha  occ. eigenvalues --  -11.33252  -7.62335  -1.81457  -1.64918  -1.23722
 Alpha  occ. eigenvalues --   -1.07258  -0.91724  -0.84368  -0.73739  -0.65865
 Alpha  occ. eigenvalues --   -0.59655  -0.59153  -0.57713  -0.56307  -0.52357
 Alpha  occ. eigenvalues --   -0.49911  -0.47912  -0.46941  -0.45921  -0.41816
 Alpha  occ. eigenvalues --   -0.40047  -0.36163  -0.34205
 Alpha virt. eigenvalues --    0.03669   0.04593   0.04759   0.04994   0.06181
 Alpha virt. eigenvalues --    0.06587   0.06897   0.07075   0.07348   0.08677
 Alpha virt. eigenvalues --    0.08950   0.09297   0.09682   0.10155   0.10630

 Mulliken charges:
               1
     1  C   -2.894260
     2  B    9.355927
     3  O   -4.154036
     4  O   -4.523229
     5  C   -2.973369
     6  C   -3.949427
     7  H    1.504233
     8  H    1.297352
     9  H    1.294520
    10  H    1.155647
    11  C   -4.207015
    12  H    1.323657
    13  H    1.229336
    14  H    1.228946
    15  H    1.089106
    16  H    1.093117
    17  H    1.000274
    18  H    1.129222
 Sum of Mulliken charges =   0.00000

 Dipole moment (field-independent basis, Debye):
    X=             -0.2170    Y=              0.3020    Z=             -0.6332  Tot=              0.7343

 Test job not archived.
 1\1\GINC-SE366\SP\RHF\Aug-CC-pVDZ\C4H11B1O2\OHZDE\09-Apr-2025\0\\#t hf
  aug-cc-pvdz iop(5/13=1,5/36=2,99/5=2) pseudo=read geom=check guess=(r
 ead,tcheck) scf=(maxcycle=1)\\title\\0,1\C,0,0.225367,0.667314,-0.3244
 39\B,0,-0.965036,-0.330775,-0.007806\O,0,-2.041165,-0.523155,-0.841494
 \O,0,-0.970898,-1.008346,1.177571\C,0,1.58612,0.188423,0.218018\C,0,2.
 074863,-1.121921,-0.406517\H,0,1.50993,0.065457,1.303627\H,0,2.333931,
 0.972779,0.045691\H,0,2.16089,-1.03562,-1.494932\H,0,1.388698,-1.94484
 5,-0.186806\C,0,-0.129891,2.064996,0.237918\H,0,0.319328,0.770105,-1.4

 Normal termination of Gaussian 16 at Wed Apr  9 00:27:20 2025.
