 Gaussian 16, Revision C.01,

 ----------------------------------------------------------------------
 #t hf aug-cc-pvdz symm=none int=(grid=ultrafine) guess=(read,tcheck) s
 table=opt
 ----------------------------------------------------------------------
 -----
 title
 -----
 Symbolic Z-matrix:
 Charge =  0 Multiplicity = 2

 SCF Done:  E(UHF) =  -285.416506491     A.U. after   17 cycles
 Normal termination of Gaussian 16 at Tue Apr  8 23:06:14 2025.
 Gaussian 16:  ES64L-G16RevC.01  3-Jul-2019

 ----------------------------------------------------------------------
 #t hf aug-cc-pvdz iop(5/13=1,5/36=2,99/5=2) pseudo=read geom=check gue
 ss=(read,tcheck) scf=(maxcycle=1)
 ----------------------------------------------------------------------
 -----
 title
 -----
 Structure from the checkpoint file:  "BDE49_expt_373_mol2.chk"
 Charge =  0 Multiplicity = 2

                         Standard orientation:
 ---------------------------------------------------------------------
 Center     Atomic      Atomic             Coordinates (Angstroms)
 Number     Number       Type             X           Y           Z
 ---------------------------------------------------------------------
      1          7           0        0.928945    1.046245    0.184279
      2          6           0        1.378205   -0.299392   -0.182379
      3          6           0        0.315521   -1.304712    0.252848
      4          1           0        2.325552   -0.512144    0.321331
      5          1           0        1.528276   -0.392424   -1.268073
      6          8           0       -0.942511   -0.994079   -0.325406
      7          1           0        0.238029   -1.307154    1.351572
      8          1           0        0.578022   -2.309696   -0.082217
      9          6           0       -1.398812    0.288653    0.118055
     10          6           0       -0.391533    1.361418   -0.143680
     11          1           0       -1.639826    0.211820    1.198723
     12          1           0       -2.329145    0.491574   -0.414981
     13          1           0       -0.679052    2.399456   -0.020060
     14          1           0        1.595335    1.771677   -0.042069
 ---------------------------------------------------------------------

 SCF Done:  E(UHF) =  -286.731109392     A.U. after    2 cycles

 The electronic state is 2-A.
 Alpha  occ. eigenvalues --  -21.03608 -15.73712 -11.46323 -11.42428 -11.38145
 Alpha  occ. eigenvalues --  -11.37084  -1.74983  -1.39397  -1.13426  -0.99145
 Alpha  occ. eigenvalues --   -0.91917  -0.78446  -0.72165  -0.64295  -0.61819
 Alpha  occ. eigenvalues --   -0.57162  -0.56168  -0.54534  -0.53562  -0.45449
 Alpha  occ. eigenvalues --   -0.43565  -0.36419  -0.28907  -0.24024
 Alpha virt. eigenvalues --    0.03977   0.05115   0.05513   0.05709   0.06128
 Alpha virt. eigenvalues --    0.06458   0.07221   0.07403   0.10867   0.12406
 Alpha virt. eigenvalues --    0.12726   0.13004   0.14353   0.14675   0.15624

  Beta  occ. eigenvalues --  -21.03581 -15.73221 -11.46243 -11.42199 -11.38095
  Beta  occ. eigenvalues --  -11.35541  -1.74882  -1.37588  -1.11783  -0.98020
  Beta  occ. eigenvalues --   -0.90230  -0.76287  -0.71445  -0.63571  -0.60407
  Beta  occ. eigenvalues --   -0.56295  -0.54523  -0.53953  -0.52786  -0.45038
  Beta  occ. eigenvalues --   -0.37884  -0.35331  -0.28546
  Beta virt. eigenvalues --    0.03763   0.05140   0.05524   0.05617   0.06083
  Beta virt. eigenvalues --    0.06453   0.07172   0.07416   0.10800   0.11472
  Beta virt. eigenvalues --    0.12491   0.12842   0.14118   0.14420   0.14829

 Mulliken charges and spin densities:
               1          2
     1  N   -2.346883   0.077503
     2  C   -2.367928   0.004654
     3  C   -1.262132  -0.040206
     4  H    1.389418   0.013234
     5  H    1.459003  -0.010221
     6  O   -2.846018  -0.016173
     7  H    1.511709   0.012374
     8  H    1.260253   0.003156
     9  C   -1.412091  -0.309442
    10  C   -0.326262   1.285391
    11  H    1.368635   0.019919
    12  H    1.343119  -0.016613
    13  H    1.530632   0.002391
    14  H    0.698544  -0.025967
 Sum of Mulliken charges =   0.00000   1.00000

 Dipole moment (field-independent basis, Debye):
    X=              1.0094    Y=              0.3884    Z=              0.1148  Tot=              1.0877
                          Isotropic Fermi Contact Couplings
        Atom                 a.u.       MegaHertz       Gauss      10(-4) cm-1
     1  N(14)              0.02406       7.77362       2.77382       2.59300
     2  C(13)              0.00793       8.91443       3.18089       2.97353
     3  C(13)              0.00205       2.30171       0.82131       0.76777
     4  H(1)              -0.00039      -1.75373      -0.62577      -0.58498
     5  H(1)               0.00128       5.72740       2.04368       1.91046
     6  O(17)              0.00711      -4.30850      -1.53738      -1.43716
     7  H(1)              -0.00009      -0.39726      -0.14175      -0.13251
     8  H(1)              -0.00011      -0.47530      -0.16960      -0.15854

 Normal termination of Gaussian 16 at Tue Apr  8 23:06:19 2025.
