 Gaussian 16, Revision C.01,

 ----------------------------------------------------------------------
 #t hf aug-cc-pvdz symm=none int=(grid=ultrafine) guess=(read,tcheck) s
 table=(opt,rrhf)
 ----------------------------------------------------------------------
 -----
 title
 -----
 Symbolic Z-matrix:
 Charge =  0 Multiplicity = 1

 SCF Done:  E(RHF) =  -611.080566377     A.U. after   15 cycles
 Normal termination of Gaussian 16 at Tue Apr  8 23:28:51 2025.
 Gaussian 16:  ES64L-G16RevC.01  3-Jul-2019

 ----------------------------------------------------------------------
 #t hf aug-cc-pvdz iop(5/13=1,5/36=2,99/5=2) pseudo=read geom=check gue
 ss=(read,tcheck) scf=(maxcycle=1)
 ----------------------------------------------------------------------
 -----
 title
 -----
 Structure from the checkpoint file:  "BDE49_nonexpt_1294_mol1.chk"
 Charge =  0 Multiplicity = 1

                         Standard orientation:
 ---------------------------------------------------------------------
 Center     Atomic      Atomic             Coordinates (Angstroms)
 Number     Number       Type             X           Y           Z
 ---------------------------------------------------------------------
      1          6           0       -0.002402    0.057127    0.468092
      2          6           0        0.638202   -1.175143    0.290740
      3          6           0        1.966053   -1.236513   -0.122586
      4          6           0        2.678305   -0.064458   -0.369710
      5          6           0        2.051748    1.167897   -0.199969
      6          6           0        0.723006    1.226254    0.213668
      7         15           0       -2.614702   -0.152696   -0.562144
      8          1           0        2.445790   -2.200712   -0.249372
      9          1           0        3.713028   -0.111592   -0.689593
     10          1           0        2.598069    2.085922   -0.386336
     11          1           0        0.243538    2.190961    0.347047
     12          1           0        0.091319   -2.093208    0.480564
     13          6           0       -1.447047    0.126864    0.897182
     14          1           0       -1.660798    1.082093    1.377946
     15          1           0       -1.668461   -0.664771    1.618363
     16          1           0       -2.386057    1.091213   -1.206215
     17          1           0       -3.803092    0.298374    0.075254
 ---------------------------------------------------------------------

 SCF Done:  E(RHF) =  -612.595012975     A.U. after    2 cycles

 The electronic state is 1-A.
 Alpha  occ. eigenvalues -- -105.18008 -11.51500 -11.43691 -11.42807 -11.40669
 Alpha  occ. eigenvalues --  -11.40276 -11.39556 -11.35943  -2.74571  -1.46783
 Alpha  occ. eigenvalues --   -1.43881  -1.42848  -1.34278  -1.13366  -1.08968
 Alpha  occ. eigenvalues --   -0.97881  -0.86257  -0.83031  -0.71351  -0.69781
 Alpha  occ. eigenvalues --   -0.64481  -0.61280  -0.57729  -0.55965  -0.52376
 Alpha  occ. eigenvalues --   -0.50252  -0.44481  -0.43976  -0.34638  -0.32966
 Alpha  occ. eigenvalues --   -0.25428  -0.21080  -0.02785
 Alpha virt. eigenvalues --    0.03638   0.04977   0.05239   0.05899   0.06338
 Alpha virt. eigenvalues --    0.06672   0.07359   0.07885   0.08813   0.10131
 Alpha virt. eigenvalues --    0.10440   0.11606   0.12303   0.12613   0.12884

 Mulliken charges:
               1
     1  C    6.013799
     2  C   -3.751300
     3  C   -1.469929
     4  C   -3.190000
     5  C   -1.484613
     6  C   -2.512295
     7  P    2.621004
     8  H    1.537331
     9  H    1.498871
    10  H    1.463891
    11  H    1.752775
    12  H    1.448361
    13  C   -4.732268
    14  H    1.083808
    15  H    1.094265
    16  H   -0.744854
    17  H   -0.628846
 Sum of Mulliken charges =  -0.00000

 Dipole moment (field-independent basis, Debye):
    X=             -0.5728    Y=             -2.2212    Z=             -0.6330  Tot=              2.3796

 Test job not archived.
 1\1\GINC-SE184\SP\RHF\Aug-CC-pVDZ\C7H9P1\OHZDE\08-Apr-2025\0\\#t hf au
 g-cc-pvdz iop(5/13=1,5/36=2,99/5=2) pseudo=read geom=check guess=(read
 ,tcheck) scf=(maxcycle=1)\\title\\0,1\C,0,-0.002402,0.057127,0.468092\
 C,0,0.638202,-1.175143,0.29074\C,0,1.966053,-1.236513,-0.122586\C,0,2.
 678305,-0.064458,-0.36971\C,0,2.051748,1.167897,-0.199969\C,0,0.723006
 ,1.226254,0.213668\P,0,-2.614702,-0.152696,-0.562144\H,0,2.44579,-2.20
 0712,-0.249372\H,0,3.713028,-0.111592,-0.689593\H,0,2.598069,2.085922,
 -0.386336\H,0,0.243538,2.190961,0.347047\H,0,0.091319,-2.093208,0.4805

 Normal termination of Gaussian 16 at Tue Apr  8 23:28:59 2025.
