 Gaussian 16, Revision C.01,

 ----------------------------------------------------------------------
 #t hf aug-cc-pvdz symm=none int=(grid=ultrafine) guess=(read,tcheck) s
 table=opt
 ----------------------------------------------------------------------
 -----
 title
 -----
 Symbolic Z-matrix:
 Charge =  0 Multiplicity = 2

 SCF Done:  E(UHF) =  -458.989606652     A.U. after   17 cycles
 Normal termination of Gaussian 16 at Tue Apr  8 23:38:16 2025.
 Gaussian 16:  ES64L-G16RevC.01  3-Jul-2019

 ----------------------------------------------------------------------
 #t hf aug-cc-pvdz iop(5/13=1,5/36=2,99/5=2) pseudo=read geom=check gue
 ss=(read,tcheck) scf=(maxcycle=1)
 ----------------------------------------------------------------------
 -----
 title
 -----
 Structure from the checkpoint file:  "BDE49_nonexpt_1544_mol2.chk"
 Charge =  0 Multiplicity = 2

                         Standard orientation:
 ---------------------------------------------------------------------
 Center     Atomic      Atomic             Coordinates (Angstroms)
 Number     Number       Type             X           Y           Z
 ---------------------------------------------------------------------
      1         15           0       -1.429824   -0.129232   -0.103522
      2          6           0        0.377123    0.013070    0.385225
      3          6           0        1.147529   -1.231218   -0.080464
      4          1           0        1.143829   -1.310883   -1.172201
      5          1           0        0.713548   -2.150222    0.321902
      6          6           0        1.020205    1.308157   -0.139822
      7          1           0        2.191314   -1.182314    0.245307
      8          1           0        0.391361    0.042958    1.482311
      9          1           0        2.071091    1.361330    0.165087
     10          1           0        0.989257    1.348767   -1.232775
     11          1           0        0.512969    2.196563    0.243565
     12          1           0       -1.835150    1.092227    0.510002
 ---------------------------------------------------------------------

 SCF Done:  E(UHF) =  -459.780726228     A.U. after    2 cycles

 The electronic state is 2-A.
 Alpha  occ. eigenvalues -- -105.17394 -11.41333 -11.38488 -11.35433  -2.74837
 Alpha  occ. eigenvalues --   -1.47684  -1.44912  -1.43464  -1.18727  -1.00528
 Alpha  occ. eigenvalues --   -0.82997  -0.68564  -0.62064  -0.55982  -0.55578
 Alpha  occ. eigenvalues --   -0.53820  -0.47328  -0.45979  -0.21133  -0.06523
 Alpha  occ. eigenvalues --    0.01753
 Alpha virt. eigenvalues --    0.04093   0.05964   0.06218   0.06534   0.06731
 Alpha virt. eigenvalues --    0.06981   0.07120   0.07982   0.10890   0.12220
 Alpha virt. eigenvalues --    0.13339   0.14797   0.15219   0.15376   0.16331

  Beta  occ. eigenvalues -- -105.16768 -11.41409 -11.38441 -11.35447  -2.72925
  Beta  occ. eigenvalues --   -1.45855  -1.41934  -1.21052  -1.18492  -1.00416
  Beta  occ. eigenvalues --   -0.82537  -0.65443  -0.61775  -0.55929  -0.54239
  Beta  occ. eigenvalues --   -0.53765  -0.47033  -0.45865  -0.21983  -0.04373
  Beta virt. eigenvalues --    0.03983   0.05883   0.06142   0.06376   0.06724
  Beta virt. eigenvalues --    0.06828   0.07073   0.07462   0.10033   0.11084
  Beta virt. eigenvalues --    0.12630   0.13704   0.15009   0.15401   0.15877

 Mulliken charges and spin densities:
               1          2
     1  P    2.567070   1.377482
     2  C   -2.411258  -0.535770
     3  C   -3.444394  -0.136411
     4  H    1.229716   0.035368
     5  H    1.209880   0.003744
     6  C   -3.761038  -0.034752
     7  H    1.149556   0.088573
     8  H    1.374141  -0.033067
     9  H    1.215709  -0.011521
    10  H    0.972204   0.261789
    11  H    1.136663   0.175420
    12  H   -1.238249  -0.190855
 Sum of Mulliken charges =  -0.00000   1.00000

 Dipole moment (field-independent basis, Debye):
    X=             -1.2627    Y=             -2.6765    Z=             -0.1187  Tot=              2.9618
                          Isotropic Fermi Contact Couplings
        Atom                 a.u.       MegaHertz       Gauss      10(-4) cm-1
     1  P(31)              0.27255     493.61106     176.13270     164.65093
     2  C(13)             -0.00354      -3.98240      -1.42102      -1.32839
     3  C(13)              0.00002       0.02360       0.00842       0.00787
     4  H(1)              -0.00015      -0.66434      -0.23705      -0.22160
     5  H(1)              -0.00018      -0.80871      -0.28857      -0.26976
     6  C(13)              0.04288      48.20400      17.20039      16.07912
     7  H(1)              -0.00040      -1.76624      -0.63024      -0.58915
     8  H(1)               0.00408      18.23966       6.50836       6.08409

 Normal termination of Gaussian 16 at Tue Apr  8 23:38:20 2025.
