 Gaussian 16, Revision C.01,

 ----------------------------------------------------------------------
 #t hf aug-cc-pvdz symm=none int=(grid=ultrafine) guess=(read,tcheck) s
 table=opt
 ----------------------------------------------------------------------
 -----
 title
 -----
 Symbolic Z-matrix:
 Charge =  0 Multiplicity = 2

 SCF Done:  E(UHF) =  -174.149120325     A.U. after   16 cycles
 Normal termination of Gaussian 16 at Tue Apr  8 22:41:25 2025.
 Gaussian 16:  ES64L-G16RevC.01  3-Jul-2019

 ----------------------------------------------------------------------
 #t hf aug-cc-pvdz iop(5/13=1,5/36=2,99/5=2) pseudo=read geom=check gue
 ss=(read,tcheck) scf=(maxcycle=1)
 ----------------------------------------------------------------------
 -----
 title
 -----
 Structure from the checkpoint file:  "BDE49_expt_1326_mol3.chk"
 Charge =  0 Multiplicity = 2

                         Standard orientation:
 ---------------------------------------------------------------------
 Center     Atomic      Atomic             Coordinates (Angstroms)
 Number     Number       Type             X           Y           Z
 ---------------------------------------------------------------------
      1          8           0        0.000000    0.000000   -0.715266
      2          9           0        0.000000    0.000000    0.635792
 ---------------------------------------------------------------------

 SCF Done:  E(UHF) =  -174.730162583     A.U. after    2 cycles

 Unable to determine electronic state:  an orbital has unidentified symmetry.
 Alpha  occ. eigenvalues --  -29.34705 -21.23498  -1.81321  -0.69883  -0.61822
 Alpha  occ. eigenvalues --   -0.55708  -0.41277  -0.27104  -0.24166
 Alpha virt. eigenvalues --    0.14724   0.18450   0.19528   0.22266   0.23476
 Alpha virt. eigenvalues --    0.30429   0.30913   0.46349   0.59445   0.62514
 Alpha virt. eigenvalues --    0.62552   0.67878   0.69646   0.98460   0.98628

  Beta  occ. eigenvalues --  -29.34708 -21.19240  -1.67546  -0.65808  -0.53431
  Beta  occ. eigenvalues --   -0.40785  -0.40390  -0.22953
  Beta virt. eigenvalues --    0.12126   0.15212   0.19792   0.22694   0.23806
  Beta virt. eigenvalues --    0.23995   0.30936   0.34980   0.45461   0.59668
  Beta virt. eigenvalues --    0.63446   0.63472   0.69453   0.71401   1.00287

 Mulliken charges and spin densities:
               1          2
     1  O   -0.430658   0.917590
     2  F    0.430658   0.082410
 Sum of Mulliken charges =   0.00000   1.00000

 Dipole moment (field-independent basis, Debye):
    X=             -0.0000    Y=              0.0000    Z=              1.3136  Tot=              1.3136
                          Isotropic Fermi Contact Couplings
        Atom                 a.u.       MegaHertz       Gauss      10(-4) cm-1
     1  O(17)              0.17683    -107.19249     -38.24894     -35.75556
     2  F(19)              0.01904      80.09707      28.58063      26.71751
 --------------------------------------------------------
       Center         ----  Spin Dipole Couplings  ----
                      3XX-RR        3YY-RR        3ZZ-RR
 --------------------------------------------------------
     1   Atom        0.942669      0.114380     -1.057049
     2   Atom        0.486428      0.217807     -0.704235

 Normal termination of Gaussian 16 at Tue Apr  8 22:41:26 2025.
