 Gaussian 16, Revision C.01,

 ----------------------------------------------------------------------
 #t hf aug-cc-pvdz symm=none int=(grid=ultrafine) guess=(read,tcheck) s
 table=(opt,rrhf)
 ----------------------------------------------------------------------
 -----
 title
 -----
 Symbolic Z-matrix:
 Charge =  0 Multiplicity = 1

 SCF Done:  E(RHF) =  -486.232108622     A.U. after   16 cycles
 Normal termination of Gaussian 16 at Tue Apr  8 22:38:56 2025.
 Gaussian 16:  ES64L-G16RevC.01  3-Jul-2019

 ----------------------------------------------------------------------
 #t hf aug-cc-pvdz iop(5/13=1,5/36=2,99/5=2) pseudo=read geom=check gue
 ss=(read,tcheck) scf=(maxcycle=1)
 ----------------------------------------------------------------------
 -----
 title
 -----
 Structure from the checkpoint file:  "BDE49_expt_1212_mol1.chk"
 Charge =  0 Multiplicity = 1

                         Standard orientation:
 ---------------------------------------------------------------------
 Center     Atomic      Atomic             Coordinates (Angstroms)
 Number     Number       Type             X           Y           Z
 ---------------------------------------------------------------------
      1          6           0        0.079224    0.500678   -0.475439
      2          7           0       -1.261770   -0.084539   -0.053247
      3          8           0       -1.604106    0.092073    1.100206
      4          8           0       -1.882255   -0.673980   -0.918823
      5          6           0        0.295351    1.888967    0.077598
      6          7           0        1.172428   -0.470607   -0.001706
      7          1           0        0.100387    0.442198   -1.561159
      8          8           0        2.310445   -0.071298   -0.163128
      9          8           0        0.830817   -1.543884    0.446260
     10          1           0        0.215691    1.879802    1.163980
     11          1           0       -0.460130    2.563915   -0.328204
     12          1           0        1.282789    2.238944   -0.219026
 ---------------------------------------------------------------------

 SCF Done:  E(RHF) =  -488.310565472     A.U. after    2 cycles

 The electronic state is 1-A.
 Alpha  occ. eigenvalues --  -21.13463 -21.12862 -21.12812 -21.12536 -16.03354
 Alpha  occ. eigenvalues --  -16.02679 -11.55659 -11.43745  -2.04678  -2.01351
 Alpha  occ. eigenvalues --   -1.73168  -1.72509  -1.32216  -1.07884  -1.01775
 Alpha  occ. eigenvalues --   -0.84198  -0.77139  -0.75483  -0.71523  -0.66389
 Alpha  occ. eigenvalues --   -0.63961  -0.63351  -0.60085  -0.59646  -0.56289
 Alpha  occ. eigenvalues --   -0.40810  -0.36882  -0.36149  -0.34105  -0.34044
 Alpha  occ. eigenvalues --   -0.32454
 Alpha virt. eigenvalues --    0.03032   0.04798   0.05377   0.05901   0.10055
 Alpha virt. eigenvalues --    0.10294   0.11107   0.11492   0.12081   0.14053
 Alpha virt. eigenvalues --    0.14416   0.14985   0.15180   0.16782   0.17234

 Mulliken charges:
               1
     1  C   -0.915308
     2  N    4.355331
     3  O   -2.850547
     4  O   -2.730619
     5  C   -2.654668
     6  N    4.433488
     7  H    1.994457
     8  O   -2.915079
     9  O   -2.716642
    10  H    1.411838
    11  H    1.240768
    12  H    1.346983
 Sum of Mulliken charges =   0.00000

 Dipole moment (field-independent basis, Debye):
    X=              0.4530    Y=              2.1004    Z=             -0.6621  Tot=              2.2484

 Test job not archived.
 1\1\GINC-SE118\SP\RHF\Aug-CC-pVDZ\C2H4N2O4\OHZDE\08-Apr-2025\0\\#t hf
 aug-cc-pvdz iop(5/13=1,5/36=2,99/5=2) pseudo=read geom=check guess=(re
 ad,tcheck) scf=(maxcycle=1)\\title\\0,1\C,0,0.079224,0.500678,-0.47543
 9\N,0,-1.26177,-0.084539,-0.053247\O,0,-1.604106,0.092073,1.100206\O,0
 ,-1.882255,-0.67398,-0.918823\C,0,0.295351,1.888967,0.077598\N,0,1.172
 428,-0.470607,-0.001706\H,0,0.100387,0.442198,-1.561159\O,0,2.310445,-
 0.071297,-0.163128\O,0,0.830817,-1.543884,0.44626\H,0,0.215691,1.87980
 2,1.16398\H,0,-0.460131,2.563915,-0.328204\H,0,1.282788,2.238944,-0.21

 Normal termination of Gaussian 16 at Tue Apr  8 22:39:01 2025.
