 Gaussian 16, Revision C.01,

 ----------------------------------------------------------------------
 #t hf aug-cc-pvdz symm=none int=(grid=ultrafine) guess=(read,tcheck) s
 table=opt
 ----------------------------------------------------------------------
 -----
 title
 -----
 Symbolic Z-matrix:
 Charge =  0 Multiplicity = 2

 SCF Done:  E(UHF) =  -192.527587721     A.U. after   16 cycles
 Normal termination of Gaussian 16 at Tue Apr  8 22:36:29 2025.
 Gaussian 16:  ES64L-G16RevC.01  3-Jul-2019

 ----------------------------------------------------------------------
 #t hf aug-cc-pvdz iop(5/13=1,5/36=2,99/5=2) pseudo=read geom=check gue
 ss=(read,tcheck) scf=(maxcycle=1)
 ----------------------------------------------------------------------
 -----
 title
 -----
 Structure from the checkpoint file:  "BDE49_expt_1066_mol2.chk"
 Charge =  0 Multiplicity = 2

                         Standard orientation:
 ---------------------------------------------------------------------
 Center     Atomic      Atomic             Coordinates (Angstroms)
 Number     Number       Type             X           Y           Z
 ---------------------------------------------------------------------
      1          6           0        0.008761    0.026952   -0.226503
      2          8           0       -0.041024    1.379416    0.059460
      3          1           0       -0.943066    1.690668   -0.067417
      4          6           0       -1.232750   -0.763974    0.033051
      5          1           0       -1.145311   -1.774867   -0.371361
      6          1           0       -2.111666   -0.299583   -0.430902
      7          1           0       -1.448329   -0.856475    1.112878
      8          6           0        1.360191   -0.547332    0.025694
      9          1           0        1.575665   -0.637199    1.104768
     10          1           0        2.134800    0.092451   -0.404816
     11          1           0        1.448893   -1.544197   -0.412286
 ---------------------------------------------------------------------

 SCF Done:  E(UHF) =  -193.421594163     A.U. after    2 cycles

 The electronic state is 2-A.
 Alpha  occ. eigenvalues --  -21.08308 -11.41979 -11.38702 -11.35600  -1.73325
 Alpha  occ. eigenvalues --   -1.15932  -1.02073  -0.80142  -0.63858  -0.61881
 Alpha  occ. eigenvalues --   -0.59762  -0.54355  -0.51466  -0.47900  -0.44784
 Alpha  occ. eigenvalues --   -0.39619  -0.23269
 Alpha virt. eigenvalues --    0.03426   0.05826   0.05907   0.06204   0.06473
 Alpha virt. eigenvalues --    0.06868   0.07774   0.10203   0.12745   0.14225
 Alpha virt. eigenvalues --    0.15220   0.15545   0.16407   0.17111   0.18020

  Beta  occ. eigenvalues --  -21.07883 -11.40355 -11.38834 -11.35129  -1.71791
  Beta  occ. eigenvalues --   -1.13272  -1.01874  -0.75871  -0.62249  -0.59178
  Beta  occ. eigenvalues --   -0.57288  -0.53309  -0.51155  -0.47032  -0.40861
  Beta  occ. eigenvalues --   -0.36674
  Beta virt. eigenvalues --    0.03148   0.05816   0.05862   0.06111   0.06494
  Beta virt. eigenvalues --    0.06794   0.07782   0.10179   0.12758   0.13657
  Beta virt. eigenvalues --    0.14571   0.15348   0.15671   0.16752   0.18068

 Mulliken charges and spin densities:
               1          2
     1  C    2.572536   1.551937
     2  O   -3.290198   0.096999
     3  H    0.957874  -0.010395
     4  C   -3.971996  -0.324973
     5  H    1.307174  -0.004341
     6  H    1.201789   0.006037
     7  H    1.124992   0.048420
     8  C   -3.637789  -0.404099
     9  H    1.183047   0.040624
    10  H    1.309579  -0.002499
    11  H    1.242991   0.002290
 Sum of Mulliken charges =  -0.00000   1.00000

 Dipole moment (field-independent basis, Debye):
    X=             -0.6156    Y=             -0.2192    Z=              0.1000  Tot=              0.6611
                          Isotropic Fermi Contact Couplings
        Atom                 a.u.       MegaHertz       Gauss      10(-4) cm-1
     1  C(13)              0.18460     207.52112      74.04870      69.22159
     2  O(17)              0.03342     -20.25912      -7.22896      -6.75771
     3  H(1)              -0.00066      -2.94928      -1.05238      -0.98377
     4  C(13)             -0.01219     -13.70943      -4.89187      -4.57297
     5  H(1)               0.00247      11.06106       3.94686       3.68957
     6  H(1)               0.00578      25.83600       9.21893       8.61796
     7  H(1)               0.01647      73.61762      26.26860      24.55619
     8  C(13)             -0.01978     -22.23859      -7.93528      -7.41799

 Normal termination of Gaussian 16 at Tue Apr  8 22:36:32 2025.
