 Gaussian 16, Revision C.01,

 ----------------------------------------------------------------------
 #t hf aug-cc-pvdz symm=none int=(grid=ultrafine) guess=(read,tcheck) s
 table=opt
 ----------------------------------------------------------------------
 -----
 title
 -----
 Symbolic Z-matrix:
 Charge =  0 Multiplicity = 2

 SCF Done:  E(UHF) =  -271.733437159     A.U. after   16 cycles
 Normal termination of Gaussian 16 at Wed Apr  9 00:21:04 2025.
 Gaussian 16:  ES64L-G16RevC.01  3-Jul-2019

 ----------------------------------------------------------------------
 #t hf aug-cc-pvdz iop(5/13=1,5/36=2,99/5=2) pseudo=read geom=check gue
 ss=(read,tcheck) scf=(maxcycle=1)
 ----------------------------------------------------------------------
 -----
 title
 -----
 Structure from the checkpoint file:  "BDE49_nonexpt_260_mol2.chk"
 Charge =  0 Multiplicity = 2

                         Standard orientation:
 ---------------------------------------------------------------------
 Center     Atomic      Atomic             Coordinates (Angstroms)
 Number     Number       Type             X           Y           Z
 ---------------------------------------------------------------------
      1          8           0        1.231580   -0.879453   -0.067233
      2          7           0       -1.193642   -0.821946    0.006445
      3          6           0        0.046917    1.259757   -0.322770
      4          6           0       -1.259878    0.636347    0.177890
      5          6           0        1.263343    0.530724    0.244242
      6          5           0        0.026080   -1.497354   -0.127841
      7          1           0        2.189461    0.925327   -0.177435
      8          1           0        1.309959    0.641571    1.333685
      9          1           0        0.090697    2.317118   -0.043653
     10          1           0        0.079012    1.205163   -1.415757
     11          1           0       -2.072345   -1.312645   -0.003570
     12          1           0       -2.104014    1.040614   -0.389737
     13          1           0       -1.422612    0.897903    1.232253
 ---------------------------------------------------------------------

 SCF Done:  E(UHF) =  -272.953674285     A.U. after    2 cycles

 The electronic state is 2-A.
 Alpha  occ. eigenvalues --  -21.01627 -15.70446 -11.44401 -11.43204 -11.37351
 Alpha  occ. eigenvalues --   -7.63138  -1.76738  -1.36414  -1.16559  -0.96062
 Alpha  occ. eigenvalues --   -0.87513  -0.73155  -0.67512  -0.62625  -0.60335
 Alpha  occ. eigenvalues --   -0.57776  -0.53295  -0.50988  -0.48497  -0.41960
 Alpha  occ. eigenvalues --   -0.37235  -0.31868  -0.29376
 Alpha virt. eigenvalues --    0.03237   0.04582   0.05118   0.05447   0.05905
 Alpha virt. eigenvalues --    0.06502   0.06712   0.06994   0.07126   0.09690
 Alpha virt. eigenvalues --    0.12193   0.12977   0.13539   0.14097   0.14436

  Beta  occ. eigenvalues --  -21.01535 -15.70418 -11.44322 -11.43084 -11.37314
  Beta  occ. eigenvalues --   -7.61114  -1.76186  -1.36052  -1.16043  -0.95644
  Beta  occ. eigenvalues --   -0.86532  -0.72729  -0.66600  -0.61164  -0.60323
  Beta  occ. eigenvalues --   -0.57052  -0.52605  -0.50827  -0.46851  -0.41322
  Beta  occ. eigenvalues --   -0.35816  -0.32374
  Beta virt. eigenvalues --    0.03277   0.04356   0.04824   0.05186   0.05843
  Beta virt. eigenvalues --    0.06382   0.06746   0.07054   0.07127   0.09348
  Beta virt. eigenvalues --    0.09845   0.12857   0.13174   0.13757   0.14226

 Mulliken charges and spin densities:
               1          2
     1  O   -3.192657  -0.217644
     2  N   -3.134206   0.012030
     3  C   -2.667191  -0.005917
     4  C   -1.560425  -0.047227
     5  C   -0.719060   0.044897
     6  B    2.115020   1.207370
     7  H    1.257418  -0.000998
     8  H    1.464287  -0.004735
     9  H    1.359753   0.005320
    10  H    1.248579  -0.008846
    11  H    1.101030   0.023756
    12  H    1.372993  -0.002494
    13  H    1.354460  -0.005512
 Sum of Mulliken charges =  -0.00000   1.00000

 Dipole moment (field-independent basis, Debye):
    X=             -1.0344    Y=              2.1681    Z=              0.3046  Tot=              2.4215
                          Isotropic Fermi Contact Couplings
        Atom                 a.u.       MegaHertz       Gauss      10(-4) cm-1
     1  O(17)              0.14496     -87.87500     -31.35599     -29.31195
     2  N(14)              0.07603      24.56696       8.76610       8.19466
     3  C(13)             -0.00286      -3.21672      -1.14781      -1.07298
     4  C(13)              0.02246      25.24560       9.00826       8.42103
     5  C(13)              0.03512      39.48637      14.08972      13.17124
     6  B(11)              0.34484     494.62037     176.49285     164.98760
     7  H(1)              -0.00052      -2.33037      -0.83153      -0.77733
     8  H(1)              -0.00091      -4.07466      -1.45394      -1.35916

 Normal termination of Gaussian 16 at Wed Apr  9 00:21:08 2025.
