 Gaussian 16, Revision C.01,

 ----------------------------------------------------------------------
 #t hf aug-cc-pvdz symm=none int=(grid=ultrafine) guess=(read,tcheck) s
 table=opt
 ----------------------------------------------------------------------
 -----
 title
 -----
 Symbolic Z-matrix:
 Charge =  0 Multiplicity = 2

 SCF Done:  E(UHF) =  -596.492244233     A.U. after   17 cycles
 Normal termination of Gaussian 16 at Wed Apr  9 00:00:39 2025.
 Gaussian 16:  ES64L-G16RevC.01  3-Jul-2019

 ----------------------------------------------------------------------
 #t hf aug-cc-pvdz iop(5/13=1,5/36=2,99/5=2) pseudo=read geom=check gue
 ss=(read,tcheck) scf=(maxcycle=1)
 ----------------------------------------------------------------------
 -----
 title
 -----
 Structure from the checkpoint file:  "BDE49_nonexpt_2069_mol2.chk"
 Charge =  0 Multiplicity = 2

                         Standard orientation:
 ---------------------------------------------------------------------
 Center     Atomic      Atomic             Coordinates (Angstroms)
 Number     Number       Type             X           Y           Z
 ---------------------------------------------------------------------
      1         14           0        1.831359   -0.345337   -0.557227
      2          6           0        0.057148   -0.218592    0.231157
      3          8           0       -0.807530   -0.443462   -0.876830
      4          8           0       -0.195481    1.032859    0.850147
      5          6           0       -2.201342   -0.571366   -0.588617
      6          1           0       -2.716538   -0.488061   -1.545500
      7          1           0       -2.545291    0.224228    0.079017
      8          1           0       -2.436646   -1.544227   -0.144008
      9          6           0       -0.105130    2.173350    0.005342
     10          1           0       -0.292526    3.040559    0.638150
     11          1           0       -0.840593    2.138873   -0.803440
     12          1           0        0.895384    2.263248   -0.440797
     13          6           0       -0.106292   -1.253246    1.347023
     14          1           0       -0.029264   -2.265797    0.946366
     15          1           0       -1.076714   -1.132627    1.836953
     16          1           0        0.665122   -1.111796    2.105634
     17          1           0        2.035586   -1.708319   -1.112149
     18          1           0        2.860245   -0.077420    0.484981
 ---------------------------------------------------------------------

 SCF Done:  E(UHF) =  -598.058547026     A.U. after    2 cycles

 The electronic state is 2-A.
 Alpha  occ. eigenvalues --  -76.22083 -21.04751 -21.04675 -11.46738 -11.40641
 Alpha  occ. eigenvalues --  -11.40246 -11.36971  -5.55468  -2.19755  -2.17813
 Alpha  occ. eigenvalues --   -2.17595  -1.80964  -1.68812  -1.12062  -1.00093
 Alpha  occ. eigenvalues --   -0.97660  -0.82823  -0.73371  -0.64576  -0.63919
 Alpha  occ. eigenvalues --   -0.61649  -0.60673  -0.58541  -0.55808  -0.54529
 Alpha  occ. eigenvalues --   -0.48833  -0.47299  -0.44853  -0.44031  -0.34390
 Alpha  occ. eigenvalues --   -0.31673  -0.29540  -0.25694
 Alpha virt. eigenvalues --    0.03744   0.04745   0.05213   0.05393   0.05568
 Alpha virt. eigenvalues --    0.06198   0.06470   0.06627   0.06886   0.09070
 Alpha virt. eigenvalues --    0.09200   0.09600   0.10412   0.11516   0.12834

  Beta  occ. eigenvalues --  -76.21522 -21.04762 -21.04688 -11.46687 -11.40619
  Beta  occ. eigenvalues --  -11.40238 -11.36927  -5.54589  -2.19023  -2.17164
  Beta  occ. eigenvalues --   -2.14098  -1.80954  -1.68827  -1.11769  -1.00052
  Beta  occ. eigenvalues --   -0.97513  -0.81273  -0.71082  -0.64456  -0.63195
  Beta  occ. eigenvalues --   -0.61394  -0.60189  -0.58496  -0.55536  -0.54399
  Beta  occ. eigenvalues --   -0.48709  -0.46649  -0.44480  -0.43951  -0.33989
  Beta  occ. eigenvalues --   -0.30091  -0.29050
  Beta virt. eigenvalues --    0.03596   0.03893   0.05016   0.05326   0.05576
  Beta virt. eigenvalues --    0.05632   0.06325   0.06639   0.06870   0.07991
  Beta virt. eigenvalues --    0.09196   0.09304   0.09753   0.11006   0.11701

 Mulliken charges and spin densities:
               1          2
     1  Si   3.806237   1.183655
     2  C    4.647756   0.039061
     3  O   -3.355580  -0.078309
     4  O   -3.563009  -0.008504
     5  C   -3.280740  -0.018840
     6  H    1.300103  -0.001536
     7  H    1.417543  -0.002455
     8  H    1.494180   0.000004
     9  C   -3.322891   0.018408
    10  H    1.251102   0.000353
    11  H    1.440646   0.003480
    12  H    1.424675  -0.040464
    13  C   -3.897769  -0.038454
    14  H    1.394472  -0.004897
    15  H    1.320956   0.004704
    16  H    1.346136  -0.011957
    17  H   -1.715940  -0.020651
    18  H   -1.707875  -0.023597
 Sum of Mulliken charges =   0.00000   1.00000

 Dipole moment (field-independent basis, Debye):
    X=             -1.0542    Y=              0.5645    Z=              0.0574  Tot=              1.1972
                          Isotropic Fermi Contact Couplings
        Atom                 a.u.       MegaHertz       Gauss      10(-4) cm-1
     1  Si(29)             0.45912    -408.03645    -145.59755    -136.10631
     2  C(13)              0.00528       5.93722       2.11855       1.98044
     3  O(17)             -0.00691       4.19099       1.49545       1.39796
     4  O(17)              0.00052      -0.31491      -0.11237      -0.10504
     5  C(13)             -0.00151      -1.69938      -0.60638      -0.56685
     6  H(1)               0.00002       0.09563       0.03412       0.03190
     7  H(1)               0.00003       0.11460       0.04089       0.03823
     8  H(1)               0.00005       0.23057       0.08227       0.07691

 Normal termination of Gaussian 16 at Wed Apr  9 00:00:47 2025.
