 Gaussian 16, Revision C.01,

 ----------------------------------------------------------------------
 #t hf aug-cc-pvdz symm=none int=(grid=ultrafine) guess=(read,tcheck) s
 table=(opt,rrhf)
 ----------------------------------------------------------------------
 -----
 title
 -----
 Symbolic Z-matrix:
 Charge =  0 Multiplicity = 1

 SCF Done:  E(RHF) =  -847.578450183     A.U. after   12 cycles
 Normal termination of Gaussian 16 at Wed Apr  9 00:13:15 2025.
 Gaussian 16:  ES64L-G16RevC.01  3-Jul-2019

 ----------------------------------------------------------------------
 #t hf aug-cc-pvdz iop(5/13=1,5/36=2,99/5=2) pseudo=read geom=check gue
 ss=(read,tcheck) scf=(maxcycle=1)
 ----------------------------------------------------------------------
 -----
 title
 -----
 Structure from the checkpoint file:  "BDE49_nonexpt_2379_mol1.chk"
 Charge =  0 Multiplicity = 1

                         Standard orientation:
 ---------------------------------------------------------------------
 Center     Atomic      Atomic             Coordinates (Angstroms)
 Number     Number       Type             X           Y           Z
 ---------------------------------------------------------------------
      1         14           0       -0.441684   -1.097202    1.152313
      2         14           0        0.441684    1.097202    1.152313
      3          7           0        0.242244    1.896455   -0.373926
      4          1           0        1.900353    1.092988    1.434718
      5          1           0       -0.190265    1.790846    2.320091
      6          7           0       -0.242244   -1.896455   -0.373926
      7          1           0       -1.900353   -1.092988    1.434718
      8          1           0        0.190265   -1.790846    2.320091
      9          6           0       -0.980657    1.771720   -1.157760
     10          1           0       -1.728096    2.542439   -0.911061
     11          1           0       -1.434721    0.790560   -1.005255
     12          1           0       -0.751757    1.864657   -2.226909
     13          6           0        0.980657   -1.771720   -1.157760
     14          1           0        1.728096   -2.542439   -0.911061
     15          1           0        1.434721   -0.790560   -1.005255
     16          1           0        0.751757   -1.864657   -2.226909
     17          6           0        0.980657    3.121437   -0.658787
     18          1           0        1.923865    3.134648   -0.107900
     19          1           0        0.418242    4.029935   -0.390571
     20          1           0        1.217397    3.181783   -1.728730
     21          6           0       -0.980657   -3.121437   -0.658787
     22          1           0       -1.923865   -3.134648   -0.107900
     23          1           0       -0.418242   -4.029935   -0.390571
     24          1           0       -1.217397   -3.181783   -1.728730
 ---------------------------------------------------------------------

 SCF Done:  E(RHF) =  -849.253909563     A.U. after    2 cycles

 The electronic state is 1-A.
 Alpha  occ. eigenvalues --  -76.21041 -76.21034 -15.69451 -15.69448 -11.39134
 Alpha  occ. eigenvalues --  -11.38870 -11.38325 -11.38181  -5.54778  -5.54778
 Alpha  occ. eigenvalues --   -2.20138  -2.20094  -2.17351  -2.16680  -2.16419
 Alpha  occ. eigenvalues --   -2.15834  -1.36889  -1.36485  -1.03148  -1.02987
 Alpha  occ. eigenvalues --   -0.90938  -0.90037  -0.75622  -0.69632  -0.62689
 Alpha  occ. eigenvalues --   -0.62255  -0.61221  -0.59777  -0.59334  -0.58504
 Alpha  occ. eigenvalues --   -0.53930  -0.53821  -0.49590  -0.49413  -0.47410
 Alpha  occ. eigenvalues --   -0.46328  -0.44370  -0.44324  -0.35235  -0.32294
 Alpha  occ. eigenvalues --   -0.31239
 Alpha virt. eigenvalues --    0.03872   0.04381   0.05521   0.05675   0.05893
 Alpha virt. eigenvalues --    0.05989   0.06131   0.06583   0.06743   0.07306
 Alpha virt. eigenvalues --    0.07658   0.07709   0.08479   0.08665   0.09186

 Mulliken charges:
               1
     1  Si   4.688080
     2  Si   4.688080
     3  N   -2.445235
     4  H   -1.859055
     5  H   -2.357669
     6  N   -2.445235
     7  H   -1.859055
     8  H   -2.357669
     9  C   -3.744148
    10  H    1.381549
    11  H    2.100533
    12  H    1.384333
    13  C   -3.744148
    14  H    1.381549
    15  H    2.100533
    16  H    1.384333
    17  C   -3.610124
    18  H    1.467375
    19  H    1.474362
    20  H    1.519998
    21  C   -3.610124
    22  H    1.467375
    23  H    1.474362
    24  H    1.519998
 Sum of Mulliken charges =   0.00000

 Dipole moment (field-independent basis, Debye):
    X=             -0.0000    Y=             -0.0000    Z=             -1.9239  Tot=              1.9239

 Test job not archived.
 1\1\GINC-SE424\SP\RHF\Aug-CC-pVDZ\C4H16N2Si2\OHZDE\09-Apr-2025\0\\#t h
 f aug-cc-pvdz iop(5/13=1,5/36=2,99/5=2) pseudo=read geom=check guess=(
 read,tcheck) scf=(maxcycle=1)\\title\\0,1\Si,0,-0.441684,-1.097202,1.1
 52313\Si,0,0.441684,1.097202,1.152313\N,0,0.242244,1.896455,-0.373926\
 H,0,1.900353,1.092988,1.434718\H,0,-0.190265,1.790846,2.320091\N,0,-0.
 242244,-1.896455,-0.373926\H,0,-1.900353,-1.092988,1.434718\H,0,0.1902
 65,-1.790846,2.320091\C,0,-0.980657,1.77172,-1.15776\H,0,-1.728096,2.5
 42439,-0.911061\H,0,-1.434721,0.79056,-1.005255\H,0,-0.751757,1.864657

 Normal termination of Gaussian 16 at Wed Apr  9 00:13:23 2025.
