 Gaussian 16, Revision C.01,

 ----------------------------------------------------------------------
 #t hf aug-cc-pvdz symm=none int=(grid=ultrafine) guess=(read,tcheck) s
 table=(opt,rrhf)
 ----------------------------------------------------------------------
 -----
 title
 -----
 Symbolic Z-matrix:
 Charge =  0 Multiplicity = 1

 SCF Done:  E(RHF) =  -1212.99144087     A.U. after   15 cycles
 Normal termination of Gaussian 16 at Wed Apr  9 00:16:00 2025.
 Gaussian 16:  ES64L-G16RevC.01  3-Jul-2019

 ----------------------------------------------------------------------
 #t hf aug-cc-pvdz iop(5/13=1,5/36=2,99/5=2) pseudo=read geom=check gue
 ss=(read,tcheck) scf=(maxcycle=1)
 ----------------------------------------------------------------------
 -----
 title
 -----
 Structure from the checkpoint file:  "BDE49_nonexpt_245_mol1.chk"
 Charge =  0 Multiplicity = 1

                         Standard orientation:
 ---------------------------------------------------------------------
 Center     Atomic      Atomic             Coordinates (Angstroms)
 Number     Number       Type             X           Y           Z
 ---------------------------------------------------------------------
      1         17           0       -2.538726    1.505803    0.003223
      2         17           0       -2.538695   -1.505829    0.003212
      3          5           0       -1.600328   -0.000003    0.000715
      4          6           0       -0.062119    0.000010   -0.002413
      5          6           0        0.672237   -1.202919   -0.005566
      6          1           0        0.144234   -2.148971   -0.007484
      7          6           0        2.059483   -1.201307   -0.010303
      8          1           0        2.596424   -2.144265   -0.016618
      9          6           0        2.778998    0.000041   -0.009958
     10          6           0        4.285722   -0.000013    0.016673
     11          6           0        0.672203    1.202939   -0.005549
     12          1           0        0.144187    2.148984   -0.007454
     13          6           0        2.059469    1.201355   -0.010283
     14          1           0        2.596390    2.144321   -0.016580
     15          1           0        4.693970   -0.884578   -0.476790
     16          1           0        4.652628   -0.002406    1.049133
     17          1           0        4.694000    0.886743   -0.472782
 ---------------------------------------------------------------------

 SCF Done:  E(RHF) =  -1214.89193218     A.U. after    2 cycles

 The electronic state is 1-A.
 Alpha  occ. eigenvalues --  -99.89116 -99.89102 -11.51975 -11.45038 -11.44837
 Alpha  occ. eigenvalues --  -11.41982 -11.41629 -11.39949 -11.36734 -10.46543
 Alpha  occ. eigenvalues --  -10.46285  -9.66525  -9.66279  -9.65975  -9.65968
 Alpha  occ. eigenvalues --   -9.65761  -9.65679  -7.73468  -1.41028  -1.34133
 Alpha  occ. eigenvalues --   -1.28791  -1.16188  -1.10313  -1.01716  -0.87876
 Alpha  occ. eigenvalues --   -0.87055  -0.79012  -0.69721  -0.65229  -0.64474
 Alpha  occ. eigenvalues --   -0.59680  -0.59534  -0.58859  -0.58636  -0.57245
 Alpha  occ. eigenvalues --   -0.51930  -0.51740  -0.49866  -0.49309  -0.49131
 Alpha  occ. eigenvalues --   -0.44264  -0.42726  -0.34196  -0.34092
 Alpha virt. eigenvalues --    0.02772   0.04284   0.04414   0.04430   0.04684
 Alpha virt. eigenvalues --    0.05224   0.05827   0.06395   0.07272   0.07806
 Alpha virt. eigenvalues --    0.08412   0.10059   0.10792   0.11251   0.12280

 Mulliken charges:
               1
     1  Cl  -1.474792
     2  Cl  -1.474753
     3  B    1.144592
     4  C   -2.453890
     5  C   -1.761596
     6  H    1.913676
     7  C   -0.099315
     8  H    1.885819
     9  C    2.631785
    10  C   -5.675544
    11  C   -1.759389
    12  H    1.913771
    13  C   -0.094127
    14  H    1.886094
    15  H    1.133802
    16  H    1.148658
    17  H    1.135210
 Sum of Mulliken charges =  -0.00000

 Dipole moment (field-independent basis, Debye):
    X=              3.5990    Y=             -0.0002    Z=              0.0349  Tot=              3.5991

 Test job not archived.
 1\1\GINC-SE127\SP\RHF\Aug-CC-pVDZ\C7H7B1Cl2\OHZDE\09-Apr-2025\0\\#t hf
  aug-cc-pvdz iop(5/13=1,5/36=2,99/5=2) pseudo=read geom=check guess=(r
 ead,tcheck) scf=(maxcycle=1)\\title\\0,1\Cl,0,-2.538726,1.505803,0.003
 223\Cl,0,-2.538695,-1.505829,0.003212\B,0,-1.600328,-0.000003,0.000715
 \C,0,-0.062119,0.00001,-0.002413\C,0,0.672237,-1.202919,-0.005566\H,0,
 0.144234,-2.148971,-0.007484\C,0,2.059483,-1.201307,-0.010303\H,0,2.59
 6424,-2.144265,-0.016618\C,0,2.778998,0.000041,-0.009958\C,0,4.285722,
 -0.000013,0.016673\C,0,0.672203,1.202939,-0.005549\H,0,0.144187,2.1489

 Normal termination of Gaussian 16 at Wed Apr  9 00:16:10 2025.
