 Gaussian 16, Revision C.01,

 ----------------------------------------------------------------------
 #t hf aug-cc-pvdz symm=none int=(grid=ultrafine) guess=(read,tcheck) s
 table=(opt,rrhf)
 ----------------------------------------------------------------------
 -----
 title
 -----
 Symbolic Z-matrix:
 Charge =  0 Multiplicity = 1

 SCF Done:  E(RHF) =  -650.118615399     A.U. after   16 cycles

 1\1\GINC-SE435\Stability\RHF\Aug-CC-pVDZ\C8H11P1\OHZDE\08-Apr-2025\0\\
 #t hf aug-cc-pvdz symm=none int=(grid=ultrafine) guess=(read,tcheck) s
 table=(opt,rrhf)\\title\\0,1\C,0,-1.378866,-1.365791,-0.003288\C,0,0.0
 07177,-1.488122,0.011237\C,0,0.835338,-0.361175,0.014782\C,0,-1.982055
 ,-0.107575,-0.008513\C,0,-1.149834,1.015383,-0.008703\C,0,0.242717,0.9
 18464,-0.004031\H,0,-1.994518,-2.259577,-0.006927\H,0,0.448395,-2.4789
 41,0.02139\P,0,2.669401,-0.537066,-0.107255\H,0,-1.600731,2.003956,-0.
 019014\C,0,1.08536,2.170889,-0.000868\H,0,0.470127,3.059701,-0.150876\

 Normal termination of Gaussian 16 at Tue Apr  8 23:34:32 2025.
 Gaussian 16:  ES64L-G16RevC.01  3-Jul-2019

 ----------------------------------------------------------------------
 #t hf aug-cc-pvdz iop(5/13=1,5/36=2,99/5=2) pseudo=read geom=check gue
 ss=(read,tcheck) scf=(maxcycle=1)
 ----------------------------------------------------------------------
 -----
 title
 -----
 Structure from the checkpoint file:  "BDE49_nonexpt_1432_mol1.chk"
 Charge =  0 Multiplicity = 1

                         Standard orientation:
 ---------------------------------------------------------------------
 Center     Atomic      Atomic             Coordinates (Angstroms)
 Number     Number       Type             X           Y           Z
 ---------------------------------------------------------------------
      1          6           0       -1.378866   -1.365791   -0.003288
      2          6           0        0.007177   -1.488122    0.011237
      3          6           0        0.835338   -0.361175    0.014782
      4          6           0       -1.982055   -0.107575   -0.008513
      5          6           0       -1.149834    1.015383   -0.008703
      6          6           0        0.242717    0.918464   -0.004031
      7          1           0       -1.994518   -2.259577   -0.006927
      8          1           0        0.448395   -2.478941    0.021390
      9         15           0        2.669401   -0.537066   -0.107255
     10          1           0       -1.600731    2.003956   -0.019014
     11          6           0        1.085360    2.170889   -0.000868
     12          1           0        0.470127    3.059701   -0.150876
     13          1           0        1.842736    2.148021   -0.791467
     14          1           0        1.617648    2.292562    0.949084
     15          6           0       -3.483989    0.043008    0.009772
     16          1           0       -3.978804   -0.858357   -0.358185
     17          1           0       -3.808409    0.883881   -0.608516
     18          1           0       -3.848804    0.226842    1.026349
     19          1           0        2.735572   -1.888057    0.313773
     20          1           0        3.020685   -0.024533    1.170878
 ---------------------------------------------------------------------

 SCF Done:  E(RHF) =  -651.842219736     A.U. after    2 cycles

 The electronic state is 1-A.
 Alpha  occ. eigenvalues -- -105.18045 -11.50334 -11.44791 -11.43027 -11.42543
 Alpha  occ. eigenvalues --  -11.41043 -11.38841 -11.38785 -11.35562  -2.74961
 Alpha  occ. eigenvalues --   -1.50919  -1.45793  -1.43091  -1.34600  -1.16161
 Alpha  occ. eigenvalues --   -1.11487  -1.00351  -0.97738  -0.85152  -0.81190
 Alpha  occ. eigenvalues --   -0.73601  -0.63269  -0.61930  -0.61199  -0.58306
 Alpha  occ. eigenvalues --   -0.56863  -0.56140  -0.54653  -0.49609  -0.47778
 Alpha  occ. eigenvalues --   -0.45835  -0.42837  -0.32778  -0.31755  -0.25814
 Alpha  occ. eigenvalues --   -0.22719  -0.02425
 Alpha virt. eigenvalues --    0.03619   0.04680   0.05317   0.06024   0.06172
 Alpha virt. eigenvalues --    0.06449   0.07180   0.07431   0.07573   0.08529
 Alpha virt. eigenvalues --    0.09467   0.10090   0.10473   0.11196   0.11818

 Mulliken charges:
               1
     1  C   -1.690634
     2  C   -5.615807
     3  C    1.645458
     4  C    2.889867
     5  C   -0.000712
     6  C    2.141176
     7  H    1.832570
     8  H    1.948622
     9  P    1.106614
    10  H    1.985012
    11  C   -6.089482
    12  H    1.262667
    13  H    1.059477
    14  H    1.150595
    15  C   -5.469708
    16  H    1.192654
    17  H    1.125115
    18  H    1.013122
    19  H   -0.899459
    20  H   -0.587146
 Sum of Mulliken charges =  -0.00000

 Dipole moment (field-independent basis, Debye):
    X=             -0.0619    Y=              1.0329    Z=             -2.4673  Tot=              2.6756

 Test job not archived.
 1\1\GINC-SE435\SP\RHF\Aug-CC-pVDZ\C8H11P1\OHZDE\08-Apr-2025\0\\#t hf a
 ug-cc-pvdz iop(5/13=1,5/36=2,99/5=2) pseudo=read geom=check guess=(rea
 d,tcheck) scf=(maxcycle=1)\\title\\0,1\C,0,-1.378866,-1.365791,-0.0032
 88\C,0,0.007177,-1.488122,0.011237\C,0,0.835338,-0.361175,0.014782\C,0
 ,-1.982055,-0.107575,-0.008513\C,0,-1.149834,1.015383,-0.008703\C,0,0.
 242717,0.918464,-0.004031\H,0,-1.994518,-2.259577,-0.006927\H,0,0.4483
 95,-2.478941,0.02139\P,0,2.669401,-0.537066,-0.107255\H,0,-1.600731,2.
 003956,-0.019014\C,0,1.08536,2.170889,-0.000868\H,0,0.470127,3.059701,

 Normal termination of Gaussian 16 at Tue Apr  8 23:34:42 2025.
