 Gaussian 16, Revision C.01,

 ----------------------------------------------------------------------
 #t hf aug-cc-pvdz symm=none int=(grid=ultrafine) guess=(read,tcheck) s
 table=(opt,rrhf)
 ----------------------------------------------------------------------
 -----
 title
 -----
 Symbolic Z-matrix:
 Charge =  0 Multiplicity = 1

 SCF Done:  E(RHF) =  -1193.76530059     A.U. after   13 cycles
 Normal termination of Gaussian 16 at Tue Apr  8 23:00:36 2025.
 Gaussian 16:  ES64L-G16RevC.01  3-Jul-2019

 ----------------------------------------------------------------------
 #t hf aug-cc-pvdz iop(5/13=1,5/36=2,99/5=2) pseudo=read geom=check gue
 ss=(read,tcheck) scf=(maxcycle=1)
 ----------------------------------------------------------------------
 -----
 title
 -----
 Structure from the checkpoint file:  "BDE49_expt_1963_mol1.chk"
 Charge =  0 Multiplicity = 1

                         Standard orientation:
 ---------------------------------------------------------------------
 Center     Atomic      Atomic             Coordinates (Angstroms)
 Number     Number       Type             X           Y           Z
 ---------------------------------------------------------------------
      1         16           0        0.053396   -0.388920    1.695730
      2         16           0        0.053396    0.841101   -0.000000
      3          1           0       -1.281510   -0.506084    1.844524
      4         16           0        0.053396   -0.388920   -1.695730
      5          1           0       -1.281510   -0.506084   -1.844524
 ---------------------------------------------------------------------

 SCF Done:  E(RHF) =  -1194.44498547     A.U. after    2 cycles

 The electronic state is 1-A'.
 Alpha  occ. eigenvalues --  -75.74403 -75.72755 -75.72708 -13.16498 -13.13451
 Alpha  occ. eigenvalues --  -13.13291 -13.10121 -13.08648 -13.06545 -13.05910
 Alpha  occ. eigenvalues --  -13.04769 -13.02872  -8.08053  -8.06589  -8.06357
 Alpha  occ. eigenvalues --   -1.26008  -1.11643  -0.94785  -0.53893  -0.53073
 Alpha  occ. eigenvalues --   -0.40821  -0.40640  -0.28662  -0.25576  -0.25122
 Alpha virt. eigenvalues --    0.02126   0.03154   0.04354   0.08883   0.10524
 Alpha virt. eigenvalues --    0.11993   0.13488   0.13626   0.14197   0.15189
 Alpha virt. eigenvalues --    0.15914   0.16620   0.19221   0.19567   0.22958

 Mulliken charges:
               1
     1  S   -1.015104
     2  S   -0.404687
     3  H    1.217447
     4  S   -1.015104
     5  H    1.217447
 Sum of Mulliken charges =  -0.00000

 Dipole moment (field-independent basis, Debye):
    X=              1.7089    Y=              0.2054    Z=             -0.0000  Tot=              1.7212

 Test job not archived.
 1\1\GINC-SE457\SP\RHF\Aug-CC-pVDZ\H2S3\OHZDE\08-Apr-2025\0\\#t hf aug-
 cc-pvdz iop(5/13=1,5/36=2,99/5=2) pseudo=read geom=check guess=(read,t
 check) scf=(maxcycle=1)\\title\\0,1\S,0,-0.053396,-0.38892,-1.69573\S,
 0,-0.053396,0.841101,0.\H,0,1.28151,-0.506084,-1.844524\S,0,-0.053396,
 -0.38892,1.69573\H,0,1.28151,-0.506084,1.844524\\Version=ES64L-G16RevC
 .01\State=1-A'\HF=-1194.4449855\RMSD=9.635e-02\Dipole=-0.6723456,0.080
 7977,0.\Quadrupole=0.0134915,-1.1273317,1.1138402,-0.2377168,0.,0.\PG=
 CS [SG(S1),X(H2S2)]\\@

 Normal termination of Gaussian 16 at Tue Apr  8 23:00:37 2025.
