 Gaussian 16, Revision C.01,

 ----------------------------------------------------------------------
 #t hf aug-cc-pvdz symm=none int=(grid=ultrafine) guess=(read,tcheck) s
 table=opt
 ----------------------------------------------------------------------
 -----
 title
 -----
 Symbolic Z-matrix:
 Charge =  0 Multiplicity = 2

 SCF Done:  E(UHF) =  -474.083489417     A.U. after   15 cycles
 Normal termination of Gaussian 16 at Tue Apr  8 22:45:36 2025.
 Gaussian 16:  ES64L-G16RevC.01  3-Jul-2019

 ----------------------------------------------------------------------
 #t hf aug-cc-pvdz iop(5/13=1,5/36=2,99/5=2) pseudo=read geom=check gue
 ss=(read,tcheck) scf=(maxcycle=1)
 ----------------------------------------------------------------------
 -----
 title
 -----
 Structure from the checkpoint file:  "BDE49_expt_1512_mol2.chk"
 Charge =  0 Multiplicity = 2

                         Standard orientation:
 ---------------------------------------------------------------------
 Center     Atomic      Atomic             Coordinates (Angstroms)
 Number     Number       Type             X           Y           Z
 ---------------------------------------------------------------------
      1          6           0        0.932774    0.691373   -0.133747
      2          6           0       -0.387735    0.019858   -0.013636
      3          9           0        1.997953   -0.095117    0.002621
      4          1           0        1.070679    1.736011    0.109667
      5          9           0       -1.358776    0.902756   -0.316527
      6          9           0       -0.630245   -0.438277    1.239206
      7          9           0       -0.491256   -1.036406   -0.839230
 ---------------------------------------------------------------------

 SCF Done:  E(UHF) =  -475.749926321     A.U. after    2 cycles

 The electronic state is 2-A.
 Alpha  occ. eigenvalues --  -29.32845 -29.32719 -29.32204 -29.31885 -11.61923
 Alpha  occ. eigenvalues --  -11.48770  -1.46366  -1.16909  -0.91849  -0.90711
 Alpha  occ. eigenvalues --   -0.80099  -0.71374  -0.56397  -0.49330  -0.45009
 Alpha  occ. eigenvalues --   -0.44810  -0.44625  -0.37676  -0.36925  -0.35241
 Alpha  occ. eigenvalues --   -0.29120  -0.26830  -0.26245  -0.22815  -0.21394
 Alpha virt. eigenvalues --    0.04384   0.10052   0.10724   0.11227   0.12409
 Alpha virt. eigenvalues --    0.13152   0.13227   0.17582   0.21314   0.22167
 Alpha virt. eigenvalues --    0.22304   0.24584   0.26194   0.27573   0.29011

  Beta  occ. eigenvalues --  -29.32716 -29.32413 -29.32150 -29.31678 -11.62055
  Beta  occ. eigenvalues --  -11.46344  -1.44896  -1.11002  -0.91529  -0.88968
  Beta  occ. eigenvalues --   -0.79013  -0.69772  -0.49248  -0.44923  -0.44629
  Beta  occ. eigenvalues --   -0.43973  -0.42183  -0.37416  -0.35875  -0.34306
  Beta  occ. eigenvalues --   -0.28589  -0.26404  -0.26122  -0.22514
  Beta virt. eigenvalues --    0.04449   0.09178   0.10679   0.11121   0.12221
  Beta virt. eigenvalues --    0.13087   0.13249   0.15253   0.18486   0.21447
  Beta virt. eigenvalues --    0.22335   0.22779   0.24773   0.26365   0.28323

 Mulliken charges and spin densities:
               1          2
     1  C   -2.814210   1.153667
     2  C   -0.592323  -0.272373
     3  F    0.647020   0.166278
     4  H    1.278907  -0.057345
     5  F    0.461391  -0.005625
     6  F    0.481686   0.023515
     7  F    0.537530  -0.008117
 Sum of Mulliken charges =  -0.00000   1.00000

 Dipole moment (field-independent basis, Debye):
    X=              0.3720    Y=             -1.5005    Z=              0.5673  Tot=              1.6467
                          Isotropic Fermi Contact Couplings
        Atom                 a.u.       MegaHertz       Gauss      10(-4) cm-1
     1  C(13)              0.15470     173.91298      62.05648      58.01113
     2  C(13)             -0.01737     -19.52268      -6.96618      -6.51206
     3  F(19)              0.03065     128.93924      46.00873      43.00950
     4  H(1)              -0.01616     -72.21554     -25.76830     -24.08851
     5  F(19)             -0.00028      -1.19043      -0.42477      -0.39708
     6  F(19)              0.01724      72.51656      25.87571      24.18892
     7  F(19)              0.00338      14.21555       5.07246       4.74180
 --------------------------------------------------------

 Normal termination of Gaussian 16 at Tue Apr  8 22:45:39 2025.
