 Gaussian 16, Revision C.01,

 ----------------------------------------------------------------------
 #t hf aug-cc-pvdz symm=none int=(grid=ultrafine) guess=(read,tcheck) s
 table=(opt,rrhf)
 ----------------------------------------------------------------------
 -----
 title
 -----
 Symbolic Z-matrix:
 Charge =  0 Multiplicity = 1

 SCF Done:  E(RHF) =  -833.163402480     A.U. after   13 cycles
 Normal termination of Gaussian 16 at Wed Apr  9 00:24:40 2025.
 Gaussian 16:  ES64L-G16RevC.01  3-Jul-2019

 ----------------------------------------------------------------------
 #t hf aug-cc-pvdz iop(5/13=1,5/36=2,99/5=2) pseudo=read geom=check gue
 ss=(read,tcheck) scf=(maxcycle=1)
 ----------------------------------------------------------------------
 -----
 title
 -----
 Structure from the checkpoint file:  "BDE49_nonexpt_2709_mol1.chk"
 Charge =  0 Multiplicity = 1

                         Standard orientation:
 ---------------------------------------------------------------------
 Center     Atomic      Atomic             Coordinates (Angstroms)
 Number     Number       Type             X           Y           Z
 ---------------------------------------------------------------------
      1          9           0       -1.564451   -1.258469    0.000000
      2          9           0        1.086844    1.436839    0.000000
      3          9           0        1.086844   -0.461951    1.077763
      4          9           0        1.086844   -0.461951   -1.077763
      5          6           0        0.621662    0.173985    0.000000
      6         16           0       -1.187168    0.354117    0.000000
 ---------------------------------------------------------------------

 SCF Done:  E(RHF) =  -834.893671591     A.U. after    2 cycles

 The electronic state is 1-A'.
 Alpha  occ. eigenvalues --  -75.80345 -29.34711 -29.33989 -29.33943 -29.31083
 Alpha  occ. eigenvalues --  -13.24561 -13.20321 -13.11497 -11.61872  -8.14526
 Alpha  occ. eigenvalues --   -1.47021  -1.21249  -0.93574  -0.92064  -0.78723
 Alpha  occ. eigenvalues --   -0.63423  -0.51104  -0.46711  -0.46463  -0.45990
 Alpha  occ. eigenvalues --   -0.41787  -0.38858  -0.37806  -0.34627  -0.29032
 Alpha  occ. eigenvalues --   -0.28733  -0.25770  -0.24258  -0.19977
 Alpha virt. eigenvalues --    0.06603   0.09796   0.11184   0.11598   0.13291
 Alpha virt. eigenvalues --    0.13748   0.15465   0.18373   0.19693   0.22096
 Alpha virt. eigenvalues --    0.22358   0.24409   0.25660   0.28341   0.28532

 Mulliken charges:
               1
     1  F   -0.172841
     2  F    0.671349
     3  F    0.610066
     4  F    0.610066
     5  C   -2.025082
     6  S    0.306441
 Sum of Mulliken charges =   0.00000

 Dipole moment (field-independent basis, Debye):
    X=              0.8650    Y=             -2.1690    Z=              0.0000  Tot=              2.3351

 Test job not archived.
 1\1\GINC-SE338\SP\RHF\Aug-CC-pVDZ\C1F4S1\OHZDE\09-Apr-2025\0\\#t hf au
 g-cc-pvdz iop(5/13=1,5/36=2,99/5=2) pseudo=read geom=check guess=(read
 ,tcheck) scf=(maxcycle=1)\\title\\0,1\F,0,-1.564451,-1.258469,0.\F,0,1
 .086844,1.436839,0.\F,0,1.086844,-0.461951,1.077763\F,0,1.086844,-0.46
 1951,-1.077763\C,0,0.621662,0.173985,0.\S,0,-1.187168,0.354117,0.\\Ver
 sion=ES64L-G16RevC.01\State=1-A'\HF=-834.8936716\RMSD=5.968e-02\Dipole
 =0.3403232,-0.8533551,0.\Quadrupole=1.6347991,0.6491711,-2.2839702,2.5
 336473,0.,0.\PG=CS [SG(C1F2S1),X(F2)]\\@

 Normal termination of Gaussian 16 at Wed Apr  9 00:24:42 2025.
