 Gaussian 16, Revision C.01,

 ----------------------------------------------------------------------
 #t hf aug-cc-pvdz symm=none int=(grid=ultrafine) guess=(read,tcheck) s
 table=(opt,rrhf)
 ----------------------------------------------------------------------
 -----
 title
 -----
 Symbolic Z-matrix:
 Charge =  0 Multiplicity = 1

 SCF Done:  E(RHF) =  -689.164380149     A.U. after   14 cycles

 1\1\GINC-SE454\Stability\RHF\Aug-CC-pVDZ\C9H13P1\OHZDE\08-Apr-2025\0\\
 #t hf aug-cc-pvdz symm=none int=(grid=ultrafine) guess=(read,tcheck) s
 table=(opt,rrhf)\\title\\0,1\C,0,0.557433,-0.000001,0.691956\C,0,1.206
 846,-1.200726,0.37497\C,0,1.206845,1.200724,0.374972\C,0,2.45464,1.202
 625,-0.243627\C,0,3.083434,0.,-0.558583\C,0,2.454641,-1.202626,-0.2436
 28\H,0,4.056269,0.000001,-1.036835\H,0,2.939103,-2.145352,-0.473424\H,
 0,0.734218,-2.144259,0.627639\H,0,0.734217,2.144257,0.627643\H,0,2.939
 102,2.145352,-0.473421\C,0,-0.797096,-0.000002,1.347638\P,0,-2.337267,

 Normal termination of Gaussian 16 at Tue Apr  8 23:30:16 2025.
 Gaussian 16:  ES64L-G16RevC.01  3-Jul-2019

 ----------------------------------------------------------------------
 #t hf aug-cc-pvdz iop(5/13=1,5/36=2,99/5=2) pseudo=read geom=check gue
 ss=(read,tcheck) scf=(maxcycle=1)
 ----------------------------------------------------------------------
 -----
 title
 -----
 Structure from the checkpoint file:  "BDE49_nonexpt_1303_mol1.chk"
 Charge =  0 Multiplicity = 1

                         Standard orientation:
 ---------------------------------------------------------------------
 Center     Atomic      Atomic             Coordinates (Angstroms)
 Number     Number       Type             X           Y           Z
 ---------------------------------------------------------------------
      1          6           0       -0.557433    0.000001    0.691956
      2          6           0       -1.206846    1.200726    0.374970
      3          6           0       -1.206845   -1.200724    0.374972
      4          6           0       -2.454640   -1.202625   -0.243627
      5          6           0       -3.083434   -0.000000   -0.558583
      6          6           0       -2.454641    1.202626   -0.243628
      7          1           0       -4.056269   -0.000001   -1.036835
      8          1           0       -2.939103    2.145352   -0.473424
      9          1           0       -0.734218    2.144259    0.627639
     10          1           0       -0.734217   -2.144257    0.627643
     11          1           0       -2.939102   -2.145352   -0.473421
     12          6           0        0.797096    0.000002    1.347638
     13         15           0        2.337267   -0.000002    0.251806
     14          1           0        0.910261   -0.875296    1.994497
     15          1           0        0.910262    0.875303    1.994494
     16          6           0        1.988955    1.416816   -0.894211
     17          6           0        1.988948   -1.416817   -0.894211
     18          1           0        2.041423    2.357987   -0.341059
     19          1           0        1.015730    1.345624   -1.386132
     20          1           0        2.771072    1.440241   -1.657481
     21          1           0        2.041411   -2.357988   -0.341058
     22          1           0        2.771065   -1.440247   -1.657480
     23          1           0        1.015724   -1.345622   -1.386131
 ---------------------------------------------------------------------

 SCF Done:  E(RHF) =  -691.106147088     A.U. after    2 cycles

 The electronic state is 1-A.
 Alpha  occ. eigenvalues -- -105.15928 -11.51635 -11.43753 -11.43410 -11.40639
 Alpha  occ. eigenvalues --  -11.40380 -11.39253 -11.36508 -11.36500 -11.35929
 Alpha  occ. eigenvalues --   -2.74100  -1.47025  -1.47017  -1.43750  -1.34157
 Alpha  occ. eigenvalues --   -1.13419  -1.08935  -1.03440  -0.96320  -0.96158
 Alpha  occ. eigenvalues --   -0.86167  -0.82653  -0.70618  -0.64908  -0.63047
 Alpha  occ. eigenvalues --   -0.61104  -0.57636  -0.57425  -0.56734  -0.54898
 Alpha  occ. eigenvalues --   -0.54882  -0.54338  -0.51851  -0.50126  -0.44333
 Alpha  occ. eigenvalues --   -0.43775  -0.34326  -0.32898  -0.20078  -0.19051
 Alpha  occ. eigenvalues --   -0.00824
 Alpha virt. eigenvalues --    0.03873   0.04923   0.05004   0.05587   0.05871
 Alpha virt. eigenvalues --    0.06156   0.06489   0.06716   0.07894   0.07969
 Alpha virt. eigenvalues --    0.08166   0.08554   0.08963   0.10442   0.11251

 Mulliken charges:
               1
     1  C    4.922003
     2  C   -2.814185
     3  C   -2.814192
     4  C   -1.534787
     5  C   -3.019930
     6  C   -1.534778
     7  H    1.457478
     8  H    1.487838
     9  H    1.970263
    10  H    1.970265
    11  H    1.487838
    12  C   -6.003165
    13  P    8.258720
    14  H    1.002232
    15  H    1.002232
    16  C   -6.554689
    17  C   -6.554696
    18  H    1.139558
    19  H    1.423248
    20  H    1.072968
    21  H    1.139559
    22  H    1.072966
    23  H    1.423253
 Sum of Mulliken charges =   0.00000

 Dipole moment (field-independent basis, Debye):
    X=              1.0377    Y=             -0.0000    Z=              1.8311  Tot=              2.1047

 Test job not archived.
 1\1\GINC-SE454\SP\RHF\Aug-CC-pVDZ\C9H13P1\OHZDE\08-Apr-2025\0\\#t hf a
 ug-cc-pvdz iop(5/13=1,5/36=2,99/5=2) pseudo=read geom=check guess=(rea
 d,tcheck) scf=(maxcycle=1)\\title\\0,1\C,0,0.557433,-0.000001,0.691956
 \C,0,1.206846,-1.200726,0.37497\C,0,1.206845,1.200724,0.374972\C,0,2.4
 5464,1.202625,-0.243627\C,0,3.083434,0.,-0.558583\C,0,2.454641,-1.2026
 26,-0.243628\H,0,4.056269,0.000001,-1.036835\H,0,2.939103,-2.145352,-0
 .473424\H,0,0.734218,-2.144259,0.627639\H,0,0.734217,2.144257,0.627643
 \H,0,2.939102,2.145352,-0.473421\C,0,-0.797096,-0.000002,1.347638\P,0,

 Normal termination of Gaussian 16 at Tue Apr  8 23:30:32 2025.
