 Gaussian 16, Revision C.01,

 ----------------------------------------------------------------------
 #t hf aug-cc-pvdz symm=none int=(grid=ultrafine) guess=(read,tcheck) s
 table=(opt,rrhf)
 ----------------------------------------------------------------------
 -----
 title
 -----
 Symbolic Z-matrix:
 Charge =  0 Multiplicity = 1

 SCF Done:  E(RHF) =  -650.765294669     A.U. after   16 cycles
 Normal termination of Gaussian 16 at Wed Apr  9 00:05:43 2025.
 Gaussian 16:  ES64L-G16RevC.01  3-Jul-2019

 ----------------------------------------------------------------------
 #t hf aug-cc-pvdz iop(5/13=1,5/36=2,99/5=2) pseudo=read geom=check gue
 ss=(read,tcheck) scf=(maxcycle=1)
 ----------------------------------------------------------------------
 -----
 title
 -----
 Structure from the checkpoint file:  "BDE49_nonexpt_2190_mol1.chk"
 Charge =  0 Multiplicity = 1

                         Standard orientation:
 ---------------------------------------------------------------------
 Center     Atomic      Atomic             Coordinates (Angstroms)
 Number     Number       Type             X           Y           Z
 ---------------------------------------------------------------------
      1          6           0        2.602195   -0.837555    0.036277
      2          6           0        2.297989    0.521833    0.045791
      3          6           0        0.972046    0.965682    0.005457
      4          6           0        1.585337   -1.784694   -0.013417
      5          6           0        0.255963   -1.360193   -0.058581
      6          6           0       -0.048615   -0.005446   -0.049521
      7          1           0        3.639028   -1.151969    0.069248
      8          1           0        1.814009   -2.843378   -0.020322
      9          1           0       -0.544900   -2.090421   -0.109984
     10          8           0       -1.336518    0.485482   -0.109606
     11         14           0       -2.790413   -0.299365    0.054115
     12          1           0        3.094776    1.257310    0.093961
     13          7           0        0.630401    2.312194    0.074926
     14          1           0        1.322895    2.952567   -0.282778
     15          1           0       -0.305084    2.514679   -0.245929
     16          1           0       -3.801958    0.771650    0.002063
     17          1           0       -2.854896   -1.024575    1.342767
     18          1           0       -3.008244   -1.261725   -1.050308
 ---------------------------------------------------------------------

 SCF Done:  E(RHF) =  -652.597003361     A.U. after    2 cycles

 The electronic state is 1-A.
 Alpha  occ. eigenvalues --  -76.24703 -21.06788 -15.75195 -11.52874 -11.45458
 Alpha  occ. eigenvalues --  -11.44470 -11.41175 -11.40278 -11.36088  -5.58219
 Alpha  occ. eigenvalues --   -2.25026  -2.20217  -2.19725  -1.73875  -1.38827
 Alpha  occ. eigenvalues --   -1.26069  -1.07849  -1.04583  -0.88176  -0.84443
 Alpha  occ. eigenvalues --   -0.75877  -0.69958  -0.68068  -0.64582  -0.58416
 Alpha  occ. eigenvalues --   -0.57122  -0.56175  -0.55927  -0.50014  -0.49199
 Alpha  occ. eigenvalues --   -0.47706  -0.44338  -0.43485  -0.42193  -0.37999
 Alpha  occ. eigenvalues --   -0.30542  -0.25741
 Alpha virt. eigenvalues --    0.03465   0.04589   0.05068   0.05622   0.06120
 Alpha virt. eigenvalues --    0.06461   0.06917   0.07240   0.08671   0.09120
 Alpha virt. eigenvalues --    0.10347   0.11355   0.11853   0.12328   0.13364

 Mulliken charges:
               1
     1  C   -1.531149
     2  C   -0.662447
     3  C    0.150710
     4  C   -1.224842
     5  C   -3.610990
     6  C    6.589328
     7  H    1.544988
     8  H    1.513204
     9  H    2.034565
    10  O   -5.166782
    11  Si   6.222121
    12  H    1.702778
    13  N   -3.745944
    14  H    0.578727
    15  H    0.833175
    16  H   -1.844073
    17  H   -1.717568
    18  H   -1.665801
 Sum of Mulliken charges =  -0.00000

 Dipole moment (field-independent basis, Debye):
    X=              0.0614    Y=              1.1423    Z=             -0.7414  Tot=              1.3632

 Test job not archived.
 1\1\GINC-SE404\SP\RHF\Aug-CC-pVDZ\C6H9N1O1Si1\OHZDE\09-Apr-2025\0\\#t
 hf aug-cc-pvdz iop(5/13=1,5/36=2,99/5=2) pseudo=read geom=check guess=
 (read,tcheck) scf=(maxcycle=1)\\title\\0,1\C,0,2.602195,-0.837555,0.03
 6277\C,0,2.297989,0.521833,0.045791\C,0,0.972046,0.965682,0.005457\C,0
 ,1.585337,-1.784694,-0.013417\C,0,0.255963,-1.360193,-0.058581\C,0,-0.
 048615,-0.005446,-0.049521\H,0,3.639028,-1.151969,0.069248\H,0,1.81400
 9,-2.843378,-0.020322\H,0,-0.5449,-2.090421,-0.109984\O,0,-1.336518,0.
 485482,-0.109606\Si,0,-2.790413,-0.299366,0.054115\H,0,3.094776,1.2573

 Normal termination of Gaussian 16 at Wed Apr  9 00:05:52 2025.
