 Gaussian 16, Revision C.01,

 ----------------------------------------------------------------------
 #t hf aug-cc-pvdz symm=none int=(grid=ultrafine) guess=(read,tcheck) s
 table=(opt,rrhf)
 ----------------------------------------------------------------------
 -----
 title
 -----
 Symbolic Z-matrix:
 Charge =  0 Multiplicity = 1

 SCF Done:  E(RHF) =  -1223.44430058     A.U. after   15 cycles
 Normal termination of Gaussian 16 at Tue Apr  8 23:13:32 2025.
 Gaussian 16:  ES64L-G16RevC.01  3-Jul-2019

 ----------------------------------------------------------------------
 #t hf aug-cc-pvdz iop(5/13=1,5/36=2,99/5=2) pseudo=read geom=check gue
 ss=(read,tcheck) scf=(maxcycle=1)
 ----------------------------------------------------------------------
 -----
 title
 -----
 Structure from the checkpoint file:  "BDE49_expt_762_mol1.chk"
 Charge =  0 Multiplicity = 1

                         Standard orientation:
 ---------------------------------------------------------------------
 Center     Atomic      Atomic             Coordinates (Angstroms)
 Number     Number       Type             X           Y           Z
 ---------------------------------------------------------------------
      1          6           0        0.000000    1.070907    0.000000
      2          6           0       -1.191478    0.348874    0.000000
      3          6           0       -1.221638   -1.037329    0.000000
      4          6           0        1.184908    0.345992    0.000000
      5          6           0        1.204769   -1.044385    0.000000
      6          6           0       -0.010117   -1.733196    0.000000
      7          1           0        2.148834   -1.575820    0.000000
      8          8           0       -0.080052   -3.091584    0.000000
      9          1           0        0.808325   -3.463323    0.000000
     10          1           0       -2.154390   -1.583457    0.000000
     11          1           0        0.002164    2.150688    0.000000
     12         17           0        2.709590    1.211905    0.000000
     13         17           0       -2.707424    1.229237    0.000000
 ---------------------------------------------------------------------

 SCF Done:  E(RHF) =  -1225.32064492     A.U. after    2 cycles

 The electronic state is 1-A'.
 Alpha  occ. eigenvalues --  -99.90790 -99.90501 -21.12684 -11.54473 -11.49711
 Alpha  occ. eigenvalues --  -11.48979 -11.45113 -11.44102 -11.40998 -10.48137
 Alpha  occ. eigenvalues --  -10.47852  -9.68153  -9.67866  -9.67272  -9.67089
 Alpha  occ. eigenvalues --   -9.66985  -9.66804  -1.78331  -1.42897  -1.35025
 Alpha  occ. eigenvalues --   -1.25093  -1.10034  -1.09768  -0.89672  -0.88401
 Alpha  occ. eigenvalues --   -0.73950  -0.70687  -0.67409  -0.62369  -0.61442
 Alpha  occ. eigenvalues --   -0.60662  -0.56463  -0.55458  -0.54122  -0.53239
 Alpha  occ. eigenvalues --   -0.49770  -0.48560  -0.44638  -0.43959  -0.35581
 Alpha  occ. eigenvalues --   -0.29809
 Alpha virt. eigenvalues --    0.02897   0.04980   0.05309   0.06452   0.06759
 Alpha virt. eigenvalues --    0.07730   0.07907   0.09697   0.10479   0.11447
 Alpha virt. eigenvalues --    0.11680   0.12975   0.13083   0.13524   0.13951

 Mulliken charges:
               1
     1  C   -0.144262
     2  C   -0.112189
     3  C   -2.063773
     4  C   -0.888669
     5  C   -3.063981
     6  C    5.925049
     7  H    1.722106
     8  O   -4.336960
     9  H    1.026969
    10  H    1.778325
    11  H    1.710236
    12  Cl  -0.783637
    13  Cl  -0.769213
 Sum of Mulliken charges =   0.00000

 Dipole moment (field-independent basis, Debye):
    X=              0.5688    Y=             -2.8139    Z=              0.0000  Tot=              2.8708

 Test job not archived.
 1\1\GINC-SE096\SP\RHF\Aug-CC-pVDZ\C6H4Cl2O1\OHZDE\08-Apr-2025\0\\#t hf
  aug-cc-pvdz iop(5/13=1,5/36=2,99/5=2) pseudo=read geom=check guess=(r
 ead,tcheck) scf=(maxcycle=1)\\title\\0,1\C,0,0.,1.070907,0.\C,0,-1.191
 478,0.348874,0.\C,0,-1.221638,-1.037329,0.\C,0,1.184908,0.345992,0.\C,
 0,1.204769,-1.044385,0.\C,0,-0.010117,-1.733196,0.\H,0,2.148834,-1.575
 82,0.\O,0,-0.080052,-3.091584,0.\H,0,0.808325,-3.463323,0.\H,0,-2.1543
 9,-1.583457,0.\H,0,0.002164,2.150688,0.\Cl,0,2.70959,1.211905,0.\Cl,0,
 -2.707424,1.229237,0.\\Version=ES64L-G16RevC.01\State=1-A'\HF=-1225.32

 Normal termination of Gaussian 16 at Tue Apr  8 23:13:38 2025.
