 Gaussian 16, Revision C.01,

 ----------------------------------------------------------------------
 #t hf aug-cc-pvdz symm=none int=(grid=ultrafine) guess=(read,tcheck) s
 table=(opt,rrhf)
 ----------------------------------------------------------------------
 -----
 title
 -----
 Symbolic Z-matrix:
 Charge =  0 Multiplicity = 1

 SCF Done:  E(RHF) =  -576.011429856     A.U. after   13 cycles

 1\1\GINC-SE361\Stability\RHF\Aug-CC-pVDZ\C3H5Cl1\OHZDE\08-Apr-2025\0\\
 #t hf aug-cc-pvdz symm=none int=(grid=ultrafine) guess=(read,tcheck) s
 table=(opt,rrhf)\\title\\0,1\C,0,-2.22347,-0.216465,-0.304909\C,0,-1.1
 39959,-0.103177,0.457128\H,0,-2.310294,0.303871,-1.253705\H,0,-3.06357
 5,-0.832342,-0.006177\C,0,0.025835,0.755081,0.106827\H,0,-1.069694,-0.
 643018,1.397265\H,0,-0.119884,1.285081,-0.832243\Cl,0,1.5482,-0.246468
 ,-0.10335\H,0,0.26961,1.463735,0.897536\\Version=ES64L-G16RevC.01\HF=-
 576.0114299\RMSD=4.932e-09\Dipole=-0.8224495,0.442789,0.0981246\Quadru

 Normal termination of Gaussian 16 at Tue Apr  8 22:44:29 2025.
 Gaussian 16:  ES64L-G16RevC.01  3-Jul-2019

 ----------------------------------------------------------------------
 #t hf aug-cc-pvdz iop(5/13=1,5/36=2,99/5=2) pseudo=read geom=check gue
 ss=(read,tcheck) scf=(maxcycle=1)
 ----------------------------------------------------------------------
 -----
 title
 -----
 Structure from the checkpoint file:  "BDE49_expt_148_mol1.chk"
 Charge =  0 Multiplicity = 1

                         Standard orientation:
 ---------------------------------------------------------------------
 Center     Atomic      Atomic             Coordinates (Angstroms)
 Number     Number       Type             X           Y           Z
 ---------------------------------------------------------------------
      1          6           0       -2.223470   -0.216465   -0.304909
      2          6           0       -1.139959   -0.103177    0.457128
      3          1           0       -2.310294    0.303871   -1.253705
      4          1           0       -3.063575   -0.832342   -0.006177
      5          6           0        0.025835    0.755081    0.106827
      6          1           0       -1.069694   -0.643018    1.397265
      7          1           0       -0.119884    1.285081   -0.832243
      8         17           0        1.548200   -0.246468   -0.103350
      9          1           0        0.269610    1.463735    0.897536
 ---------------------------------------------------------------------

 SCF Done:  E(RHF) =  -576.838862581     A.U. after    2 cycles

 The electronic state is 1-A.
 Alpha  occ. eigenvalues --  -99.87527 -11.45826 -11.42380 -11.38767 -10.44728
 Alpha  occ. eigenvalues --   -9.64599  -9.63901  -9.63865  -1.33299  -1.17729
 Alpha  occ. eigenvalues --   -0.99046  -0.81458  -0.67883  -0.62221  -0.61063
 Alpha  occ. eigenvalues --   -0.55311  -0.52261  -0.47507  -0.46255  -0.36913
 Alpha virt. eigenvalues --    0.03077   0.05358   0.05917   0.06125   0.06672
 Alpha virt. eigenvalues --    0.07089   0.09991   0.11880   0.12553   0.13530
 Alpha virt. eigenvalues --    0.14734   0.15681   0.16156   0.17063   0.17339

 Mulliken charges:
               1
     1  C   -2.898367
     2  C    0.171131
     3  H    1.435045
     4  H    1.374921
     5  C   -4.574761
     6  H    1.352755
     7  H    1.552935
     8  Cl   0.093451
     9  H    1.492890
 Sum of Mulliken charges =  -0.00000

 Dipole moment (field-independent basis, Debye):
    X=             -2.3062    Y=              1.0845    Z=              0.2564  Tot=              2.5613

 Test job not archived.
 1\1\GINC-SE361\SP\RHF\Aug-CC-pVDZ\C3H5Cl1\OHZDE\08-Apr-2025\0\\#t hf a
 ug-cc-pvdz iop(5/13=1,5/36=2,99/5=2) pseudo=read geom=check guess=(rea
 d,tcheck) scf=(maxcycle=1)\\title\\0,1\C,0,-2.22347,-0.216465,-0.30490
 9\C,0,-1.139959,-0.103177,0.457128\H,0,-2.310294,0.303871,-1.253705\H,
 0,-3.063575,-0.832342,-0.006177\C,0,0.025835,0.755081,0.106827\H,0,-1.
 069694,-0.643018,1.397265\H,0,-0.119884,1.285081,-0.832243\Cl,0,1.5482
 ,-0.246468,-0.10335\H,0,0.26961,1.463735,0.897536\\Version=ES64L-G16Re
 vC.01\State=1-A\HF=-576.8388626\RMSD=3.840e-01\Dipole=-0.9073313,0.426

 Normal termination of Gaussian 16 at Tue Apr  8 22:44:32 2025.
