 Gaussian 16, Revision C.01,

 ----------------------------------------------------------------------
 #t hf aug-cc-pvdz symm=none int=(grid=ultrafine) guess=(read,tcheck) s
 table=(opt,rrhf)
 ----------------------------------------------------------------------
 -----
 title
 -----
 Symbolic Z-matrix:
 Charge =  0 Multiplicity = 1

 SCF Done:  E(RHF) =  -1099.80678943     A.U. after   14 cycles
 Normal termination of Gaussian 16 at Wed Apr  9 00:26:37 2025.
 Gaussian 16:  ES64L-G16RevC.01  3-Jul-2019

 ----------------------------------------------------------------------
 #t hf aug-cc-pvdz iop(5/13=1,5/36=2,99/5=2) pseudo=read geom=check gue
 ss=(read,tcheck) scf=(maxcycle=1)
 ----------------------------------------------------------------------
 -----
 title
 -----
 Structure from the checkpoint file:  "BDE49_nonexpt_2730_mol1.chk"
 Charge =  0 Multiplicity = 1

                         Standard orientation:
 ---------------------------------------------------------------------
 Center     Atomic      Atomic             Coordinates (Angstroms)
 Number     Number       Type             X           Y           Z
 ---------------------------------------------------------------------
      1          6           0       -3.138824   -0.615800    0.264299
      2          6           0       -1.770766   -0.384980   -0.336445
      3          1           0       -3.798249   -1.021351   -0.503893
      4          1           0       -3.566813    0.293419    0.689251
      5          1           0       -3.038059   -1.356308    1.063128
      6          6           0        3.138719   -0.615916   -0.264441
      7          6           0        1.770705   -0.384967    0.336355
      8          1           0        3.037932   -1.356808   -1.062911
      9          1           0        3.798282   -1.021039    0.503858
     10          1           0        3.566560    0.293150   -0.689869
     11          8           0       -1.272835   -1.045854   -1.196779
     12          8           0        1.273104   -1.045246    1.197338
     13         16           0       -0.913773    1.028379    0.479452
     14         16           0        0.913723    1.028353   -0.479618
 ---------------------------------------------------------------------

 SCF Done:  E(RHF) =  -1101.60774170     A.U. after    2 cycles

 The electronic state is 1-A.
 Alpha  occ. eigenvalues --  -75.72588 -75.72334 -21.07753 -21.07744 -13.18820
 Alpha  occ. eigenvalues --  -13.14021 -13.12996 -13.11256 -13.06248 -13.05523
 Alpha  occ. eigenvalues --  -11.51865 -11.51651 -11.40735 -11.40727  -8.06604
 Alpha  occ. eigenvalues --   -8.06428  -1.73798  -1.73219  -1.25634  -1.15711
 Alpha  occ. eigenvalues --   -1.10809  -1.01369  -0.78056  -0.73218  -0.64078
 Alpha  occ. eigenvalues --   -0.62006  -0.61384  -0.61281  -0.57709  -0.57380
 Alpha  occ. eigenvalues --   -0.50803  -0.49563  -0.46615  -0.44925  -0.37124
 Alpha  occ. eigenvalues --   -0.29784  -0.28860  -0.26324  -0.24837
 Alpha virt. eigenvalues --    0.02752   0.03233   0.06169   0.06251   0.06418
 Alpha virt. eigenvalues --    0.06626   0.08116   0.08686   0.09705   0.09748
 Alpha virt. eigenvalues --    0.12375   0.12635   0.13225   0.13290   0.13594

 Mulliken charges:
               1
     1  C   -4.130162
     2  C    2.930137
     3  H    1.228425
     4  H    1.472952
     5  H    1.298907
     6  C   -4.130736
     7  C    2.930910
     8  H    1.298969
     9  H    1.228397
    10  H    1.473058
    11  O   -2.904186
    12  O   -2.904310
    13  S    0.103878
    14  S    0.103760
 Sum of Mulliken charges =  -0.00000

 Dipole moment (field-independent basis, Debye):
    X=              0.0001    Y=              1.0857    Z=              0.0002  Tot=              1.0857

 Test job not archived.
 1\1\GINC-SE212\SP\RHF\Aug-CC-pVDZ\C4H6O2S2\OHZDE\09-Apr-2025\0\\#t hf
 aug-cc-pvdz iop(5/13=1,5/36=2,99/5=2) pseudo=read geom=check guess=(re
 ad,tcheck) scf=(maxcycle=1)\\title\\0,1\C,0,-3.138824,-0.6158,0.264299
 \C,0,-1.770766,-0.38498,-0.336445\H,0,-3.798249,-1.021351,-0.503893\H,
 0,-3.566813,0.293419,0.689251\H,0,-3.038059,-1.356308,1.063128\C,0,3.1
 38719,-0.615916,-0.264441\C,0,1.770705,-0.384967,0.336355\H,0,3.037932
 ,-1.356808,-1.062911\H,0,3.798282,-1.021039,0.503858\H,0,3.56656,0.293
 15,-0.689869\O,0,-1.272835,-1.045854,-1.196779\O,0,1.273104,-1.045246,

 Normal termination of Gaussian 16 at Wed Apr  9 00:26:43 2025.
