 Gaussian 16, Revision C.01,

 ----------------------------------------------------------------------
 #t hf aug-cc-pvdz symm=none int=(grid=ultrafine) guess=(read,tcheck) s
 table=(opt,rrhf)
 ----------------------------------------------------------------------
 -----
 title
 -----
 Symbolic Z-matrix:
 Charge =  0 Multiplicity = 1

 SCF Done:  E(RHF) =  -621.855966576     A.U. after   12 cycles
 Normal termination of Gaussian 16 at Wed Apr  9 00:30:41 2025.
 Gaussian 16:  ES64L-G16RevC.01  3-Jul-2019

 ----------------------------------------------------------------------
 #t hf aug-cc-pvdz iop(5/13=1,5/36=2,99/5=2) pseudo=read geom=check gue
 ss=(read,tcheck) scf=(maxcycle=1)
 ----------------------------------------------------------------------
 -----
 title
 -----
 Structure from the checkpoint file:  "BDE49_nonexpt_348_mol1.chk"
 Charge =  0 Multiplicity = 1

                         Standard orientation:
 ---------------------------------------------------------------------
 Center     Atomic      Atomic             Coordinates (Angstroms)
 Number     Number       Type             X           Y           Z
 ---------------------------------------------------------------------
      1          9           0       -1.120044    1.153987    0.000000
      2          9           0       -1.171151   -1.120445    0.000003
      3         16           0        1.339586   -0.096283   -0.000001
      4          5           0       -0.468607    0.000922   -0.000004
      5          1           0        1.530415    1.234031    0.000003
 ---------------------------------------------------------------------

 SCF Done:  E(RHF) =  -622.856097155     A.U. after    2 cycles

 The electronic state is 1-A.
 Alpha  occ. eigenvalues --  -75.71387 -29.27399 -29.27133 -13.17808 -13.12028
 Alpha  occ. eigenvalues --  -13.04033  -8.05428  -7.73710  -1.24389  -1.02703
 Alpha  occ. eigenvalues --   -0.78079  -0.58104  -0.53207  -0.48020  -0.46756
 Alpha  occ. eigenvalues --   -0.45736  -0.35274  -0.34449  -0.28711  -0.25847
 Alpha virt. eigenvalues --    0.02108   0.03724   0.04408   0.07241   0.08564
 Alpha virt. eigenvalues --    0.11283   0.13682   0.14497   0.14974   0.17802
 Alpha virt. eigenvalues --    0.20346   0.21216   0.21939   0.23281   0.24593

 Mulliken charges:
               1
     1  F   -0.359231
     2  F    0.411687
     3  S   -2.421817
     4  B    1.462306
     5  H    0.907055
 Sum of Mulliken charges =   0.00000

 Dipole moment (field-independent basis, Debye):
    X=             -1.8699    Y=             -0.6464    Z=              0.0000  Tot=              1.9785

 Test job not archived.
 1\1\GINC-SE162\SP\RHF\Aug-CC-pVDZ\B1F2H1S1\OHZDE\09-Apr-2025\0\\#t hf
 aug-cc-pvdz iop(5/13=1,5/36=2,99/5=2) pseudo=read geom=check guess=(re
 ad,tcheck) scf=(maxcycle=1)\\title\\0,1\F,0,1.120044,1.153987,0.\F,0,1
 .17115,-1.120445,-0.000003\S,0,-1.339586,-0.096282,0.000001\B,0,0.4686
 07,0.000922,0.000004\H,0,-1.530415,1.234032,-0.000003\\Version=ES64L-G
 16RevC.01\State=1-A\HF=-622.8560972\RMSD=2.220e-01\Dipole=0.735681,-0.
 2543067,-0.0000075\Quadrupole=0.2346134,3.7578405,-3.9924539,0.1470874
 ,0.000006,-0.0000021\PG=C01 [X(B1F2H1S1)]\\@

 Normal termination of Gaussian 16 at Wed Apr  9 00:30:42 2025.
