 Gaussian 16, Revision C.01,

 ----------------------------------------------------------------------
 #t hf aug-cc-pvdz symm=none int=(grid=ultrafine) guess=(read,tcheck) s
 table=(opt,rrhf)
 ----------------------------------------------------------------------
 -----
 title
 -----
 Symbolic Z-matrix:
 Charge =  0 Multiplicity = 1

 SCF Done:  E(RHF) =  -1351.41208010     A.U. after   16 cycles
 Normal termination of Gaussian 16 at Wed Apr  9 00:26:04 2025.
 Gaussian 16:  ES64L-G16RevC.01  3-Jul-2019

 ----------------------------------------------------------------------
 #t hf aug-cc-pvdz iop(5/13=1,5/36=2,99/5=2) pseudo=read geom=check gue
 ss=(read,tcheck) scf=(maxcycle=1)
 ----------------------------------------------------------------------
 -----
 title
 -----
 Structure from the checkpoint file:  "BDE49_nonexpt_2517_mol1.chk"
 Charge =  0 Multiplicity = 1

                         Standard orientation:
 ---------------------------------------------------------------------
 Center     Atomic      Atomic             Coordinates (Angstroms)
 Number     Number       Type             X           Y           Z
 ---------------------------------------------------------------------
      1          6           0       -2.005520   -0.532958    1.215777
      2          6           0       -0.752323   -1.132179    1.210633
      3          6           0       -2.612690   -0.238550   -0.000030
      4          6           0       -2.005495   -0.532880   -1.215844
      5          6           0       -0.752299   -1.132101   -1.210713
      6          6           0       -0.113976   -1.429145   -0.000044
      7          1           0       -0.263544   -1.373757    2.145344
      8          1           0       -2.516368   -0.293055    2.137733
      9          7           0       -3.943590    0.404354   -0.000023
     10          1           0       -2.516325   -0.292917   -2.137794
     11          1           0       -0.263501   -1.373619   -2.145431
     12         16           0        1.477792   -2.258011   -0.000054
     13         14           0        2.879545   -0.573921    0.000007
     14          6           0        2.734051    0.476068    1.510768
     15          6           0        2.734076    0.476159   -1.510693
     16          6           0        2.069229    1.647217   -1.650016
     17          6           0        2.069201    1.647118    1.650151
     18          6           0        1.343838    2.439517    0.679676
     19          6           0        1.343850    2.439557   -0.679506
     20          1           0        3.217515    0.094786    2.409408
     21          1           0        2.051327    2.085176    2.647712
     22          1           0        3.217554    0.094931   -2.409347
     23          1           0        2.051371    2.085336   -2.647551
     24          1           0        0.732367    3.215851    1.132112
     25          1           0        0.732385    3.215919   -1.131905
     26          8           0       -4.453710    0.652310    1.084619
     27          8           0       -4.453689    0.652381   -1.084658
     28          1           0        4.151600   -1.330531   -0.000005
 ---------------------------------------------------------------------

 SCF Done:  E(RHF) =  -1354.82861706     A.U. after    2 cycles

 The electronic state is 1-A.
 Alpha  occ. eigenvalues --  -76.24244 -75.68765 -21.09409 -21.09300 -16.00006
 Alpha  occ. eigenvalues --  -13.17952 -13.11682 -13.08481 -11.55149 -11.49280
 Alpha  occ. eigenvalues --  -11.48094 -11.47184 -11.47038 -11.45933 -11.44324
 Alpha  occ. eigenvalues --  -11.44039 -11.42370 -11.41406 -11.40298 -11.38389
 Alpha  occ. eigenvalues --   -8.02890  -5.58128  -2.23489  -2.22012  -2.19957
 Alpha  occ. eigenvalues --   -1.99732  -1.69020  -1.38620  -1.28232  -1.21331
 Alpha  occ. eigenvalues --   -1.16528  -1.12744  -1.10086  -1.06821  -0.96453
 Alpha  occ. eigenvalues --   -0.92193  -0.90614  -0.85862  -0.82329  -0.74176
 Alpha  occ. eigenvalues --   -0.71439  -0.70546  -0.69469  -0.67595  -0.66328
 Alpha  occ. eigenvalues --   -0.64340  -0.63816  -0.61497  -0.61320  -0.57784
 Alpha  occ. eigenvalues --   -0.57684  -0.54107  -0.52919  -0.48946  -0.48160
 Alpha  occ. eigenvalues --   -0.47945  -0.46526  -0.43331  -0.42926  -0.40457
 Alpha  occ. eigenvalues --   -0.39315  -0.35926  -0.35740  -0.33474  -0.31303
 Alpha  occ. eigenvalues --   -0.31282  -0.28269  -0.26936
 Alpha virt. eigenvalues --    0.02282   0.04072   0.04112   0.04852   0.05031
 Alpha virt. eigenvalues --    0.05054   0.05437   0.06008   0.06306   0.06710
 Alpha virt. eigenvalues --    0.06899   0.07215   0.07492   0.07706   0.07895

 Mulliken charges:
               1
     1  C   -3.470380
     2  C   -2.163390
     3  C    2.813192
     4  C   -3.470373
     5  C   -2.163297
     6  C    3.201638
     7  H    2.016092
     8  H    2.018102
     9  N    3.152982
    10  H    2.018102
    11  H    2.016092
    12  S   -1.431109
    13  Si   6.030326
    14  C   -3.819954
    15  C   -3.819953
    16  C   -1.078992
    17  C   -1.079009
    18  C   -0.470427
    19  C   -0.470381
    20  H    1.205734
    21  H    1.457986
    22  H    1.205735
    23  H    1.457986
    24  H    1.470273
    25  H    1.470268
    26  O   -2.982122
    27  O   -2.982126
    28  H   -2.132994
 Sum of Mulliken charges =   0.00000

 Dipole moment (field-independent basis, Debye):
    X=              2.3644    Y=             -0.3436    Z=              0.0000  Tot=              2.3892

 Test job not archived.
 1\1\GINC-SE461\SP\RHF\Aug-CC-pVDZ\C12H11N1O2S1Si1\OHZDE\09-Apr-2025\0\
 \#t hf aug-cc-pvdz iop(5/13=1,5/36=2,99/5=2) pseudo=read geom=check gu
 ess=(read,tcheck) scf=(maxcycle=1)\\title\\0,1\C,0,-2.00552,-0.532958,
 1.215777\C,0,-0.752323,-1.132179,1.210633\C,0,-2.61269,-0.23855,-0.000
 03\C,0,-2.005495,-0.53288,-1.215844\C,0,-0.752299,-1.132101,-1.210713\
 C,0,-0.113976,-1.429145,-0.000044\H,0,-0.263544,-1.373757,2.145344\H,0
 ,-2.516368,-0.293055,2.137733\N,0,-3.94359,0.404354,-0.000023\H,0,-2.5
 16325,-0.292917,-2.137794\H,0,-0.263501,-1.373619,-2.145431\S,0,1.4777

 Normal termination of Gaussian 16 at Wed Apr  9 00:26:44 2025.
