 Gaussian 16, Revision C.01,

 ----------------------------------------------------------------------
 #t hf aug-cc-pvdz symm=none int=(grid=ultrafine) guess=(read,tcheck) s
 table=(opt,rrhf)
 ----------------------------------------------------------------------
 -----
 title
 -----
 Symbolic Z-matrix:
 Charge =  0 Multiplicity = 1

 SCF Done:  E(RHF) =  -1448.86167100     A.U. after   15 cycles
 Normal termination of Gaussian 16 at Tue Apr  8 22:44:30 2025.
 Gaussian 16:  ES64L-G16RevC.01  3-Jul-2019

 ----------------------------------------------------------------------
 #t hf aug-cc-pvdz iop(5/13=1,5/36=2,99/5=2) pseudo=read geom=check gue
 ss=(read,tcheck) scf=(maxcycle=1)
 ----------------------------------------------------------------------
 -----
 title
 -----
 Structure from the checkpoint file:  "BDE49_expt_1047_mol1.chk"
 Charge =  0 Multiplicity = 1

                         Standard orientation:
 ---------------------------------------------------------------------
 Center     Atomic      Atomic             Coordinates (Angstroms)
 Number     Number       Type             X           Y           Z
 ---------------------------------------------------------------------
      1          6           0       -0.589063    1.037483    1.464726
      2          6           0       -0.591190    1.048857    2.852914
      3          6           0       -0.000000    0.000000    3.547795
      4          6           0        0.591190   -1.048857    2.852914
      5          6           0        0.589063   -1.037483    1.464726
      6          6           0       -0.000000    0.000000    0.740340
      7          6           0        0.000000    0.000000   -0.740340
      8          6           0       -0.589063   -1.037483   -1.464726
      9          6           0        0.589063    1.037483   -1.464726
     10          6           0        0.591190    1.048857   -2.852914
     11          6           0        0.000000    0.000000   -3.547795
     12          6           0       -0.591190   -1.048857   -2.852914
     13          9           0       -1.163754   -2.051860   -3.521719
     14          9           0       -1.180781   -2.049075   -0.820436
     15          9           0        1.163754    2.051860   -3.521719
     16          9           0        0.000000   -0.000000   -4.879468
     17          9           0        1.180781    2.049075   -0.820436
     18          9           0       -1.180781    2.049075    0.820436
     19          9           0        1.163754   -2.051860    3.521719
     20          9           0        1.180781   -2.049075    0.820436
     21          9           0       -1.163754    2.051860    3.521719
     22          9           0       -0.000000   -0.000000    4.879468
 ---------------------------------------------------------------------

 SCF Done:  E(RHF) =  -1454.26943824     A.U. after    2 cycles

 The electronic state is 1-A.
 Alpha  occ. eigenvalues --  -29.34083 -29.34082 -29.33677 -29.33673 -29.33648
 Alpha  occ. eigenvalues --  -29.33635 -29.33455 -29.33454 -29.33433 -29.33432
 Alpha  occ. eigenvalues --  -11.63802 -11.62778 -11.57877 -11.57111 -11.56426
 Alpha  occ. eigenvalues --  -11.55262 -11.53530 -11.53433 -11.53080 -11.52614
 Alpha  occ. eigenvalues --  -11.48488 -11.47670  -1.52481  -1.47002  -1.31382
 Alpha  occ. eigenvalues --   -1.30188  -1.30080  -1.24782  -1.11138  -1.10714
 Alpha  occ. eigenvalues --   -1.09568  -1.04266  -0.93246  -0.93014  -0.91196
 Alpha  occ. eigenvalues --   -0.84016  -0.79778  -0.77683  -0.77572  -0.76936
 Alpha  occ. eigenvalues --   -0.74981  -0.69329  -0.68806  -0.68543  -0.65659
 Alpha  occ. eigenvalues --   -0.64106  -0.59708  -0.57917  -0.56999  -0.55419
 Alpha  occ. eigenvalues --   -0.53353  -0.45774  -0.45530  -0.44950  -0.44736
 Alpha  occ. eigenvalues --   -0.44483  -0.43686  -0.43681  -0.43524  -0.42865
 Alpha  occ. eigenvalues --   -0.42261  -0.41517  -0.40211  -0.39440  -0.39318
 Alpha  occ. eigenvalues --   -0.34421  -0.33224  -0.33206  -0.32389  -0.32133
 Alpha  occ. eigenvalues --   -0.31993  -0.31835  -0.31765  -0.31285  -0.30480
 Alpha  occ. eigenvalues --   -0.29371  -0.28639  -0.24954  -0.22817  -0.20740
 Alpha  occ. eigenvalues --   -0.19653
 Alpha virt. eigenvalues --    0.06134   0.07174   0.08818   0.09784   0.09891
 Alpha virt. eigenvalues --    0.10054   0.10348   0.10502   0.10864   0.11144
 Alpha virt. eigenvalues --    0.11145   0.11465   0.11715   0.12134   0.12281

 Mulliken charges:
               1
     1  C    1.224232
     2  C   -2.216827
     3  C    0.071384
     4  C   -2.216827
     5  C    1.224232
     6  C   -3.523210
     7  C   -3.523210
     8  C    1.224232
     9  C    1.224232
    10  C   -2.216827
    11  C    0.071384
    12  C   -2.216827
    13  F    1.166483
    14  F    0.998256
    15  F    1.166483
    16  F    1.107541
    17  F    0.998256
    18  F    0.998256
    19  F    1.166483
    20  F    0.998256
    21  F    1.166483
    22  F    1.107541
 Sum of Mulliken charges =   0.00000

 Dipole moment (field-independent basis, Debye):
    X=             -0.0000    Y=              0.0000    Z=              0.0000  Tot=              0.0000

 Test job not archived.
 1\1\GINC-SE072\SP\RHF\Aug-CC-pVDZ\C12F10\OHZDE\08-Apr-2025\0\\#t hf au
 g-cc-pvdz iop(5/13=1,5/36=2,99/5=2) pseudo=read geom=check guess=(read
 ,tcheck) scf=(maxcycle=1)\\title\\0,1\C,0,0.589063,1.464726,1.037483\C
 ,0,0.59119,2.852914,1.048857\C,0,0.,3.547795,0.\C,0,-0.59119,2.852914,
 -1.048857\C,0,-0.589063,1.464726,-1.037483\C,0,0.,0.74034,0.\C,0,0.,-0
 .74034,0.\C,0,0.589063,-1.464726,-1.037483\C,0,-0.589063,-1.464726,1.0
 37483\C,0,-0.59119,-2.852914,1.048857\C,0,0.,-3.547795,0.\C,0,0.59119,
 -2.852914,-1.048857\F,0,1.163754,-3.521719,-2.05186\F,0,1.180781,-0.82

 Normal termination of Gaussian 16 at Tue Apr  8 22:44:42 2025.
