 Gaussian 16, Revision C.01,

 ----------------------------------------------------------------------
 #t hf aug-cc-pvdz symm=none int=(grid=ultrafine) guess=(read,tcheck) s
 table=(opt,rrhf)
 ----------------------------------------------------------------------
 -----
 title
 -----
 Symbolic Z-matrix:
 Charge =  0 Multiplicity = 1

 SCF Done:  E(RHF) =  -401.103466017     A.U. after   12 cycles
 Normal termination of Gaussian 16 at Tue Apr  8 23:05:48 2025.
 Gaussian 16:  ES64L-G16RevC.01  3-Jul-2019

 ----------------------------------------------------------------------
 #t hf aug-cc-pvdz iop(5/13=1,5/36=2,99/5=2) pseudo=read geom=check gue
 ss=(read,tcheck) scf=(maxcycle=1)
 ----------------------------------------------------------------------
 -----
 title
 -----
 Structure from the checkpoint file:  "BDE49_expt_349_mol1.chk"
 Charge =  0 Multiplicity = 1

                         Standard orientation:
 ---------------------------------------------------------------------
 Center     Atomic      Atomic             Coordinates (Angstroms)
 Number     Number       Type             X           Y           Z
 ---------------------------------------------------------------------
      1          6           0        2.014201   -0.129026    0.452241
      2          6           0        1.155492    1.103811    0.138358
      3          7           0       -0.255826    0.811488   -0.123053
      4          1           0        1.551021    1.570755   -0.768475
      5          1           0        1.284455    1.832285    0.962596
      6          8           0        1.927147   -1.153102   -0.520365
      7          1           0        1.786661   -0.516241    1.454867
      8          1           0        3.057512    0.197739    0.477324
      9          1           0        1.086619   -1.614655   -0.391674
     10          6           0       -0.976119    1.972389   -0.630411
     11          1           0       -0.488377    2.346317   -1.533734
     12          1           0       -1.026406    2.798222    0.101302
     13          1           0       -1.998897    1.694273   -0.895438
     14          6           0       -0.976651    0.113356    0.947926
     15          6           0       -1.802424   -1.026797    0.332558
     16          1           0       -0.256934   -0.316944    1.645668
     17          1           0       -1.618568    0.792437    1.529382
     18          8           0       -1.005064   -1.753541   -0.597758
     19          1           0       -2.697416   -0.629954   -0.166239
     20          1           0       -2.131953   -1.727666    1.101987
     21          1           0       -0.620600   -1.056247   -1.155228
 ---------------------------------------------------------------------

 SCF Done:  E(RHF) =  -402.990956124     A.U. after    2 cycles

 The electronic state is 1-A.
 Alpha  occ. eigenvalues --  -21.06080 -21.05222 -15.71218 -11.45751 -11.44956
 Alpha  occ. eigenvalues --  -11.39687 -11.38960 -11.38182  -1.71313  -1.69513
 Alpha  occ. eigenvalues --   -1.42739  -1.11395  -1.08114  -0.96091  -0.89087
 Alpha  occ. eigenvalues --   -0.80536  -0.69074  -0.67063  -0.66013  -0.61622
 Alpha  occ. eigenvalues --   -0.60553  -0.59304  -0.55806  -0.53888  -0.52038
 Alpha  occ. eigenvalues --   -0.51233  -0.47878  -0.46061  -0.41047  -0.40002
 Alpha  occ. eigenvalues --   -0.32331  -0.31704  -0.29921
 Alpha virt. eigenvalues --    0.04069   0.04943   0.04978   0.05046   0.05357
 Alpha virt. eigenvalues --    0.05611   0.06446   0.06912   0.07949   0.08139
 Alpha virt. eigenvalues --    0.08517   0.08954   0.10631   0.12274   0.12614

 Mulliken charges:
               1
     1  C   -1.008343
     2  C   -2.467454
     3  N   -1.482471
     4  H    1.639951
     5  H    1.619305
     6  O   -2.869606
     7  H    1.534816
     8  H    1.063560
     9  H    0.998289
    10  C   -3.656975
    11  H    1.406417
    12  H    1.372692
    13  H    1.469228
    14  C   -3.201532
    15  C   -0.696551
    16  H    1.856610
    17  H    1.398589
    18  O   -2.830287
    19  H    1.439954
    20  H    1.258311
    21  H    1.155499
 Sum of Mulliken charges =   0.00000

 Dipole moment (field-independent basis, Debye):
    X=             -0.7530    Y=              1.3835    Z=              0.8292  Tot=              1.7801

 Test job not archived.
 1\1\GINC-SE331\SP\RHF\Aug-CC-pVDZ\C5H13N1O2\OHZDE\08-Apr-2025\0\\#t hf
  aug-cc-pvdz iop(5/13=1,5/36=2,99/5=2) pseudo=read geom=check guess=(r
 ead,tcheck) scf=(maxcycle=1)\\title\\0,1\C,0,2.014201,-0.129025,0.4522
 41\C,0,1.155491,1.103812,0.138358\N,0,-0.255826,0.811488,-0.123053\H,0
 ,1.55102,1.570756,-0.768475\H,0,1.284454,1.832286,0.962596\O,0,1.92714
 8,-1.153101,-0.520365\H,0,1.786661,-0.51624,1.454867\H,0,3.057512,0.19
 7741,0.477324\H,0,1.08662,-1.614654,-0.391674\C,0,-0.97612,1.972389,-0
 .630411\H,0,-0.488378,2.346317,-1.533734\H,0,-1.026407,2.798222,0.1013

 Normal termination of Gaussian 16 at Tue Apr  8 23:05:57 2025.
