 Gaussian 16, Revision C.01,

 ----------------------------------------------------------------------
 #t hf aug-cc-pvdz symm=none int=(grid=ultrafine) guess=(read,tcheck) s
 table=(opt,rrhf)
 ----------------------------------------------------------------------
 -----
 title
 -----
 Symbolic Z-matrix:
 Charge =  0 Multiplicity = 1

 SCF Done:  E(RHF) =  -922.856750281     A.U. after   13 cycles
 Normal termination of Gaussian 16 at Tue Apr  8 23:56:18 2025.
 Gaussian 16:  ES64L-G16RevC.01  3-Jul-2019

 ----------------------------------------------------------------------
 #t hf aug-cc-pvdz iop(5/13=1,5/36=2,99/5=2) pseudo=read geom=check gue
 ss=(read,tcheck) scf=(maxcycle=1)
 ----------------------------------------------------------------------
 -----
 title
 -----
 Structure from the checkpoint file:  "BDE49_nonexpt_1982_mol1.chk"
 Charge =  0 Multiplicity = 1

                         Standard orientation:
 ---------------------------------------------------------------------
 Center     Atomic      Atomic             Coordinates (Angstroms)
 Number     Number       Type             X           Y           Z
 ---------------------------------------------------------------------
      1         14           0       -0.000000    0.489168    0.000000
      2          9           0        1.572211    0.647597    0.000000
      3          8           0       -1.015212    1.602134    0.000000
      4         17           0       -0.354600   -1.499636    0.000000
 ---------------------------------------------------------------------

 SCF Done:  E(RHF) =  -923.887996313     A.U. after    2 cycles

 The electronic state is 1-A'.
 Alpha  occ. eigenvalues --  -99.95218 -76.34453 -29.34206 -21.05685 -10.52701
 Alpha  occ. eigenvalues --   -9.72530  -9.71820  -9.71692  -5.70534  -2.39837
 Alpha  occ. eigenvalues --   -2.32627  -2.26099  -1.56081  -1.35542  -0.88284
 Alpha  occ. eigenvalues --   -0.67008  -0.60422  -0.60189  -0.46994  -0.44376
 Alpha  occ. eigenvalues --   -0.40584  -0.38900  -0.37000  -0.33598
 Alpha virt. eigenvalues --    0.03560   0.05721   0.06912   0.08197   0.10451
 Alpha virt. eigenvalues --    0.10821   0.12553   0.14135   0.14288   0.19679
 Alpha virt. eigenvalues --    0.20078   0.21767   0.22116   0.24594   0.25805

 Mulliken charges:
               1
     1  Si   3.782539
     2  F   -0.982975
     3  O   -2.120505
     4  Cl  -0.679059
 Sum of Mulliken charges =  -0.00000

 Dipole moment (field-independent basis, Debye):
    X=              4.0897    Y=             -0.6774    Z=              0.0000  Tot=              4.1454

 Test job not archived.
 1\1\GINC-SE109\SP\RHF\Aug-CC-pVDZ\Cl1F1O1Si1\OHZDE\08-Apr-2025\0\\#t h
 f aug-cc-pvdz iop(5/13=1,5/36=2,99/5=2) pseudo=read geom=check guess=(
 read,tcheck) scf=(maxcycle=1)\\title\\0,1\Si,0,0.,0.489168,0.\F,0,1.57
 2211,0.647597,0.\O,0,-1.015212,1.602134,0.\Cl,0,-0.3546,-1.499636,0.\\
 Version=ES64L-G16RevC.01\State=1-A'\HF=-923.8879963\RMSD=4.899e-02\Dip
 ole=1.6089997,-0.2665177,0.\Quadrupole=1.1800971,-2.8617843,1.6816872,
 3.7327909,0.,0.\PG=CS [SG(Cl1F1O1Si1)]\\@

 Normal termination of Gaussian 16 at Tue Apr  8 23:56:20 2025.
