 Gaussian 16, Revision C.01,

 ----------------------------------------------------------------------
 #t hf aug-cc-pvdz symm=none int=(grid=ultrafine) guess=(read,tcheck) s
 table=(opt,rrhf)
 ----------------------------------------------------------------------
 -----
 title
 -----
 Symbolic Z-matrix:
 Charge =  0 Multiplicity = 1

 SCF Done:  E(RHF) =  -657.380071537     A.U. after   16 cycles
 Normal termination of Gaussian 16 at Wed Apr  9 00:36:05 2025.
 Gaussian 16:  ES64L-G16RevC.01  3-Jul-2019

 ----------------------------------------------------------------------
 #t hf aug-cc-pvdz iop(5/13=1,5/36=2,99/5=2) pseudo=read geom=check gue
 ss=(read,tcheck) scf=(maxcycle=1)
 ----------------------------------------------------------------------
 -----
 title
 -----
 Structure from the checkpoint file:  "BDE49_nonexpt_435_mol1.chk"
 Charge =  0 Multiplicity = 1

                         Standard orientation:
 ---------------------------------------------------------------------
 Center     Atomic      Atomic             Coordinates (Angstroms)
 Number     Number       Type             X           Y           Z
 ---------------------------------------------------------------------
      1          9           0       -3.662749    0.169579   -0.000009
      2          9           0       -2.613887   -1.834986    0.000008
      3          5           0       -2.523177   -0.511809    0.000005
      4          6           0       -1.153455    0.208635    0.000006
      5          6           0        0.036794   -0.531165    0.000015
      6          6           0        1.251290    0.138815    0.000015
      7          6           0        1.331250    1.527870    0.000006
      8          6           0       -1.077835    1.611402   -0.000004
      9          1           0       -1.994236    2.190482   -0.000011
     10          6           0        0.151276    2.265297   -0.000003
     11          1           0        0.194785    3.347647   -0.000010
     12          1           0        2.303121    2.001702    0.000007
     13          7           0        2.508265   -0.648882    0.000025
     14          8           0        2.410639   -1.867086   -0.000023
     15          8           0        3.561894   -0.028208   -0.000028
     16          1           0        0.027898   -1.612722    0.000022
 ---------------------------------------------------------------------

 SCF Done:  E(RHF) =  -660.081138141     A.U. after    2 cycles

 The electronic state is 1-A.
 Alpha  occ. eigenvalues --  -29.27060 -29.26897 -21.10343 -21.10223 -16.00947
 Alpha  occ. eigenvalues --  -11.56504 -11.49041 -11.48422 -11.47110 -11.45057
 Alpha  occ. eigenvalues --  -11.40862  -7.74158  -2.00713  -1.70016  -1.40309
 Alpha  occ. eigenvalues --   -1.22557  -1.17357  -1.09164  -1.01498  -0.91049
 Alpha  occ. eigenvalues --   -0.84831  -0.76555  -0.76020  -0.70640  -0.68556
 Alpha  occ. eigenvalues --   -0.65872  -0.64724  -0.63213  -0.58442  -0.56202
 Alpha  occ. eigenvalues --   -0.52518  -0.50641  -0.50287  -0.46745  -0.45255
 Alpha  occ. eigenvalues --   -0.37568  -0.37078  -0.36841  -0.35249  -0.34312
 Alpha  occ. eigenvalues --   -0.32166  -0.32103  -0.27798
 Alpha virt. eigenvalues --    0.02433   0.04031   0.04196   0.04679   0.05506
 Alpha virt. eigenvalues --    0.06192   0.06472   0.07327   0.08127   0.09038
 Alpha virt. eigenvalues --    0.09855   0.11466   0.12259   0.12436   0.12840

 Mulliken charges:
               1
     1  F   -0.630805
     2  F   -0.696211
     3  B   -0.004224
     4  C   -1.036786
     5  C   -1.982432
     6  C    3.743305
     7  C   -3.280181
     8  C   -1.758717
     9  H    2.036495
    10  C    0.732946
    11  H    1.555848
    12  H    1.815462
    13  N    3.373935
    14  O   -2.998652
    15  O   -3.050287
    16  H    2.180305
 Sum of Mulliken charges =  -0.00000

 Dipole moment (field-independent basis, Debye):
    X=             -4.1606    Y=              0.9034    Z=             -0.0000  Tot=              4.2575

 Test job not archived.
 1\1\GINC-SE212\SP\RHF\Aug-CC-pVDZ\C6H4B1F2N1O2\OHZDE\09-Apr-2025\0\\#t
  hf aug-cc-pvdz iop(5/13=1,5/36=2,99/5=2) pseudo=read geom=check guess
 =(read,tcheck) scf=(maxcycle=1)\\title\\0,1\F,0,3.662749,0.169579,0.00
 0009\F,0,2.613887,-1.834986,-0.000008\B,0,2.523177,-0.511809,-0.000005
 \C,0,1.153455,0.208635,-0.000006\C,0,-0.036794,-0.531165,-0.000015\C,0
 ,-1.25129,0.138815,-0.000015\C,0,-1.33125,1.52787,-0.000006\C,0,1.0778
 35,1.611402,0.000004\H,0,1.994236,2.190482,0.000011\C,0,-0.151276,2.26
 5297,0.000003\H,0,-0.194785,3.347647,0.00001\H,0,-2.303121,2.001702,-0

 Normal termination of Gaussian 16 at Wed Apr  9 00:36:14 2025.
