 Gaussian 16, Revision C.01,

 ----------------------------------------------------------------------
 #t hf aug-cc-pvdz symm=none int=(grid=ultrafine) guess=(read,tcheck) s
 table=opt
 ----------------------------------------------------------------------
 -----
 title
 -----
 Symbolic Z-matrix:
 Charge =  0 Multiplicity = 2

 SCF Done:  E(UHF) =  -543.802946486     A.U. after   16 cycles
 Normal termination of Gaussian 16 at Wed Apr  9 00:14:07 2025.
 Gaussian 16:  ES64L-G16RevC.01  3-Jul-2019

 ----------------------------------------------------------------------
 #t hf aug-cc-pvdz iop(5/13=1,5/36=2,99/5=2) pseudo=read geom=check gue
 ss=(read,tcheck) scf=(maxcycle=1)
 ----------------------------------------------------------------------
 -----
 title
 -----
 Structure from the checkpoint file:  "BDE49_nonexpt_2454_mol2.chk"
 Charge =  0 Multiplicity = 2

                         Standard orientation:
 ---------------------------------------------------------------------
 Center     Atomic      Atomic             Coordinates (Angstroms)
 Number     Number       Type             X           Y           Z
 ---------------------------------------------------------------------
      1         14           0        1.633797   -1.154249   -0.069855
      2          5           0       -0.102632   -0.132888    0.012499
      3          1           0        2.864702   -0.520279    0.465503
      4          1           0        1.584600   -2.582477    0.318546
      5          8           0       -1.221110   -0.905967    0.007584
      6          8           0       -0.237852    1.224170    0.006619
      7          6           0       -2.528291   -0.321633    0.005119
      8          1           0       -3.244901   -1.138363   -0.076722
      9          1           0       -2.649786    0.361919   -0.838763
     10          1           0       -2.708024    0.230927    0.930950
     11          6           0        0.866468    2.123665   -0.001910
     12          1           0        0.471684    3.124829   -0.176317
     13          1           0        1.575119    1.879339   -0.799250
     14          1           0        1.389253    2.110219    0.958640
 ---------------------------------------------------------------------

 SCF Done:  E(UHF) =  -545.056792501     A.U. after    2 cycles

 The electronic state is 2-A.
 Alpha  occ. eigenvalues --  -76.20726 -21.03259 -21.02486 -11.41620 -11.40325
 Alpha  occ. eigenvalues --   -7.64131  -5.54234  -2.17490  -2.16506  -2.14751
 Alpha  occ. eigenvalues --   -1.83130  -1.69336  -1.01855  -0.98676  -0.78584
 Alpha  occ. eigenvalues --   -0.67315  -0.63638  -0.62564  -0.60049  -0.59058
 Alpha  occ. eigenvalues --   -0.54381  -0.48556  -0.46180  -0.44058  -0.39707
 Alpha  occ. eigenvalues --   -0.33641  -0.32917  -0.24499
 Alpha virt. eigenvalues --    0.03325   0.04021   0.04663   0.05754   0.06815
 Alpha virt. eigenvalues --    0.06992   0.07307   0.08220   0.08624   0.09303
 Alpha virt. eigenvalues --    0.09828   0.10322   0.10522   0.10898   0.11422

  Beta  occ. eigenvalues --  -76.20211 -21.03230 -21.02406 -11.41619 -11.40331
  Beta  occ. eigenvalues --   -7.64176  -5.53460  -2.16873  -2.15843  -2.11138
  Beta  occ. eigenvalues --   -1.83022  -1.69219  -1.01785  -0.98632  -0.74839
  Beta  occ. eigenvalues --   -0.66534  -0.63431  -0.62431  -0.59979  -0.58903
  Beta  occ. eigenvalues --   -0.54334  -0.48456  -0.46184  -0.43476  -0.39603
  Beta  occ. eigenvalues --   -0.33216  -0.31996
  Beta virt. eigenvalues --    0.03265   0.03398   0.04087   0.04838   0.06437
  Beta virt. eigenvalues --    0.06920   0.07024   0.07671   0.08381   0.09470
  Beta virt. eigenvalues --    0.09845   0.10386   0.10763   0.10865   0.11271

 Mulliken charges and spin densities:
               1          2
     1  Si   4.250364   1.114430
     2  B    4.582996  -0.019110
     3  H   -1.506950  -0.082575
     4  H   -1.509280  -0.065713
     5  O   -4.523911   0.048426
     6  O   -4.875358   0.020166
     7  C   -2.524024   0.007858
     8  H    1.229404  -0.000119
     9  H    1.429111   0.003213
    10  H    1.432492  -0.008190
    11  C   -2.291922   0.006839
    12  H    1.333850   0.000208
    13  H    1.457518  -0.013939
    14  H    1.515710  -0.011494
 Sum of Mulliken charges =  -0.00000   1.00000

 Dipole moment (field-independent basis, Debye):
    X=             -0.6580    Y=              1.4717    Z=             -0.0769  Tot=              1.6139
                          Isotropic Fermi Contact Couplings
        Atom                 a.u.       MegaHertz       Gauss      10(-4) cm-1
     1  Si(29)             0.29073    -258.37633     -92.19510     -86.18507
     2  B(11)             -0.00356      -5.10311      -1.82091      -1.70221
     3  H(1)              -0.00694     -31.03334     -11.07347     -10.35161
     4  H(1)              -0.00650     -29.04364     -10.36349      -9.68792
     5  O(17)              0.00602      -3.64903      -1.30206      -1.21718
     6  O(17)              0.00201      -1.21777      -0.43453      -0.40620
     7  C(13)             -0.00090      -1.01005      -0.36041      -0.33692
     8  H(1)               0.00004       0.16229       0.05791       0.05413

 1\1\GINC-SE073\SP\UHF\Aug-CC-pVDZ\C2H8B1O2Si1(2)\OHZDE\09-Apr-2025\0\\
 #t hf aug-cc-pvdz iop(5/13=1,5/36=2,99/5=2) pseudo=read geom=check gue
 ss=(read,tcheck) scf=(maxcycle=1)\\title\\0,2\Si,0,1.633797,-1.154249,
 -0.069855\B,0,-0.102632,-0.132888,0.012499\H,0,2.864702,-0.520278,0.46
 5503\H,0,1.584601,-2.582477,0.318546\O,0,-1.22111,-0.905967,0.007584\O
 ,0,-0.237853,1.22417,0.006619\C,0,-2.528291,-0.321634,0.005119\H,0,-3.
 244901,-1.138364,-0.076722\H,0,-2.649786,0.361918,-0.838763\H,0,-2.708
 024,0.230926,0.93095\C,0,0.866467,2.123665,-0.00191\H,0,0.471683,3.124

 Normal termination of Gaussian 16 at Wed Apr  9 00:14:12 2025.
