 Gaussian 16, Revision C.01,

 ----------------------------------------------------------------------
 #t hf aug-cc-pvdz symm=none int=(grid=ultrafine) guess=(read,tcheck) s
 table=(opt,rrhf)
 ----------------------------------------------------------------------
 -----
 title
 -----
 Symbolic Z-matrix:
 Charge =  0 Multiplicity = 1

 SCF Done:  E(RHF) =  -465.463222118     A.U. after   14 cycles
 Normal termination of Gaussian 16 at Tue Apr  8 22:39:24 2025.
 Gaussian 16:  ES64L-G16RevC.01  3-Jul-2019

 ----------------------------------------------------------------------
 #t hf aug-cc-pvdz iop(5/13=1,5/36=2,99/5=2) pseudo=read geom=check gue
 ss=(read,tcheck) scf=(maxcycle=1)
 ----------------------------------------------------------------------
 -----
 title
 -----
 Structure from the checkpoint file:  "BDE49_expt_1228_mol1.chk"
 Charge =  0 Multiplicity = 1

                         Standard orientation:
 ---------------------------------------------------------------------
 Center     Atomic      Atomic             Coordinates (Angstroms)
 Number     Number       Type             X           Y           Z
 ---------------------------------------------------------------------
      1          6           0        0.352821    0.001640    0.000003
      2          7           0       -1.008310   -0.713689    0.000015
      3          9           0        1.000814   -0.406082   -1.089318
      4          9           0        1.000797   -0.406011    1.089360
      5          9           0        0.254838    1.322208   -0.000041
      6          8           0       -1.920851    0.049368   -0.000016
 ---------------------------------------------------------------------

 SCF Done:  E(RHF) =  -467.161232524     A.U. after    2 cycles

 The electronic state is 1-A.
 Alpha  occ. eigenvalues --  -29.34908 -29.34899 -29.34823 -21.19294 -15.91761
 Alpha  occ. eigenvalues --  -11.61392  -1.93118  -1.46175  -1.07355  -0.93692
 Alpha  occ. eigenvalues --   -0.93185  -0.75419  -0.60149  -0.57367  -0.51202
 Alpha  occ. eigenvalues --   -0.47197  -0.46809  -0.42573  -0.39399  -0.38644
 Alpha  occ. eigenvalues --   -0.29769  -0.29675  -0.27859  -0.24880
 Alpha virt. eigenvalues --    0.09742   0.11051   0.11236   0.12187   0.12651
 Alpha virt. eigenvalues --    0.14923   0.17183   0.17785   0.19547   0.21293
 Alpha virt. eigenvalues --    0.21699   0.23524   0.26020   0.29028   0.29914

 Mulliken charges:
               1
     1  C   -0.713131
     2  N    0.447419
     3  F    0.673568
     4  F    0.673568
     5  F    0.800103
     6  O   -1.881527
 Sum of Mulliken charges =  -0.00000

 Dipole moment (field-independent basis, Debye):
    X=              1.8415    Y=              1.5708    Z=             -0.0000  Tot=              2.4204

 Test job not archived.
 1\1\GINC-SE393\SP\RHF\Aug-CC-pVDZ\C1F3N1O1\OHZDE\08-Apr-2025\0\\#t hf
 aug-cc-pvdz iop(5/13=1,5/36=2,99/5=2) pseudo=read geom=check guess=(re
 ad,tcheck) scf=(maxcycle=1)\\title\\0,1\C,0,0.352821,0.00164,0.000003\
 N,0,-1.00831,-0.713689,0.000015\F,0,1.000814,-0.406082,-1.089318\F,0,1
 .000797,-0.406011,1.08936\F,0,0.254838,1.322208,-0.000041\O,0,-1.92085
 1,0.049368,-0.000016\\Version=ES64L-G16RevC.01\State=1-A\HF=-467.16123
 25\RMSD=5.342e-02\Dipole=0.724493,0.6179958,-0.0000139\Quadrupole=-0.2
 601138,-0.9756637,1.2357775,-1.4366851,0.0000357,0.0000578\PG=C01 [X(C

 Normal termination of Gaussian 16 at Tue Apr  8 22:39:26 2025.
