 Gaussian 16, Revision C.01,

 ----------------------------------------------------------------------
 #t hf aug-cc-pvdz symm=none int=(grid=ultrafine) guess=(read,tcheck) s
 table=(opt,rrhf)
 ----------------------------------------------------------------------
 -----
 title
 -----
 Symbolic Z-matrix:
 Charge =  0 Multiplicity = 1

 SCF Done:  E(RHF) =  -831.762840635     A.U. after   16 cycles
 Normal termination of Gaussian 16 at Tue Apr  8 23:16:46 2025.
 Gaussian 16:  ES64L-G16RevC.01  3-Jul-2019

 ----------------------------------------------------------------------
 #t hf aug-cc-pvdz iop(5/13=1,5/36=2,99/5=2) pseudo=read geom=check gue
 ss=(read,tcheck) scf=(maxcycle=1)
 ----------------------------------------------------------------------
 -----
 title
 -----
 Structure from the checkpoint file:  "BDE49_expt_859_mol1.chk"
 Charge =  0 Multiplicity = 1

                         Standard orientation:
 ---------------------------------------------------------------------
 Center     Atomic      Atomic             Coordinates (Angstroms)
 Number     Number       Type             X           Y           Z
 ---------------------------------------------------------------------
      1          6           0       -1.118775    0.000389    0.000093
      2          6           0       -0.439441    1.213926    0.000076
      3          6           0        0.947628    1.212676    0.000036
      4          6           0       -0.439072   -1.213765    0.000064
      5          6           0        0.947070   -1.210404    0.000024
      6          6           0        1.652878    0.001634    0.000009
      7          1           0       -1.000882   -2.137296    0.000076
      8          1           0        1.484310   -2.151394    0.000004
      9         16           0        3.424181   -0.081536   -0.000043
     10          1           0        3.648733    1.241907   -0.000043
     11          1           0       -1.001884    2.137170    0.000097
     12          1           0        1.479574    2.156177    0.000025
     13          7           0       -2.592055    0.001136    0.000139
     14          8           0       -3.159183    1.086690   -0.000136
     15          8           0       -3.160077   -1.083773   -0.000146
 ---------------------------------------------------------------------

 SCF Done:  E(RHF) =  -833.917764366     A.U. after    2 cycles

 The electronic state is 1-A.
 Alpha  occ. eigenvalues --  -75.72742 -21.09490 -21.09382 -16.00182 -13.20369
 Alpha  occ. eigenvalues --  -13.17524 -13.04575 -11.55394 -11.48564 -11.47642
 Alpha  occ. eigenvalues --  -11.47477 -11.44714 -11.41017  -8.06760  -1.99842
 Alpha  occ. eigenvalues --   -1.69117  -1.39970  -1.23150  -1.13660  -1.11710
 Alpha  occ. eigenvalues --   -0.97538  -0.91633  -0.83477  -0.74544  -0.68049
 Alpha  occ. eigenvalues --   -0.67800  -0.65400  -0.63051  -0.62385  -0.58672
 Alpha  occ. eigenvalues --   -0.54532  -0.51776  -0.48471  -0.41960  -0.40588
 Alpha  occ. eigenvalues --   -0.37083  -0.35951  -0.31464  -0.31278  -0.25375
 Alpha virt. eigenvalues --    0.02362   0.03673   0.04482   0.06659   0.06774
 Alpha virt. eigenvalues --    0.07062   0.08607   0.09267   0.10005   0.10563
 Alpha virt. eigenvalues --    0.11005   0.11965   0.12346   0.13187   0.13261

 Mulliken charges:
               1
     1  C    2.714148
     2  C   -2.736924
     3  C   -0.777314
     4  C   -3.123056
     5  C   -1.957492
     6  C    1.321761
     7  H    1.897815
     8  H    1.809694
     9  S   -1.016692
    10  H    1.029919
    11  H    1.854992
    12  H    1.841465
    13  N    3.059601
    14  O   -2.961426
    15  O   -2.956492
 Sum of Mulliken charges =   0.00000

 Dipole moment (field-independent basis, Debye):
    X=              4.3374    Y=             -0.8838    Z=             -0.0002  Tot=              4.4266

 Test job not archived.
 1\1\GINC-SE365\SP\RHF\Aug-CC-pVDZ\C6H5N1O2S1\OHZDE\08-Apr-2025\0\\#t h
 f aug-cc-pvdz iop(5/13=1,5/36=2,99/5=2) pseudo=read geom=check guess=(
 read,tcheck) scf=(maxcycle=1)\\title\\0,1\C,0,-1.118775,0.000389,0.000
 093\C,0,-0.439441,1.213926,0.000076\C,0,0.947628,1.212676,0.000036\C,0
 ,-0.439072,-1.213765,0.000064\C,0,0.94707,-1.210404,0.000024\C,0,1.652
 878,0.001634,0.000009\H,0,-1.000882,-2.137296,0.000076\H,0,1.48431,-2.
 151394,0.000004\S,0,3.424181,-0.081536,-0.000043\H,0,3.648733,1.241907
 ,-0.000043\H,0,-1.001884,2.13717,0.000097\H,0,1.479574,2.156177,0.0000

 Normal termination of Gaussian 16 at Tue Apr  8 23:16:53 2025.
