 Gaussian 16, Revision C.01,

 ----------------------------------------------------------------------
 #t hf aug-cc-pvdz symm=none int=(grid=ultrafine) guess=(read,tcheck) s
 table=(opt,rrhf)
 ----------------------------------------------------------------------
 -----
 title
 -----
 Symbolic Z-matrix:
 Charge =  0 Multiplicity = 1

 SCF Done:  E(RHF) =  -787.034607877     A.U. after   15 cycles
 Normal termination of Gaussian 16 at Wed Apr  9 00:47:31 2025.
 Gaussian 16:  ES64L-G16RevC.01  3-Jul-2019

 ----------------------------------------------------------------------
 #t hf aug-cc-pvdz iop(5/13=1,5/36=2,99/5=2) pseudo=read geom=check gue
 ss=(read,tcheck) scf=(maxcycle=1)
 ----------------------------------------------------------------------
 -----
 title
 -----
 Structure from the checkpoint file:  "BDE49_nonexpt_793_mol1.chk"
 Charge =  0 Multiplicity = 1

                         Standard orientation:
 ---------------------------------------------------------------------
 Center     Atomic      Atomic             Coordinates (Angstroms)
 Number     Number       Type             X           Y           Z
 ---------------------------------------------------------------------
      1         14           0        0.095477    0.104799   -0.992877
      2          7           0       -0.680610    1.602405   -0.096848
      3          5           0        1.852759   -0.215373   -0.014933
      4          8           0        0.023543    2.252540    0.693425
      5          8           0       -1.840418    1.891444   -0.345203
      6          8           0        2.304899    0.633575    0.935360
      7          8           0        2.551539   -1.333573   -0.353360
      8          6           0       -1.202173   -1.251814   -0.984320
      9          6           0       -1.276623   -2.116774    0.290131
     10          1           0       -0.982262   -1.884024   -1.853613
     11          1           0       -2.167778   -0.776375   -1.190526
     12          6           0       -1.645490   -1.334134    1.554521
     13          1           0       -0.317513   -2.624140    0.439959
     14          1           0       -2.016443   -2.908256    0.129985
     15          1           0       -0.880496   -0.595234    1.816761
     16          1           0       -1.749510   -2.003681    2.411875
     17          1           0       -2.590547   -0.798234    1.429769
     18          1           0        3.374372   -1.416743    0.146823
     19          1           0        1.690240    1.378111    1.065836
     20          1           0        0.232953    0.685864   -2.347760
 ---------------------------------------------------------------------

 SCF Done:  E(RHF) =  -789.360076915     A.U. after    2 cycles

 The electronic state is 1-A.
 Alpha  occ. eigenvalues --  -76.25395 -21.10235 -21.09060 -21.07711 -21.06172
 Alpha  occ. eigenvalues --  -15.96014 -11.43544 -11.39260 -11.36445  -7.66006
 Alpha  occ. eigenvalues --   -5.59266  -2.23758  -2.22777  -2.21799  -1.97405
 Alpha  occ. eigenvalues --   -1.82176  -1.68419  -1.66779  -1.22338  -1.03233
 Alpha  occ. eigenvalues --   -0.98964  -0.85904  -0.78982  -0.74539  -0.65714
 Alpha  occ. eigenvalues --   -0.65511  -0.64057  -0.62200  -0.61239  -0.60507
 Alpha  occ. eigenvalues --   -0.57065  -0.56070  -0.51999  -0.50240  -0.48027
 Alpha  occ. eigenvalues --   -0.47258  -0.44561  -0.42926  -0.37654  -0.35600
 Alpha  occ. eigenvalues --   -0.32367  -0.31587  -0.31200
 Alpha virt. eigenvalues --    0.03167   0.03811   0.04444   0.05088   0.05772
 Alpha virt. eigenvalues --    0.06007   0.06738   0.06914   0.07540   0.08047
 Alpha virt. eigenvalues --    0.08387   0.09055   0.09265   0.09610   0.09870

 Mulliken charges:
               1
     1  Si   4.361283
     2  N    3.372538
     3  B    6.395113
     4  O   -2.290848
     5  O   -2.445635
     6  O   -4.591962
     7  O   -4.316873
     8  C   -3.623073
     9  C   -3.070439
    10  H    1.348617
    11  H    1.472945
    12  C   -3.843553
    13  H    1.631208
    14  H    1.255688
    15  H    1.533397
    16  H    1.124402
    17  H    1.357661
    18  H    1.183900
    19  H    1.915332
    20  H   -2.769700
 Sum of Mulliken charges =  -0.00000

 Dipole moment (field-independent basis, Debye):
    X=              0.0911    Y=             -2.5284    Z=             -0.3252  Tot=              2.5509

 Test job not archived.
 1\1\GINC-SE250\SP\RHF\Aug-CC-pVDZ\C3H10B1N1O4Si1\OHZDE\09-Apr-2025\0\\
 #t hf aug-cc-pvdz iop(5/13=1,5/36=2,99/5=2) pseudo=read geom=check gue
 ss=(read,tcheck) scf=(maxcycle=1)\\title\\0,1\Si,0,-0.095477,-0.104799
 ,-0.992877\N,0,0.68061,-1.602405,-0.096848\B,0,-1.852759,0.215373,-0.0
 14933\O,0,-0.023543,-2.25254,0.693425\O,0,1.840418,-1.891444,-0.345203
 \O,0,-2.304899,-0.633575,0.93536\O,0,-2.551539,1.333573,-0.35336\C,0,1
 .202173,1.251814,-0.98432\C,0,1.276623,2.116774,0.290131\H,0,0.982262,
 1.884024,-1.853613\H,0,2.167778,0.776375,-1.190526\C,0,1.64549,1.33413

 Normal termination of Gaussian 16 at Wed Apr  9 00:47:41 2025.
