 Gaussian 16, Revision C.01,

 ----------------------------------------------------------------------
 #t hf aug-cc-pvdz symm=none int=(grid=ultrafine) guess=(read,tcheck) s
 table=(opt,rrhf)
 ----------------------------------------------------------------------
 -----
 title
 -----
 Symbolic Z-matrix:
 Charge =  0 Multiplicity = 1

 SCF Done:  E(RHF) =  -862.440104982     A.U. after   15 cycles
 Normal termination of Gaussian 16 at Tue Apr  8 23:42:13 2025.
 Gaussian 16:  ES64L-G16RevC.01  3-Jul-2019

 ----------------------------------------------------------------------
 #t hf aug-cc-pvdz iop(5/13=1,5/36=2,99/5=2) pseudo=read geom=check gue
 ss=(read,tcheck) scf=(maxcycle=1)
 ----------------------------------------------------------------------
 -----
 title
 -----
 Structure from the checkpoint file:  "BDE49_nonexpt_1635_mol1.chk"
 Charge =  0 Multiplicity = 1

                         Standard orientation:
 ---------------------------------------------------------------------
 Center     Atomic      Atomic             Coordinates (Angstroms)
 Number     Number       Type             X           Y           Z
 ---------------------------------------------------------------------
      1          6           0        1.656661   -0.151221   -0.030561
      2         15           0       -1.104219   -0.567181    0.725728
      3          6           0       -1.184545   -1.717011   -0.738870
      4          1           0       -0.442027   -1.495431   -1.505682
      5          1           0       -2.188825   -1.664785   -1.166314
      6          1           0       -1.023265   -2.737969   -0.384361
      7          8           0        1.889696   -0.899467   -0.956555
      8          6           0        2.268646    1.236146    0.042444
      9         14           0       -1.450991    1.428241   -0.319992
     10          1           0        3.064520    1.229326    0.796018
     11          1           0        1.542775    1.991199    0.354517
     12          1           0        2.696944    1.500858   -0.923376
     13          6           0        0.750598   -0.567633    1.110246
     14          1           0        0.889612    0.057872    1.994846
     15          1           0        0.977050   -1.603089    1.378237
     16          1           0       -2.880993    1.446679   -0.707761
     17          1           0       -0.625627    1.654710   -1.532914
     18          1           0       -1.198730    2.527026    0.643646
 ---------------------------------------------------------------------

 SCF Done:  E(RHF) =  -863.893938500     A.U. after    2 cycles

 The electronic state is 1-A.
 Alpha  occ. eigenvalues -- -105.17098 -76.22778 -21.05002 -11.49830 -11.39976
 Alpha  occ. eigenvalues --  -11.39018 -11.37321  -5.56169  -2.75016  -2.18464
 Alpha  occ. eigenvalues --   -2.18314  -2.18218  -1.70855  -1.47672  -1.46410
 Alpha  occ. eigenvalues --   -1.42568  -1.14697  -1.03615  -0.98770  -0.78181
 Alpha  occ. eigenvalues --   -0.75002  -0.64015  -0.62806  -0.61895  -0.59175
 Alpha  occ. eigenvalues --   -0.56290  -0.56237  -0.52523  -0.48493  -0.48124
 Alpha  occ. eigenvalues --   -0.47896  -0.42537  -0.29355  -0.21478  -0.15960
 Alpha  occ. eigenvalues --   -0.02560
 Alpha virt. eigenvalues --    0.03592   0.05218   0.05546   0.05661   0.05877
 Alpha virt. eigenvalues --    0.06265   0.06872   0.07036   0.08052   0.08499
 Alpha virt. eigenvalues --    0.08897   0.09773   0.10343   0.10429   0.11341

 Mulliken charges:
               1
     1  C    3.859507
     2  P    4.701104
     3  C   -6.255559
     4  H    1.427892
     5  H    1.287531
     6  H    1.139440
     7  O   -3.314533
     8  C   -4.272578
     9  Si   5.375218
    10  H    1.216446
    11  H    1.588374
    12  H    1.262703
    13  C   -5.135307
    14  H    1.410725
    15  H    1.188687
    16  H   -1.994066
    17  H   -1.566611
    18  H   -1.918972
 Sum of Mulliken charges =   0.00000

 Dipole moment (field-independent basis, Debye):
    X=             -0.5691    Y=             -3.6069    Z=              4.2552  Tot=              5.6072

 Test job not archived.
 1\1\GINC-SE060\SP\RHF\Aug-CC-pVDZ\C4H11O1P1Si1\OHZDE\08-Apr-2025\0\\#t
  hf aug-cc-pvdz iop(5/13=1,5/36=2,99/5=2) pseudo=read geom=check guess
 =(read,tcheck) scf=(maxcycle=1)\\title\\0,1\C,0,1.656661,-0.151221,-0.
 030561\P,0,-1.104219,-0.567181,0.725728\C,0,-1.184545,-1.717011,-0.738
 87\H,0,-0.442027,-1.495431,-1.505682\H,0,-2.188825,-1.664785,-1.166314
 \H,0,-1.023265,-2.737969,-0.384361\O,0,1.889696,-0.899467,-0.956555\C,
 0,2.268646,1.236146,0.042444\Si,0,-1.450991,1.428241,-0.319992\H,0,3.0
 6452,1.229326,0.796018\H,0,1.542775,1.991199,0.354517\H,0,2.696944,1.5

 Normal termination of Gaussian 16 at Tue Apr  8 23:42:21 2025.
