 Gaussian 16, Revision C.01,

 ----------------------------------------------------------------------
 #t hf aug-cc-pvdz symm=none int=(grid=ultrafine) guess=(read,tcheck) s
 table=(opt,rrhf)
 ----------------------------------------------------------------------
 -----
 title
 -----
 Symbolic Z-matrix:
 Charge =  0 Multiplicity = 1

 SCF Done:  E(RHF) =  -547.141884624     A.U. after   13 cycles
 Normal termination of Gaussian 16 at Tue Apr  8 23:38:06 2025.
 Gaussian 16:  ES64L-G16RevC.01  3-Jul-2019

 ----------------------------------------------------------------------
 #t hf aug-cc-pvdz iop(5/13=1,5/36=2,99/5=2) pseudo=read geom=check gue
 ss=(read,tcheck) scf=(maxcycle=1)
 ----------------------------------------------------------------------
 -----
 title
 -----
 Structure from the checkpoint file:  "BDE49_nonexpt_1561_mol1.chk"
 Charge =  0 Multiplicity = 1

                         Standard orientation:
 ---------------------------------------------------------------------
 Center     Atomic      Atomic             Coordinates (Angstroms)
 Number     Number       Type             X           Y           Z
 ---------------------------------------------------------------------
      1         15           0       -1.295282   -0.121445   -0.017726
      2          7           0        0.423679    0.014121   -0.417292
      3          8           0        1.027600   -1.134136    0.200670
      4          8           0        0.980783    1.166756    0.205788
      5          1           0        1.643230    1.462452   -0.431290
      6          1           0        1.612691   -1.468776   -0.489033
      7          1           0       -1.620479    1.174366   -0.488468
      8          1           0       -1.239020    0.293827    1.344063
 ---------------------------------------------------------------------

 SCF Done:  E(RHF) =  -548.190346593     A.U. after    2 cycles

 The electronic state is 1-A.
 Alpha  occ. eigenvalues -- -105.20575 -21.10421 -21.10415 -15.80487  -2.77601
 Alpha  occ. eigenvalues --   -1.85671  -1.68229  -1.51491  -1.45936  -1.45303
 Alpha  occ. eigenvalues --   -1.02959  -0.72849  -0.65929  -0.62544  -0.48857
 Alpha  occ. eigenvalues --   -0.47799  -0.33211  -0.32197  -0.27441  -0.25505
 Alpha  occ. eigenvalues --   -0.03037
 Alpha virt. eigenvalues --    0.04070   0.06033   0.06252   0.08360   0.09694
 Alpha virt. eigenvalues --    0.11280   0.13536   0.14798   0.17083   0.19180
 Alpha virt. eigenvalues --    0.19616   0.20791   0.22306   0.23103   0.23275

 Mulliken charges:
               1
     1  P    2.270283
     2  N    1.721969
     3  O   -2.099267
     4  O   -1.897077
     5  H    0.767991
     6  H    0.806652
     7  H   -0.799979
     8  H   -0.770571
 Sum of Mulliken charges =   0.00000

 Dipole moment (field-independent basis, Debye):
    X=              0.5452    Y=             -1.8434    Z=             -1.1172  Tot=              2.2234

 Test job not archived.
 1\1\GINC-SE460\SP\RHF\Aug-CC-pVDZ\H4N1O2P1\OHZDE\08-Apr-2025\0\\#t hf
 aug-cc-pvdz iop(5/13=1,5/36=2,99/5=2) pseudo=read geom=check guess=(re
 ad,tcheck) scf=(maxcycle=1)\\title\\0,1\P,0,-1.295282,-0.121445,-0.017
 726\N,0,0.423679,0.014121,-0.417292\O,0,1.0276,-1.134136,0.20067\O,0,0
 .980783,1.166756,0.205788\H,0,1.64323,1.462452,-0.43129\H,0,1.612691,-
 1.468776,-0.489033\H,0,-1.620479,1.174366,-0.488468\H,0,-1.23902,0.293
 827,1.344063\\Version=ES64L-G16RevC.01\State=1-A\HF=-548.1903466\RMSD=
 2.222e-01\Dipole=0.2144807,-0.7252369,-0.4395518\Quadrupole=2.5968747,

 Normal termination of Gaussian 16 at Tue Apr  8 23:38:08 2025.
