 Gaussian 16, Revision C.01,

 ----------------------------------------------------------------------
 #t hf aug-cc-pvdz symm=none int=(grid=ultrafine) guess=(read,tcheck) s
 table=(opt,rrhf)
 ----------------------------------------------------------------------
 -----
 title
 -----
 Symbolic Z-matrix:
 Charge =  0 Multiplicity = 1

 SCF Done:  E(RHF) =  -1433.67916149     A.U. after   14 cycles
 Normal termination of Gaussian 16 at Tue Apr  8 23:58:24 2025.
 Gaussian 16:  ES64L-G16RevC.01  3-Jul-2019

 ----------------------------------------------------------------------
 #t hf aug-cc-pvdz iop(5/13=1,5/36=2,99/5=2) pseudo=read geom=check gue
 ss=(read,tcheck) scf=(maxcycle=1)
 ----------------------------------------------------------------------
 -----
 title
 -----
 Structure from the checkpoint file:  "BDE49_nonexpt_205_mol1.chk"
 Charge =  0 Multiplicity = 1

                         Standard orientation:
 ---------------------------------------------------------------------
 Center     Atomic      Atomic             Coordinates (Angstroms)
 Number     Number       Type             X           Y           Z
 ---------------------------------------------------------------------
      1         17           0        1.794343   -1.524336    0.000002
      2         17           0        1.794341    1.524337    0.000002
      3          5           0        0.909167    0.000000    0.000002
      4          7           0       -0.489284   -0.000001    0.000002
      5          6           0       -1.684095   -0.000004   -0.000001
      6         16           0       -3.251494    0.000001   -0.000005
 ---------------------------------------------------------------------

 SCF Done:  E(RHF) =  -1434.88775190     A.U. after    2 cycles

 The electronic state is 1-A.
 Alpha  occ. eigenvalues --  -99.91473 -99.91464 -75.72122 -15.78723 -13.26152
 Alpha  occ. eigenvalues --  -13.03566 -13.03326 -11.57897 -10.48896 -10.48638
 Alpha  occ. eigenvalues --   -9.68832  -9.68589  -9.68235  -9.68189  -9.68024
 Alpha  occ. eigenvalues --   -9.67999  -8.06433  -7.77410  -1.49025  -1.37283
 Alpha  occ. eigenvalues --   -1.31361  -1.18542  -0.93876  -0.73264  -0.67969
 Alpha  occ. eigenvalues --   -0.62114  -0.58664  -0.55363  -0.54544  -0.53974
 Alpha  occ. eigenvalues --   -0.53520  -0.52013  -0.31030  -0.29080
 Alpha virt. eigenvalues --    0.02291   0.02942   0.03747   0.04190   0.04202
 Alpha virt. eigenvalues --    0.06594   0.09628   0.10058   0.12325   0.12497
 Alpha virt. eigenvalues --    0.12863   0.14026   0.16103   0.16265   0.16608

 Mulliken charges:
               1
     1  Cl  -1.078301
     2  Cl  -1.078301
     3  B    2.813043
     4  N   -4.436399
     5  C    1.852829
     6  S    1.927129
 Sum of Mulliken charges =   0.00000

 Dipole moment (field-independent basis, Debye):
    X=             -4.8174    Y=              0.0000    Z=             -0.0000  Tot=              4.8174

 Test job not archived.
 1\1\GINC-SE457\SP\RHF\Aug-CC-pVDZ\C1B1Cl2N1S1\OHZDE\08-Apr-2025\0\\#t
 hf aug-cc-pvdz iop(5/13=1,5/36=2,99/5=2) pseudo=read geom=check guess=
 (read,tcheck) scf=(maxcycle=1)\\title\\0,1\Cl,0,-1.794343,1.524336,0.0
 00002\Cl,0,-1.794341,-1.524337,0.000002\B,0,-0.909167,0.,0.000002\N,0,
 0.489284,0.000001,0.000002\C,0,1.684095,0.000004,-0.000001\S,0,3.25149
 4,0.,-0.000005\\Version=ES64L-G16RevC.01\State=1-A\HF=-1434.8877519\RM
 SD=2.836e-01\Dipole=1.8953252,-0.000005,-0.0000046\Quadrupole=10.34801
 48,-5.4067483,-4.9412666,-0.0000332,-0.0000323,0.\PG=C01 [X(C1B1Cl2N1S

 Normal termination of Gaussian 16 at Tue Apr  8 23:58:26 2025.
