 Gaussian 16, Revision C.01,

 ----------------------------------------------------------------------
 #t hf aug-cc-pvdz symm=none int=(grid=ultrafine) guess=(read,tcheck) s
 table=(opt,rrhf)
 ----------------------------------------------------------------------
 -----
 title
 -----
 Symbolic Z-matrix:
 Charge =  0 Multiplicity = 1

 SCF Done:  E(RHF) =  -857.375379726     A.U. after   17 cycles
 Normal termination of Gaussian 16 at Tue Apr  8 23:13:06 2025.
 Gaussian 16:  ES64L-G16RevC.01  3-Jul-2019

 ----------------------------------------------------------------------
 #t hf aug-cc-pvdz iop(5/13=1,5/36=2,99/5=2) pseudo=read geom=check gue
 ss=(read,tcheck) scf=(maxcycle=1)
 ----------------------------------------------------------------------
 -----
 title
 -----
 Structure from the checkpoint file:  "BDE49_expt_678_mol1.chk"
 Charge =  0 Multiplicity = 1

                         Standard orientation:
 ---------------------------------------------------------------------
 Center     Atomic      Atomic             Coordinates (Angstroms)
 Number     Number       Type             X           Y           Z
 ---------------------------------------------------------------------
      1          6           0       -1.565937   -0.901695    0.000000
      2          6           0       -1.311069    0.466130    0.000000
      3          6           0       -0.494503   -1.786484    0.000000
      4          6           0        0.821597   -1.324659    0.000000
      5          6           0        1.063050    0.040537    0.000000
      6          6           0        0.000000    0.958024    0.000000
      7          1           0       -2.144762    1.160076    0.000000
      8          1           0       -2.580870   -1.277112    0.000000
      9          1           0        1.641263   -2.031492    0.000000
     10          1           0        2.079745    0.412480    0.000000
     11          6           0        0.218907    2.406130    0.000000
     12          7           0        1.394159    2.904578    0.000000
     13          1           0       -0.653161    3.062437    0.000000
     14          8           0        1.353300    4.299412    0.000000
     15          1           0        2.285249    4.540600    0.000000
     16         17           0       -0.800309   -3.514249    0.000000
 ---------------------------------------------------------------------

 SCF Done:  E(RHF) =  -859.437116919     A.U. after    2 cycles

 The electronic state is 1-A'.
 Alpha  occ. eigenvalues --  -99.90038 -21.10606 -15.78763 -11.53129 -11.47012
 Alpha  occ. eigenvalues --  -11.46332 -11.45890 -11.44174 -11.43087 -11.38794
 Alpha  occ. eigenvalues --  -10.47383  -9.67409  -9.66518  -9.66340  -1.79733
 Alpha  occ. eigenvalues --   -1.41664  -1.31959  -1.23933  -1.11918  -1.09286
 Alpha  occ. eigenvalues --   -0.91448  -0.89229  -0.81257  -0.73014  -0.69314
 Alpha  occ. eigenvalues --   -0.64825  -0.62201  -0.60290  -0.58353  -0.58129
 Alpha  occ. eigenvalues --   -0.55944  -0.54895  -0.50460  -0.49291  -0.47404
 Alpha  occ. eigenvalues --   -0.46106  -0.37431  -0.37123  -0.35263  -0.28178
 Alpha virt. eigenvalues --    0.03163   0.04903   0.05396   0.06185   0.06443
 Alpha virt. eigenvalues --    0.07397   0.07759   0.08452   0.09573   0.10076
 Alpha virt. eigenvalues --    0.11129   0.11267   0.12762   0.12951   0.13275

 Mulliken charges:
               1
     1  C   -1.943937
     2  C   -0.434115
     3  C   -3.044173
     4  C   -1.673144
     5  C   -0.423392
     6  C    4.416606
     7  H    1.840668
     8  H    1.751457
     9  H    1.755117
    10  H    1.802073
    11  C   -2.403335
    12  N   -0.765204
    13  H    1.531854
    14  O   -2.377142
    15  H    0.846772
    16  Cl  -0.880105
 Sum of Mulliken charges =   0.00000

 Dipole moment (field-independent basis, Debye):
    X=              0.1774    Y=              2.4760    Z=              0.0000  Tot=              2.4823

 Test job not archived.
 1\1\GINC-SE126\SP\RHF\Aug-CC-pVDZ\C7H6Cl1N1O1\OHZDE\08-Apr-2025\0\\#t
 hf aug-cc-pvdz iop(5/13=1,5/36=2,99/5=2) pseudo=read geom=check guess=
 (read,tcheck) scf=(maxcycle=1)\\title\\0,1\C,0,-1.565937,-0.901695,0.\
 C,0,-1.311069,0.46613,0.\C,0,-0.494503,-1.786484,0.\C,0,0.821597,-1.32
 4659,0.\C,0,1.06305,0.040537,0.\C,0,0.,0.958024,0.\H,0,-2.144762,1.160
 076,0.\H,0,-2.58087,-1.277112,0.\H,0,1.641263,-2.031492,0.\H,0,2.07974
 5,0.41248,0.\C,0,0.218907,2.40613,0.\N,0,1.394159,2.904578,0.\H,0,-0.6
 53161,3.062437,0.\O,0,1.3533,4.299412,0.\H,0,2.285249,4.5406,0.\Cl,0,-

 Normal termination of Gaussian 16 at Tue Apr  8 23:13:14 2025.
