 Gaussian 16, Revision C.01,

 ----------------------------------------------------------------------
 #t hf aug-cc-pvdz symm=none int=(grid=ultrafine) guess=(read,tcheck) s
 table=(opt,rrhf)
 ----------------------------------------------------------------------
 -----
 title
 -----
 Symbolic Z-matrix:
 Charge =  0 Multiplicity = 1

 SCF Done:  E(RHF) =  -443.482336626     A.U. after   15 cycles
 Normal termination of Gaussian 16 at Tue Apr  8 22:43:13 2025.
 Gaussian 16:  ES64L-G16RevC.01  3-Jul-2019

 ----------------------------------------------------------------------
 #t hf aug-cc-pvdz iop(5/13=1,5/36=2,99/5=2) pseudo=read geom=check gue
 ss=(read,tcheck) scf=(maxcycle=1)
 ----------------------------------------------------------------------
 -----
 title
 -----
 Structure from the checkpoint file:  "BDE49_expt_1399_mol1.chk"
 Charge =  0 Multiplicity = 1

                         Standard orientation:
 ---------------------------------------------------------------------
 Center     Atomic      Atomic             Coordinates (Angstroms)
 Number     Number       Type             X           Y           Z
 ---------------------------------------------------------------------
      1          6           0       -0.872711   -2.194993    0.000000
      2          6           0        0.494039   -1.905039    0.000000
      3          6           0        0.911281   -0.590049    0.000000
      4          6           0       -1.791825   -1.154539    0.000000
      5          6           0       -1.362747    0.175548    0.000000
      6          6           0        0.000000    0.477940    0.000000
      7          1           0       -1.205085   -3.225708    0.000000
      8          1           0        1.244523   -2.686127    0.000000
      9          9           0        2.229760   -0.306595    0.000000
     10          1           0       -2.854684   -1.365825    0.000000
     11          1           0       -2.094802    0.971785    0.000000
     12          8           0        0.539135    1.724041    0.000000
     13          6           0       -0.345399    2.835337    0.000000
     14          1           0        0.290564    3.718713    0.000000
     15          1           0       -0.978631    2.844481    0.894288
     16          1           0       -0.978631    2.844481   -0.894288
 ---------------------------------------------------------------------

 SCF Done:  E(RHF) =  -445.417531976     A.U. after    2 cycles

 The electronic state is 1-A'.
 Alpha  occ. eigenvalues --  -29.27667 -21.08094 -11.54700 -11.46638 -11.46186
 Alpha  occ. eigenvalues --  -11.42511 -11.42109 -11.41406 -11.37530  -1.79773
 Alpha  occ. eigenvalues --   -1.34820  -1.15403  -1.10098  -1.00272  -0.92033
 Alpha  occ. eigenvalues --   -0.86006  -0.75989  -0.68285  -0.65194  -0.63271
 Alpha  occ. eigenvalues --   -0.61694  -0.61277  -0.55928  -0.55014  -0.50331
 Alpha  occ. eigenvalues --   -0.47520  -0.41907  -0.41516  -0.41320  -0.36600
 Alpha  occ. eigenvalues --   -0.29214  -0.26398  -0.21323
 Alpha virt. eigenvalues --    0.03264   0.04907   0.05160   0.05800   0.06178
 Alpha virt. eigenvalues --    0.06730   0.08265   0.09410   0.11384   0.11803
 Alpha virt. eigenvalues --    0.12659   0.12677   0.13069   0.13713   0.14208

 Mulliken charges:
               1
     1  C   -0.777062
     2  C   -4.604705
     3  C    2.668237
     4  C   -1.430459
     5  C   -1.369960
     6  C    1.997948
     7  H    1.525308
     8  H    1.730964
     9  F    0.822093
    10  H    1.481115
    11  H    1.842657
    12  O   -4.470132
    13  C   -3.539950
    14  H    1.426660
    15  H    1.348643
    16  H    1.348643
 Sum of Mulliken charges =   0.00000

 Dipole moment (field-independent basis, Debye):
    X=              1.6246    Y=              1.5987    Z=             -0.0000  Tot=              2.2793

 Test job not archived.
 1\1\GINC-SE339\SP\RHF\Aug-CC-pVDZ\C7H7F1O1\OHZDE\08-Apr-2025\0\\#t hf
 aug-cc-pvdz iop(5/13=1,5/36=2,99/5=2) pseudo=read geom=check guess=(re
 ad,tcheck) scf=(maxcycle=1)\\title\\0,1\C,0,0.872711,-2.194993,0.\C,0,
 -0.494039,-1.905039,0.\C,0,-0.911281,-0.590049,0.\C,0,1.791825,-1.1545
 39,0.\C,0,1.362747,0.175548,0.\C,0,0.,0.47794,0.\H,0,1.205085,-3.22570
 8,0.\H,0,-1.244523,-2.686127,0.\F,0,-2.22976,-0.306595,0.\H,0,2.854684
 ,-1.365825,0.\H,0,2.094802,0.971785,0.\O,0,-0.539135,1.724041,0.\C,0,0
 .345399,2.835337,0.\H,0,-0.290564,3.718713,0.\H,0,0.978631,2.844481,-0

 Normal termination of Gaussian 16 at Tue Apr  8 22:43:19 2025.
