 Gaussian 16, Revision C.01,

 ----------------------------------------------------------------------
 #t hf aug-cc-pvdz symm=none int=(grid=ultrafine) guess=(read,tcheck) s
 table=(opt,rrhf)
 ----------------------------------------------------------------------
 -----
 title
 -----
 Symbolic Z-matrix:
 Charge =  0 Multiplicity = 1

 SCF Done:  E(RHF) =  -1115.33109257     A.U. after   13 cycles
 Normal termination of Gaussian 16 at Wed Apr  9 00:03:49 2025.
 Gaussian 16:  ES64L-G16RevC.01  3-Jul-2019

 ----------------------------------------------------------------------
 #t hf aug-cc-pvdz iop(5/13=1,5/36=2,99/5=2) pseudo=read geom=check gue
 ss=(read,tcheck) scf=(maxcycle=1)
 ----------------------------------------------------------------------
 -----
 title
 -----
 Structure from the checkpoint file:  "BDE49_nonexpt_217_mol1.chk"
 Charge =  0 Multiplicity = 1

                         Standard orientation:
 ---------------------------------------------------------------------
 Center     Atomic      Atomic             Coordinates (Angstroms)
 Number     Number       Type             X           Y           Z
 ---------------------------------------------------------------------
      1         17           0       -1.237390    1.732729    0.158001
      2         17           0       -1.909188   -1.183340   -0.222437
      3          5           0       -0.686394    0.074019    0.026159
      4          6           0        0.839465   -0.309407    0.098903
      5          7           0        1.632020    0.660429   -0.174627
      6          6           0        3.067780    0.475987   -0.247997
      7          1           0        3.528546    1.112417    0.515223
      8          1           0        3.408084    0.864402   -1.212707
      9          1           0        3.433296   -0.549416   -0.127904
     10          6           0        1.261633   -1.738466    0.409187
     11          1           0        0.433933   -2.314338    0.820914
     12          1           0        2.084024   -1.761033    1.127657
     13          1           0        1.598507   -2.253428   -0.496731
 ---------------------------------------------------------------------

 SCF Done:  E(RHF) =  -1116.76243530     A.U. after    2 cycles

 The electronic state is 1-A.
 Alpha  occ. eigenvalues --  -99.89927 -99.89105 -15.75104 -11.43897 -11.39382
 Alpha  occ. eigenvalues --  -11.38038 -10.47263 -10.46411  -9.67230  -9.66783
 Alpha  occ. eigenvalues --   -9.66572  -9.66366  -9.65911  -9.65751  -7.71676
 Alpha  occ. eigenvalues --   -1.43065  -1.36603  -1.29294  -1.11166  -1.01509
 Alpha  occ. eigenvalues --   -0.85448  -0.72810  -0.66758  -0.64667  -0.61503
 Alpha  occ. eigenvalues --   -0.57969  -0.57691  -0.56994  -0.55839  -0.54765
 Alpha  occ. eigenvalues --   -0.51891  -0.49723  -0.45463  -0.39837  -0.35681
 Alpha virt. eigenvalues --    0.02588   0.04338   0.04555   0.04702   0.04974
 Alpha virt. eigenvalues --    0.06239   0.06358   0.06630   0.07037   0.08349
 Alpha virt. eigenvalues --    0.09502   0.11917   0.12228   0.13277   0.14554

 Mulliken charges:
               1
     1  Cl  -1.257657
     2  Cl  -1.197460
     3  B    2.819655
     4  C    1.580148
     5  N   -2.897810
     6  C   -3.192211
     7  H    1.396081
     8  H    1.401952
     9  H    1.514628
    10  C   -3.930856
    11  H    1.302921
    12  H    1.245989
    13  H    1.214620
 Sum of Mulliken charges =  -0.00000

 Dipole moment (field-independent basis, Debye):
    X=              2.5374    Y=             -1.2776    Z=              0.2514  Tot=              2.8520

 Test job not archived.
 1\1\GINC-SE345\SP\RHF\Aug-CC-pVDZ\C3H6B1Cl2N1\OHZDE\09-Apr-2025\0\\#t
 hf aug-cc-pvdz iop(5/13=1,5/36=2,99/5=2) pseudo=read geom=check guess=
 (read,tcheck) scf=(maxcycle=1)\\title\\0,1\Cl,0,-1.23739,1.732729,0.15
 8001\Cl,0,-1.909188,-1.18334,-0.222437\B,0,-0.686394,0.074019,0.026159
 \C,0,0.839465,-0.309407,0.098903\N,0,1.63202,0.660429,-0.174627\C,0,3.
 06778,0.475987,-0.247997\H,0,3.528546,1.112417,0.515223\H,0,3.408084,0
 .864402,-1.212707\H,0,3.433296,-0.549416,-0.127904\C,0,1.261633,-1.738
 466,0.409187\H,0,0.433933,-2.314338,0.820914\H,0,2.084024,-1.761033,1.

 Normal termination of Gaussian 16 at Wed Apr  9 00:03:54 2025.
