 Gaussian 16, Revision C.01,

 ----------------------------------------------------------------------
 #t hf aug-cc-pvdz symm=none int=(grid=ultrafine) guess=(read,tcheck) s
 table=(opt,rrhf)
 ----------------------------------------------------------------------
 -----
 title
 -----
 Symbolic Z-matrix:
 Charge =  0 Multiplicity = 1

 SCF Done:  E(RHF) =  -302.378543356     A.U. after   12 cycles
 Normal termination of Gaussian 16 at Wed Apr  9 00:32:15 2025.
 Gaussian 16:  ES64L-G16RevC.01  3-Jul-2019

 ----------------------------------------------------------------------
 #t hf aug-cc-pvdz iop(5/13=1,5/36=2,99/5=2) pseudo=read geom=check gue
 ss=(read,tcheck) scf=(maxcycle=1)
 ----------------------------------------------------------------------
 -----
 title
 -----
 Structure from the checkpoint file:  "BDE49_nonexpt_370_mol1.chk"
 Charge =  0 Multiplicity = 1

                         Standard orientation:
 ---------------------------------------------------------------------
 Center     Atomic      Atomic             Coordinates (Angstroms)
 Number     Number       Type             X           Y           Z
 ---------------------------------------------------------------------
      1          9           0       -1.762558   -0.673022   -0.000045
      2          9           0       -0.698926    1.311867   -0.000042
      3          5           0       -0.606077   -0.014838    0.000066
      4          6           0        0.760509   -0.764874    0.000035
      5          6           0        2.013660    0.122514    0.000021
      6          1           0        0.764716   -1.441956    0.865027
      7          1           0        2.041581    0.770596   -0.879382
      8          1           0        2.926135   -0.478528    0.000002
      9          1           0        2.041609    0.770584    0.879432
     10          1           0        0.764689   -1.441945   -0.864966
 ---------------------------------------------------------------------

 SCF Done:  E(RHF) =  -303.573230544     A.U. after    2 cycles

 The electronic state is 1-A.
 Alpha  occ. eigenvalues --  -29.25200 -29.25079 -11.39916 -11.34913  -7.68912
 Alpha  occ. eigenvalues --   -1.23613  -1.06735  -0.89364  -0.73999  -0.62900
 Alpha  occ. eigenvalues --   -0.61782  -0.52504  -0.51304  -0.50714  -0.45614
 Alpha  occ. eigenvalues --   -0.44129  -0.43584  -0.33574  -0.32116  -0.25872
 Alpha virt. eigenvalues --    0.02972   0.03946   0.04541   0.05500   0.06503
 Alpha virt. eigenvalues --    0.07838   0.08152   0.08427   0.09806   0.13269
 Alpha virt. eigenvalues --    0.14732   0.15000   0.16584   0.16706   0.18177

 Mulliken charges:
               1
     1  F    0.194902
     2  F   -0.806118
     3  B    2.256236
     4  C   -4.563051
     5  C   -3.203691
     6  H    1.193796
     7  H    1.282729
     8  H    1.168732
     9  H    1.282760
    10  H    1.193705
 Sum of Mulliken charges =   0.00000

 Dipole moment (field-independent basis, Debye):
    X=             -1.5661    Y=              0.9947    Z=             -0.0002  Tot=              1.8553

 Test job not archived.
 1\1\GINC-SE404\SP\RHF\Aug-CC-pVDZ\C2H5B1F2\OHZDE\09-Apr-2025\0\\#t hf
 aug-cc-pvdz iop(5/13=1,5/36=2,99/5=2) pseudo=read geom=check guess=(re
 ad,tcheck) scf=(maxcycle=1)\\title\\0,1\F,0,-1.762558,-0.673022,-0.000
 045\F,0,-0.698926,1.311867,-0.000042\B,0,-0.606077,-0.014838,0.000066\
 C,0,0.760509,-0.764874,0.000035\C,0,2.01366,0.122514,0.000021\H,0,0.76
 4716,-1.441956,0.865027\H,0,2.041581,0.770596,-0.879382\H,0,2.926135,-
 0.478528,0.000002\H,0,2.041609,0.770584,0.879432\H,0,0.764689,-1.44194
 5,-0.864966\\Version=ES64L-G16RevC.01\State=1-A\HF=-303.5732305\RMSD=3

 Normal termination of Gaussian 16 at Wed Apr  9 00:32:18 2025.
