 Gaussian 16, Revision C.01,

 ----------------------------------------------------------------------
 #t hf aug-cc-pvdz symm=none int=(grid=ultrafine) guess=(read,tcheck) s
 table=(opt,rrhf)
 ----------------------------------------------------------------------
 -----
 title
 -----
 Symbolic Z-matrix:
 Charge =  0 Multiplicity = 1

 SCF Done:  E(RHF) =  -1158.60377779     A.U. after   15 cycles
 Normal termination of Gaussian 16 at Wed Apr  9 00:23:07 2025.
 Gaussian 16:  ES64L-G16RevC.01  3-Jul-2019

 ----------------------------------------------------------------------
 #t hf aug-cc-pvdz iop(5/13=1,5/36=2,99/5=2) pseudo=read geom=check gue
 ss=(read,tcheck) scf=(maxcycle=1)
 ----------------------------------------------------------------------
 -----
 title
 -----
 Structure from the checkpoint file:  "BDE49_nonexpt_2670_mol1.chk"
 Charge =  0 Multiplicity = 1

                         Standard orientation:
 ---------------------------------------------------------------------
 Center     Atomic      Atomic             Coordinates (Angstroms)
 Number     Number       Type             X           Y           Z
 ---------------------------------------------------------------------
      1          9           0       -1.847117    1.166396    0.375458
      2         16           0       -1.550313   -0.260185   -0.428380
      3         16           0        0.458528   -0.597689    0.154085
      4          8           0        0.690696   -1.891287   -0.415606
      5          8           0        1.325557    0.423731   -0.722888
      6          6           0        1.429199    1.805729   -0.276073
      7          1           0        2.187016    2.243006   -0.921454
      8          1           0        1.740477    1.839038    0.766572
      9          1           0        0.474022    2.313558   -0.411856
     10          8           0        0.623236   -0.282638    1.542589
 ---------------------------------------------------------------------

 SCF Done:  E(RHF) =  -1160.55907271     A.U. after    2 cycles

 The electronic state is 1-A.
 Alpha  occ. eigenvalues --  -75.95781 -75.81263 -29.31433 -21.13072 -21.09646
 Alpha  occ. eigenvalues --  -21.09472 -13.59404 -13.49356 -13.39271 -13.24622
 Alpha  occ. eigenvalues --  -13.18353 -13.12645 -11.45184  -8.30938  -8.15185
 Alpha  occ. eigenvalues --   -1.94277  -1.76366  -1.69935  -1.25894  -1.07051
 Alpha  occ. eigenvalues --   -0.92333  -0.73362  -0.67378  -0.66938  -0.63373
 Alpha  occ. eigenvalues --   -0.59963  -0.53648  -0.49007  -0.46597  -0.44445
 Alpha  occ. eigenvalues --   -0.43613  -0.42310  -0.39853  -0.39174  -0.36350
 Alpha  occ. eigenvalues --   -0.28508  -0.22354
 Alpha virt. eigenvalues --    0.02877   0.05527   0.05904   0.06151   0.08725
 Alpha virt. eigenvalues --    0.10317   0.10847   0.12083   0.13219   0.13647
 Alpha virt. eigenvalues --    0.14563   0.15193   0.16390   0.17134   0.18457

 Mulliken charges:
               1
     1  F   -0.243738
     2  S    0.562610
     3  S    6.187952
     4  O   -2.431424
     5  O   -2.904432
     6  C   -2.826122
     7  H    1.298657
     8  H    1.394167
     9  H    1.399706
    10  O   -2.437377
 Sum of Mulliken charges =   0.00000

 Dipole moment (field-independent basis, Debye):
    X=             -1.6606    Y=              4.6288    Z=             -0.0845  Tot=              4.9184

 Test job not archived.
 1\1\GINC-SE099\SP\RHF\Aug-CC-pVDZ\C1H3F1O3S2\OHZDE\09-Apr-2025\0\\#t h
 f aug-cc-pvdz iop(5/13=1,5/36=2,99/5=2) pseudo=read geom=check guess=(
 read,tcheck) scf=(maxcycle=1)\\title\\0,1\F,0,-1.847117,1.166396,0.375
 458\S,0,-1.550313,-0.260185,-0.42838\S,0,0.458528,-0.597689,0.154085\O
 ,0,0.690696,-1.891287,-0.415606\O,0,1.325557,0.423731,-0.722888\C,0,1.
 429199,1.805729,-0.276073\H,0,2.187016,2.243006,-0.921454\H,0,1.740477
 ,1.839038,0.766572\H,0,0.474022,2.313558,-0.411856\O,0,0.623236,-0.282
 638,1.542589\\Version=ES64L-G16RevC.01\State=1-A\HF=-1160.5590727\RMSD

 Normal termination of Gaussian 16 at Wed Apr  9 00:23:12 2025.
