 Gaussian 16, Revision C.01,

 ----------------------------------------------------------------------
 #t hf aug-cc-pvdz symm=none int=(grid=ultrafine) guess=(read,tcheck) s
 table=(opt,rrhf)
 ----------------------------------------------------------------------
 -----
 title
 -----
 Symbolic Z-matrix:
 Charge =  0 Multiplicity = 1

 SCF Done:  E(RHF) =  -694.322989426     A.U. after   12 cycles
 Normal termination of Gaussian 16 at Tue Apr  8 22:50:27 2025.
 Gaussian 16:  ES64L-G16RevC.01  3-Jul-2019

 ----------------------------------------------------------------------
 #t hf aug-cc-pvdz iop(5/13=1,5/36=2,99/5=2) pseudo=read geom=check gue
 ss=(read,tcheck) scf=(maxcycle=1)
 ----------------------------------------------------------------------
 -----
 title
 -----
 Structure from the checkpoint file:  "BDE49_expt_1666_mol1.chk"
 Charge =  0 Multiplicity = 1

                         Standard orientation:
 ---------------------------------------------------------------------
 Center     Atomic      Atomic             Coordinates (Angstroms)
 Number     Number       Type             X           Y           Z
 ---------------------------------------------------------------------
      1          6           0       -1.364242    0.403663    0.390743
      2          6           0       -0.019973    0.792023   -0.217277
      3          6           0        1.180775   -0.024904    0.268362
      4          1           0        0.141074    1.849805    0.031459
      5          1           0       -0.097766    0.738223   -1.308897
      6          6           0       -2.499065    1.341066    0.008136
      7          1           0       -2.276690    2.349598    0.371849
      8          1           0       -3.443880    1.017880    0.447071
      9          1           0       -2.619138    1.384723   -1.076759
     10         17           0       -1.820637   -1.309035   -0.124412
     11          1           0       -1.281408    0.326374    1.476024
     12          6           0        2.507566    0.442136   -0.341699
     13          1           0        1.022006   -1.081144    0.029761
     14          1           0        1.243111    0.038921    1.362531
     15          6           0        3.710610   -0.371302    0.143665
     16          1           0        2.664425    1.501954   -0.106069
     17          1           0        2.442394    0.379911   -1.434589
     18          1           0        3.823457   -0.301169    1.230027
     19          1           0        4.640248   -0.017495   -0.310044
     20          1           0        3.598968   -1.430083   -0.108927
 ---------------------------------------------------------------------

 SCF Done:  E(RHF) =  -695.805762947     A.U. after    2 cycles

 The electronic state is 1-A.
 Alpha  occ. eigenvalues --  -99.86316 -11.46777 -11.42601 -11.40657 -11.38575
 Alpha  occ. eigenvalues --  -11.37278 -11.34794 -10.43563  -9.63522  -9.62960
 Alpha  occ. eigenvalues --   -9.62760  -1.34844  -1.23047  -1.14283  -1.05251
 Alpha  occ. eigenvalues --   -0.94273  -0.84930  -0.82809  -0.67985  -0.63481
 Alpha  occ. eigenvalues --   -0.61955  -0.60186  -0.57241  -0.55250  -0.52983
 Alpha  occ. eigenvalues --   -0.51936  -0.50534  -0.48495  -0.47216  -0.45804
 Alpha  occ. eigenvalues --   -0.45555  -0.44640  -0.40375
 Alpha virt. eigenvalues --    0.04000   0.04628   0.04936   0.05709   0.05991
 Alpha virt. eigenvalues --    0.06034   0.06288   0.07039   0.07693   0.07961
 Alpha virt. eigenvalues --    0.08605   0.09110   0.09536   0.10592   0.11233

 Mulliken charges:
               1
     1  C   -2.654166
     2  C   -1.952905
     3  C   -2.362406
     4  H    1.597427
     5  H    1.560054
     6  C   -4.135429
     7  H    1.294852
     8  H    1.188780
     9  H    1.313848
    10  Cl  -0.000477
    11  H    1.818402
    12  C   -3.020330
    13  H    1.572501
    14  H    1.493754
    15  C   -4.361151
    16  H    1.449612
    17  H    1.474292
    18  H    1.332541
    19  H    1.068702
    20  H    1.322098
 Sum of Mulliken charges =   0.00000

 Dipole moment (field-independent basis, Debye):
    X=              0.8807    Y=              2.4933    Z=              0.5586  Tot=              2.7026

 Test job not archived.
 1\1\GINC-SE120\SP\RHF\Aug-CC-pVDZ\C6H13Cl1\OHZDE\08-Apr-2025\0\\#t hf
 aug-cc-pvdz iop(5/13=1,5/36=2,99/5=2) pseudo=read geom=check guess=(re
 ad,tcheck) scf=(maxcycle=1)\\title\\0,1\C,0,-1.364242,0.403663,0.39074
 3\C,0,-0.019973,0.792023,-0.217277\C,0,1.180775,-0.024904,0.268362\H,0
 ,0.141074,1.849805,0.031459\H,0,-0.097766,0.738223,-1.308897\C,0,-2.49
 9065,1.341066,0.008136\H,0,-2.27669,2.349598,0.371849\H,0,-3.44388,1.0
 1788,0.447071\H,0,-2.619138,1.384723,-1.076759\Cl,0,-1.820637,-1.30903
 5,-0.124412\H,0,-1.281408,0.326374,1.476024\C,0,2.507566,0.442136,-0.3

 Normal termination of Gaussian 16 at Tue Apr  8 22:50:36 2025.
