 Gaussian 16, Revision C.01,

 ----------------------------------------------------------------------
 #t hf aug-cc-pvdz symm=none int=(grid=ultrafine) guess=(read,tcheck) s
 table=opt
 ----------------------------------------------------------------------
 -----
 title
 -----
 Symbolic Z-matrix:
 Charge =  0 Multiplicity = 2

 SCF Done:  E(UHF) =  -912.758133447     A.U. after   19 cycles
 Normal termination of Gaussian 16 at Tue Apr  8 23:01:56 2025.
 Gaussian 16:  ES64L-G16RevC.01  3-Jul-2019

 ----------------------------------------------------------------------
 #t hf aug-cc-pvdz iop(5/13=1,5/36=2,99/5=2) pseudo=read geom=check gue
 ss=(read,tcheck) scf=(maxcycle=1)
 ----------------------------------------------------------------------
 -----
 title
 -----
 Structure from the checkpoint file:  "BDE49_expt_1969_mol2.chk"
 Charge =  0 Multiplicity = 2

                         Standard orientation:
 ---------------------------------------------------------------------
 Center     Atomic      Atomic             Coordinates (Angstroms)
 Number     Number       Type             X           Y           Z
 ---------------------------------------------------------------------
      1         16           0       -1.747307    0.000001   -0.621586
      2         16           0       -0.556214   -0.000005    0.968978
      3          6           0        1.206445    0.000002    0.348487
      4          6           0        1.519717   -1.275549   -0.430015
      5          1           0        0.917716   -1.327728   -1.340146
      6          1           0        1.321987   -2.169615    0.164839
      7          1           0        2.575130   -1.282223   -0.718879
      8          6           0        1.519706    1.275555   -0.430015
      9          1           0        1.751499    0.000004    1.299361
     10          1           0        0.917705    1.327729   -1.340146
     11          1           0        2.575119    1.282238   -0.718879
     12          1           0        1.321970    2.169619    0.164839
 ---------------------------------------------------------------------

 SCF Done:  E(UHF) =  -913.800899768     A.U. after    2 cycles

 The electronic state is 2-A.
 Alpha  occ. eigenvalues --  -75.72143 -75.71176 -13.14540 -13.10177 -13.08629
 Alpha  occ. eigenvalues --  -13.08418 -13.05149 -13.04490 -11.44255 -11.39260
 Alpha  occ. eigenvalues --  -11.37064  -8.06174  -8.04921  -1.30195  -1.16714
 Alpha  occ. eigenvalues --   -1.01716  -0.97328  -0.81886  -0.64699  -0.60812
 Alpha  occ. eigenvalues --   -0.57734  -0.54914  -0.49732  -0.48270  -0.41702
 Alpha  occ. eigenvalues --   -0.38040  -0.35994  -0.24846  -0.20209
 Alpha virt. eigenvalues --    0.02913   0.04339   0.04850   0.06048   0.06630
 Alpha virt. eigenvalues --    0.06760   0.07535   0.07821   0.08304   0.11582
 Alpha virt. eigenvalues --    0.13460   0.14420   0.15143   0.15285   0.16106

  Beta  occ. eigenvalues --  -75.71851 -75.70321 -13.14342 -13.10090 -13.08198
  Beta  occ. eigenvalues --  -13.06530 -13.04010 -13.00131 -11.44298 -11.39237
  Beta  occ. eigenvalues --  -11.37055  -8.05843  -8.03961  -1.29053  -1.14129
  Beta  occ. eigenvalues --   -1.01646  -0.92346  -0.80254  -0.64698  -0.60708
  Beta  occ. eigenvalues --   -0.57490  -0.54864  -0.49616  -0.48070  -0.41488
  Beta  occ. eigenvalues --   -0.34699  -0.30777  -0.23701
  Beta virt. eigenvalues --    0.02922   0.04449   0.04876   0.06074   0.06158
  Beta virt. eigenvalues --    0.06769   0.06786   0.07616   0.08379   0.08649
  Beta virt. eigenvalues --    0.11653   0.13495   0.14522   0.15137   0.15578

 Mulliken charges and spin densities:
               1          2
     1  S   -0.230525   0.859998
     2  S    0.063078   0.213459
     3  C   -1.334364  -0.056994
     4  C   -3.875099   0.006725
     5  H    1.304506  -0.009135
     6  H    1.261355  -0.002758
     7  H    1.230021  -0.002244
     8  C   -3.875093   0.006725
     9  H    1.660236  -0.001639
    10  H    1.304509  -0.009135
    11  H    1.230021  -0.002244
    12  H    1.261355  -0.002758
 Sum of Mulliken charges =  -0.00000   1.00000

 Dipole moment (field-independent basis, Debye):
    X=              0.4940    Y=              0.0000    Z=              0.5416  Tot=              0.7331
                          Isotropic Fermi Contact Couplings
        Atom                 a.u.       MegaHertz       Gauss      10(-4) cm-1
     1  S(33)              0.27540      94.59191      33.75274      31.55246
     2  S(33)              0.16242      55.78524      19.90556      18.60795
     3  C(13)             -0.00693      -7.79066      -2.77990      -2.59868
     4  C(13)              0.00485       5.45398       1.94612       1.81925
     5  H(1)              -0.00016      -0.70616      -0.25197      -0.23555
     6  H(1)              -0.00003      -0.13356      -0.04766      -0.04455
     7  H(1)              -0.00013      -0.56493      -0.20158      -0.18844
     8  C(13)              0.00485       5.45382       1.94606       1.81920

 Normal termination of Gaussian 16 at Tue Apr  8 23:02:02 2025.
