 Gaussian 16, Revision C.01,

 ----------------------------------------------------------------------
 #t hf aug-cc-pvdz symm=none int=(grid=ultrafine) guess=(read,tcheck) s
 table=(opt,rrhf)
 ----------------------------------------------------------------------
 -----
 title
 -----
 Symbolic Z-matrix:
 Charge =  0 Multiplicity = 1

 SCF Done:  E(RHF) =  -341.292756012     A.U. after   17 cycles
 Normal termination of Gaussian 16 at Tue Apr  8 23:21:52 2025.
 Gaussian 16:  ES64L-G16RevC.01  3-Jul-2019

 ----------------------------------------------------------------------
 #t hf aug-cc-pvdz iop(5/13=1,5/36=2,99/5=2) pseudo=read geom=check gue
 ss=(read,tcheck) scf=(maxcycle=1)
 ----------------------------------------------------------------------
 -----
 title
 -----
 Structure from the checkpoint file:  "BDE49_nonexpt_1157_mol1.chk"
 Charge =  0 Multiplicity = 1

                         Standard orientation:
 ---------------------------------------------------------------------
 Center     Atomic      Atomic             Coordinates (Angstroms)
 Number     Number       Type             X           Y           Z
 ---------------------------------------------------------------------
      1          9           0       -1.585653    0.813969    0.080553
      2          8           0       -1.153571   -0.589252   -0.254969
      3          6           0        1.062171   -0.099111   -0.015289
      4          8           0        2.087428    0.427648   -0.073516
      5          7           0        0.061000   -0.776889    0.284948
 ---------------------------------------------------------------------

 SCF Done:  E(RHF) =  -342.615137287     A.U. after    2 cycles

 The electronic state is 1-A.
 Alpha  occ. eigenvalues --  -29.31336 -21.23851 -21.19787 -15.84257 -11.63112
 Alpha  occ. eigenvalues --   -1.91798  -1.82990  -1.30729  -0.83316  -0.71232
 Alpha  occ. eigenvalues --   -0.67708  -0.67022  -0.59142  -0.52327  -0.46874
 Alpha  occ. eigenvalues --   -0.39624  -0.33469  -0.28161  -0.24432
 Alpha virt. eigenvalues --    0.06221   0.09354   0.09629   0.11458   0.12164
 Alpha virt. eigenvalues --    0.15375   0.16538   0.17640   0.19094   0.21115
 Alpha virt. eigenvalues --    0.22362   0.23795   0.25078   0.27117   0.27649

 Mulliken charges:
               1
     1  F   -0.010464
     2  O   -1.484575
     3  C    3.834912
     4  O   -2.045282
     5  N   -0.294591
 Sum of Mulliken charges =   0.00000

 Dipole moment (field-independent basis, Debye):
    X=              0.6229    Y=              2.0369    Z=             -0.4027  Tot=              2.1677

 Test job not archived.
 1\1\GINC-SE195\SP\RHF\Aug-CC-pVDZ\C1F1N1O2\OHZDE\08-Apr-2025\0\\#t hf
 aug-cc-pvdz iop(5/13=1,5/36=2,99/5=2) pseudo=read geom=check guess=(re
 ad,tcheck) scf=(maxcycle=1)\\title\\0,1\F,0,-1.585653,0.813969,0.08055
 3\O,0,-1.153571,-0.589252,-0.254969\C,0,1.062171,-0.099111,-0.015289\O
 ,0,2.087428,0.427648,-0.073516\N,0,0.061,-0.776889,0.284948\\Version=E
 S64L-G16RevC.01\State=1-A\HF=-342.6151373\RMSD=4.992e-02\Dipole=0.2450
 519,0.8013728,-0.1584483\Quadrupole=1.9567531,-1.2126537,-0.7440995,-0
 .6389539,-0.1496353,0.4194133\PG=C01 [X(C1F1N1O2)]\\@

 Normal termination of Gaussian 16 at Tue Apr  8 23:21:54 2025.
