 Gaussian 16, Revision C.01,

 ----------------------------------------------------------------------
 #t hf aug-cc-pvdz symm=none int=(grid=ultrafine) guess=(read,tcheck) s
 table=(opt,rrhf)
 ----------------------------------------------------------------------
 -----
 title
 -----
 Symbolic Z-matrix:
 Charge =  0 Multiplicity = 1

 SCF Done:  E(RHF) =  -694.071033176     A.U. after   12 cycles
 Normal termination of Gaussian 16 at Wed Apr  9 00:10:23 2025.
 Gaussian 16:  ES64L-G16RevC.01  3-Jul-2019

 ----------------------------------------------------------------------
 #t hf aug-cc-pvdz iop(5/13=1,5/36=2,99/5=2) pseudo=read geom=check gue
 ss=(read,tcheck) scf=(maxcycle=1)
 ----------------------------------------------------------------------
 -----
 title
 -----
 Structure from the checkpoint file:  "BDE49_nonexpt_2338_mol1.chk"
 Charge =  0 Multiplicity = 1

                         Standard orientation:
 ---------------------------------------------------------------------
 Center     Atomic      Atomic             Coordinates (Angstroms)
 Number     Number       Type             X           Y           Z
 ---------------------------------------------------------------------
      1         14           0        1.684291   -0.436190   -0.000000
      2         14           0       -0.159191    1.028767    0.000011
      3          6           0       -1.769567   -0.047915    0.000013
      4          1           0       -0.204804    1.908345   -1.196967
      5          1           0       -0.204798    1.908336    1.196995
      6          1           0        1.648566   -1.287379   -1.210596
      7          1           0        1.648575   -1.287385    1.210592
      8          1           0        2.943626    0.346560   -0.000002
      9          8           0       -1.725164   -1.257501   -0.000029
     10          1           0       -2.763841    0.462947   -0.000021
 ---------------------------------------------------------------------

 SCF Done:  E(RHF) =  -694.867950997     A.U. after    2 cycles

 The electronic state is 1-A.
 Alpha  occ. eigenvalues --  -76.23046 -76.22355 -21.08115 -11.45744  -5.56693
 Alpha  occ. eigenvalues --   -5.55755  -2.19862  -2.18652  -2.18140  -2.17826
 Alpha  occ. eigenvalues --   -2.17793  -2.16841  -1.71208  -0.90170  -0.79975
 Alpha  occ. eigenvalues --   -0.71764  -0.59452  -0.50675  -0.50604  -0.47331
 Alpha  occ. eigenvalues --   -0.47207  -0.44780  -0.36365  -0.27808
 Alpha virt. eigenvalues --    0.03802   0.04339   0.05096   0.06485   0.06655
 Alpha virt. eigenvalues --    0.07696   0.08130   0.08623   0.09335   0.09650
 Alpha virt. eigenvalues --    0.09783   0.10093   0.11249   0.12737   0.13286

 Mulliken charges:
               1
     1  Si   4.610606
     2  Si   4.598464
     3  C   -0.640069
     4  H   -1.736213
     5  H   -1.736211
     6  H   -1.478351
     7  H   -1.478348
     8  H   -1.535493
     9  O   -1.981594
    10  H    1.377210
 Sum of Mulliken charges =   0.00000

 Dipole moment (field-independent basis, Debye):
    X=              0.2469    Y=              0.3557    Z=             -0.0000  Tot=              0.4330

 Test job not archived.
 1\1\GINC-SE099\SP\RHF\Aug-CC-pVDZ\C1H6O1Si2\OHZDE\09-Apr-2025\0\\#t hf
  aug-cc-pvdz iop(5/13=1,5/36=2,99/5=2) pseudo=read geom=check guess=(r
 ead,tcheck) scf=(maxcycle=1)\\title\\0,1\Si,0,1.684291,-0.43619,0.\Si,
 0,-0.159191,1.028767,0.000011\C,0,-1.769567,-0.047915,0.000013\H,0,-0.
 204804,1.908345,-1.196967\H,0,-0.204798,1.908336,1.196995\H,0,1.648566
 ,-1.287379,-1.210596\H,0,1.648575,-1.287385,1.210592\H,0,2.943626,0.34
 656,-0.000002\O,0,-1.725164,-1.257501,-0.000029\H,0,-2.763841,0.462947
 ,-0.000021\\Version=ES64L-G16RevC.01\State=1-A\HF=-694.867951\RMSD=9.0

 Normal termination of Gaussian 16 at Wed Apr  9 00:10:26 2025.
