 Gaussian 16, Revision C.01,

 ----------------------------------------------------------------------
 #t hf aug-cc-pvdz symm=none int=(grid=ultrafine) guess=(read,tcheck) s
 table=(opt,rrhf)
 ----------------------------------------------------------------------
 -----
 title
 -----
 Symbolic Z-matrix:
 Charge =  0 Multiplicity = 1

 SCF Done:  E(RHF) =  -878.141724556     A.U. after   12 cycles

 1\1\GINC-SE222\Stability\RHF\Aug-CC-pVDZ\F3H3Si2\OHZDE\09-Apr-2025\0\\
 #t hf aug-cc-pvdz symm=none int=(grid=ultrafine) guess=(read,tcheck) s
 table=(opt,rrhf)\\title\\0,1\Si,0,1.310388,-0.513601,-0.252868\Si,0,-0
 .888492,0.087937,0.366335\F,0,-1.853833,-1.117831,-0.072542\F,0,2.3204
 38,0.619925,0.304968\F,0,-1.345611,1.385385,-0.457207\H,0,1.450862,-0.
 585017,-1.722236\H,0,-1.134272,0.360974,1.793701\H,0,1.687913,-1.80397
 3,0.363023\\Version=ES64L-G16RevC.01\HF=-878.1417246\RMSD=3.663e-09\Di
 pole=0.2588348,-0.4726566,0.2277269\Quadrupole=-2.7406664,-0.1498772,2

 Normal termination of Gaussian 16 at Wed Apr  9 00:09:34 2025.
 Gaussian 16:  ES64L-G16RevC.01  3-Jul-2019

 ----------------------------------------------------------------------
 #t hf aug-cc-pvdz iop(5/13=1,5/36=2,99/5=2) pseudo=read geom=check gue
 ss=(read,tcheck) scf=(maxcycle=1)
 ----------------------------------------------------------------------
 -----
 title
 -----
 Structure from the checkpoint file:  "BDE49_nonexpt_2311_mol1.chk"
 Charge =  0 Multiplicity = 1

                         Standard orientation:
 ---------------------------------------------------------------------
 Center     Atomic      Atomic             Coordinates (Angstroms)
 Number     Number       Type             X           Y           Z
 ---------------------------------------------------------------------
      1         14           0        1.310388   -0.513601   -0.252868
      2         14           0       -0.888492    0.087937    0.366335
      3          9           0       -1.853833   -1.117831   -0.072542
      4          9           0        2.320438    0.619925    0.304968
      5          9           0       -1.345611    1.385385   -0.457207
      6          1           0        1.450862   -0.585017   -1.722236
      7          1           0       -1.134272    0.360974    1.793701
      8          1           0        1.687913   -1.803973    0.363023
 ---------------------------------------------------------------------

 SCF Done:  E(RHF) =  -879.468357413     A.U. after    2 cycles

 The electronic state is 1-A.
 Alpha  occ. eigenvalues --  -76.29796 -76.27483 -29.28765 -29.28659 -29.27916
 Alpha  occ. eigenvalues --   -5.65069  -5.61703  -2.30005  -2.27386  -2.26278
 Alpha  occ. eigenvalues --   -2.24231  -2.22680  -2.21707  -0.96378  -0.87550
 Alpha  occ. eigenvalues --   -0.70429  -0.61024  -0.58697  -0.52739  -0.49651
 Alpha  occ. eigenvalues --   -0.41710  -0.38388  -0.35777  -0.35315  -0.34841
 Alpha  occ. eigenvalues --   -0.34484  -0.33804  -0.29446  -0.25754
 Alpha virt. eigenvalues --    0.04542   0.05283   0.06741   0.07597   0.07655
 Alpha virt. eigenvalues --    0.08411   0.08765   0.09193   0.09596   0.11526
 Alpha virt. eigenvalues --    0.14865   0.15913   0.18011   0.19313   0.21524

 Mulliken charges:
               1
     1  Si   4.243442
     2  Si   3.729946
     3  F   -0.839022
     4  F   -0.972745
     5  F   -0.824171
     6  H   -1.683038
     7  H   -1.956139
     8  H   -1.698274
 Sum of Mulliken charges =   0.00000

 Dipole moment (field-independent basis, Debye):
    X=             -0.5414    Y=              1.8508    Z=             -1.0758  Tot=              2.2082

 Test job not archived.
 1\1\GINC-SE222\SP\RHF\Aug-CC-pVDZ\F3H3Si2\OHZDE\09-Apr-2025\0\\#t hf a
 ug-cc-pvdz iop(5/13=1,5/36=2,99/5=2) pseudo=read geom=check guess=(rea
 d,tcheck) scf=(maxcycle=1)\\title\\0,1\Si,0,1.310388,-0.513601,-0.2528
 68\Si,0,-0.888492,0.087937,0.366335\F,0,-1.853833,-1.117831,-0.072542\
 F,0,2.320438,0.619925,0.304968\F,0,-1.345611,1.385385,-0.457207\H,0,1.
 450862,-0.585017,-1.722236\H,0,-1.134272,0.360974,1.793701\H,0,1.68791
 3,-1.803973,0.363023\\Version=ES64L-G16RevC.01\State=1-A\HF=-879.46835
 74\RMSD=8.146e-02\Dipole=-0.2130069,0.7281672,-0.4232422\Quadrupole=3.

 Normal termination of Gaussian 16 at Wed Apr  9 00:09:36 2025.
