 Gaussian 16, Revision C.01,

 ----------------------------------------------------------------------
 #t hf aug-cc-pvdz symm=none int=(grid=ultrafine) guess=(read,tcheck) s
 table=opt
 ----------------------------------------------------------------------
 -----
 title
 -----
 Symbolic Z-matrix:
 Charge =  0 Multiplicity = 2

 SCF Done:  E(UHF) =  -721.515388871     A.U. after   17 cycles
 Normal termination of Gaussian 16 at Tue Apr  8 23:46:15 2025.
 Gaussian 16:  ES64L-G16RevC.01  3-Jul-2019

 ----------------------------------------------------------------------
 #t hf aug-cc-pvdz iop(5/13=1,5/36=2,99/5=2) pseudo=read geom=check gue
 ss=(read,tcheck) scf=(maxcycle=1)
 ----------------------------------------------------------------------
 -----
 title
 -----
 Structure from the checkpoint file:  "BDE49_nonexpt_175_mol2.chk"
 Charge =  0 Multiplicity = 2

                         Standard orientation:
 ---------------------------------------------------------------------
 Center     Atomic      Atomic             Coordinates (Angstroms)
 Number     Number       Type             X           Y           Z
 ---------------------------------------------------------------------
      1         17           0       -1.929686   -0.025580   -0.020243
      2          5           0       -0.382339   -0.771845   -0.092015
      3          6           0        0.972553   -0.062646    0.335492
      4          9           0        1.022248    1.238242   -0.117696
      5          9           0        2.066492   -0.715104   -0.175342
      6          1           0        1.082370   -0.038270    1.428593
 ---------------------------------------------------------------------

 SCF Done:  E(UHF) =  -722.685847171     A.U. after    2 cycles

 The electronic state is 2-A.
 Alpha  occ. eigenvalues --  -99.92795 -29.28852 -29.28791 -11.49596 -10.50081
 Alpha  occ. eigenvalues --   -9.70011  -9.69605  -9.69310  -7.70952  -1.39211
 Alpha  occ. eigenvalues --   -1.28085  -0.84363  -0.79867  -0.74058  -0.66127
 Alpha  occ. eigenvalues --   -0.57555  -0.57142  -0.45063  -0.39939  -0.36566
 Alpha  occ. eigenvalues --   -0.31413  -0.29160  -0.25045  -0.22519
 Alpha virt. eigenvalues --    0.02692   0.03924   0.04243   0.04694   0.06779
 Alpha virt. eigenvalues --    0.10175   0.12326   0.13120   0.14631   0.15617
 Alpha virt. eigenvalues --    0.16430   0.16941   0.19205   0.20796   0.22621

  Beta  occ. eigenvalues --  -99.92727 -29.28818 -29.28740 -11.49441 -10.50002
  Beta  occ. eigenvalues --   -9.69944  -9.69361  -9.69283  -7.68916  -1.38162
  Beta  occ. eigenvalues --   -1.27609  -0.81507  -0.78619  -0.73847  -0.64318
  Beta  occ. eigenvalues --   -0.57303  -0.55524  -0.44246  -0.38472  -0.31634
  Beta  occ. eigenvalues --   -0.30199  -0.25645  -0.22600
  Beta virt. eigenvalues --    0.01950   0.03330   0.04637   0.05418   0.06808
  Beta virt. eigenvalues --    0.07891   0.11129   0.13166   0.13347   0.14822
  Beta virt. eigenvalues --    0.15808   0.16655   0.17077   0.19770   0.21325

 Mulliken charges and spin densities:
               1          2
     1  Cl  -0.769864   0.036658
     2  B    1.522418   0.933936
     3  C   -2.623831   0.015057
     4  F    0.151205   0.031546
     5  F    0.280623  -0.021975
     6  H    1.439450   0.004778
 Sum of Mulliken charges =   0.00000   1.00000

 Dipole moment (field-independent basis, Debye):
    X=              1.7261    Y=              0.9722    Z=             -0.5471  Tot=              2.0552
                          Isotropic Fermi Contact Couplings
        Atom                 a.u.       MegaHertz       Gauss      10(-4) cm-1
     1  Cl(35)             0.11545      50.62235      18.06331      16.88580
     2  B(11)              0.23714     340.13914     121.37010     113.45820
     3  C(13)              0.02659      29.89375      10.66683       9.97148
     4  F(19)              0.00725      30.50272      10.88413      10.17461
     5  F(19)              0.00254      10.68309       3.81199       3.56349
     6  H(1)              -0.00008      -0.37072      -0.13228      -0.12366
 --------------------------------------------------------
       Center         ----  Spin Dipole Couplings  ----

 1\1\GINC-SE453\SP\UHF\Aug-CC-pVDZ\C1H1B1Cl1F2(2)\OHZDE\08-Apr-2025\0\\
 #t hf aug-cc-pvdz iop(5/13=1,5/36=2,99/5=2) pseudo=read geom=check gue
 ss=(read,tcheck) scf=(maxcycle=1)\\title\\0,2\Cl,0,-1.929686,-0.02558,
 -0.020243\B,0,-0.382339,-0.771845,-0.092015\C,0,0.972553,-0.062646,0.3
 35492\F,0,1.022248,1.238242,-0.117696\F,0,2.066492,-0.715104,-0.175342
 \H,0,1.08237,-0.03827,1.428593\\Version=ES64L-G16RevC.01\State=2-A\HF=
 -722.6858472\S2=0.756209\S2-1=0.\S2A=0.750022\RMSD=4.442e-02\Dipole=0.
 6790825,0.382493,-0.2152573\Quadrupole=0.6511547,-0.8274059,0.1762512,

 Normal termination of Gaussian 16 at Tue Apr  8 23:46:17 2025.
