 Gaussian 16, Revision C.01,

 ----------------------------------------------------------------------
 #t hf aug-cc-pvdz symm=none int=(grid=ultrafine) guess=(read,tcheck) s
 table=(opt,rrhf)
 ----------------------------------------------------------------------
 -----
 title
 -----
 Symbolic Z-matrix:
 Charge =  0 Multiplicity = 1

 SCF Done:  E(RHF) =  -379.633366097     A.U. after   13 cycles
 Normal termination of Gaussian 16 at Tue Apr  8 23:03:59 2025.
 Gaussian 16:  ES64L-G16RevC.01  3-Jul-2019

 ----------------------------------------------------------------------
 #t hf aug-cc-pvdz iop(5/13=1,5/36=2,99/5=2) pseudo=read geom=check gue
 ss=(read,tcheck) scf=(maxcycle=1)
 ----------------------------------------------------------------------
 -----
 title
 -----
 Structure from the checkpoint file:  "BDE49_expt_267_mol1.chk"
 Charge =  0 Multiplicity = 1

                         Standard orientation:
 ---------------------------------------------------------------------
 Center     Atomic      Atomic             Coordinates (Angstroms)
 Number     Number       Type             X           Y           Z
 ---------------------------------------------------------------------
      1          6           0        2.342799   -0.767077    0.328269
      2          6           0        1.207731    0.090691   -0.157385
      3          1           0        3.289590   -0.298291    0.068633
      4          1           0        2.277208   -1.765105   -0.109109
      5          1           0        2.269947   -0.879626    1.413282
      6          8           0        1.284112    1.172900   -0.648197
      7          8           0       -0.000009   -0.595522   -0.000061
      8          6           0       -1.207718    0.090735    0.157298
      9          8           0       -1.284059    1.172889    0.648237
     10          6           0       -2.342841   -0.767046   -0.328204
     11          1           0       -2.277171   -1.765084    0.109140
     12          1           0       -2.270143   -0.879566   -1.413230
     13          1           0       -3.289603   -0.298283   -0.068420
 ---------------------------------------------------------------------

 SCF Done:  E(RHF) =  -381.267537191     A.U. after    2 cycles

 The electronic state is 1-A.
 Alpha  occ. eigenvalues --  -21.10930 -21.06968 -21.06951 -11.54422 -11.53829
 Alpha  occ. eigenvalues --  -11.40631 -11.40531  -1.87578  -1.72677  -1.66179
 Alpha  occ. eigenvalues --   -1.14509  -1.10284  -0.86881  -0.71761  -0.64882
 Alpha  occ. eigenvalues --   -0.64777  -0.63432  -0.60367  -0.59329  -0.57144
 Alpha  occ. eigenvalues --   -0.52213  -0.49728  -0.48044  -0.43484  -0.33600
 Alpha  occ. eigenvalues --   -0.31821  -0.28960
 Alpha virt. eigenvalues --    0.02939   0.04742   0.05309   0.05699   0.06209
 Alpha virt. eigenvalues --    0.06835   0.08594   0.11215   0.12180   0.12684
 Alpha virt. eigenvalues --    0.13338   0.13366   0.13915   0.14122   0.14692

 Mulliken charges:
               1
     1  C   -4.266763
     2  C    5.063814
     3  H    1.226065
     4  H    1.309542
     5  H    1.299492
     6  O   -2.943168
     7  O   -3.377920
     8  C    5.063892
     9  O   -2.943221
    10  C   -4.266806
    11  H    1.309490
    12  H    1.299506
    13  H    1.226077
 Sum of Mulliken charges =   0.00000

 Dipole moment (field-independent basis, Debye):
    X=             -0.0001    Y=             -1.9906    Z=              0.0001  Tot=              1.9906

 Test job not archived.
 1\1\GINC-SE221\SP\RHF\Aug-CC-pVDZ\C4H6O3\OHZDE\08-Apr-2025\0\\#t hf au
 g-cc-pvdz iop(5/13=1,5/36=2,99/5=2) pseudo=read geom=check guess=(read
 ,tcheck) scf=(maxcycle=1)\\title\\0,1\C,0,-2.342799,-0.767077,-0.32826
 9\C,0,-1.207731,0.090691,0.157385\H,0,-3.28959,-0.298291,-0.068633\H,0
 ,-2.277208,-1.765105,0.109109\H,0,-2.269947,-0.879626,-1.413282\O,0,-1
 .284112,1.1729,0.648197\O,0,0.000009,-0.595522,0.000061\C,0,1.207718,0
 .090735,-0.157298\O,0,1.284059,1.172889,-0.648237\C,0,2.342841,-0.7670
 46,0.328204\H,0,2.277171,-1.765084,-0.10914\H,0,2.270143,-0.879566,1.4

 Normal termination of Gaussian 16 at Tue Apr  8 23:04:03 2025.
