 Gaussian 16, Revision C.01,

 ----------------------------------------------------------------------
 #t hf aug-cc-pvdz symm=none int=(grid=ultrafine) guess=(read,tcheck) s
 table=(opt,rrhf)
 ----------------------------------------------------------------------
 -----
 title
 -----
 Symbolic Z-matrix:
 Charge =  0 Multiplicity = 1

 SCF Done:  E(RHF) =  -461.888832181     A.U. after   12 cycles
 Normal termination of Gaussian 16 at Wed Apr  9 00:42:53 2025.
 Gaussian 16:  ES64L-G16RevC.01  3-Jul-2019

 ----------------------------------------------------------------------
 #t hf aug-cc-pvdz iop(5/13=1,5/36=2,99/5=2) pseudo=read geom=check gue
 ss=(read,tcheck) scf=(maxcycle=1)
 ----------------------------------------------------------------------
 -----
 title
 -----
 Structure from the checkpoint file:  "BDE49_nonexpt_703_mol1.chk"
 Charge =  0 Multiplicity = 1

                         Standard orientation:
 ---------------------------------------------------------------------
 Center     Atomic      Atomic             Coordinates (Angstroms)
 Number     Number       Type             X           Y           Z
 ---------------------------------------------------------------------
      1          5           0        0.477116    0.083703    0.014407
      2          7           0        1.026734    1.367411    0.009680
      3         15           0       -1.461234   -0.126665   -0.118569
      4          6           0        1.404177   -1.194768    0.001988
      5          1           0        2.468301   -0.955397   -0.100331
      6          1           0        1.137362   -1.878910   -0.810809
      7          1           0        1.283144   -1.767106    0.929047
      8          1           0        0.483181    2.215955    0.035181
      9          1           0        2.023405    1.527697   -0.015637
     10          1           0       -1.858023    0.996367    0.653463
     11          1           0       -1.616646   -1.060409    0.935902
 ---------------------------------------------------------------------

 SCF Done:  E(RHF) =  -462.680117021     A.U. after    2 cycles

 The electronic state is 1-A.
 Alpha  occ. eigenvalues -- -105.15212 -15.72989 -11.33120  -7.60354  -2.72238
 Alpha  occ. eigenvalues --   -1.46869  -1.42173  -1.40183  -1.30798  -1.04836
 Alpha  occ. eigenvalues --   -0.77146  -0.69269  -0.64465  -0.54794  -0.54520
 Alpha  occ. eigenvalues --   -0.46070  -0.41584  -0.24784  -0.15019  -0.01811
 Alpha virt. eigenvalues --    0.03466   0.04257   0.05015   0.05855   0.07930
 Alpha virt. eigenvalues --    0.07983   0.08848   0.09247   0.09677   0.10507
 Alpha virt. eigenvalues --    0.10851   0.12028   0.13149   0.15545   0.16794

 Mulliken charges:
               1
     1  B    3.189758
     2  N   -2.767958
     3  P    1.209358
     4  C   -5.468256
     5  H    1.268812
     6  H    1.309980
     7  H    1.088490
     8  H    1.075010
     9  H    0.773586
    10  H   -0.785804
    11  H   -0.892974
 Sum of Mulliken charges =  -0.00000

 Dipole moment (field-independent basis, Debye):
    X=             -1.6788    Y=              0.3190    Z=             -3.5604  Tot=              3.9493

 Test job not archived.
 1\1\GINC-SE048\SP\RHF\Aug-CC-pVDZ\C1H7B1N1P1\OHZDE\09-Apr-2025\0\\#t h
 f aug-cc-pvdz iop(5/13=1,5/36=2,99/5=2) pseudo=read geom=check guess=(
 read,tcheck) scf=(maxcycle=1)\\title\\0,1\B,0,0.477116,0.083703,0.0144
 07\N,0,1.026734,1.367411,0.00968\P,0,-1.461234,-0.126665,-0.118569\C,0
 ,1.404177,-1.194768,0.001988\H,0,2.468301,-0.955397,-0.100331\H,0,1.13
 7362,-1.87891,-0.810809\H,0,1.283144,-1.767106,0.929047\H,0,0.483181,2
 .215955,0.035181\H,0,2.023405,1.527697,-0.015637\H,0,-1.858023,0.99636
 8,0.653463\H,0,-1.616646,-1.060409,0.935902\\Version=ES64L-G16RevC.01\

 Normal termination of Gaussian 16 at Wed Apr  9 00:42:56 2025.
