 Gaussian 16, Revision C.01,

 ----------------------------------------------------------------------
 #t hf aug-cc-pvdz symm=none int=(grid=ultrafine) guess=(read,tcheck) s
 table=(opt,rrhf)
 ----------------------------------------------------------------------
 -----
 title
 -----
 Symbolic Z-matrix:
 Charge =  0 Multiplicity = 1

 SCF Done:  E(RHF) =  -1348.24042843     A.U. after   13 cycles
 Normal termination of Gaussian 16 at Tue Apr  8 23:33:01 2025.
 Gaussian 16:  ES64L-G16RevC.01  3-Jul-2019

 ----------------------------------------------------------------------
 #t hf aug-cc-pvdz iop(5/13=1,5/36=2,99/5=2) pseudo=read geom=check gue
 ss=(read,tcheck) scf=(maxcycle=1)
 ----------------------------------------------------------------------
 -----
 title
 -----
 Structure from the checkpoint file:  "BDE49_nonexpt_1359_mol1.chk"
 Charge =  0 Multiplicity = 1

                         Standard orientation:
 ---------------------------------------------------------------------
 Center     Atomic      Atomic             Coordinates (Angstroms)
 Number     Number       Type             X           Y           Z
 ---------------------------------------------------------------------
      1          9           0       -2.840796    0.527383   -0.662082
      2          9           0       -2.878996   -1.333707    0.945621
      3          8           0        0.777135    3.043203    0.118359
      4          6           0       -0.257693    2.290162   -0.549599
      5          1           0       -0.220046    2.412169   -1.636146
      6          1           0       -1.256688    2.554299   -0.189614
      7          6           0        0.285652    0.948734    0.025230
      8         15           0       -1.962527   -0.790046   -0.274814
      9          6           0       -0.723026    0.076432    0.783267
     10          1           0       -1.294106    0.683784    1.492163
     11          1           0       -0.209951   -0.704810    1.350926
     12          6           0        1.158324    1.891497    0.901398
     13          1           0        0.813575    1.969313    1.938933
     14          1           0        2.236689    1.723543    0.889777
     15          6           0        1.123569    0.193138   -1.026853
     16         15           0        2.135271   -1.267874   -0.535889
     17          9           0        0.918133   -2.286599   -0.168912
     18          9           0        2.498318   -0.821872    0.985707
     19          1           0        1.833006    0.894006   -1.484340
     20          1           0        0.498404   -0.175747   -1.851689
 ---------------------------------------------------------------------

 SCF Done:  E(RHF) =  -1351.23254827     A.U. after    2 cycles

 The electronic state is 1-A.
 Alpha  occ. eigenvalues -- -105.30603-105.29494 -29.29919 -29.29848 -29.28835
 Alpha  occ. eigenvalues --  -29.28622 -21.04921 -11.48472 -11.47446 -11.43547
 Alpha  occ. eigenvalues --  -11.42753 -11.39232  -2.90156  -2.88883  -1.77654
 Alpha  occ. eigenvalues --   -1.63249  -1.62743  -1.61262  -1.59968  -1.58576
 Alpha  occ. eigenvalues --   -1.57401  -1.24015  -1.05104  -1.01138  -0.98784
 Alpha  occ. eigenvalues --   -0.87823  -0.86551  -0.77897  -0.69831  -0.68468
 Alpha  occ. eigenvalues --   -0.62390  -0.61710  -0.58833  -0.57749  -0.56937
 Alpha  occ. eigenvalues --   -0.53546  -0.50140  -0.48096  -0.46927  -0.43372
 Alpha  occ. eigenvalues --   -0.41496  -0.40734  -0.37468  -0.36929  -0.35532
 Alpha  occ. eigenvalues --   -0.34580  -0.33686  -0.30557  -0.29406  -0.28591
 Alpha  occ. eigenvalues --   -0.22924  -0.21674  -0.21302  -0.19978  -0.01563
 Alpha  occ. eigenvalues --    0.00596
 Alpha virt. eigenvalues --    0.04509   0.05606   0.05911   0.06178   0.06671
 Alpha virt. eigenvalues --    0.07144   0.07950   0.08607   0.08942   0.09025
 Alpha virt. eigenvalues --    0.10411   0.11943   0.12415   0.12649   0.13246

 Mulliken charges:
               1
     1  F   -0.683182
     2  F   -0.451689
     3  O   -2.774958
     4  C   -1.722765
     5  H    1.835145
     6  H    1.251496
     7  C    3.037337
     8  P    2.795929
     9  C   -4.496291
    10  H    1.373988
    11  H    1.235871
    12  C   -2.133400
    13  H    1.488358
    14  H    1.583812
    15  C   -5.853118
    16  P    3.708416
    17  F   -0.721133
    18  F   -0.833397
    19  H    1.036453
    20  H    0.323127
 Sum of Mulliken charges =  -0.00000

 Dipole moment (field-independent basis, Debye):
    X=             -7.0446    Y=             -1.5679    Z=             10.2795  Tot=             12.5600

 Test job not archived.
 1\1\GINC-SE070\SP\RHF\Aug-CC-pVDZ\C5H8F4O1P2\OHZDE\08-Apr-2025\0\\#t h
 f aug-cc-pvdz iop(5/13=1,5/36=2,99/5=2) pseudo=read geom=check guess=(
 read,tcheck) scf=(maxcycle=1)\\title\\0,1\F,0,-2.840796,0.527383,-0.66
 2082\F,0,-2.878996,-1.333707,0.945621\O,0,0.777135,3.043203,0.118359\C
 ,0,-0.257693,2.290162,-0.549599\H,0,-0.220046,2.412169,-1.636146\H,0,-
 1.256688,2.554299,-0.189614\C,0,0.285652,0.948734,0.02523\P,0,-1.96252
 7,-0.790046,-0.274814\C,0,-0.723026,0.076432,0.783267\H,0,-1.294106,0.
 683784,1.492163\H,0,-0.209951,-0.70481,1.350926\C,0,1.158324,1.891497,

 Normal termination of Gaussian 16 at Tue Apr  8 23:33:16 2025.
