 Gaussian 16, Revision C.01,

 ----------------------------------------------------------------------
 #t hf aug-cc-pvdz symm=none int=(grid=ultrafine) guess=(read,tcheck) s
 table=(opt,rrhf)
 ----------------------------------------------------------------------
 -----
 title
 -----
 Symbolic Z-matrix:
 Charge =  0 Multiplicity = 1

 SCF Done:  E(RHF) =  -512.560276911     A.U. after   13 cycles
 Normal termination of Gaussian 16 at Tue Apr  8 22:44:26 2025.
 Gaussian 16:  ES64L-G16RevC.01  3-Jul-2019

 ----------------------------------------------------------------------
 #t hf aug-cc-pvdz iop(5/13=1,5/36=2,99/5=2) pseudo=read geom=check gue
 ss=(read,tcheck) scf=(maxcycle=1)
 ----------------------------------------------------------------------
 -----
 title
 -----
 Structure from the checkpoint file:  "BDE49_expt_1494_mol1.chk"
 Charge =  0 Multiplicity = 1

                         Standard orientation:
 ---------------------------------------------------------------------
 Center     Atomic      Atomic             Coordinates (Angstroms)
 Number     Number       Type             X           Y           Z
 ---------------------------------------------------------------------
      1         16           0       -1.070603   -0.087631   -0.094905
      2          8           0        0.440623    0.628744    0.091575
      3          1           0       -1.225952   -0.569937    1.160036
      4          6           0        1.549725   -0.269539   -0.032497
      5          1           0        1.577308   -0.979869    0.801358
      6          1           0        2.440851    0.359801   -0.003825
      7          1           0        1.514098   -0.820629   -0.976703
 ---------------------------------------------------------------------

 SCF Done:  E(RHF) =  -513.305265632     A.U. after    2 cycles

 The electronic state is 1-A.
 Alpha  occ. eigenvalues --  -75.73187 -21.07603 -13.19895 -13.12303 -13.06872
 Alpha  occ. eigenvalues --  -11.41138  -8.06688  -1.75884  -1.08613  -0.95214
 Alpha  occ. eigenvalues --   -0.62825  -0.61824  -0.55741  -0.49183  -0.39776
 Alpha  occ. eigenvalues --   -0.33407  -0.24587
 Alpha virt. eigenvalues --    0.03141   0.04681   0.06081   0.06257   0.09205
 Alpha virt. eigenvalues --    0.10590   0.12863   0.14666   0.15517   0.15959
 Alpha virt. eigenvalues --    0.16297   0.18409   0.21439   0.24173   0.25311

 Mulliken charges:
               1
     1  S   -0.059623
     2  O   -2.243654
     3  H    0.991739
     4  C   -2.416154
     5  H    1.241035
     6  H    1.182635
     7  H    1.304023
 Sum of Mulliken charges =  -0.00000

 Dipole moment (field-independent basis, Debye):
    X=              0.1728    Y=             -0.0557    Z=             -0.8197  Tot=              0.8396

 Test job not archived.
 1\1\GINC-SE458\SP\RHF\Aug-CC-pVDZ\C1H4O1S1\OHZDE\08-Apr-2025\0\\#t hf
 aug-cc-pvdz iop(5/13=1,5/36=2,99/5=2) pseudo=read geom=check guess=(re
 ad,tcheck) scf=(maxcycle=1)\\title\\0,1\S,0,-1.070603,-0.087631,-0.094
 905\O,0,0.440623,0.628744,0.091575\H,0,-1.225952,-0.569937,1.160036\C,
 0,1.549725,-0.269539,-0.032497\H,0,1.577308,-0.979869,0.801358\H,0,2.4
 40851,0.359801,-0.003825\H,0,1.514098,-0.820629,-0.976703\\Version=ES6
 4L-G16RevC.01\State=1-A\HF=-513.3052656\RMSD=7.473e-02\Dipole=0.067987
 9,-0.0219111,-0.3225098\Quadrupole=1.7989994,-2.1040798,0.3050804,0.45

 Normal termination of Gaussian 16 at Tue Apr  8 22:44:28 2025.
