 Gaussian 16, Revision C.01,

 ----------------------------------------------------------------------
 #t hf aug-cc-pvdz symm=none int=(grid=ultrafine) guess=(read,tcheck) s
 table=(opt,rrhf)
 ----------------------------------------------------------------------
 -----
 title
 -----
 Symbolic Z-matrix:
 Charge =  0 Multiplicity = 1

 SCF Done:  E(RHF) =  -983.285372342     A.U. after   13 cycles
 Normal termination of Gaussian 16 at Wed Apr  9 00:35:49 2025.
 Gaussian 16:  ES64L-G16RevC.01  3-Jul-2019

 ----------------------------------------------------------------------
 #t hf aug-cc-pvdz iop(5/13=1,5/36=2,99/5=2) pseudo=read geom=check gue
 ss=(read,tcheck) scf=(maxcycle=1)
 ----------------------------------------------------------------------
 -----
 title
 -----
 Structure from the checkpoint file:  "BDE49_nonexpt_463_mol1.chk"
 Charge =  0 Multiplicity = 1

                         Standard orientation:
 ---------------------------------------------------------------------
 Center     Atomic      Atomic             Coordinates (Angstroms)
 Number     Number       Type             X           Y           Z
 ---------------------------------------------------------------------
      1          1           0       -0.368907    1.810161   -1.316587
      2          1           0       -1.389847    2.227511    0.451034
      3          5           0       -0.622841    1.580535   -0.182901
      4          6           0        0.077908    0.378509    0.521510
      5         17           0        1.626865   -0.223388   -0.094926
      6         17           0       -1.372158   -0.628734   -0.078551
      7          1           0        0.075489    0.274667    1.600114
 ---------------------------------------------------------------------

 SCF Done:  E(RHF) =  -984.097313605     A.U. after    2 cycles

 The electronic state is 1-A.
 Alpha  occ. eigenvalues --  -99.91490 -99.90832 -11.47387 -10.48708 -10.48128
 Alpha  occ. eigenvalues --   -9.68587  -9.68049  -9.67928  -9.67813  -9.67221
 Alpha  occ. eigenvalues --   -9.67153  -7.63777  -1.41414  -1.29905  -1.04540
 Alpha  occ. eigenvalues --   -0.84292  -0.69307  -0.64648  -0.58619  -0.54228
 Alpha  occ. eigenvalues --   -0.51661  -0.50855  -0.48930  -0.44989
 Alpha virt. eigenvalues --    0.01649   0.03369   0.03865   0.04733   0.05241
 Alpha virt. eigenvalues --    0.08058   0.09013   0.10188   0.11520   0.12956
 Alpha virt. eigenvalues --    0.13248   0.14467   0.14822   0.16369   0.16921

 Mulliken charges:
               1
     1  H   -2.928713
     2  H   -3.023628
     3  B    8.232357
     4  C   -4.078515
     5  Cl   0.021534
     6  Cl   0.117313
     7  H    1.659654
 Sum of Mulliken charges =  -0.00000

 Dipole moment (field-independent basis, Debye):
    X=              0.0641    Y=              1.0174    Z=              1.2019  Tot=              1.5760

 Test job not archived.
 1\1\GINC-SE222\SP\RHF\Aug-CC-pVDZ\C1H3B1Cl2\OHZDE\09-Apr-2025\0\\#t hf
  aug-cc-pvdz iop(5/13=1,5/36=2,99/5=2) pseudo=read geom=check guess=(r
 ead,tcheck) scf=(maxcycle=1)\\title\\0,1\H,0,-0.368907,1.810161,-1.316
 587\H,0,-1.389847,2.227511,0.451034\B,0,-0.622841,1.580535,-0.182901\C
 ,0,0.077908,0.378509,0.52151\Cl,0,1.626865,-0.223387,-0.094926\Cl,0,-1
 .372158,-0.628734,-0.078551\H,0,0.075489,0.274667,1.600114\\Version=ES
 64L-G16RevC.01\State=1-A\HF=-984.0973136\RMSD=1.664e-01\Dipole=0.02523
 84,0.4002614,0.4728835\Quadrupole=-0.567918,0.254264,0.313654,0.988477

 Normal termination of Gaussian 16 at Wed Apr  9 00:35:51 2025.
