 Gaussian 16, Revision C.01,

 ----------------------------------------------------------------------
 #t hf aug-cc-pvdz symm=none int=(grid=ultrafine) guess=(read,tcheck) s
 table=(opt,rrhf)
 ----------------------------------------------------------------------
 -----
 title
 -----
 Symbolic Z-matrix:
 Charge =  0 Multiplicity = 1

 SCF Done:  E(RHF) =  -492.752961639     A.U. after   12 cycles
 Normal termination of Gaussian 16 at Wed Apr  9 00:54:20 2025.
 Gaussian 16:  ES64L-G16RevC.01  3-Jul-2019

 ----------------------------------------------------------------------
 #t hf aug-cc-pvdz iop(5/13=1,5/36=2,99/5=2) pseudo=read geom=check gue
 ss=(read,tcheck) scf=(maxcycle=1)
 ----------------------------------------------------------------------
 -----
 title
 -----
 Structure from the checkpoint file:  "BDE49_nonexpt_995_mol1.chk"
 Charge =  0 Multiplicity = 1

                         Standard orientation:
 ---------------------------------------------------------------------
 Center     Atomic      Atomic             Coordinates (Angstroms)
 Number     Number       Type             X           Y           Z
 ---------------------------------------------------------------------
      1          6           0        1.412267    0.467529    0.000001
      2         16           0       -0.048836   -0.614729   -0.000004
      3          1           0        1.430245    1.090068   -0.894603
      4          1           0        2.282440   -0.193936    0.000020
      5          1           0        1.430212    1.090076    0.894599
      6          7           0       -1.297935    0.579378    0.000005
      7          1           0       -1.874791    0.494318    0.828342
      8          1           0       -1.874796    0.494316   -0.828329
 ---------------------------------------------------------------------

 SCF Done:  E(RHF) =  -493.457391309     A.U. after    2 cycles

 The electronic state is 1-A.
 Alpha  occ. eigenvalues --  -75.69034 -15.75692 -13.12129 -13.07470 -13.01671
 Alpha  occ. eigenvalues --  -11.38451  -8.03019  -1.34643  -1.10783  -0.90285
 Alpha  occ. eigenvalues --   -0.66132  -0.59663  -0.57770  -0.49185  -0.47829
 Alpha  occ. eigenvalues --   -0.32898  -0.22414
 Alpha virt. eigenvalues --    0.03622   0.03825   0.05277   0.06230   0.08101
 Alpha virt. eigenvalues --    0.08628   0.12512   0.13221   0.15590   0.15788
 Alpha virt. eigenvalues --    0.17059   0.18242   0.20330   0.20884   0.21951

 Mulliken charges:
               1
     1  C   -4.531363
     2  S    1.348969
     3  H    1.375084
     4  H    1.358289
     5  H    1.375090
     6  N   -2.302756
     7  H    0.688343
     8  H    0.688345
 Sum of Mulliken charges =  -0.00000

 Dipole moment (field-independent basis, Debye):
    X=             -0.7251    Y=             -0.7717    Z=              0.0000  Tot=              1.0589

 Test job not archived.
 1\1\GINC-SE071\SP\RHF\Aug-CC-pVDZ\C1H5N1S1\OHZDE\09-Apr-2025\0\\#t hf
 aug-cc-pvdz iop(5/13=1,5/36=2,99/5=2) pseudo=read geom=check guess=(re
 ad,tcheck) scf=(maxcycle=1)\\title\\0,1\C,0,1.412267,0.467529,0.000001
 \S,0,-0.048836,-0.614729,-0.000004\H,0,1.430245,1.090068,-0.894603\H,0
 ,2.28244,-0.193937,0.00002\H,0,1.430212,1.090076,0.894599\N,0,-1.29793
 5,0.579378,0.000005\H,0,-1.874791,0.494318,0.828342\H,0,-1.874796,0.49
 4316,-0.828329\\Version=ES64L-G16RevC.01\State=1-A\HF=-493.4573913\RMS
 D=5.765e-02\Dipole=-0.2852701,-0.3036208,0.0000027\Quadrupole=2.685339

 Normal termination of Gaussian 16 at Wed Apr  9 00:54:22 2025.
