 Gaussian 16, Revision C.01,

 ----------------------------------------------------------------------
 #t hf aug-cc-pvdz symm=none int=(grid=ultrafine) guess=(read,tcheck) s
 table=opt
 ----------------------------------------------------------------------
 -----
 title
 -----
 Symbolic Z-matrix:
 Charge =  0 Multiplicity = 2

 SCF Done:  E(UHF) =  -951.797199873     A.U. after   20 cycles
 Normal termination of Gaussian 16 at Tue Apr  8 23:02:29 2025.
 Gaussian 16:  ES64L-G16RevC.01  3-Jul-2019

 ----------------------------------------------------------------------
 #t hf aug-cc-pvdz iop(5/13=1,5/36=2,99/5=2) pseudo=read geom=check gue
 ss=(read,tcheck) scf=(maxcycle=1)
 ----------------------------------------------------------------------
 -----
 title
 -----
 Structure from the checkpoint file:  "BDE49_expt_1970_mol2.chk"
 Charge =  0 Multiplicity = 2

                         Standard orientation:
 ---------------------------------------------------------------------
 Center     Atomic      Atomic             Coordinates (Angstroms)
 Number     Number       Type             X           Y           Z
 ---------------------------------------------------------------------
      1         16           0        2.161884    0.272925   -0.000024
      2         16           0        0.590866   -0.939069    0.000012
      3          6           0       -0.980840    0.119028    0.000007
      4          6           0       -2.113006   -0.916960   -0.000001
      5          1           0       -2.075655   -1.555408    0.886454
      6          1           0       -2.075645   -1.555405   -0.886458
      7          1           0       -3.077402   -0.399952   -0.000005
      8          6           0       -1.008981    0.979214    1.264769
      9          1           0       -0.989804    0.363823    2.167342
     10          1           0       -1.925560    1.578145    1.278776
     11          1           0       -0.156928    1.661050    1.293990
     12          6           0       -1.008968    0.979220   -1.264751
     13          1           0       -0.989782    0.363833   -2.167326
     14          1           0       -0.156915    1.661057   -1.293960
     15          1           0       -1.925547    1.578151   -1.278764
 ---------------------------------------------------------------------

 SCF Done:  E(UHF) =  -953.048742201     A.U. after    2 cycles

 The electronic state is 2-A.
 Alpha  occ. eigenvalues --  -75.71883 -75.71031 -13.15458 -13.11219 -13.09146
 Alpha  occ. eigenvalues --  -13.08653 -13.05231 -13.04879 -11.44287 -11.40276
 Alpha  occ. eigenvalues --  -11.39717 -11.36531  -8.05900  -8.04773  -1.32621
 Alpha  occ. eigenvalues --   -1.18421  -1.02486  -1.01907  -0.96326  -0.77968
 Alpha  occ. eigenvalues --   -0.63333  -0.62045  -0.61832  -0.55840  -0.55429
 Alpha  occ. eigenvalues --   -0.52664  -0.46505  -0.46389  -0.40348  -0.37945
 Alpha  occ. eigenvalues --   -0.35645  -0.24353  -0.20202
 Alpha virt. eigenvalues --    0.03021   0.04487   0.05222   0.05893   0.05911
 Alpha virt. eigenvalues --    0.06205   0.06791   0.07109   0.07534   0.09210
 Alpha virt. eigenvalues --    0.09821   0.11689   0.13850   0.14769   0.14871

  Beta  occ. eigenvalues --  -75.71586 -75.70180 -13.15257 -13.11150 -13.08695
  Beta  occ. eigenvalues --  -13.06770 -13.04389 -13.00201 -11.44336 -11.40269
  Beta  occ. eigenvalues --  -11.39698 -11.36525  -8.05562  -8.03817  -1.31892
  Beta  occ. eigenvalues --   -1.15493  -1.02441  -1.01846  -0.90606  -0.77144
  Beta  occ. eigenvalues --   -0.63172  -0.61883  -0.61773  -0.55827  -0.55338
  Beta  occ. eigenvalues --   -0.52622  -0.46422  -0.46192  -0.40131  -0.34352
  Beta  occ. eigenvalues --   -0.30738  -0.23265
  Beta virt. eigenvalues --    0.03033   0.04599   0.05228   0.05907   0.05925
  Beta virt. eigenvalues --    0.06128   0.06214   0.06800   0.07598   0.07970
  Beta virt. eigenvalues --    0.09320   0.09908   0.11732   0.13931   0.14789

 Mulliken charges and spin densities:
               1          2
     1  S   -0.277402   0.869553
     2  S   -0.395267   0.193401
     3  C    1.790058  -0.025076
     4  C   -3.903743  -0.022224
     5  H    1.298675  -0.001132
     6  H    1.298678  -0.001131
     7  H    1.218413  -0.001039
     8  C   -4.328602   0.009360
     9  H    1.337202  -0.001755
    10  H    1.210137  -0.002509
    11  H    1.266546  -0.011271
    12  C   -4.328585   0.009362
    13  H    1.337202  -0.001756
    14  H    1.266554  -0.011274
    15  H    1.210133  -0.002509
 Sum of Mulliken charges =  -0.00000   1.00000

 Dipole moment (field-independent basis, Debye):
    X=             -0.7517    Y=             -0.3420    Z=              0.0000  Tot=              0.8258
                          Isotropic Fermi Contact Couplings
        Atom                 a.u.       MegaHertz       Gauss      10(-4) cm-1
     1  S(33)              0.27255      93.61337      33.40358      31.22606
     2  S(33)              0.16039      55.09005      19.65750      18.37606
     3  C(13)             -0.00642      -7.21913      -2.57597      -2.40804
     4  C(13)             -0.00048      -0.54027      -0.19278      -0.18022
     5  H(1)              -0.00011      -0.47764      -0.17043      -0.15932
     6  H(1)              -0.00011      -0.47758      -0.17041      -0.15930
     7  H(1)              -0.00046      -2.06317      -0.73619      -0.68820
     8  C(13)              0.00348       3.91482       1.39690       1.30584

 Normal termination of Gaussian 16 at Tue Apr  8 23:02:35 2025.
