 Gaussian 16, Revision C.01,

 ----------------------------------------------------------------------
 #t hf aug-cc-pvdz symm=none int=(grid=ultrafine) guess=(read,tcheck) s
 table=(opt,rrhf)
 ----------------------------------------------------------------------
 -----
 title
 -----
 Symbolic Z-matrix:
 Charge =  0 Multiplicity = 1

 SCF Done:  E(RHF) =  -375.839366173     A.U. after   12 cycles
 Normal termination of Gaussian 16 at Tue Apr  8 22:30:19 2025.
 Gaussian 16:  ES64L-G16RevC.01  3-Jul-2019

 ----------------------------------------------------------------------
 #t hf aug-cc-pvdz iop(5/13=1,5/36=2,99/5=2) pseudo=read geom=check gue
 ss=(read,tcheck) scf=(maxcycle=1)
 ----------------------------------------------------------------------
 -----
 title
 -----
 Structure from the checkpoint file:  "BDE49_expt_1006_mol1.chk"
 Charge =  0 Multiplicity = 1

                         Standard orientation:
 ---------------------------------------------------------------------
 Center     Atomic      Atomic             Coordinates (Angstroms)
 Number     Number       Type             X           Y           Z
 ---------------------------------------------------------------------
      1          6           0       -0.466105    0.020385    0.328385
      2          6           0        0.774786   -0.587151   -0.290300
      3          1           0       -0.411247    0.101522    1.416517
      4          9           0       -1.535809   -0.767896   -0.004518
      5          9           0       -0.688421    1.265400   -0.181531
      6          1           0        0.711896   -0.511082   -1.378372
      7          1           0        0.860863   -1.632542    0.014914
      8          9           0        1.889386    0.107240    0.154763
 ---------------------------------------------------------------------

 SCF Done:  E(RHF) =  -377.222903254     A.U. after    2 cycles

 The electronic state is 1-A.
 Alpha  occ. eigenvalues --  -29.29573 -29.29052 -29.27840 -11.54323 -11.46168
 Alpha  occ. eigenvalues --   -1.36066  -1.10478  -0.82990  -0.78390  -0.70869
 Alpha  occ. eigenvalues --   -0.65678  -0.62797  -0.45267  -0.40538  -0.38989
 Alpha  occ. eigenvalues --   -0.33548  -0.30441  -0.30052  -0.26868  -0.24384
 Alpha  occ. eigenvalues --   -0.22416
 Alpha virt. eigenvalues --    0.04705   0.04955   0.06100   0.11218   0.11636
 Alpha virt. eigenvalues --    0.12341   0.12646   0.14742   0.15482   0.18435
 Alpha virt. eigenvalues --    0.22740   0.23360   0.23685   0.25450   0.27326

 Mulliken charges:
               1
     1  C   -1.819829
     2  C   -3.301557
     3  H    1.468859
     4  F    0.307560
     5  F    0.435682
     6  H    1.224282
     7  H    1.358439
     8  F    0.326564
 Sum of Mulliken charges =  -0.00000

 Dipole moment (field-independent basis, Debye):
    X=             -0.0998    Y=              0.9251    Z=             -0.3035  Tot=              0.9787

 Test job not archived.
 1\1\GINC-SE082\SP\RHF\Aug-CC-pVDZ\C2H3F3\OHZDE\08-Apr-2025\0\\#t hf au
 g-cc-pvdz iop(5/13=1,5/36=2,99/5=2) pseudo=read geom=check guess=(read
 ,tcheck) scf=(maxcycle=1)\\title\\0,1\C,0,-0.466105,0.020385,0.328385\
 C,0,0.774786,-0.587151,-0.2903\H,0,-0.411247,0.101522,1.416517\F,0,-1.
 535809,-0.767896,-0.004518\F,0,-0.688421,1.2654,-0.181531\H,0,0.711896
 ,-0.511082,-1.378372\H,0,0.860863,-1.632542,0.014914\F,0,1.889386,0.10
 724,0.154763\\Version=ES64L-G16RevC.01\State=1-A\HF=-377.2229033\RMSD=
 1.841e-01\Dipole=-0.0392583,0.3639492,-0.1194177\Quadrupole=0.950696,-

 Normal termination of Gaussian 16 at Tue Apr  8 22:30:22 2025.
