 Gaussian 16, Revision C.01,

 ----------------------------------------------------------------------
 #t hf aug-cc-pvdz symm=none int=(grid=ultrafine) guess=(read,tcheck) s
 table=(opt,rrhf)
 ----------------------------------------------------------------------
 -----
 title
 -----
 Symbolic Z-matrix:
 Charge =  0 Multiplicity = 1

 SCF Done:  E(RHF) =  -923.703687524     A.U. after   11 cycles

 1\1\GINC-SE070\Stability\RHF\Aug-CC-pVDZ\C1F6Si1\OHZDE\08-Apr-2025\0\\
 #t hf aug-cc-pvdz symm=none int=(grid=ultrafine) guess=(read,tcheck) s
 table=(opt,rrhf)\\title\\0,1\C,0,-1.068338,0.000019,0.000001\Si,0,0.83
 5616,0.000008,0.000006\F,0,1.359814,-0.010547,-1.484214\F,0,-1.555702,
 1.086171,-0.636812\F,0,1.359745,-1.280133,0.751226\F,0,-1.555688,0.008
 409,1.259049\F,0,1.35986,1.290636,0.732991\F,0,-1.555652,-1.09456,-0.6
 22251\\Version=ES64L-G16RevC.01\HF=-923.7036875\RMSD=6.334e-09\Dipole=
 0.2211289,0.0000484,0.0000206\Quadrupole=-0.1099407,0.0549334,0.055007

 Normal termination of Gaussian 16 at Tue Apr  8 23:49:31 2025.
 Gaussian 16:  ES64L-G16RevC.01  3-Jul-2019

 ----------------------------------------------------------------------
 #t hf aug-cc-pvdz iop(5/13=1,5/36=2,99/5=2) pseudo=read geom=check gue
 ss=(read,tcheck) scf=(maxcycle=1)
 ----------------------------------------------------------------------
 -----
 title
 -----
 Structure from the checkpoint file:  "BDE49_nonexpt_1836_mol1.chk"
 Charge =  0 Multiplicity = 1

                         Standard orientation:
 ---------------------------------------------------------------------
 Center     Atomic      Atomic             Coordinates (Angstroms)
 Number     Number       Type             X           Y           Z
 ---------------------------------------------------------------------
      1          6           0        1.068338    0.000019   -0.000001
      2         14           0       -0.835616    0.000008   -0.000006
      3          9           0       -1.359814   -0.038979    1.483740
      4          9           0        1.555702    1.073772    0.657503
      5          9           0       -1.359745   -1.265507   -0.775612
      6          9           0        1.555688    0.032527   -1.258657
      7          9           0       -1.359860    1.304441   -0.708131
      8          9           0        1.555652   -1.106280    0.601168
 ---------------------------------------------------------------------

 SCF Done:  E(RHF) =  -926.040953807     A.U. after    2 cycles

 The electronic state is 1-A.
 Alpha  occ. eigenvalues --  -76.35771 -29.33614 -29.33614 -29.33546 -29.33384
 Alpha  occ. eigenvalues --  -29.33382 -29.33382 -11.58591  -5.73050  -2.37437
 Alpha  occ. eigenvalues --   -2.37437  -2.34875  -1.41792  -1.04785  -0.90595
 Alpha  occ. eigenvalues --   -0.90595  -0.76557  -0.75689  -0.75688  -0.50900
 Alpha  occ. eigenvalues --   -0.47281  -0.47281  -0.46110  -0.45091  -0.45091
 Alpha  occ. eigenvalues --   -0.44426  -0.40843  -0.40843  -0.37912  -0.37912
 Alpha  occ. eigenvalues --   -0.34153  -0.34153  -0.32570  -0.28138  -0.28138
 Alpha  occ. eigenvalues --   -0.25057  -0.23856
 Alpha virt. eigenvalues --    0.06713   0.07469   0.07470   0.09820   0.13758
 Alpha virt. eigenvalues --    0.14281   0.14281   0.20263   0.20263   0.21813
 Alpha virt. eigenvalues --    0.22918   0.22919   0.23140   0.24494   0.26241

 Mulliken charges:
               1
     1  C   -1.312994
     2  Si   3.321191
     3  F   -0.933281
     4  F    0.263879
     5  F   -0.933294
     6  F    0.263883
     7  F   -0.933283
     8  F    0.263899
 Sum of Mulliken charges =  -0.00000

 Dipole moment (field-independent basis, Debye):
    X=             -0.9349    Y=             -0.0001    Z=              0.0000  Tot=              0.9349

 Test job not archived.
 1\1\GINC-SE070\SP\RHF\Aug-CC-pVDZ\C1F6Si1\OHZDE\08-Apr-2025\0\\#t hf a
 ug-cc-pvdz iop(5/13=1,5/36=2,99/5=2) pseudo=read geom=check guess=(rea
 d,tcheck) scf=(maxcycle=1)\\title\\0,1\C,0,-1.068338,0.000019,0.000001
 \Si,0,0.835616,0.000008,0.000006\F,0,1.359814,-0.010547,-1.484214\F,0,
 -1.555702,1.086171,-0.636812\F,0,1.359745,-1.280133,0.751226\F,0,-1.55
 5688,0.008409,1.259049\F,0,1.35986,1.290636,0.732991\F,0,-1.555652,-1.
 09456,-0.622251\\Version=ES64L-G16RevC.01\State=1-A\HF=-926.0409538\RM
 SD=5.426e-02\Dipole=0.3678121,-0.0000437,-0.0000069\Quadrupole=0.80152

 Normal termination of Gaussian 16 at Tue Apr  8 23:49:34 2025.
