 Gaussian 16, Revision C.01,

 ----------------------------------------------------------------------
 #t hf aug-cc-pvdz symm=none int=(grid=ultrafine) guess=(read,tcheck) s
 table=(opt,rrhf)
 ----------------------------------------------------------------------
 -----
 title
 -----
 Symbolic Z-matrix:
 Charge =  0 Multiplicity = 1

 SCF Done:  E(RHF) =  -740.024323984     A.U. after   11 cycles
 Normal termination of Gaussian 16 at Tue Apr  8 23:44:10 2025.
 Gaussian 16:  ES64L-G16RevC.01  3-Jul-2019

 ----------------------------------------------------------------------
 #t hf aug-cc-pvdz iop(5/13=1,5/36=2,99/5=2) pseudo=read geom=check gue
 ss=(read,tcheck) scf=(maxcycle=1)
 ----------------------------------------------------------------------
 -----
 title
 -----
 Structure from the checkpoint file:  "BDE49_nonexpt_1707_mol1.chk"
 Charge =  0 Multiplicity = 1

                         Standard orientation:
 ---------------------------------------------------------------------
 Center     Atomic      Atomic             Coordinates (Angstroms)
 Number     Number       Type             X           Y           Z
 ---------------------------------------------------------------------
      1         15           0        1.064901    0.130353   -0.000071
      2         16           0       -1.082853   -0.097994    0.000021
      3          1           0        1.339776   -0.805630   -1.029278
      4          1           0        1.339692   -0.804448    1.030238
      5          1           0       -1.327335    1.222690   -0.000223
 ---------------------------------------------------------------------

 SCF Done:  E(RHF) =  -740.449323845     A.U. after    2 cycles

 The electronic state is 1-A.
 Alpha  occ. eigenvalues -- -105.21190 -75.69912 -13.12839 -13.06681 -13.01608
 Alpha  occ. eigenvalues --   -8.03760  -2.77957  -1.46469  -1.46205  -1.44671
 Alpha  occ. eigenvalues --   -1.06809  -0.72048  -0.48889  -0.28741  -0.25016
 Alpha  occ. eigenvalues --   -0.20514  -0.04109
 Alpha virt. eigenvalues --    0.04193   0.04508   0.08198   0.08335   0.10824
 Alpha virt. eigenvalues --    0.11765   0.13131   0.15709   0.16309   0.17605
 Alpha virt. eigenvalues --    0.19913   0.22548   0.24033   0.26649   0.27637

 Mulliken charges:
               1
     1  P    2.103920
     2  S   -2.324322
     3  H   -0.332739
     4  H   -0.332710
     5  H    0.885850
 Sum of Mulliken charges =  -0.00000

 Dipole moment (field-independent basis, Debye):
    X=              3.7307    Y=              2.2451    Z=             -0.0019  Tot=              4.3542

 Test job not archived.
 1\1\GINC-SE043\SP\RHF\Aug-CC-pVDZ\H3P1S1\OHZDE\08-Apr-2025\0\\#t hf au
 g-cc-pvdz iop(5/13=1,5/36=2,99/5=2) pseudo=read geom=check guess=(read
 ,tcheck) scf=(maxcycle=1)\\title\\0,1\P,0,-1.064901,0.130353,0.000071\
 S,0,1.082853,-0.097994,-0.000021\H,0,-1.339776,-0.805629,1.029278\H,0,
 -1.339692,-0.804447,-1.030238\H,0,1.327335,1.22269,0.000223\\Version=E
 S64L-G16RevC.01\State=1-A\HF=-740.4493238\RMSD=3.160e-01\Dipole=-1.467
 7838,0.8833091,0.0007398\Quadrupole=-0.5562881,-0.9140364,1.4703245,-1
 .1671398,-0.0006803,-0.0023218\PG=C01 [X(H3P1S1)]\\@

 Normal termination of Gaussian 16 at Tue Apr  8 23:44:13 2025.
