 Gaussian 16, Revision C.01,

 ----------------------------------------------------------------------
 #t hf aug-cc-pvdz symm=none int=(grid=ultrafine) guess=(read,tcheck) s
 table=(opt,rrhf)
 ----------------------------------------------------------------------
 -----
 title
 -----
 Symbolic Z-matrix:
 Charge =  0 Multiplicity = 1

 SCF Done:  E(RHF) =  -664.026269297     A.U. after   13 cycles
 Normal termination of Gaussian 16 at Wed Apr  9 00:02:47 2025.
 Gaussian 16:  ES64L-G16RevC.01  3-Jul-2019

 ----------------------------------------------------------------------
 #t hf aug-cc-pvdz iop(5/13=1,5/36=2,99/5=2) pseudo=read geom=check gue
 ss=(read,tcheck) scf=(maxcycle=1)
 ----------------------------------------------------------------------
 -----
 title
 -----
 Structure from the checkpoint file:  "BDE49_nonexpt_2149_mol1.chk"
 Charge =  0 Multiplicity = 1

                         Standard orientation:
 ---------------------------------------------------------------------
 Center     Atomic      Atomic             Coordinates (Angstroms)
 Number     Number       Type             X           Y           Z
 ---------------------------------------------------------------------
      1          6           0        2.018036   -0.600557    0.254058
      2          7           0        0.704386   -0.939968    0.381594
      3         14           0       -0.699118    0.064882   -0.030365
      4          7           0       -1.801810   -0.957890   -0.809795
      5          8           0        2.436795    0.452438   -0.202462
      6          8           0       -1.511562    0.555331    1.306301
      7          1           0       -2.791203   -0.803211   -0.688393
      8          1           0       -1.588980   -1.381093   -1.700140
      9          1           0        0.541005   -1.858712    0.771996
     10          1           0       -1.285508    1.421611    1.652138
     11          8           0       -0.067678    1.322386   -0.844781
     12          1           0        0.908916    1.340836   -0.813590
     13          1           0        2.716725   -1.380672    0.603688
 ---------------------------------------------------------------------

 SCF Done:  E(RHF) =  -665.779137893     A.U. after    2 cycles

 The electronic state is 1-A.
 Alpha  occ. eigenvalues --  -76.25260 -21.07633 -21.05576 -21.04766 -15.76025
 Alpha  occ. eigenvalues --  -15.73619 -11.49886  -5.60565  -2.28595  -2.26609
 Alpha  occ. eigenvalues --   -2.24676  -1.72407  -1.68019  -1.63279  -1.34805
 Alpha  occ. eigenvalues --   -1.25844  -0.87267  -0.74233  -0.72996  -0.67000
 Alpha  occ. eigenvalues --   -0.60496  -0.57441  -0.56788  -0.53203  -0.51521
 Alpha  occ. eigenvalues --   -0.46059  -0.43199  -0.40350  -0.39213  -0.35070
 Alpha  occ. eigenvalues --   -0.33820  -0.30260
 Alpha virt. eigenvalues --    0.03254   0.04563   0.05804   0.06124   0.06563
 Alpha virt. eigenvalues --    0.07913   0.08785   0.09088   0.10024   0.11380
 Alpha virt. eigenvalues --    0.12050   0.12757   0.15392   0.15572   0.17366

 Mulliken charges:
               1
     1  C    1.907991
     2  N   -2.672982
     3  Si   6.110705
     4  N   -2.440186
     5  O   -2.692667
     6  O   -2.992018
     7  H    0.664138
     8  H    0.665883
     9  H    0.696910
    10  H    0.966548
    11  O   -3.381060
    12  H    1.468324
    13  H    1.698414
 Sum of Mulliken charges =  -0.00000

 Dipole moment (field-independent basis, Debye):
    X=             -1.1285    Y=             -1.4926    Z=              0.2321  Tot=              1.8855

 Test job not archived.
 1\1\GINC-SE361\SP\RHF\Aug-CC-pVDZ\C1H6N2O3Si1\OHZDE\09-Apr-2025\0\\#t
 hf aug-cc-pvdz iop(5/13=1,5/36=2,99/5=2) pseudo=read geom=check guess=
 (read,tcheck) scf=(maxcycle=1)\\title\\0,1\C,0,2.018036,-0.600557,0.25
 4058\N,0,0.704386,-0.939968,0.381594\Si,0,-0.699118,0.064882,-0.030365
 \N,0,-1.80181,-0.95789,-0.809795\O,0,2.436795,0.452438,-0.202462\O,0,-
 1.511562,0.555331,1.306301\H,0,-2.791203,-0.803211,-0.688393\H,0,-1.58
 898,-1.381093,-1.70014\H,0,0.541005,-1.858712,0.771996\H,0,-1.285508,1
 .421611,1.652138\O,0,-0.067678,1.322386,-0.844781\H,0,0.908916,1.34083

 Normal termination of Gaussian 16 at Wed Apr  9 00:02:51 2025.
