 Gaussian 16, Revision C.01,

 ----------------------------------------------------------------------
 #t hf aug-cc-pvdz symm=none int=(grid=ultrafine) guess=(read,tcheck) s
 table=(opt,rrhf)
 ----------------------------------------------------------------------
 -----
 title
 -----
 Symbolic Z-matrix:
 Charge =  0 Multiplicity = 1

 SCF Done:  E(RHF) =  -376.950640227     A.U. after   13 cycles
 Normal termination of Gaussian 16 at Tue Apr  8 23:06:12 2025.
 Gaussian 16:  ES64L-G16RevC.01  3-Jul-2019

 ----------------------------------------------------------------------
 #t hf aug-cc-pvdz iop(5/13=1,5/36=2,99/5=2) pseudo=read geom=check gue
 ss=(read,tcheck) scf=(maxcycle=1)
 ----------------------------------------------------------------------
 -----
 title
 -----
 Structure from the checkpoint file:  "BDE49_expt_371_mol1.chk"
 Charge =  0 Multiplicity = 1

                         Standard orientation:
 ---------------------------------------------------------------------
 Center     Atomic      Atomic             Coordinates (Angstroms)
 Number     Number       Type             X           Y           Z
 ---------------------------------------------------------------------
      1          7           0        2.867819    0.229792    0.189304
      2          6           0        1.717480   -0.655639    0.233876
      3          6           0        0.383320   -0.017448   -0.142660
      4          1           0        1.878020   -1.512965   -0.427256
      5          1           0        1.607574   -1.075288    1.238826
      6          8           0        0.242634    1.144360   -0.446544
      7          8           0       -0.618248   -0.911765   -0.094725
      8          6           0       -1.944591   -0.372690   -0.406067
      9          7           0       -2.436619    0.455652    0.643216
     10          1           0       -2.554825   -1.266695   -0.515210
     11          1           0       -1.850425    0.139651   -1.365988
     12          1           0        2.701850    1.025603    0.798418
     13          1           0        2.954075    0.622785   -0.743411
     14          1           0       -3.377756    0.240386    0.933662
     15          1           0       -2.309260    1.442316    0.472578
 ---------------------------------------------------------------------

 SCF Done:  E(RHF) =  -378.630244487     A.U. after    2 cycles

 The electronic state is 1-A.
 Alpha  occ. eigenvalues --  -21.08238 -21.04522 -15.74392 -15.73313 -11.51757
 Alpha  occ. eigenvalues --  -11.44512 -11.41022  -1.83749  -1.66052  -1.33482
 Alpha  occ. eigenvalues --   -1.32363  -1.03449  -0.93784  -0.75321  -0.72268
 Alpha  occ. eigenvalues --   -0.68469  -0.64816  -0.63192  -0.58924  -0.55356
 Alpha  occ. eigenvalues --   -0.53731  -0.52504  -0.47159  -0.44110  -0.36949
 Alpha  occ. eigenvalues --   -0.34449  -0.32291  -0.29329
 Alpha virt. eigenvalues --    0.03659   0.04899   0.05080   0.05887   0.06317
 Alpha virt. eigenvalues --    0.06541   0.06776   0.08515   0.09665   0.11390
 Alpha virt. eigenvalues --    0.12721   0.13973   0.14443   0.15343   0.15819

 Mulliken charges:
               1
     1  N   -2.098714
     2  C   -2.759288
     3  C    6.128183
     4  H    1.422025
     5  H    1.443859
     6  O   -3.041967
     7  O   -3.328115
     8  C   -0.890651
     9  N   -2.303485
    10  H    1.519080
    11  H    1.514912
    12  H    0.592797
    13  H    0.584567
    14  H    0.618950
    15  H    0.597847
 Sum of Mulliken charges =   0.00000

 Dipole moment (field-independent basis, Debye):
    X=             -2.2346    Y=             -0.0449    Z=             -0.4323  Tot=              2.2764

 Test job not archived.
 1\1\GINC-SE222\SP\RHF\Aug-CC-pVDZ\C3H8N2O2\OHZDE\08-Apr-2025\0\\#t hf
 aug-cc-pvdz iop(5/13=1,5/36=2,99/5=2) pseudo=read geom=check guess=(re
 ad,tcheck) scf=(maxcycle=1)\\title\\0,1\N,0,2.867819,0.229792,0.189304
 \C,0,1.71748,-0.655639,0.233876\C,0,0.38332,-0.017448,-0.14266\H,0,1.8
 7802,-1.512965,-0.427256\H,0,1.607574,-1.075288,1.238826\O,0,0.242634,
 1.14436,-0.446544\O,0,-0.618248,-0.911765,-0.094725\C,0,-1.944591,-0.3
 7269,-0.406067\N,0,-2.436619,0.455652,0.643216\H,0,-2.554825,-1.266695
 ,-0.51521\H,0,-1.850425,0.139651,-1.365988\H,0,2.70185,1.025603,0.7984

 Normal termination of Gaussian 16 at Tue Apr  8 23:06:17 2025.
