 Gaussian 16, Revision C.01,

 ----------------------------------------------------------------------
 #t hf aug-cc-pvdz symm=none int=(grid=ultrafine) guess=(read,tcheck) s
 table=opt
 ----------------------------------------------------------------------
 -----
 title
 -----
 Symbolic Z-matrix:
 Charge =  0 Multiplicity = 2

 SCF Done:  E(UHF) =  -996.458881209     A.U. after   16 cycles

 1\1\GINC-SE072\Stability\UHF\Aug-CC-pVDZ\C2H3Cl2\OHZDE\08-Apr-2025\0\\
 #t hf aug-cc-pvdz symm=none int=(grid=ultrafine) guess=(read,tcheck) s
 table=opt\\title\\0,2\C,0,0.,1.787336,0.041659\H,0,-0.889023,2.247258,
 -0.394506\H,0,0.889023,2.247258,-0.394506\H,0,0.,1.999527,1.119935\C,0
 ,0.,0.32372,-0.232989\Cl,0,-1.467886,-0.563541,0.024031\Cl,0,1.467887,
 -0.563541,0.024031\\Version=ES64L-G16RevC.01\HF=-996.4588812\S2=0.7673
 74\S2-1=0.\S2A=0.750253\RMSD=8.871e-09\Dipole=-0.0000012,0.7452517,0.0
 193999\Quadrupole=-0.9074158,1.5838992,-0.6764834,0.0000013,0.,-0.1052

 Normal termination of Gaussian 16 at Tue Apr  8 22:32:23 2025.
 Gaussian 16:  ES64L-G16RevC.01  3-Jul-2019

 ----------------------------------------------------------------------
 #t hf aug-cc-pvdz iop(5/13=1,5/36=2,99/5=2) pseudo=read geom=check gue
 ss=(read,tcheck) scf=(maxcycle=1)
 ----------------------------------------------------------------------
 -----
 title
 -----
 Structure from the checkpoint file:  "BDE49_expt_1030_mol2.chk"
 Charge =  0 Multiplicity = 2

                         Standard orientation:
 ---------------------------------------------------------------------
 Center     Atomic      Atomic             Coordinates (Angstroms)
 Number     Number       Type             X           Y           Z
 ---------------------------------------------------------------------
      1          6           0       -0.000001    1.787336    0.041659
      2          1           0       -0.889024    2.247258   -0.394506
      3          1           0        0.889022    2.247259   -0.394506
      4          1           0       -0.000001    1.999527    1.119935
      5          6           0       -0.000000    0.323720   -0.232989
      6         17           0       -1.467886   -0.563541    0.024031
      7         17           0        1.467887   -0.563540    0.024031
 ---------------------------------------------------------------------

 SCF Done:  E(UHF) =  -997.317535079     A.U. after    2 cycles

 The electronic state is 2-A.
 Alpha  occ. eigenvalues --  -99.91010 -99.91000 -11.49005 -11.40035 -10.48553
 Alpha  occ. eigenvalues --  -10.48280  -9.68219  -9.68047  -9.67493  -9.67488
 Alpha  occ. eigenvalues --   -9.67460  -9.67364  -1.42572  -1.30005  -1.12486
 Alpha  occ. eigenvalues --   -0.89564  -0.69034  -0.66950  -0.64740  -0.56405
 Alpha  occ. eigenvalues --   -0.55612  -0.53516  -0.50427  -0.50187  -0.36271
 Alpha virt. eigenvalues --    0.03111   0.04354   0.06502   0.06666   0.07902
 Alpha virt. eigenvalues --    0.07994   0.11597   0.13211   0.13889   0.14537
 Alpha virt. eigenvalues --    0.14751   0.15243   0.17901   0.18016   0.18189

  Beta  occ. eigenvalues --  -99.90982 -99.90971 -11.46409 -11.40084 -10.48520
  Beta  occ. eigenvalues --  -10.48248  -9.68452  -9.68275  -9.67442  -9.67352
  Beta  occ. eigenvalues --   -9.67147  -9.67135  -1.40418  -1.29714  -1.10971
  Beta  occ. eigenvalues --   -0.84422  -0.67989  -0.63661  -0.60575  -0.55191
  Beta  occ. eigenvalues --   -0.54674  -0.51811  -0.50363  -0.49763
  Beta virt. eigenvalues --    0.02577   0.05295   0.05842   0.06503   0.06974
  Beta virt. eigenvalues --    0.08183   0.08279   0.11718   0.13420   0.13960
  Beta virt. eigenvalues --    0.14995   0.15275   0.15346   0.17990   0.18282

 Mulliken charges and spin densities:
               1          2
     1  C   -2.824004  -0.297542
     2  H    1.294231   0.002702
     3  H    1.294231   0.002702
     4  H    1.298460   0.024314
     5  C   -1.302091   1.355595
     6  Cl   0.119586  -0.043885
     7  Cl   0.119586  -0.043886
 Sum of Mulliken charges =  -0.00000   1.00000

 Dipole moment (field-independent basis, Debye):
    X=             -0.0000    Y=              1.9002    Z=             -0.0087  Tot=              1.9002
                          Isotropic Fermi Contact Couplings
        Atom                 a.u.       MegaHertz       Gauss      10(-4) cm-1
     1  C(13)             -0.01831     -20.58082      -7.34375      -6.86502
     2  H(1)               0.00434      19.40527       6.92428       6.47290
     3  H(1)               0.00434      19.40528       6.92429       6.47290
     4  H(1)               0.01802      80.54163      28.73925      26.86579
     5  C(13)              0.24681     277.45971      99.00452      92.55060
     6  Cl(35)             0.04660      20.43065       7.29016       6.81493
     7  Cl(35)             0.04660      20.43066       7.29017       6.81494
 --------------------------------------------------------

 Normal termination of Gaussian 16 at Tue Apr  8 22:32:25 2025.
