 Gaussian 16, Revision C.01,

 ----------------------------------------------------------------------
 #t hf aug-cc-pvdz symm=none int=(grid=ultrafine) guess=(read,tcheck) s
 table=opt
 ----------------------------------------------------------------------
 -----
 title
 -----
 Symbolic Z-matrix:
 Charge =  0 Multiplicity = 2

 SCF Done:  E(UHF) =  -1015.31794116     A.U. after   20 cycles
 Normal termination of Gaussian 16 at Tue Apr  8 23:50:06 2025.
 Gaussian 16:  ES64L-G16RevC.01  3-Jul-2019

 ----------------------------------------------------------------------
 #t hf aug-cc-pvdz iop(5/13=1,5/36=2,99/5=2) pseudo=read geom=check gue
 ss=(read,tcheck) scf=(maxcycle=1)
 ----------------------------------------------------------------------
 -----
 title
 -----
 Structure from the checkpoint file:  "BDE49_nonexpt_1812_mol2.chk"
 Charge =  0 Multiplicity = 2

                         Standard orientation:
 ---------------------------------------------------------------------
 Center     Atomic      Atomic             Coordinates (Angstroms)
 Number     Number       Type             X           Y           Z
 ---------------------------------------------------------------------
      1          6           0       -0.266313    0.944229   -0.020985
      2          8           0       -0.688740    2.045860   -0.284076
      3         14           0        1.597320    0.699579    0.356411
      4          8           0       -1.017085   -0.157694    0.110193
      5         17           0        2.292889   -1.185892   -0.178911
      6          6           0       -2.451431   -0.001341   -0.104158
      7          6           0       -3.090053   -1.356817    0.108077
      8          1           0       -2.607889    0.376979   -1.116569
      9          1           0       -2.823468    0.749257    0.596575
     10          1           0       -2.689049   -2.090222   -0.594311
     11          1           0       -4.169626   -1.284415   -0.047577
     12          1           0       -2.912060   -1.717237    1.123289
     13          1           0        2.353882    1.709943   -0.416223
 ---------------------------------------------------------------------

 SCF Done:  E(UHF) =  -1016.85871344     A.U. after    2 cycles

 The electronic state is 2-A.
 Alpha  occ. eigenvalues --  -99.89722 -76.28991 -21.10045 -21.06972 -11.49592
 Alpha  occ. eigenvalues --  -11.45116 -11.37939 -10.47085  -9.66987  -9.66349
 Alpha  occ. eigenvalues --   -9.66295  -5.62435  -2.25929  -2.24318  -2.22933
 Alpha  occ. eigenvalues --   -1.84491  -1.67546  -1.30155  -1.14681  -0.92937
 Alpha  occ. eigenvalues --   -0.84463  -0.74036  -0.66800  -0.64050  -0.59295
 Alpha  occ. eigenvalues --   -0.56790  -0.56079  -0.54756  -0.53495  -0.52852
 Alpha  occ. eigenvalues --   -0.50225  -0.49088  -0.41462  -0.34382  -0.33293
 Alpha  occ. eigenvalues --   -0.27325
 Alpha virt. eigenvalues --    0.03601   0.04818   0.05319   0.05501   0.06030
 Alpha virt. eigenvalues --    0.06371   0.06602   0.07126   0.08521   0.10022
 Alpha virt. eigenvalues --    0.11320   0.12314   0.12720   0.13182   0.14464

  Beta  occ. eigenvalues --  -99.89628 -76.28414 -21.10055 -21.06686 -11.49550
  Beta  occ. eigenvalues --  -11.45114 -11.37938 -10.46984  -9.66859  -9.66250
  Beta  occ. eigenvalues --   -9.66032  -5.61511  -2.25253  -2.23682  -2.19398
  Beta  occ. eigenvalues --   -1.84391  -1.67071  -1.29389  -1.14649  -0.92510
  Beta  occ. eigenvalues --   -0.82182  -0.72734  -0.66796  -0.63233  -0.59145
  Beta  occ. eigenvalues --   -0.55889  -0.55535  -0.53839  -0.52965  -0.52638
  Beta  occ. eigenvalues --   -0.50038  -0.48557  -0.41042  -0.32922  -0.30172
  Beta virt. eigenvalues --    0.01974   0.03824   0.05155   0.05609   0.05930
  Beta virt. eigenvalues --    0.06146   0.06437   0.06670   0.07446   0.08965
  Beta virt. eigenvalues --    0.10821   0.11525   0.12744   0.13365   0.13944

 Mulliken charges and spin densities:
               1          2
     1  C    3.058143  -0.074614
     2  O   -2.382185   0.082927
     3  Si   3.520655   0.887152
     4  O   -2.829539  -0.027081
     5  Cl  -0.889886   0.060945
     6  C   -2.144014   0.011085
     7  C   -3.527731  -0.001855
     8  H    1.594349  -0.001868
     9  H    1.604975  -0.005019
    10  H    1.278482  -0.001233
    11  H    1.102664   0.000127
    12  H    1.292408   0.000126
    13  H   -1.678321   0.069308
 Sum of Mulliken charges =  -0.00000   1.00000

 Dipole moment (field-independent basis, Debye):
    X=             -1.9023    Y=              0.0883    Z=              0.6836  Tot=              2.0233
                          Isotropic Fermi Contact Couplings
        Atom                 a.u.       MegaHertz       Gauss      10(-4) cm-1
     1  C(13)              0.01990      22.37673       7.98457       7.46407
     2  O(17)              0.01766     -10.70660      -3.82038      -3.57134
     3  Si(29)             0.58984    -524.20493    -187.04935    -174.85594
     4  O(17)             -0.00047       0.28758       0.10262       0.09593
     5  Cl(35)             0.06222      27.27899       9.73382       9.09929
     6  C(13)              0.00033       0.37056       0.13222       0.12360
     7  C(13)              0.00032       0.35706       0.12741       0.11910
     8  H(1)              -0.00012      -0.51577      -0.18404      -0.17204

 Normal termination of Gaussian 16 at Tue Apr  8 23:50:11 2025.
