 Gaussian 16, Revision C.01,

 ----------------------------------------------------------------------
 #t hf aug-cc-pvdz symm=none int=(grid=ultrafine) guess=(read,tcheck) s
 table=(opt,rrhf)
 ----------------------------------------------------------------------
 -----
 title
 -----
 Symbolic Z-matrix:
 Charge =  0 Multiplicity = 1

 SCF Done:  E(RHF) =  -1377.45135681     A.U. after   16 cycles
 Normal termination of Gaussian 16 at Wed Apr  9 00:16:14 2025.
 Gaussian 16:  ES64L-G16RevC.01  3-Jul-2019

 ----------------------------------------------------------------------
 #t hf aug-cc-pvdz iop(5/13=1,5/36=2,99/5=2) pseudo=read geom=check gue
 ss=(read,tcheck) scf=(maxcycle=1)
 ----------------------------------------------------------------------
 -----
 title
 -----
 Structure from the checkpoint file:  "BDE49_nonexpt_247_mol1.chk"
 Charge =  0 Multiplicity = 1

                         Standard orientation:
 ---------------------------------------------------------------------
 Center     Atomic      Atomic             Coordinates (Angstroms)
 Number     Number       Type             X           Y           Z
 ---------------------------------------------------------------------
      1         17           0       -3.443157    0.786635   -0.000020
      2         17           0       -2.219362   -1.966287   -0.000029
      3          5           0       -1.988452   -0.217190    0.000045
      4          6           0       -0.572270    0.413883    0.000029
      5          6           0        0.574993   -0.398100    0.000018
      6          6           0        1.830730    0.187781    0.000003
      7          6           0        2.006913    1.567637   -0.000003
      8          6           0       -0.391825    1.811095    0.000022
      9          1           0       -1.260926    2.457342    0.000030
     10          6           0        0.877846    2.380014    0.000007
     11          1           0        0.991050    3.457267    0.000002
     12          1           0        3.008427    1.975062   -0.000015
     13          7           0        3.030674   -0.685331   -0.000006
     14          8           0        2.850099   -1.893775    0.000019
     15          8           0        4.123860   -0.137423    0.000001
     16          1           0        0.501813   -1.476606    0.000022
 ---------------------------------------------------------------------

 SCF Done:  E(RHF) =  -1379.96787604     A.U. after    2 cycles

 The electronic state is 1-A.
 Alpha  occ. eigenvalues --  -99.91121 -99.90991 -21.10354 -21.10229 -16.00960
 Alpha  occ. eigenvalues --  -11.56273 -11.49424 -11.48538 -11.47309 -11.45111
 Alpha  occ. eigenvalues --  -11.40997 -10.48503 -10.48222  -9.68492  -9.68205
 Alpha  occ. eigenvalues --   -9.67977  -9.67859  -9.67743  -9.67584  -7.75559
 Alpha  occ. eigenvalues --   -2.00751  -1.70055  -1.43521  -1.36932  -1.30820
 Alpha  occ. eigenvalues --   -1.19495  -1.14878  -1.01380  -0.93783  -0.86769
 Alpha  occ. eigenvalues --   -0.79890  -0.76111  -0.70384  -0.68581  -0.67377
 Alpha  occ. eigenvalues --   -0.65932  -0.64119  -0.62316  -0.59355  -0.57329
 Alpha  occ. eigenvalues --   -0.53942  -0.53657  -0.53580  -0.52066  -0.49777
 Alpha  occ. eigenvalues --   -0.46181  -0.38675  -0.37550  -0.36483  -0.32215
 Alpha  occ. eigenvalues --   -0.32108
 Alpha virt. eigenvalues --    0.01959   0.02262   0.03968   0.04038   0.04438
 Alpha virt. eigenvalues --    0.05351   0.06210   0.06969   0.07783   0.09762
 Alpha virt. eigenvalues --    0.10796   0.11115   0.11230   0.11900   0.12860

 Mulliken charges:
               1
     1  Cl  -1.492778
     2  Cl  -1.388440
     3  B    1.215782
     4  C    0.199906
     5  C   -2.665818
     6  C    4.909295
     7  C   -3.756609
     8  C   -2.825029
     9  H    1.855423
    10  C    1.144392
    11  H    1.596516
    12  H    1.880704
    13  N    3.390160
    14  O   -2.997385
    15  O   -3.064317
    16  H    1.998197
 Sum of Mulliken charges =  -0.00000

 Dipole moment (field-independent basis, Debye):
    X=             -0.3171    Y=              2.7716    Z=              0.0001  Tot=              2.7896

 Test job not archived.
 1\1\GINC-SE457\SP\RHF\Aug-CC-pVDZ\C6H4B1Cl2N1O2\OHZDE\09-Apr-2025\0\\#
 t hf aug-cc-pvdz iop(5/13=1,5/36=2,99/5=2) pseudo=read geom=check gues
 s=(read,tcheck) scf=(maxcycle=1)\\title\\0,1\Cl,0,-3.443157,0.786635,-
 0.00002\Cl,0,-2.219362,-1.966287,-0.000029\B,0,-1.988452,-0.21719,0.00
 0045\C,0,-0.57227,0.413883,0.000029\C,0,0.574993,-0.3981,0.000018\C,0,
 1.83073,0.187781,0.000003\C,0,2.006913,1.567637,-0.000003\C,0,-0.39182
 5,1.811095,0.000022\H,0,-1.260926,2.457342,0.00003\C,0,0.877846,2.3800
 14,0.000007\H,0,0.99105,3.457267,0.000002\H,0,3.008427,1.975062,-0.000

 Normal termination of Gaussian 16 at Wed Apr  9 00:16:24 2025.
