 Gaussian 16, Revision C.01,

 ----------------------------------------------------------------------
 #t hf aug-cc-pvdz symm=none int=(grid=ultrafine) guess=(read,tcheck) s
 table=(opt,rrhf)
 ----------------------------------------------------------------------
 -----
 title
 -----
 Symbolic Z-matrix:
 Charge =  0 Multiplicity = 1

 SCF Done:  E(RHF) =  -381.518448922     A.U. after   14 cycles
 Normal termination of Gaussian 16 at Tue Apr  8 23:21:58 2025.
 Gaussian 16:  ES64L-G16RevC.01  3-Jul-2019

 ----------------------------------------------------------------------
 #t hf aug-cc-pvdz iop(5/13=1,5/36=2,99/5=2) pseudo=read geom=check gue
 ss=(read,tcheck) scf=(maxcycle=1)
 ----------------------------------------------------------------------
 -----
 title
 -----
 Structure from the checkpoint file:  "BDE49_nonexpt_1159_mol1.chk"
 Charge =  0 Multiplicity = 1

                         Standard orientation:
 ---------------------------------------------------------------------
 Center     Atomic      Atomic             Coordinates (Angstroms)
 Number     Number       Type             X           Y           Z
 ---------------------------------------------------------------------
      1          9           0       -2.030481   -0.719941   -0.000026
      2          8           0       -1.313682    0.519311   -0.000094
      3          6           0        0.038516    0.284430   -0.000025
      4          7           0        0.510639   -0.890609    0.000005
      5          8           0        1.922920   -0.835014    0.000107
      6          1           0        2.155347   -1.768366    0.000026
      7          6           0        0.762626    1.594770    0.000017
      8          1           0        0.060876    2.428329   -0.000759
      9          1           0        1.402047    1.651762   -0.882772
     10          1           0        1.400830    1.652437    0.883649
 ---------------------------------------------------------------------

 SCF Done:  E(RHF) =  -383.072313498     A.U. after    2 cycles

 The electronic state is 1-A.
 Alpha  occ. eigenvalues --  -29.31302 -21.18603 -21.10946 -15.78052 -11.50315
 Alpha  occ. eigenvalues --  -11.40994  -1.86596  -1.78596  -1.26091  -1.10642
 Alpha  occ. eigenvalues --   -0.83885  -0.68864  -0.68061  -0.65032  -0.57907
 Alpha  occ. eigenvalues --   -0.55949  -0.55238  -0.53437  -0.48486  -0.39092
 Alpha  occ. eigenvalues --   -0.35443  -0.31755  -0.27173  -0.23113
 Alpha virt. eigenvalues --    0.03592   0.05520   0.06076   0.06408   0.09729
 Alpha virt. eigenvalues --    0.11854   0.12132   0.13169   0.14663   0.15139
 Alpha virt. eigenvalues --    0.17275   0.18369   0.18624   0.19317   0.20481

 Mulliken charges:
               1
     1  F   -0.216998
     2  O   -1.787996
     3  C    4.153896
     4  N   -0.847793
     5  O   -2.280171
     6  H    0.911107
     7  C   -3.751361
     8  H    1.307048
     9  H    1.256133
    10  H    1.256136
 Sum of Mulliken charges =  -0.00000

 Dipole moment (field-independent basis, Debye):
    X=              0.1291    Y=              0.0824    Z=              0.0001  Tot=              0.1531

 Test job not archived.
 1\1\GINC-SE038\SP\RHF\Aug-CC-pVDZ\C2H4F1N1O2\OHZDE\08-Apr-2025\0\\#t h
 f aug-cc-pvdz iop(5/13=1,5/36=2,99/5=2) pseudo=read geom=check guess=(
 read,tcheck) scf=(maxcycle=1)\\title\\0,1\F,0,-2.030481,-0.719942,-0.0
 00026\O,0,-1.313682,0.519311,-0.000094\C,0,0.038516,0.28443,-0.000025\
 N,0,0.510639,-0.890609,0.000005\O,0,1.92292,-0.835014,0.000107\H,0,2.1
 55347,-1.768366,0.000026\C,0,0.762625,1.59477,0.000017\H,0,0.060875,2.
 428329,-0.000759\H,0,1.402046,1.651762,-0.882772\H,0,1.400829,1.652437
 ,0.883649\\Version=ES64L-G16RevC.01\State=1-A\HF=-383.0723135\RMSD=1.5

 Normal termination of Gaussian 16 at Tue Apr  8 23:22:02 2025.
