 Gaussian 16, Revision C.01,

 ----------------------------------------------------------------------
 #t hf aug-cc-pvdz symm=none int=(grid=ultrafine) guess=(read,tcheck) s
 table=(opt,rrhf)
 ----------------------------------------------------------------------
 -----
 title
 -----
 Symbolic Z-matrix:
 Charge =  0 Multiplicity = 1

 SCF Done:  E(RHF) =  -514.189847522     A.U. after   15 cycles
 Normal termination of Gaussian 16 at Tue Apr  8 23:22:06 2025.
 Gaussian 16:  ES64L-G16RevC.01  3-Jul-2019

 ----------------------------------------------------------------------
 #t hf aug-cc-pvdz iop(5/13=1,5/36=2,99/5=2) pseudo=read geom=check gue
 ss=(read,tcheck) scf=(maxcycle=1)
 ----------------------------------------------------------------------
 -----
 title
 -----
 Structure from the checkpoint file:  "BDE49_nonexpt_1160_mol1.chk"
 Charge =  0 Multiplicity = 1

                         Standard orientation:
 ---------------------------------------------------------------------
 Center     Atomic      Atomic             Coordinates (Angstroms)
 Number     Number       Type             X           Y           Z
 ---------------------------------------------------------------------
      1          9           0       -2.933382   -0.223411   -0.221931
      2          8           0       -1.626466   -0.772176   -0.335643
      3          6           0       -0.748131    0.111156    0.256259
      4          8           0       -0.984950    1.168464    0.718101
      5          8           0        0.426446   -0.575248    0.216119
      6          6           0        1.612819    0.110985   -0.160491
      7          8           0        1.589392    1.159316   -0.712292
      8          6           0        2.792763   -0.726125    0.225210
      9          1           0        2.694680   -1.726479   -0.200864
     10          1           0        2.822777   -0.833370    1.312038
     11          1           0        3.702891   -0.248393   -0.129945
 ---------------------------------------------------------------------

 SCF Done:  E(RHF) =  -516.233014827     A.U. after    2 cycles

 The electronic state is 1-A.
 Alpha  occ. eigenvalues --  -29.33614 -21.20887 -21.15077 -21.10432 -21.10267
 Alpha  occ. eigenvalues --  -11.59330 -11.57362 -11.42882  -1.97460  -1.82987
 Alpha  occ. eigenvalues --   -1.73736  -1.70768  -1.15324  -0.94969  -0.79356
 Alpha  occ. eigenvalues --   -0.69985  -0.69691  -0.68573  -0.65168  -0.62099
 Alpha  occ. eigenvalues --   -0.59681  -0.56210  -0.52146  -0.50553  -0.45114
 Alpha  occ. eigenvalues --   -0.40239  -0.36865  -0.34790  -0.32913  -0.29244
 Alpha  occ. eigenvalues --   -0.25637
 Alpha virt. eigenvalues --    0.02793   0.05318   0.05558   0.07737   0.10838
 Alpha virt. eigenvalues --    0.11323   0.11576   0.12285   0.12400   0.12582
 Alpha virt. eigenvalues --    0.13373   0.14933   0.15252   0.16542   0.18498

 Mulliken charges:
               1
     1  F   -0.194414
     2  O   -1.102563
     3  C    5.843347
     4  O   -2.439379
     5  O   -3.433167
     6  C    4.603927
     7  O   -2.890432
     8  C   -4.153443
     9  H    1.266606
    10  H    1.307300
    11  H    1.192220
 Sum of Mulliken charges =  -0.00000

 Dipole moment (field-independent basis, Debye):
    X=              0.2273    Y=             -1.0898    Z=              0.1439  Tot=              1.1225

 Test job not archived.
 1\1\GINC-SE108\SP\RHF\Aug-CC-pVDZ\C3H3F1O4\OHZDE\08-Apr-2025\0\\#t hf
 aug-cc-pvdz iop(5/13=1,5/36=2,99/5=2) pseudo=read geom=check guess=(re
 ad,tcheck) scf=(maxcycle=1)\\title\\0,1\F,0,-2.933382,-0.223411,-0.221
 931\O,0,-1.626466,-0.772176,-0.335643\C,0,-0.748131,0.111156,0.256259\
 O,0,-0.98495,1.168464,0.718101\O,0,0.426446,-0.575248,0.216119\C,0,1.6
 12819,0.110985,-0.160491\O,0,1.589392,1.159316,-0.712292\C,0,2.792763,
 -0.726125,0.22521\H,0,2.69468,-1.726479,-0.200864\H,0,2.822777,-0.8333
 7,1.312038\H,0,3.702891,-0.248393,-0.129945\\Version=ES64L-G16RevC.01\

 Normal termination of Gaussian 16 at Tue Apr  8 23:22:10 2025.
