 Gaussian 16, Revision C.01,

 ----------------------------------------------------------------------
 #t hf aug-cc-pvdz symm=none int=(grid=ultrafine) guess=(read,tcheck) s
 table=(opt,rrhf)
 ----------------------------------------------------------------------
 -----
 title
 -----
 Symbolic Z-matrix:
 Charge =  0 Multiplicity = 1

 SCF Done:  E(RHF) =  -845.184565204     A.U. after   14 cycles
 Normal termination of Gaussian 16 at Wed Apr  9 00:12:41 2025.
 Gaussian 16:  ES64L-G16RevC.01  3-Jul-2019

 ----------------------------------------------------------------------
 #t hf aug-cc-pvdz iop(5/13=1,5/36=2,99/5=2) pseudo=read geom=check gue
 ss=(read,tcheck) scf=(maxcycle=1)
 ----------------------------------------------------------------------
 -----
 title
 -----
 Structure from the checkpoint file:  "BDE49_nonexpt_2386_mol1.chk"
 Charge =  0 Multiplicity = 1

                         Standard orientation:
 ---------------------------------------------------------------------
 Center     Atomic      Atomic             Coordinates (Angstroms)
 Number     Number       Type             X           Y           Z
 ---------------------------------------------------------------------
      1         14           0       -1.183688    1.449006   -0.028846
      2         14           0        1.183687    1.449007    0.028846
      3          6           0        1.884732   -0.101638   -0.851807
      4          1           0        1.645664    1.580737    1.431632
      5          1           0        1.689063    2.615201   -0.737144
      6          7           0        2.130603   -1.274437   -0.426492
      7          6           0       -1.884733   -0.101639    0.851807
      8          1           0       -1.645665    1.580736   -1.431632
      9          1           0       -1.689065    2.615200    0.737144
     10          7           0       -2.130602   -1.274437    0.426492
     11          6           0        1.891820   -1.624616    0.961335
     12          1           0        2.821141   -2.014568    1.386757
     13          1           0        1.163315   -2.439957    0.993983
     14          1           0        1.528785   -0.803242    1.593434
     15          6           0       -1.891818   -1.624618   -0.961334
     16          1           0       -1.163314   -2.439958   -0.993982
     17          1           0       -1.528782   -0.803244   -1.593434
     18          1           0       -2.821138   -2.014570   -1.386758
     19          1           0        2.091091    0.054334   -1.918693
     20          1           0       -2.091091    0.054333    1.918693
 ---------------------------------------------------------------------

 SCF Done:  E(RHF) =  -846.774191620     A.U. after    2 cycles

 The electronic state is 1-A.
 Alpha  occ. eigenvalues --  -76.22715 -76.22664 -15.74563 -15.74561 -11.40034
 Alpha  occ. eigenvalues --  -11.39937 -11.38834 -11.38674  -5.56281  -5.56276
 Alpha  occ. eigenvalues --   -2.20176  -2.20024  -2.18724  -2.18616  -2.18228
 Alpha  occ. eigenvalues --   -2.16969  -1.37537  -1.37517  -1.02994  -1.02939
 Alpha  occ. eigenvalues --   -0.86665  -0.82918  -0.74175  -0.69796  -0.64142
 Alpha  occ. eigenvalues --   -0.63583  -0.59575  -0.58809  -0.55239  -0.54794
 Alpha  occ. eigenvalues --   -0.51037  -0.50795  -0.48695  -0.47619  -0.43384
 Alpha  occ. eigenvalues --   -0.41167  -0.36066  -0.33355  -0.31655
 Alpha virt. eigenvalues --    0.03593   0.04492   0.05092   0.05452   0.05618
 Alpha virt. eigenvalues --    0.05806   0.06882   0.07295   0.07471   0.07754
 Alpha virt. eigenvalues --    0.08018   0.08136   0.08566   0.08584   0.09208

 Mulliken charges:
               1
     1  Si   4.678400
     2  Si   4.678397
     3  C   -1.008612
     4  H   -1.591500
     5  H   -2.138651
     6  N   -2.461496
     7  C   -1.008614
     8  H   -1.591500
     9  H   -2.138651
    10  N   -2.461497
    11  C   -3.427118
    12  H    1.324774
    13  H    1.501173
    14  H    1.586189
    15  C   -3.427115
    16  H    1.501173
    17  H    1.586187
    18  H    1.324774
    19  H    1.536843
    20  H    1.536843
 Sum of Mulliken charges =  -0.00000

 Dipole moment (field-independent basis, Debye):
    X=              0.0000    Y=              0.3452    Z=              0.0000  Tot=              0.3452

 Test job not archived.
 1\1\GINC-SE335\SP\RHF\Aug-CC-pVDZ\C4H12N2Si2\OHZDE\09-Apr-2025\0\\#t h
 f aug-cc-pvdz iop(5/13=1,5/36=2,99/5=2) pseudo=read geom=check guess=(
 read,tcheck) scf=(maxcycle=1)\\title\\0,1\Si,0,1.183688,1.449006,0.028
 846\Si,0,-1.183687,1.449007,-0.028846\C,0,-1.884732,-0.101638,0.851807
 \H,0,-1.645664,1.580737,-1.431632\H,0,-1.689063,2.615201,0.737144\N,0,
 -2.130603,-1.274436,0.426492\C,0,1.884733,-0.101639,-0.851807\H,0,1.64
 5665,1.580736,1.431632\H,0,1.689065,2.6152,-0.737144\N,0,2.130602,-1.2
 74437,-0.426492\C,0,-1.89182,-1.624616,-0.961335\H,0,-2.821141,-2.0145

 Normal termination of Gaussian 16 at Wed Apr  9 00:12:50 2025.
