 Gaussian 16, Revision C.01,

 ----------------------------------------------------------------------
 #t hf aug-cc-pvdz symm=none int=(grid=ultrafine) guess=(read,tcheck) s
 table=(opt,rrhf)
 ----------------------------------------------------------------------
 -----
 title
 -----
 Symbolic Z-matrix:
 Charge =  0 Multiplicity = 1

 SCF Done:  E(RHF) =  -450.726469060     A.U. after   11 cycles
 Normal termination of Gaussian 16 at Tue Apr  8 22:41:30 2025.
 Gaussian 16:  ES64L-G16RevC.01  3-Jul-2019

 ----------------------------------------------------------------------
 #t hf aug-cc-pvdz iop(5/13=1,5/36=2,99/5=2) pseudo=read geom=check gue
 ss=(read,tcheck) scf=(maxcycle=1)
 ----------------------------------------------------------------------
 -----
 title
 -----
 Structure from the checkpoint file:  "BDE49_expt_1331_mol1.chk"
 Charge =  0 Multiplicity = 1

                         Standard orientation:
 ---------------------------------------------------------------------
 Center     Atomic      Atomic             Coordinates (Angstroms)
 Number     Number       Type             X           Y           Z
 ---------------------------------------------------------------------
      1          6           0        0.909004    0.740061   -0.000001
      2          8           0        1.939433   -0.221891    0.000000
      3          1           0        2.782459    0.239037    0.000009
      4          6           0       -0.417862    0.006498    0.000000
      5          1           0        0.919718    1.377817   -0.892639
      6          1           0        0.919718    1.377820    0.892635
      7          9           0       -1.426384    0.910151   -0.000003
      8          9           0       -0.569265   -0.771678    1.085653
      9          9           0       -0.569264   -0.771684   -1.085650
 ---------------------------------------------------------------------

 SCF Done:  E(RHF) =  -452.400601740     A.U. after    2 cycles

 The electronic state is 1-A.
 Alpha  occ. eigenvalues --  -29.30681 -29.30432 -29.30382 -21.10268 -11.60010
 Alpha  occ. eigenvalues --  -11.45057  -1.75136  -1.41056  -1.02785  -0.88788
 Alpha  occ. eigenvalues --   -0.87974  -0.72321  -0.63865  -0.63151  -0.48464
 Alpha  occ. eigenvalues --   -0.45190  -0.43397  -0.43333  -0.36425  -0.35485
 Alpha  occ. eigenvalues --   -0.34461  -0.30144  -0.25104  -0.25093  -0.21013
 Alpha virt. eigenvalues --    0.03453   0.05522   0.05711   0.09920   0.11102
 Alpha virt. eigenvalues --    0.12615   0.12978   0.14034   0.16831   0.17747
 Alpha virt. eigenvalues --    0.19760   0.22309   0.22692   0.22708   0.25069

 Mulliken charges:
               1
     1  C   -1.823339
     2  O   -2.402650
     3  H    0.779379
     4  C   -0.383720
     5  H    1.295906
     6  H    1.295908
     7  F    0.385775
     8  F    0.426372
     9  F    0.426370
 Sum of Mulliken charges =   0.00000

 Dipole moment (field-independent basis, Debye):
    X=             -0.4072    Y=             -0.0701    Z=              0.0000  Tot=              0.4132

 Test job not archived.
 1\1\GINC-SE043\SP\RHF\Aug-CC-pVDZ\C2H3F3O1\OHZDE\08-Apr-2025\0\\#t hf
 aug-cc-pvdz iop(5/13=1,5/36=2,99/5=2) pseudo=read geom=check guess=(re
 ad,tcheck) scf=(maxcycle=1)\\title\\0,1\C,0,0.909004,0.740061,-0.00000
 1\O,0,1.939433,-0.221891,0.\H,0,2.782459,0.239037,0.000009\C,0,-0.4178
 62,0.006498,0.\H,0,0.919718,1.377817,-0.892639\H,0,0.919718,1.37782,0.
 892635\F,0,-1.426384,0.910151,-0.000003\F,0,-0.569265,-0.771678,1.0856
 53\F,0,-0.569264,-0.771684,-1.08565\\Version=ES64L-G16RevC.01\State=1-
 A\HF=-452.4006017\RMSD=1.991e-01\Dipole=-0.1602098,-0.0275955,0.000003

 Normal termination of Gaussian 16 at Tue Apr  8 22:41:34 2025.
