 Gaussian 16, Revision C.01,

 ----------------------------------------------------------------------
 #t hf aug-cc-pvdz symm=none int=(grid=ultrafine) guess=(read,tcheck) s
 table=opt
 ----------------------------------------------------------------------
 -----
 title
 -----
 Symbolic Z-matrix:
 Charge =  0 Multiplicity = 2

 SCF Done:  E(UHF) =  -624.740182991     A.U. after   21 cycles
 Normal termination of Gaussian 16 at Tue Apr  8 23:16:55 2025.
 Gaussian 16:  ES64L-G16RevC.01  3-Jul-2019

 ----------------------------------------------------------------------
 #t hf aug-cc-pvdz iop(5/13=1,5/36=2,99/5=2) pseudo=read geom=check gue
 ss=(read,tcheck) scf=(maxcycle=1)
 ----------------------------------------------------------------------
 -----
 title
 -----
 Structure from the checkpoint file:  "BDE49_nonexpt_1007_mol2.chk"
 Charge =  0 Multiplicity = 2

                         Standard orientation:
 ---------------------------------------------------------------------
 Center     Atomic      Atomic             Coordinates (Angstroms)
 Number     Number       Type             X           Y           Z
 ---------------------------------------------------------------------
      1         16           0        1.805529   -0.068320   -0.000078
      2          8           0        0.253261   -0.669722    0.000034
      3          6           0       -0.849283    0.216984    0.000121
      4          6           0       -2.108861   -0.602150    0.000019
      5          1           0       -2.969918    0.062640   -0.000046
      6          1           0       -2.128460   -1.248641    0.879928
      7          1           0       -2.128331   -1.248644   -0.879892
      8          8           0       -0.742374    1.399568    0.000019
 ---------------------------------------------------------------------

 SCF Done:  E(UHF) =  -625.904452146     A.U. after    2 cycles

 The electronic state is 2-A.
 Alpha  occ. eigenvalues --  -75.75929 -21.12277 -21.07876 -13.21357 -13.09239
 Alpha  occ. eigenvalues --  -13.08771 -11.54061 -11.41036  -8.09195  -1.85204
 Alpha  occ. eigenvalues --   -1.69465  -1.14644  -1.05030  -0.76976  -0.65092
 Alpha  occ. eigenvalues --   -0.63654  -0.61161  -0.53507  -0.52744  -0.44013
 Alpha  occ. eigenvalues --   -0.42074  -0.31892  -0.27110  -0.25430
 Alpha virt. eigenvalues --    0.02997   0.05717   0.06081   0.06349   0.08277
 Alpha virt. eigenvalues --    0.11104   0.11939   0.12472   0.13703   0.14716
 Alpha virt. eigenvalues --    0.14884   0.16810   0.17210   0.17880   0.19166

  Beta  occ. eigenvalues --  -75.74966 -21.11806 -21.07859 -13.20975 -13.08682
  Beta  occ. eigenvalues --  -13.02840 -11.54082 -11.41040  -8.08117  -1.84382
  Beta  occ. eigenvalues --   -1.69019  -1.13615  -0.98019  -0.75603  -0.64892
  Beta  occ. eigenvalues --   -0.63146  -0.60969  -0.52473  -0.51579  -0.43221
  Beta  occ. eigenvalues --   -0.38728  -0.31720  -0.24065
  Beta virt. eigenvalues --    0.03018   0.04044   0.05884   0.06120   0.06468
  Beta virt. eigenvalues --    0.08381   0.12040   0.12644   0.12700   0.13785
  Beta virt. eigenvalues --    0.14991   0.15063   0.17151   0.17252   0.19585

 Mulliken charges and spin densities:
               1          2
     1  S    0.810050   0.964866
     2  O   -2.491003   0.017481
     3  C    4.586852  -0.004581
     4  C   -3.908534   0.006411
     5  H    1.215022  -0.001355
     6  H    1.240945  -0.000218
     7  H    1.240901  -0.000218
     8  O   -2.694233   0.017614
 Sum of Mulliken charges =  -0.00000   1.00000

 Dipole moment (field-independent basis, Debye):
    X=             -0.2030    Y=             -0.6695    Z=             -0.0001  Tot=              0.6997
                          Isotropic Fermi Contact Couplings
        Atom                 a.u.       MegaHertz       Gauss      10(-4) cm-1
     1  S(33)              0.28004      96.18792      34.32224      32.08484
     2  O(17)              0.02994     -18.14701      -6.47530      -6.05319
     3  C(13)             -0.00177      -1.99531      -0.71198      -0.66556
     4  C(13)             -0.00120      -1.35088      -0.48203      -0.45061
     5  H(1)              -0.00013      -0.56870      -0.20293      -0.18970
     6  H(1)               0.00028       1.25618       0.44823       0.41901
     7  H(1)               0.00028       1.25662       0.44839       0.41916
     8  O(17)              0.00019      -0.11304      -0.04034      -0.03771

 Normal termination of Gaussian 16 at Tue Apr  8 23:16:59 2025.
