 Gaussian 16, Revision C.01,

 ----------------------------------------------------------------------
 #t hf aug-cc-pvdz symm=none int=(grid=ultrafine) guess=(read,tcheck) s
 table=opt
 ----------------------------------------------------------------------
 -----
 title
 -----
 Symbolic Z-matrix:
 Charge =  0 Multiplicity = 2

 SCF Done:  E(UHF) =  -213.406217684     A.U. after   21 cycles
 Normal termination of Gaussian 16 at Wed Apr  9 00:35:48 2025.
 Gaussian 16:  ES64L-G16RevC.01  3-Jul-2019

 ----------------------------------------------------------------------
 #t hf aug-cc-pvdz iop(5/13=1,5/36=2,99/5=2) pseudo=read geom=check gue
 ss=(read,tcheck) scf=(maxcycle=1)
 ----------------------------------------------------------------------
 -----
 title
 -----
 Structure from the checkpoint file:  "BDE49_nonexpt_476_mol2.chk"
 Charge =  0 Multiplicity = 2

                         Standard orientation:
 ---------------------------------------------------------------------
 Center     Atomic      Atomic             Coordinates (Angstroms)
 Number     Number       Type             X           Y           Z
 ---------------------------------------------------------------------
      1          1           0       -2.294701   -1.036434    0.517369
      2          5           0       -1.365243   -0.743208   -0.142271
      3          6           0       -0.047767   -0.011969   -0.007278
      4          8           0       -0.204724    1.204144    0.008312
      5          8           0        1.152837   -0.612481    0.015750
      6          1           0        1.822610    0.090985    0.045159
 ---------------------------------------------------------------------

 SCF Done:  E(UHF) =  -214.258184541     A.U. after    2 cycles

 The electronic state is 2-A.
 Alpha  occ. eigenvalues --  -21.13679 -21.07303 -11.48160  -7.67776  -1.83647
 Alpha  occ. eigenvalues --   -1.66859  -0.96924  -0.75034  -0.61578  -0.60430
 Alpha  occ. eigenvalues --   -0.56856  -0.45940  -0.36928  -0.32837  -0.29598
 Alpha virt. eigenvalues --    0.03376   0.04140   0.04452   0.04870   0.07644
 Alpha virt. eigenvalues --    0.09782   0.11088   0.14726   0.15364   0.15661
 Alpha virt. eigenvalues --    0.17306   0.19258   0.20326   0.21288   0.22267

  Beta  occ. eigenvalues --  -21.13735 -21.06412 -11.48476  -7.66071  -1.83404
  Beta  occ. eigenvalues --   -1.65565  -0.93619  -0.73413  -0.61332  -0.60323
  Beta  occ. eigenvalues --   -0.54982  -0.45460  -0.33881  -0.31082
  Beta virt. eigenvalues --    0.03475   0.03828   0.04198   0.04757   0.07378
  Beta virt. eigenvalues --    0.08458   0.11168   0.12315   0.14948   0.15572
  Beta virt. eigenvalues --    0.15929   0.18712   0.20226   0.21208   0.22054

 Mulliken charges and spin densities:
               1          2
     1  H   -1.589850  -0.008305
     2  B    2.407517   0.910628
     3  C    3.177801  -0.157781
     4  O   -2.336817   0.252179
     5  O   -2.551253   0.003014
     6  H    0.892602   0.000265
 Sum of Mulliken charges =  -0.00000   1.00000

 Dipole moment (field-independent basis, Debye):
    X=              0.7318    Y=             -0.4691    Z=              0.5440  Tot=              1.0254
                          Isotropic Fermi Contact Couplings
        Atom                 a.u.       MegaHertz       Gauss      10(-4) cm-1
     1  H(1)              -0.00523     -23.36145      -8.33595      -7.79254
     2  B(11)              0.14978     214.83528      76.65857      71.66134
     3  C(13)             -0.01893     -21.27994      -7.59321      -7.09822
     4  O(17)              0.05128     -31.08289     -11.09115     -10.36814
     5  O(17)             -0.01170       7.09355       2.53115       2.36615
     6  H(1)              -0.00034      -1.52991      -0.54591      -0.51032
 --------------------------------------------------------
       Center         ----  Spin Dipole Couplings  ----

 Normal termination of Gaussian 16 at Wed Apr  9 00:35:50 2025.
