 Gaussian 16, Revision C.01,

 ----------------------------------------------------------------------
 #t hf aug-cc-pvdz symm=none int=(grid=ultrafine) guess=(read,tcheck) s
 table=(opt,rrhf)
 ----------------------------------------------------------------------
 -----
 title
 -----
 Symbolic Z-matrix:
 Charge =  0 Multiplicity = 1

 SCF Done:  E(RHF) =  -609.555787877     A.U. after   13 cycles
 Normal termination of Gaussian 16 at Tue Apr  8 23:43:10 2025.
 Gaussian 16:  ES64L-G16RevC.01  3-Jul-2019

 ----------------------------------------------------------------------
 #t hf aug-cc-pvdz iop(5/13=1,5/36=2,99/5=2) pseudo=read geom=check gue
 ss=(read,tcheck) scf=(maxcycle=1)
 ----------------------------------------------------------------------
 -----
 title
 -----
 Structure from the checkpoint file:  "BDE49_nonexpt_16_mol1.chk"
 Charge =  0 Multiplicity = 1

                         Standard orientation:
 ---------------------------------------------------------------------
 Center     Atomic      Atomic             Coordinates (Angstroms)
 Number     Number       Type             X           Y           Z
 ---------------------------------------------------------------------
      1          5           0        1.314550    0.311305    0.438928
      2          5           0       -0.161165    0.783263   -0.235898
      3         17           0       -1.572574   -0.241392    0.033964
      4          9           0        2.187974   -0.417084   -0.255146
      5          1           0       -0.361996    1.780271   -0.852935
      6          1           0        1.637076    0.604304    1.556707
 ---------------------------------------------------------------------

 SCF Done:  E(RHF) =  -610.358935792     A.U. after    2 cycles

 The electronic state is 1-A.
 Alpha  occ. eigenvalues --  -99.90105 -29.25828 -10.47347  -9.67288  -9.66842
 Alpha  occ. eigenvalues --   -9.66663  -7.66171  -7.65505  -1.34762  -1.03169
 Alpha  occ. eigenvalues --   -0.81411  -0.60712  -0.59471  -0.56133  -0.54298
 Alpha  occ. eigenvalues --   -0.47264  -0.41229  -0.38656  -0.27929
 Alpha virt. eigenvalues --    0.02133   0.02403   0.03081   0.05335   0.06566
 Alpha virt. eigenvalues --    0.08480   0.08837   0.10163   0.11745   0.12362
 Alpha virt. eigenvalues --    0.12738   0.14240   0.15825   0.17358   0.17951

 Mulliken charges:
               1
     1  B    3.545149
     2  B    2.679635
     3  Cl  -1.133121
     4  F   -0.584032
     5  H   -2.188489
     6  H   -2.319142
 Sum of Mulliken charges =  -0.00000

 Dipole moment (field-independent basis, Debye):
    X=              2.8784    Y=             -1.1597    Z=             -1.9122  Tot=              3.6451

 Test job not archived.
 1\1\GINC-SE460\SP\RHF\Aug-CC-pVDZ\B2Cl1F1H2\OHZDE\08-Apr-2025\0\\#t hf
  aug-cc-pvdz iop(5/13=1,5/36=2,99/5=2) pseudo=read geom=check guess=(r
 ead,tcheck) scf=(maxcycle=1)\\title\\0,1\B,0,1.31455,0.311305,0.438928
 \B,0,-0.161165,0.783263,-0.235898\Cl,0,-1.572574,-0.241392,0.033964\F,
 0,2.187974,-0.417084,-0.255146\H,0,-0.361996,1.780271,-0.852935\H,0,1.
 637076,0.604304,1.556707\\Version=ES64L-G16RevC.01\State=1-A\HF=-610.3
 589358\RMSD=2.172e-01\Dipole=1.132454,-0.4562647,-0.7523247\Quadrupole
 =2.409082,-0.4633116,-1.9457703,-1.6582027,-3.1528894,0.1017649\PG=C01

 Normal termination of Gaussian 16 at Tue Apr  8 23:43:12 2025.
