 Gaussian 16, Revision C.01,

 ----------------------------------------------------------------------
 #t hf aug-cc-pvdz symm=none int=(grid=ultrafine) guess=(read,tcheck) s
 table=(opt,rrhf)
 ----------------------------------------------------------------------
 -----
 title
 -----
 Symbolic Z-matrix:
 Charge =  0 Multiplicity = 1

 SCF Done:  E(RHF) =  -582.297511675     A.U. after   13 cycles
 Normal termination of Gaussian 16 at Wed Apr  9 00:48:30 2025.
 Gaussian 16:  ES64L-G16RevC.01  3-Jul-2019

 ----------------------------------------------------------------------
 #t hf aug-cc-pvdz iop(5/13=1,5/36=2,99/5=2) pseudo=read geom=check gue
 ss=(read,tcheck) scf=(maxcycle=1)
 ----------------------------------------------------------------------
 -----
 title
 -----
 Structure from the checkpoint file:  "BDE49_nonexpt_846_mol1.chk"
 Charge =  0 Multiplicity = 1

                         Standard orientation:
 ---------------------------------------------------------------------
 Center     Atomic      Atomic             Coordinates (Angstroms)
 Number     Number       Type             X           Y           Z
 ---------------------------------------------------------------------
      1          5           0        1.756523    0.129023    0.017258
      2          8           0        2.917847   -0.478369   -0.387205
      3          8           0        1.784519    1.475764    0.214478
      4          6           0       -1.450357   -0.103450   -0.563916
      5          6           0       -2.211751    1.067072    0.036249
      6          6           0       -2.875662   -0.275104   -0.063591
      7          1           0       -2.536800    1.852406   -0.636068
      8          1           0       -1.916966    1.421333    1.017572
      9          1           0       -3.034928   -0.835811    0.850754
     10          1           0       -3.655914   -0.406793   -0.804438
     11          1           0        2.658142    1.850500    0.040323
     12          1           0        2.831236   -1.426814   -0.512083
     13         14           0       -0.000398   -0.857085    0.342600
     14          1           0       -0.329078   -0.856164    1.794517
     15          1           0        0.166274   -2.285942   -0.057849
     16          1           0       -1.351310   -0.068905   -1.646053
 ---------------------------------------------------------------------

 SCF Done:  E(RHF) =  -583.769575533     A.U. after    2 cycles

 The electronic state is 1-A.
 Alpha  occ. eigenvalues --  -76.19282 -21.06703 -21.05625 -11.40814 -11.39524
 Alpha  occ. eigenvalues --  -11.34971  -7.63546  -5.53055  -2.17461  -2.15632
 Alpha  occ. eigenvalues --   -2.15230  -1.80936  -1.65307  -1.28590  -0.86813
 Alpha  occ. eigenvalues --   -0.85434  -0.77849  -0.71460  -0.66099  -0.62750
 Alpha  occ. eigenvalues --   -0.59761  -0.53804  -0.50383  -0.48642  -0.46721
 Alpha  occ. eigenvalues --   -0.43247  -0.42965  -0.40720  -0.37645  -0.36536
 Alpha  occ. eigenvalues --   -0.32447
 Alpha virt. eigenvalues --    0.03731   0.04463   0.04628   0.04881   0.06205
 Alpha virt. eigenvalues --    0.06535   0.06853   0.07637   0.07816   0.08428
 Alpha virt. eigenvalues --    0.09224   0.09583   0.10063   0.10506   0.11461

 Mulliken charges:
               1
     1  B    5.493694
     2  O   -4.067434
     3  O   -4.155594
     4  C   -1.862503
     5  C   -2.487782
     6  C   -2.719314
     7  H    1.242492
     8  H    1.248160
     9  H    1.239210
    10  H    1.232149
    11  H    1.326991
    12  H    1.347689
    13  Si   4.913549
    14  H   -2.018230
    15  H   -2.029347
    16  H    1.296269
 Sum of Mulliken charges =  -0.00000

 Dipole moment (field-independent basis, Debye):
    X=              0.0733    Y=              0.1217    Z=             -0.8973  Tot=              0.9085

 Test job not archived.
 1\1\GINC-SE363\SP\RHF\Aug-CC-pVDZ\C3H9B1O2Si1\OHZDE\09-Apr-2025\0\\#t
 hf aug-cc-pvdz iop(5/13=1,5/36=2,99/5=2) pseudo=read geom=check guess=
 (read,tcheck) scf=(maxcycle=1)\\title\\0,1\B,0,1.756523,0.129023,0.017
 258\O,0,2.917847,-0.47837,-0.387205\O,0,1.784519,1.475764,0.214478\C,0
 ,-1.450357,-0.10345,-0.563916\C,0,-2.211751,1.067072,0.036249\C,0,-2.8
 75662,-0.275104,-0.063591\H,0,-2.5368,1.852406,-0.636068\H,0,-1.916966
 ,1.421333,1.017572\H,0,-3.034928,-0.835811,0.850754\H,0,-3.655914,-0.4
 06793,-0.804438\H,0,2.658142,1.8505,0.040323\H,0,2.831236,-1.426815,-0

 Normal termination of Gaussian 16 at Wed Apr  9 00:48:35 2025.
