 Gaussian 16, Revision C.01,

 ----------------------------------------------------------------------
 #t hf aug-cc-pvdz symm=none int=(grid=ultrafine) guess=(read,tcheck) s
 table=(opt,rrhf)
 ----------------------------------------------------------------------
 -----
 title
 -----
 Symbolic Z-matrix:
 Charge =  0 Multiplicity = 1

 SCF Done:  E(RHF) =  -844.971275976     A.U. after   12 cycles
 Normal termination of Gaussian 16 at Wed Apr  9 00:16:11 2025.
 Gaussian 16:  ES64L-G16RevC.01  3-Jul-2019

 ----------------------------------------------------------------------
 #t hf aug-cc-pvdz iop(5/13=1,5/36=2,99/5=2) pseudo=read geom=check gue
 ss=(read,tcheck) scf=(maxcycle=1)
 ----------------------------------------------------------------------
 -----
 title
 -----
 Structure from the checkpoint file:  "BDE49_nonexpt_2499_mol1.chk"
 Charge =  0 Multiplicity = 1

                         Standard orientation:
 ---------------------------------------------------------------------
 Center     Atomic      Atomic             Coordinates (Angstroms)
 Number     Number       Type             X           Y           Z
 ---------------------------------------------------------------------
      1         14           0        0.836129   -1.010647    0.456614
      2          6           0        1.872664    0.557105    0.609574
      3          6           0        2.398475    1.126719   -0.717976
      4          1           0        2.710598    0.306651    1.273986
      5          1           0        1.287859    1.313638    1.145261
      6          1           0        1.578124    1.392411   -1.389507
      7          1           0        3.027570    0.400961   -1.241427
      8         16           0       -0.950526   -0.849346   -0.745453
      9          6           0       -2.102599    0.093707    0.359898
     10          6           0       -2.023361    1.609042    0.204051
     11          1           0       -1.922737   -0.214766    1.391536
     12          1           0       -3.095044   -0.268723    0.085361
     13          1           0       -1.044526    1.993870    0.498112
     14          1           0       -2.779128    2.092322    0.832585
     15          1           0       -2.201337    1.906051   -0.831664
     16          1           0        2.999912    2.025558   -0.554699
     17          1           0        0.447964   -1.462974    1.816902
     18          1           0        1.622276   -2.065856   -0.225087
 ---------------------------------------------------------------------

 SCF Done:  E(RHF) =  -846.195935213     A.U. after    2 cycles

 The electronic state is 1-A.
 Alpha  occ. eigenvalues --  -76.22526 -75.66115 -13.10264 -13.06229 -13.03313
 Alpha  occ. eigenvalues --  -11.42358 -11.39597 -11.37104 -11.34950  -8.00226
 Alpha  occ. eigenvalues --   -5.56077  -2.19816  -2.18307  -2.18076  -1.21753
 Alpha  occ. eigenvalues --   -1.15045  -1.03653  -0.89802  -0.86301  -0.71816
 Alpha  occ. eigenvalues --   -0.63277  -0.61062  -0.58489  -0.57397  -0.52377
 Alpha  occ. eigenvalues --   -0.50794  -0.50672  -0.49044  -0.46667  -0.40634
 Alpha  occ. eigenvalues --   -0.39587  -0.31358  -0.24952
 Alpha virt. eigenvalues --    0.03453   0.04145   0.04860   0.05188   0.06079
 Alpha virt. eigenvalues --    0.06156   0.06540   0.06965   0.07222   0.07706
 Alpha virt. eigenvalues --    0.08444   0.08949   0.09807   0.10835   0.11399

 Mulliken charges:
               1
     1  Si   6.439809
     2  C   -4.064691
     3  C   -3.605563
     4  H    1.342453
     5  H    1.597297
     6  H    1.323950
     7  H    1.298478
     8  S   -1.047837
     9  C   -3.834612
    10  C   -3.615366
    11  H    1.411361
    12  H    1.540762
    13  H    1.471825
    14  H    1.169954
    15  H    1.379561
    16  H    1.186665
    17  H   -1.868261
    18  H   -2.125783
 Sum of Mulliken charges =  -0.00000

 Dipole moment (field-independent basis, Debye):
    X=             -0.9594    Y=              0.7404    Z=             -0.6815  Tot=              1.3903

 Test job not archived.
 1\1\GINC-SE343\SP\RHF\Aug-CC-pVDZ\C4H12S1Si1\OHZDE\09-Apr-2025\0\\#t h
 f aug-cc-pvdz iop(5/13=1,5/36=2,99/5=2) pseudo=read geom=check guess=(
 read,tcheck) scf=(maxcycle=1)\\title\\0,1\Si,0,0.836129,-1.010647,0.45
 6614\C,0,1.872664,0.557105,0.609574\C,0,2.398475,1.126719,-0.717976\H,
 0,2.710598,0.306651,1.273986\H,0,1.287859,1.313638,1.145261\H,0,1.5781
 24,1.392411,-1.389507\H,0,3.02757,0.400961,-1.241427\S,0,-0.950526,-0.
 849346,-0.745453\C,0,-2.102599,0.093707,0.359898\C,0,-2.023361,1.60904
 2,0.204051\H,0,-1.922737,-0.214766,1.391536\H,0,-3.095044,-0.268724,0.

 Normal termination of Gaussian 16 at Wed Apr  9 00:16:18 2025.
