 Gaussian 16, Revision C.01,

 ----------------------------------------------------------------------
 #t hf aug-cc-pvdz symm=none int=(grid=ultrafine) guess=(read,tcheck) s
 table=(opt,rrhf)
 ----------------------------------------------------------------------
 -----
 title
 -----
 Symbolic Z-matrix:
 Charge =  0 Multiplicity = 1

 SCF Done:  E(RHF) =  -971.398973213     A.U. after   18 cycles
 Normal termination of Gaussian 16 at Tue Apr  8 23:16:50 2025.
 Gaussian 16:  ES64L-G16RevC.01  3-Jul-2019

 ----------------------------------------------------------------------
 #t hf aug-cc-pvdz iop(5/13=1,5/36=2,99/5=2) pseudo=read geom=check gue
 ss=(read,tcheck) scf=(maxcycle=1)
 ----------------------------------------------------------------------
 -----
 title
 -----
 Structure from the checkpoint file:  "BDE49_nonexpt_1017_mol1.chk"
 Charge =  0 Multiplicity = 1

                         Standard orientation:
 ---------------------------------------------------------------------
 Center     Atomic      Atomic             Coordinates (Angstroms)
 Number     Number       Type             X           Y           Z
 ---------------------------------------------------------------------
      1         17           0        1.864291    0.279176   -0.112947
      2         16           0       -1.053100   -0.602886   -0.267685
      3          8           0        0.232875   -0.624050    0.626716
      4          6           0       -1.805031    0.996503    0.112559
      5          1           0       -2.773150    1.017183   -0.394066
      6          1           0       -1.168174    1.791439   -0.280760
      7          1           0       -1.934824    1.104939    1.188790
 ---------------------------------------------------------------------

 SCF Done:  E(RHF) =  -972.389847717     A.U. after    2 cycles

 The electronic state is 1-A.
 Alpha  occ. eigenvalues --  -99.91894 -75.75770 -21.16916 -13.25677 -13.14034
 Alpha  occ. eigenvalues --  -13.08797 -11.41614 -10.48326  -9.68040  -9.67576
 Alpha  occ. eigenvalues --   -9.67537  -8.10059  -1.77650  -1.25185  -1.15818
 Alpha  occ. eigenvalues --   -0.93028  -0.62657  -0.62087  -0.57711  -0.56198
 Alpha  occ. eigenvalues --   -0.54274  -0.49546  -0.44652  -0.36236  -0.28699
 Alpha virt. eigenvalues --    0.01761   0.02532   0.05286   0.06063   0.06790
 Alpha virt. eigenvalues --    0.09632   0.11614   0.12759   0.13916   0.14500
 Alpha virt. eigenvalues --    0.15592   0.16989   0.17421   0.18282   0.20526

 Mulliken charges:
               1
     1  Cl  -0.199026
     2  S    2.401026
     3  O   -1.633570
     4  C   -4.619700
     5  H    1.361376
     6  H    1.342500
     7  H    1.347394
 Sum of Mulliken charges =  -0.00000

 Dipole moment (field-independent basis, Debye):
    X=             -6.6618    Y=             -1.6059    Z=             -0.4612  Tot=              6.8682

 Test job not archived.
 1\1\GINC-SE460\SP\RHF\Aug-CC-pVDZ\C1H3Cl1O1S1\OHZDE\08-Apr-2025\0\\#t
 hf aug-cc-pvdz iop(5/13=1,5/36=2,99/5=2) pseudo=read geom=check guess=
 (read,tcheck) scf=(maxcycle=1)\\title\\0,1\Cl,0,1.864291,0.279176,-0.1
 12947\S,0,-1.0531,-0.602886,-0.267685\O,0,0.232875,-0.62405,0.626716\C
 ,0,-1.805031,0.996503,0.112559\H,0,-2.77315,1.017183,-0.394066\H,0,-1.
 168174,1.791439,-0.28076\H,0,-1.934824,1.104939,1.18879\\Version=ES64L
 -G16RevC.01\State=1-A\HF=-972.3898477\RMSD=5.897e-02\Dipole=-2.6209688
 ,-0.6318156,-0.1814545\Quadrupole=-0.7974949,0.9961626,-0.1986676,0.21

 Normal termination of Gaussian 16 at Tue Apr  8 23:16:52 2025.
