 Gaussian 16, Revision C.01,

 ----------------------------------------------------------------------
 #t hf aug-cc-pvdz symm=none int=(grid=ultrafine) guess=(read,tcheck) s
 table=(opt,rrhf)
 ----------------------------------------------------------------------
 -----
 title
 -----
 Symbolic Z-matrix:
 Charge =  0 Multiplicity = 1

 SCF Done:  E(RHF) =  -663.061662377     A.U. after   13 cycles
 Normal termination of Gaussian 16 at Tue Apr  8 23:39:39 2025.
 Gaussian 16:  ES64L-G16RevC.01  3-Jul-2019

 ----------------------------------------------------------------------
 #t hf aug-cc-pvdz iop(5/13=1,5/36=2,99/5=2) pseudo=read geom=check gue
 ss=(read,tcheck) scf=(maxcycle=1)
 ----------------------------------------------------------------------
 -----
 title
 -----
 Structure from the checkpoint file:  "BDE49_nonexpt_1571_mol1.chk"
 Charge =  0 Multiplicity = 1

                         Standard orientation:
 ---------------------------------------------------------------------
 Center     Atomic      Atomic             Coordinates (Angstroms)
 Number     Number       Type             X           Y           Z
 ---------------------------------------------------------------------
      1          7           0       -1.377579    0.216424    0.381279
      2          8           0       -2.570126   -0.578195    0.298500
      3          8           0       -1.539964    1.300274   -0.535145
      4          6           0        1.283726    0.328914   -0.290758
      5          6           0        2.692820   -0.239900   -0.326396
      6          6           0        2.211731    0.478877    0.897760
      7          1           0        3.405993    0.254206   -0.974703
      8          1           0        2.812704   -1.315820   -0.267804
      9          1           0        2.597998    1.470602    1.100038
     10          1           0        2.003315   -0.110708    1.783199
     11          1           0       -1.762766    2.042095    0.040701
     12          1           0       -3.012981   -0.392156    1.134626
     13         15           0       -0.087939   -0.866448   -0.188159
     14          1           0        1.102128    1.216999   -0.883770
     15          1           0       -0.433197   -0.867442   -1.569329
 ---------------------------------------------------------------------

 SCF Done:  E(RHF) =  -664.697325795     A.U. after    2 cycles

 The electronic state is 1-A.
 Alpha  occ. eigenvalues -- -105.19220 -21.09797 -21.09794 -15.79591 -11.42443
 Alpha  occ. eigenvalues --  -11.40955 -11.36493  -2.77009  -1.84986  -1.67644
 Alpha  occ. eigenvalues --   -1.52002  -1.49110  -1.45394  -1.27829  -1.02376
 Alpha  occ. eigenvalues --   -0.86679  -0.83773  -0.71698  -0.66486  -0.65349
 Alpha  occ. eigenvalues --   -0.61818  -0.58599  -0.51470  -0.48355  -0.47734
 Alpha  occ. eigenvalues --   -0.42153  -0.41094  -0.32452  -0.31408  -0.26183
 Alpha  occ. eigenvalues --   -0.22346  -0.01895
 Alpha virt. eigenvalues --    0.04232   0.05452   0.05592   0.06047   0.06602
 Alpha virt. eigenvalues --    0.06758   0.07296   0.08071   0.10824   0.11397
 Alpha virt. eigenvalues --    0.12028   0.13385   0.13950   0.15026   0.15701

 Mulliken charges:
               1
     1  N    1.399679
     2  O   -2.109400
     3  O   -1.982682
     4  C   -2.166211
     5  C   -2.211359
     6  C   -3.100628
     7  H    1.137731
     8  H    1.202599
     9  H    1.143988
    10  H    1.274618
    11  H    0.749316
    12  H    0.801064
    13  P    3.558282
    14  H    1.113458
    15  H   -0.810456
 Sum of Mulliken charges =  -0.00000

 Dipole moment (field-independent basis, Debye):
    X=             -1.0562    Y=              0.9283    Z=              0.6633  Tot=              1.5548

 Test job not archived.
 1\1\GINC-SE100\SP\RHF\Aug-CC-pVDZ\C3H8N1O2P1\OHZDE\08-Apr-2025\0\\#t h
 f aug-cc-pvdz iop(5/13=1,5/36=2,99/5=2) pseudo=read geom=check guess=(
 read,tcheck) scf=(maxcycle=1)\\title\\0,1\N,0,-1.377579,0.216424,0.381
 279\O,0,-2.570126,-0.578195,0.2985\O,0,-1.539964,1.300274,-0.535145\C,
 0,1.283726,0.328914,-0.290758\C,0,2.69282,-0.2399,-0.326396\C,0,2.2117
 31,0.478877,0.89776\H,0,3.405993,0.254206,-0.974703\H,0,2.812704,-1.31
 582,-0.267804\H,0,2.597998,1.470602,1.100038\H,0,2.003315,-0.110708,1.
 783199\H,0,-1.762766,2.042095,0.040701\H,0,-3.012981,-0.392156,1.13462

 Normal termination of Gaussian 16 at Tue Apr  8 23:39:44 2025.
