 Gaussian 16, Revision C.01,

 ----------------------------------------------------------------------
 #t hf aug-cc-pvdz symm=none int=(grid=ultrafine) guess=(read,tcheck) s
 table=(opt,rrhf)
 ----------------------------------------------------------------------
 -----
 title
 -----
 Symbolic Z-matrix:
 Charge =  0 Multiplicity = 1

 SCF Done:  E(RHF) =  -1443.83049187     A.U. after   14 cycles
 Normal termination of Gaussian 16 at Wed Apr  9 00:19:11 2025.
 Gaussian 16:  ES64L-G16RevC.01  3-Jul-2019

 ----------------------------------------------------------------------
 #t hf aug-cc-pvdz iop(5/13=1,5/36=2,99/5=2) pseudo=read geom=check gue
 ss=(read,tcheck) scf=(maxcycle=1)
 ----------------------------------------------------------------------
 -----
 title
 -----
 Structure from the checkpoint file:  "BDE49_nonexpt_2579_mol1.chk"
 Charge =  0 Multiplicity = 1

                         Standard orientation:
 ---------------------------------------------------------------------
 Center     Atomic      Atomic             Coordinates (Angstroms)
 Number     Number       Type             X           Y           Z
 ---------------------------------------------------------------------
      1         17           0       -2.236818   -0.420666   -0.077460
      2         16           0       -0.800159    1.023130    0.268376
      3         16           0        1.032017   -0.021719   -0.183569
      4          8           0        1.980116    1.064188   -0.075120
      5          6           0        1.247206   -1.138779    1.204355
      6          8           0        0.887289   -0.812533   -1.377209
      7          1           0        1.322983   -0.547427    2.113972
      8          1           0        2.171837   -1.683748    1.006963
      9          1           0        0.398886   -1.820637    1.231474
 ---------------------------------------------------------------------

 SCF Done:  E(RHF) =  -1445.39315243     A.U. after    2 cycles

 The electronic state is 1-A.
 Alpha  occ. eigenvalues --  -99.93732 -75.92442 -75.78052 -21.08034 -21.07941
 Alpha  occ. eigenvalues --  -13.55327 -13.42076 -13.34818 -13.16851 -13.13481
 Alpha  occ. eigenvalues --  -13.10239 -11.44675 -10.50843  -9.70573  -9.69960
 Alpha  occ. eigenvalues --   -9.69844  -8.27434  -8.11789  -1.86060  -1.67876
 Alpha  occ. eigenvalues --   -1.36958  -1.18635  -1.10154  -0.90278  -0.68015
 Alpha  occ. eigenvalues --   -0.65334  -0.62588  -0.59642  -0.58851  -0.57667
 Alpha  occ. eigenvalues --   -0.52454  -0.46563  -0.42344  -0.40918  -0.38427
 Alpha  occ. eigenvalues --   -0.34743  -0.30540
 Alpha virt. eigenvalues --    0.01732   0.03160   0.05286   0.05980   0.06129
 Alpha virt. eigenvalues --    0.09110   0.11503   0.12179   0.12490   0.12933
 Alpha virt. eigenvalues --    0.13305   0.13624   0.14586   0.15333   0.16146

 Mulliken charges:
               1
     1  Cl  -0.397044
     2  S    0.410030
     3  S    5.468359
     4  O   -2.458917
     5  C   -4.483728
     6  O   -2.528977
     7  H    1.324619
     8  H    1.352610
     9  H    1.313048
 Sum of Mulliken charges =   0.00000

 Dipole moment (field-independent basis, Debye):
    X=              1.1264    Y=              1.6783    Z=              1.9958  Tot=              2.8405

 Test job not archived.
 1\1\GINC-SE162\SP\RHF\Aug-CC-pVDZ\C1H3Cl1O2S2\OHZDE\09-Apr-2025\0\\#t
 hf aug-cc-pvdz iop(5/13=1,5/36=2,99/5=2) pseudo=read geom=check guess=
 (read,tcheck) scf=(maxcycle=1)\\title\\0,1\Cl,0,-2.236818,0.420666,0.0
 7746\S,0,-0.800159,-1.02313,-0.268376\S,0,1.032017,0.021719,0.183569\O
 ,0,1.980116,-1.064188,0.07512\C,0,1.247206,1.138779,-1.204355\O,0,0.88
 7289,0.812533,1.377209\H,0,1.322983,0.547427,-2.113972\H,0,2.171837,1.
 683748,-1.006963\H,0,0.398886,1.820637,-1.231474\\Version=ES64L-G16Rev
 C.01\State=1-A\HF=-1445.3931524\RMSD=9.303e-02\Dipole=0.4431592,-0.660

 Normal termination of Gaussian 16 at Wed Apr  9 00:19:14 2025.
