 Gaussian 16, Revision C.01,

 ----------------------------------------------------------------------
 #t hf aug-cc-pvdz symm=none int=(grid=ultrafine) guess=(read,tcheck) s
 table=opt
 ----------------------------------------------------------------------
 -----
 title
 -----
 Symbolic Z-matrix:
 Charge =  0 Multiplicity = 2

 SCF Done:  E(UHF) =  -562.833735660     A.U. after   15 cycles
 Normal termination of Gaussian 16 at Tue Apr  8 23:49:04 2025.
 Gaussian 16:  ES64L-G16RevC.01  3-Jul-2019

 ----------------------------------------------------------------------
 #t hf aug-cc-pvdz iop(5/13=1,5/36=2,99/5=2) pseudo=read geom=check gue
 ss=(read,tcheck) scf=(maxcycle=1)
 ----------------------------------------------------------------------
 -----
 title
 -----
 Structure from the checkpoint file:  "BDE49_nonexpt_180_mol2.chk"
 Charge =  0 Multiplicity = 2

                         Standard orientation:
 ---------------------------------------------------------------------
 Center     Atomic      Atomic             Coordinates (Angstroms)
 Number     Number       Type             X           Y           Z
 ---------------------------------------------------------------------
      1         17           0        1.534098   -0.213707   -0.000005
      2          5           0        0.250230    0.971243   -0.000005
      3          6           0       -1.280008    0.703725    0.000010
      4          6           0       -1.766767   -0.757985    0.000001
      5          1           0       -1.689253    1.249525    0.863018
      6          1           0       -1.406414   -1.294796   -0.880562
      7          1           0       -2.858838   -0.807093    0.000017
      8          1           0       -1.406388   -1.294815    0.880542
      9          1           0       -1.689281    1.249546   -0.862970
 ---------------------------------------------------------------------

 SCF Done:  E(UHF) =  -563.575346536     A.U. after    2 cycles

 The electronic state is 2-A.
 Alpha  occ. eigenvalues --  -99.89570 -11.39576 -11.34967 -10.46855  -9.66802
 Alpha  occ. eigenvalues --   -9.66401  -9.66115  -7.67203  -1.34869  -1.17014
 Alpha  occ. eigenvalues --   -0.93039  -0.74924  -0.61722  -0.60686  -0.54247
 Alpha  occ. eigenvalues --   -0.54005  -0.53253  -0.49318  -0.46264  -0.30980
 Alpha virt. eigenvalues --    0.03115   0.04097   0.04180   0.04604   0.06737
 Alpha virt. eigenvalues --    0.07124   0.08179   0.08238   0.10109   0.11370
 Alpha virt. eigenvalues --    0.13438   0.14066   0.15022   0.15470   0.16316

  Beta  occ. eigenvalues --  -99.89491 -11.39459 -11.34848 -10.46762  -9.66706
  Beta  occ. eigenvalues --   -9.66134  -9.66090  -7.65268  -1.33825  -1.16404
  Beta  occ. eigenvalues --   -0.91981  -0.72301  -0.61594  -0.58949  -0.54030
  Beta  occ. eigenvalues --   -0.52625  -0.51263  -0.49273  -0.45126
  Beta virt. eigenvalues --    0.02768   0.03748   0.04265   0.04436   0.06744
  Beta virt. eigenvalues --    0.07715   0.08016   0.08264   0.08542   0.11695
  Beta virt. eigenvalues --    0.12504   0.13689   0.14569   0.15450   0.16372

 Mulliken charges and spin densities:
               1          2
     1  Cl  -1.030140   0.025470
     2  B    1.420165   0.949118
     3  C   -4.239618  -0.048169
     4  C   -3.313743   0.071254
     5  H    1.804385   0.004748
     6  H    1.170763  -0.003384
     7  H    1.213021  -0.000401
     8  H    1.170766  -0.003384
     9  H    1.804400   0.004749
 Sum of Mulliken charges =   0.00000   1.00000

 Dipole moment (field-independent basis, Debye):
    X=             -1.6843    Y=             -0.0532    Z=              0.0000  Tot=              1.6851
                          Isotropic Fermi Contact Couplings
        Atom                 a.u.       MegaHertz       Gauss      10(-4) cm-1
     1  Cl(35)             0.12380      54.28216      19.36922      18.10658
     2  B(11)              0.22996     329.84924     117.69841     110.02586
     3  C(13)              0.03160      35.52341      12.67564      11.84933
     4  C(13)              0.01758      19.76751       7.05354       6.59373
     5  H(1)               0.00022       0.97863       0.34920       0.32643
     6  H(1)              -0.00060      -2.69513      -0.96169      -0.89900
     7  H(1)               0.00107       4.79463       1.71084       1.59932
     8  H(1)              -0.00060      -2.69512      -0.96169      -0.89900

 Normal termination of Gaussian 16 at Tue Apr  8 23:49:07 2025.
