 Gaussian 16, Revision C.01,

 ----------------------------------------------------------------------
 #t hf aug-cc-pvdz symm=none int=(grid=ultrafine) guess=(read,tcheck) s
 table=opt
 ----------------------------------------------------------------------
 -----
 title
 -----
 Symbolic Z-matrix:
 Charge =  0 Multiplicity = 2

 SCF Done:  E(UHF) =  -856.650709852     A.U. after   16 cycles
 Normal termination of Gaussian 16 at Tue Apr  8 23:54:27 2025.
 Gaussian 16:  ES64L-G16RevC.01  3-Jul-2019

 ----------------------------------------------------------------------
 #t hf aug-cc-pvdz iop(5/13=1,5/36=2,99/5=2) pseudo=read geom=check gue
 ss=(read,tcheck) scf=(maxcycle=1)
 ----------------------------------------------------------------------
 -----
 title
 -----
 Structure from the checkpoint file:  "BDE49_nonexpt_1954_mol2.chk"
 Charge =  0 Multiplicity = 2

                         Standard orientation:
 ---------------------------------------------------------------------
 Center     Atomic      Atomic             Coordinates (Angstroms)
 Number     Number       Type             X           Y           Z
 ---------------------------------------------------------------------
      1         14           0       -1.846009   -0.129226    0.054291
      2         15           0        0.413366   -0.060950   -0.116295
      3          1           0       -2.361880    0.756568    1.124036
      4          1           0       -2.470022    0.151445   -1.258055
      5          8           0        0.716011    1.516707   -0.170575
      6          1           0        1.652486    1.726718   -0.297136
      7          8           0        0.981882   -0.438145    1.357665
      8          1           0        1.329469   -1.339024    1.367582
      9          8           0        0.988805   -0.900099   -1.181099
 ---------------------------------------------------------------------

 SCF Done:  E(UHF) =  -857.913831369     A.U. after    2 cycles

 The electronic state is 2-A.
 Alpha  occ. eigenvalues -- -105.30107 -76.25845 -21.11895 -21.11449 -21.02277
 Alpha  occ. eigenvalues --   -5.59265  -2.92051  -2.21201  -2.21192  -2.20010
 Alpha  occ. eigenvalues --   -1.96730  -1.88390  -1.79016  -1.49850  -1.40112
 Alpha  occ. eigenvalues --   -1.25755  -0.78209  -0.68161  -0.60726  -0.53481
 Alpha  occ. eigenvalues --   -0.50120  -0.45255  -0.41201  -0.34531  -0.34229
 Alpha  occ. eigenvalues --   -0.32606  -0.29763  -0.21623  -0.13767
 Alpha virt. eigenvalues --    0.03511   0.05393   0.05900   0.06769   0.07320
 Alpha virt. eigenvalues --    0.08056   0.09509   0.11625   0.12295   0.13098
 Alpha virt. eigenvalues --    0.13851   0.16047   0.16349   0.18004   0.18453

  Beta  occ. eigenvalues -- -105.30095 -76.25269 -21.11816 -21.11479 -21.02289
  Beta  occ. eigenvalues --   -5.58367  -2.92013  -2.20510  -2.20498  -2.16275
  Beta  occ. eigenvalues --   -1.96636  -1.88335  -1.78967  -1.49749  -1.40040
  Beta  occ. eigenvalues --   -1.25640  -0.74309  -0.66873  -0.60550  -0.53311
  Beta  occ. eigenvalues --   -0.49572  -0.45245  -0.40970  -0.34344  -0.34117
  Beta  occ. eigenvalues --   -0.29681  -0.22896  -0.15300
  Beta virt. eigenvalues --    0.02421   0.03867   0.05608   0.06134   0.06904
  Beta virt. eigenvalues --    0.08057   0.08904   0.09831   0.11725   0.12464
  Beta virt. eigenvalues --    0.14057   0.15164   0.16704   0.17367   0.19048

 Mulliken charges and spin densities:
               1          2
     1  Si   3.479950   1.108830
     2  P    5.945086  -0.013237
     3  H   -1.448663  -0.011303
     4  H   -1.458847  -0.018336
     5  O   -2.738669  -0.066350
     6  H    0.841160  -0.007663
     7  O   -2.602632   0.000671
     8  H    0.761515  -0.002968
     9  O   -2.778899   0.010355
 Sum of Mulliken charges =  -0.00000   1.00000

 Dipole moment (field-independent basis, Debye):
    X=              1.4850    Y=              1.2211    Z=              2.0501  Tot=              2.8106
                          Isotropic Fermi Contact Couplings
        Atom                 a.u.       MegaHertz       Gauss      10(-4) cm-1
     1  Si(29)             0.29681    -263.78179     -94.12390     -87.98814
     2  P(31)              0.01895      34.32723      12.24881      11.45033
     3  H(1)              -0.00066      -2.94581      -1.05114      -0.98262
     4  H(1)              -0.00198      -8.84504      -3.15613      -2.95039
     5  O(17)              0.03812     -23.11078      -8.24650      -7.70893
     6  H(1)               0.00304      13.60857       4.85588       4.53933
     7  O(17)             -0.00477       2.89351       1.03248       0.96517
     8  H(1)               0.00016       0.72473       0.25860       0.24174

 Normal termination of Gaussian 16 at Tue Apr  8 23:54:31 2025.
