 Gaussian 16, Revision C.01,

 ----------------------------------------------------------------------
 #t hf aug-cc-pvdz symm=none int=(grid=ultrafine) guess=(read,tcheck) s
 table=(opt,rrhf)
 ----------------------------------------------------------------------
 -----
 title
 -----
 Symbolic Z-matrix:
 Charge =  0 Multiplicity = 1

 SCF Done:  E(RHF) =  -593.886716228     A.U. after   12 cycles

 1\1\GINC-SE393\Stability\RHF\Aug-CC-pVDZ\C5H12S1\OHZDE\08-Apr-2025\0\\
 #t hf aug-cc-pvdz symm=none int=(grid=ultrafine) guess=(read,tcheck) s
 table=(opt,rrhf)\\title\\0,1\C,0,1.504029,0.079888,0.\C,0,0.,0.356335,
 0.\C,0,-0.832519,-0.93229,0.\H,0,-0.257636,0.958762,-0.878486\H,0,-0.2
 57636,0.958762,0.878486\C,0,-2.344126,-0.675212,0.\H,0,-0.569129,-1.53
 6305,0.877636\H,0,-0.569129,-1.536305,-0.877636\C,0,-3.173793,-1.96215
 1,0.\H,0,-2.606609,-0.070771,-0.876391\H,0,-2.606609,-0.070771,0.87639
 1\H,0,-2.958727,-2.571942,-0.883069\H,0,-4.245286,-1.744884,0.\H,0,-2.

 Normal termination of Gaussian 16 at Tue Apr  8 22:46:58 2025.
 Gaussian 16:  ES64L-G16RevC.01  3-Jul-2019

 ----------------------------------------------------------------------
 #t hf aug-cc-pvdz iop(5/13=1,5/36=2,99/5=2) pseudo=read geom=check gue
 ss=(read,tcheck) scf=(maxcycle=1)
 ----------------------------------------------------------------------
 -----
 title
 -----
 Structure from the checkpoint file:  "BDE49_expt_1553_mol1.chk"
 Charge =  0 Multiplicity = 1

                         Standard orientation:
 ---------------------------------------------------------------------
 Center     Atomic      Atomic             Coordinates (Angstroms)
 Number     Number       Type             X           Y           Z
 ---------------------------------------------------------------------
      1          6           0       -1.504029    0.079888    0.000000
      2          6           0        0.000000    0.356335    0.000000
      3          6           0        0.832519   -0.932290    0.000000
      4          1           0        0.257636    0.958762    0.878486
      5          1           0        0.257636    0.958762   -0.878486
      6          6           0        2.344126   -0.675212    0.000000
      7          1           0        0.569129   -1.536305   -0.877636
      8          1           0        0.569129   -1.536305    0.877636
      9          6           0        3.173793   -1.962151    0.000000
     10          1           0        2.606609   -0.070771    0.876391
     11          1           0        2.606609   -0.070771   -0.876391
     12          1           0        2.958726   -2.571942    0.883069
     13          1           0        4.245286   -1.744885    0.000000
     14          1           0        2.958726   -2.571942   -0.883069
     15         16           0       -2.429432    1.676043    0.000000
     16          1           0       -1.785586   -0.490082    0.887511
     17          1           0       -1.785586   -0.490082   -0.887511
     18          1           0       -3.665854    1.149462    0.000000
 ---------------------------------------------------------------------

 SCF Done:  E(RHF) =  -595.148749192     A.U. after    2 cycles

 The electronic state is 1-A'.
 Alpha  occ. eigenvalues --  -75.67927 -13.13974 -13.07303 -13.00447 -11.42989
 Alpha  occ. eigenvalues --  -11.41895 -11.39488 -11.37187 -11.34756  -8.01770
 Alpha  occ. eigenvalues --   -1.28017  -1.17271  -1.06496  -0.95597  -0.85763
 Alpha  occ. eigenvalues --   -0.82754  -0.66794  -0.61293  -0.59652  -0.57130
 Alpha  occ. eigenvalues --   -0.54362  -0.51695  -0.50048  -0.48335  -0.45753
 Alpha  occ. eigenvalues --   -0.45368  -0.41306  -0.36745  -0.23349
 Alpha virt. eigenvalues --    0.03766   0.04214   0.05112   0.05378   0.05714
 Alpha virt. eigenvalues --    0.05874   0.06135   0.06352   0.07712   0.08925
 Alpha virt. eigenvalues --    0.09378   0.09828   0.10058   0.11363   0.13024

 Mulliken charges:
               1
     1  C   -4.068156
     2  C   -2.329067
     3  C   -2.451919
     4  H    1.536157
     5  H    1.536157
     6  C   -2.817003
     7  H    1.561473
     8  H    1.561473
     9  C   -4.265503
    10  H    1.432001
    11  H    1.432001
    12  H    1.308880
    13  H    1.082834
    14  H    1.308880
    15  S   -0.445610
    16  H    1.389478
    17  H    1.389478
    18  H    0.838447
 Sum of Mulliken charges =   0.00000

 Dipole moment (field-independent basis, Debye):
    X=              1.2886    Y=              0.0162    Z=             -0.0000  Tot=              1.2887

 Test job not archived.
 1\1\GINC-SE393\SP\RHF\Aug-CC-pVDZ\C5H12S1\OHZDE\08-Apr-2025\0\\#t hf a
 ug-cc-pvdz iop(5/13=1,5/36=2,99/5=2) pseudo=read geom=check guess=(rea
 d,tcheck) scf=(maxcycle=1)\\title\\0,1\C,0,1.504029,0.079888,0.\C,0,0.
 ,0.356335,0.\C,0,-0.832519,-0.93229,0.\H,0,-0.257636,0.958762,-0.87848
 6\H,0,-0.257636,0.958762,0.878486\C,0,-2.344126,-0.675212,0.\H,0,-0.56
 9129,-1.536305,0.877636\H,0,-0.569129,-1.536305,-0.877636\C,0,-3.17379
 3,-1.962151,0.\H,0,-2.606609,-0.070771,-0.876391\H,0,-2.606609,-0.0707
 71,0.876391\H,0,-2.958727,-2.571942,-0.883069\H,0,-4.245286,-1.744884,

 Normal termination of Gaussian 16 at Tue Apr  8 22:47:03 2025.
