 Gaussian 16, Revision C.01,

 ----------------------------------------------------------------------
 #t hf aug-cc-pvdz symm=none int=(grid=ultrafine) guess=(read,tcheck) s
 table=opt
 ----------------------------------------------------------------------
 -----
 title
 -----
 Symbolic Z-matrix:
 Charge =  0 Multiplicity = 2

 SCF Done:  E(UHF) =  -527.549432377     A.U. after   13 cycles
 Normal termination of Gaussian 16 at Tue Apr  8 23:46:14 2025.
 Gaussian 16:  ES64L-G16RevC.01  3-Jul-2019

 ----------------------------------------------------------------------
 #t hf aug-cc-pvdz iop(5/13=1,5/36=2,99/5=2) pseudo=read geom=check gue
 ss=(read,tcheck) scf=(maxcycle=1)
 ----------------------------------------------------------------------
 -----
 title
 -----
 Structure from the checkpoint file:  "BDE49_nonexpt_1757_mol2.chk"
 Charge =  0 Multiplicity = 2

                         Standard orientation:
 ---------------------------------------------------------------------
 Center     Atomic      Atomic             Coordinates (Angstroms)
 Number     Number       Type             X           Y           Z
 ---------------------------------------------------------------------
      1         14           0        0.096704    0.000000   -0.412509
      2          6           0       -1.689202   -0.000000    0.154622
      3          9           0        0.828259   -1.285520    0.223402
      4          9           0        0.828259    1.285520    0.223402
      5          1           0       -1.712371   -0.000004    1.249615
      6          1           0       -2.207468   -0.888665   -0.211734
      7          1           0       -2.207466    0.888669   -0.211727
 ---------------------------------------------------------------------

 SCF Done:  E(UHF) =  -528.568601140     A.U. after    2 cycles

 The electronic state is 2-A.
 Alpha  occ. eigenvalues --  -76.29243 -29.27620 -29.27620 -11.37666  -5.64539
 Alpha  occ. eigenvalues --   -2.28940  -2.27267  -2.24155  -1.08406  -0.90546
 Alpha  occ. eigenvalues --   -0.69663  -0.59233  -0.57970  -0.52809  -0.44907
 Alpha  occ. eigenvalues --   -0.40645  -0.34925  -0.33566  -0.32954  -0.28121
 Alpha  occ. eigenvalues --   -0.21910
 Alpha virt. eigenvalues --    0.03703   0.05729   0.05959   0.06520   0.08444
 Alpha virt. eigenvalues --    0.09054   0.13352   0.15099   0.16296   0.17166
 Alpha virt. eigenvalues --    0.17929   0.18727   0.20048   0.25888   0.26523

  Beta  occ. eigenvalues --  -76.28680 -29.27341 -29.27340 -11.37265  -5.63595
  Beta  occ. eigenvalues --   -2.28298  -2.26736  -2.20876  -1.06874  -0.87755
  Beta  occ. eigenvalues --   -0.69254  -0.58380  -0.57753  -0.50565  -0.40420
  Beta  occ. eigenvalues --   -0.39324  -0.33973  -0.33054  -0.31820  -0.27904
  Beta virt. eigenvalues --    0.02543   0.05596   0.06010   0.06555   0.07091
  Beta virt. eigenvalues --    0.09159   0.11527   0.13527   0.16441   0.16985
  Beta virt. eigenvalues --    0.17316   0.19277   0.20231   0.21975   0.26609

 Mulliken charges and spin densities:
               1          2
     1  Si   2.983744   0.975895
     2  C   -4.737296   0.090091
     3  F   -0.896079  -0.023683
     4  F   -0.896079  -0.023683
     5  H    1.099637  -0.016128
     6  H    1.223037  -0.001246
     7  H    1.223037  -0.001245
 Sum of Mulliken charges =  -0.00000   1.00000

 Dipole moment (field-independent basis, Debye):
    X=              1.4873    Y=             -0.0000    Z=              1.3844  Tot=              2.0320
                          Isotropic Fermi Contact Couplings
        Atom                 a.u.       MegaHertz       Gauss      10(-4) cm-1
     1  Si(29)             0.47334    -420.67277    -150.10651    -140.32133
     2  C(13)              0.06971      78.36371      27.96212      26.13932
     3  F(19)              0.04550     191.43974      68.31046      63.85743
     4  F(19)              0.04550     191.43974      68.31046      63.85743
     5  H(1)               0.00392      17.52773       6.25433       5.84662
     6  H(1)              -0.00187      -8.33906      -2.97558      -2.78161
     7  H(1)              -0.00187      -8.33909      -2.97559      -2.78162
 --------------------------------------------------------

 Normal termination of Gaussian 16 at Tue Apr  8 23:46:17 2025.
