 Gaussian 16, Revision C.01,

 ----------------------------------------------------------------------
 #t hf aug-cc-pvdz symm=none int=(grid=ultrafine) guess=(read,tcheck) s
 table=(opt,rrhf)
 ----------------------------------------------------------------------
 -----
 title
 -----
 Symbolic Z-matrix:
 Charge =  0 Multiplicity = 1

 SCF Done:  E(RHF) =  -1512.90534357     A.U. after   17 cycles
 Normal termination of Gaussian 16 at Wed Apr  9 00:53:44 2025.
 Gaussian 16:  ES64L-G16RevC.01  3-Jul-2019

 ----------------------------------------------------------------------
 #t hf aug-cc-pvdz iop(5/13=1,5/36=2,99/5=2) pseudo=read geom=check gue
 ss=(read,tcheck) scf=(maxcycle=1)
 ----------------------------------------------------------------------
 -----
 title
 -----
 Structure from the checkpoint file:  "BDE49_nonexpt_939_mol1.chk"
 Charge =  0 Multiplicity = 1

                         Standard orientation:
 ---------------------------------------------------------------------
 Center     Atomic      Atomic             Coordinates (Angstroms)
 Number     Number       Type             X           Y           Z
 ---------------------------------------------------------------------
      1         17           0        3.412217    0.087915    0.010449
      2          7           0        1.763301    0.634984   -0.212575
      3          6           0        0.886078   -0.222028    0.179469
      4          7           0        1.061948   -1.416160    0.786843
      5          1           0        2.002035   -1.783561    0.799834
      6          1           0        0.297371   -2.069418    0.853962
      7          6           0       -0.560876    0.226711   -0.055795
      8         17           0       -0.750167    1.901174   -0.463844
      9          7           0       -1.234548   -0.640155   -1.196989
     10          8           0       -0.517714   -1.436619   -1.761079
     11          8           0       -2.401746   -0.409342   -1.401619
     12          7           0       -1.428237   -0.126939    1.221866
     13          8           0       -1.713179    0.763653    1.974088
     14          8           0       -1.697701   -1.311661    1.328343
 ---------------------------------------------------------------------

 SCF Done:  E(RHF) =  -1515.94300923     A.U. after    2 cycles

 The electronic state is 1-A.
 Alpha  occ. eigenvalues --  -99.95940 -99.93023 -21.16518 -21.15113 -21.14821
 Alpha  occ. eigenvalues --  -21.14670 -16.05912 -16.05475 -15.82428 -15.81132
 Alpha  occ. eigenvalues --  -11.65624 -11.54323 -10.53416 -10.50179  -9.73551
 Alpha  occ. eigenvalues --   -9.72514  -9.72361  -9.70084  -9.69280  -9.69020
 Alpha  occ. eigenvalues --   -2.06831  -2.04279  -1.76200  -1.75200  -1.54667
 Alpha  occ. eigenvalues --   -1.43294  -1.38122  -1.24461  -1.21260  -1.04265
 Alpha  occ. eigenvalues --   -0.94951  -0.84149  -0.80545  -0.79184  -0.77931
 Alpha  occ. eigenvalues --   -0.72593  -0.70780  -0.67562  -0.66259  -0.66045
 Alpha  occ. eigenvalues --   -0.62766  -0.62288  -0.58323  -0.57272  -0.55782
 Alpha  occ. eigenvalues --   -0.53155  -0.45594  -0.42516  -0.40580  -0.38508
 Alpha  occ. eigenvalues --   -0.37515  -0.36779  -0.35944  -0.34291
 Alpha virt. eigenvalues --    0.03456   0.03592   0.04667   0.06970   0.07263
 Alpha virt. eigenvalues --    0.08020   0.08237   0.09715   0.10598   0.11925
 Alpha virt. eigenvalues --    0.12753   0.12809   0.13846   0.14028   0.14757

 Mulliken charges:
               1
     1  Cl   0.361840
     2  N   -3.208088
     3  C    6.745846
     4  N   -3.384371
     5  H    0.746626
     6  H    0.867564
     7  C   -0.687151
     8  Cl   0.400044
     9  N    5.343745
    10  O   -2.972624
    11  O   -3.196251
    12  N    5.109871
    13  O   -3.082459
    14  O   -3.044592
 Sum of Mulliken charges =   0.00000

 Dipole moment (field-independent basis, Debye):
    X=             -1.0619    Y=             -2.4572    Z=              1.0573  Tot=              2.8781

 Test job not archived.
 1\1\GINC-SE435\SP\RHF\Aug-CC-pVDZ\C2H2Cl2N4O4\OHZDE\09-Apr-2025\0\\#t
 hf aug-cc-pvdz iop(5/13=1,5/36=2,99/5=2) pseudo=read geom=check guess=
 (read,tcheck) scf=(maxcycle=1)\\title\\0,1\Cl,0,-3.412217,0.087915,-0.
 010449\N,0,-1.763301,0.634984,0.212575\C,0,-0.886078,-0.222028,-0.1794
 69\N,0,-1.061948,-1.41616,-0.786843\H,0,-2.002035,-1.783561,-0.799834\
 H,0,-0.297371,-2.069418,-0.853962\C,0,0.560876,0.226711,0.055795\Cl,0,
 0.750167,1.901174,0.463844\N,0,1.234548,-0.640155,1.196989\O,0,0.51771
 4,-1.436619,1.761079\O,0,2.401746,-0.409342,1.401619\N,0,1.428237,-0.1

 Normal termination of Gaussian 16 at Wed Apr  9 00:53:52 2025.
