 Gaussian 16, Revision C.01,

 ----------------------------------------------------------------------
 #t hf aug-cc-pvdz symm=none int=(grid=ultrafine) guess=(read,tcheck) s
 table=(opt,rrhf)
 ----------------------------------------------------------------------
 -----
 title
 -----
 Symbolic Z-matrix:
 Charge =  0 Multiplicity = 1

 SCF Done:  E(RHF) =  -755.873985864     A.U. after   14 cycles
 Normal termination of Gaussian 16 at Tue Apr  8 23:40:23 2025.
 Gaussian 16:  ES64L-G16RevC.01  3-Jul-2019

 ----------------------------------------------------------------------
 #t hf aug-cc-pvdz iop(5/13=1,5/36=2,99/5=2) pseudo=read geom=check gue
 ss=(read,tcheck) scf=(maxcycle=1)
 ----------------------------------------------------------------------
 -----
 title
 -----
 Structure from the checkpoint file:  "BDE49_nonexpt_1601_mol1.chk"
 Charge =  0 Multiplicity = 1

                         Standard orientation:
 ---------------------------------------------------------------------
 Center     Atomic      Atomic             Coordinates (Angstroms)
 Number     Number       Type             X           Y           Z
 ---------------------------------------------------------------------
      1          8           0        0.536584   -0.140719   -0.911803
      2         15           0       -0.709687   -0.055781    0.124744
      3          8           0       -0.468694   -0.545171    1.481770
      4          8           0       -1.207091    1.445919    0.000638
      5          8           0        1.645984    0.623597   -0.325910
      6          6           0        2.588561   -0.327166    0.165201
      7          1           0        3.408950    0.295056    0.530491
      8          1           0        2.942102   -0.973681   -0.641937
      9          1           0        2.163723   -0.910631    0.984563
     10          1           0       -1.402575    1.825315    0.865187
     11          8           0       -1.781233   -0.840583   -0.752464
     12          1           0       -1.802665   -1.780696   -0.538527
 ---------------------------------------------------------------------

 SCF Done:  E(RHF) =  -757.806727712     A.U. after    2 cycles

 The electronic state is 1-A.
 Alpha  occ. eigenvalues -- -105.33391 -21.12842 -21.12759 -21.12706 -21.11950
 Alpha  occ. eigenvalues --  -21.03664 -11.41941  -2.96849  -2.04056  -1.98980
 Alpha  occ. eigenvalues --   -1.93620  -1.81256  -1.63810  -1.41415  -1.34557
 Alpha  occ. eigenvalues --   -1.24760  -0.97617  -0.71184  -0.64589  -0.62808
 Alpha  occ. eigenvalues --   -0.60885  -0.57967  -0.56338  -0.49058  -0.43538
 Alpha  occ. eigenvalues --   -0.42909  -0.41038  -0.37966  -0.35713  -0.34178
 Alpha  occ. eigenvalues --   -0.29360  -0.25111  -0.17142
 Alpha virt. eigenvalues --    0.03591   0.05234   0.05247   0.06390   0.07231
 Alpha virt. eigenvalues --    0.10558   0.10971   0.11861   0.12957   0.14454
 Alpha virt. eigenvalues --    0.15372   0.16310   0.16492   0.19565   0.20603

 Mulliken charges:
               1
     1  O   -1.911793
     2  P    8.715920
     3  O   -2.833630
     4  O   -2.747309
     5  O   -1.458758
     6  C   -2.635693
     7  H    1.259592
     8  H    1.334020
     9  H    1.350867
    10  H    0.795735
    11  O   -2.685603
    12  H    0.816649
 Sum of Mulliken charges =  -0.00000

 Dipole moment (field-independent basis, Debye):
    X=              0.2097    Y=              0.4445    Z=             -1.5785  Tot=              1.6532

 Test job not archived.
 1\1\GINC-SE103\SP\RHF\Aug-CC-pVDZ\C1H5O5P1\OHZDE\08-Apr-2025\0\\#t hf
 aug-cc-pvdz iop(5/13=1,5/36=2,99/5=2) pseudo=read geom=check guess=(re
 ad,tcheck) scf=(maxcycle=1)\\title\\0,1\O,0,0.536584,-0.140719,-0.9118
 03\P,0,-0.709687,-0.055781,0.124744\O,0,-0.468694,-0.545171,1.48177\O,
 0,-1.207091,1.445919,0.000638\O,0,1.645984,0.623597,-0.32591\C,0,2.588
 561,-0.327166,0.165201\H,0,3.40895,0.295056,0.530491\H,0,2.942102,-0.9
 73681,-0.641937\H,0,2.163723,-0.910631,0.984563\H,0,-1.402575,1.825315
 ,0.865187\O,0,-1.781233,-0.840583,-0.752464\H,0,-1.802665,-1.780696,-0

 Normal termination of Gaussian 16 at Tue Apr  8 23:40:28 2025.
