 Gaussian 16, Revision C.01,

 ----------------------------------------------------------------------
 #t hf aug-cc-pvdz symm=none int=(grid=ultrafine) guess=(read,tcheck) s
 table=(opt,rrhf)
 ----------------------------------------------------------------------
 -----
 title
 -----
 Symbolic Z-matrix:
 Charge =  0 Multiplicity = 1

 SCF Done:  E(RHF) =  -191.721204066     A.U. after   11 cycles
 Normal termination of Gaussian 16 at Tue Apr  8 22:44:36 2025.
 Gaussian 16:  ES64L-G16RevC.01  3-Jul-2019

 ----------------------------------------------------------------------
 #t hf aug-cc-pvdz iop(5/13=1,5/36=2,99/5=2) pseudo=read geom=check gue
 ss=(read,tcheck) scf=(maxcycle=1)
 ----------------------------------------------------------------------
 -----
 title
 -----
 Structure from the checkpoint file:  "BDE49_expt_1496_mol1.chk"
 Charge =  0 Multiplicity = 1

                         Standard orientation:
 ---------------------------------------------------------------------
 Center     Atomic      Atomic             Coordinates (Angstroms)
 Number     Number       Type             X           Y           Z
 ---------------------------------------------------------------------
      1          6           0        0.000000    0.000000   -0.151521
      2          9           0        0.000000    0.000000    1.115373
      3          7           0        0.000000    0.000000   -1.304176
 ---------------------------------------------------------------------

 SCF Done:  E(RHF) =  -192.441774194     A.U. after    2 cycles

 The electronic state is 1-SG.
 Alpha  occ. eigenvalues --  -29.42130 -15.79797 -11.52460  -1.36685  -1.05994
 Alpha  occ. eigenvalues --   -0.59796  -0.59796  -0.57259  -0.49570  -0.34556
 Alpha  occ. eigenvalues --   -0.34556
 Alpha virt. eigenvalues --    0.08027   0.09796   0.09796   0.12182   0.16577
 Alpha virt. eigenvalues --    0.18775   0.18775   0.22828   0.22828   0.24642
 Alpha virt. eigenvalues --    0.28657   0.33187   0.33187   0.36364   0.36364

 Mulliken charges:
               1
     1  C    1.328844
     2  F    0.747070
     3  N   -2.075914
 Sum of Mulliken charges =  -0.00000

 Dipole moment (field-independent basis, Debye):
    X=              0.0000    Y=              0.0000    Z=              5.3121  Tot=              5.3121

 Test job not archived.
 1\1\GINC-SE029\SP\RHF\Aug-CC-pVDZ\C1F1N1\OHZDE\08-Apr-2025\0\\#t hf au
 g-cc-pvdz iop(5/13=1,5/36=2,99/5=2) pseudo=read geom=check guess=(read
 ,tcheck) scf=(maxcycle=1)\\title\\0,1\C,0,0.,0.,-0.151521\F,0,0.,0.,1.
 115373\N,0,0.,0.,-1.304176\\Version=ES64L-G16RevC.01\State=1-SG\HF=-19
 2.4417742\RMSD=3.808e-02\Dipole=0.,0.,2.0899514\Quadrupole=0.1640103,0
 .1640103,-0.3280207,0.,0.,0.\PG=C*V [C*(N1C1F1)]\\@

 Normal termination of Gaussian 16 at Tue Apr  8 22:44:38 2025.
