 Gaussian 16, Revision C.01,

 ----------------------------------------------------------------------
 #t hf aug-cc-pvdz symm=none int=(grid=ultrafine) guess=(read,tcheck) s
 table=opt
 ----------------------------------------------------------------------
 -----
 title
 -----
 Symbolic Z-matrix:
 Charge =  0 Multiplicity = 2

 SCF Done:  E(UHF) =  -617.903940948     A.U. after   16 cycles
 Normal termination of Gaussian 16 at Tue Apr  8 23:42:26 2025.
 Gaussian 16:  ES64L-G16RevC.01  3-Jul-2019

 ----------------------------------------------------------------------
 #t hf aug-cc-pvdz iop(5/13=1,5/36=2,99/5=2) pseudo=read geom=check gue
 ss=(read,tcheck) scf=(maxcycle=1)
 ----------------------------------------------------------------------
 -----
 title
 -----
 Structure from the checkpoint file:  "BDE49_nonexpt_165_mol2.chk"
 Charge =  0 Multiplicity = 2

                         Standard orientation:
 ---------------------------------------------------------------------
 Center     Atomic      Atomic             Coordinates (Angstroms)
 Number     Number       Type             X           Y           Z
 ---------------------------------------------------------------------
      1         17           0        1.966888   -0.075900   -0.000008
      2          7           0       -0.852352   -0.085261    0.000003
      3          5           0        0.339815   -0.778998   -0.000002
      4          6           0       -2.131394   -0.795995    0.000008
      5          1           0       -2.717286   -0.533454    0.888047
      6          1           0       -1.952671   -1.870352    0.000007
      7          1           0       -2.717293   -0.533454   -0.888026
      8          6           0       -0.986321    1.374030    0.000004
      9          1           0       -0.003436    1.840336   -0.000003
     10          1           0       -1.536355    1.705418    0.887495
     11          1           0       -1.536368    1.705418   -0.887478
 ---------------------------------------------------------------------

 SCF Done:  E(UHF) =  -618.896210123     A.U. after    2 cycles

 The electronic state is 2-A.
 Alpha  occ. eigenvalues --  -99.87819 -15.71626 -11.40640 -11.39902 -10.45093
 Alpha  occ. eigenvalues --   -9.65101  -9.64631  -9.64366  -7.66949  -1.44405
 Alpha  occ. eigenvalues --   -1.30718  -1.05313  -0.96509  -0.74181  -0.64765
 Alpha  occ. eigenvalues --   -0.64529  -0.62364  -0.55788  -0.54330  -0.53233
 Alpha  occ. eigenvalues --   -0.51662  -0.50003  -0.36589  -0.32754
 Alpha virt. eigenvalues --    0.02923   0.04323   0.04521   0.05269   0.06789
 Alpha virt. eigenvalues --    0.06862   0.07471   0.07823   0.09725   0.10076
 Alpha virt. eigenvalues --    0.13353   0.13537   0.13568   0.14149   0.15429

  Beta  occ. eigenvalues --  -99.87716 -15.71827 -11.40549 -11.39806 -10.44971
  Beta  occ. eigenvalues --   -9.64911  -9.64361  -9.64317  -7.64800  -1.44000
  Beta  occ. eigenvalues --   -1.29885  -1.05021  -0.95397  -0.72313  -0.64850
  Beta  occ. eigenvalues --   -0.64000  -0.60175  -0.55801  -0.53580  -0.52883
  Beta  occ. eigenvalues --   -0.51016  -0.49141  -0.37174
  Beta virt. eigenvalues --    0.02546   0.03994   0.04613   0.04636   0.06799
  Beta virt. eigenvalues --    0.06900   0.07474   0.07614   0.07909   0.09919
  Beta virt. eigenvalues --    0.11526   0.13425   0.13619   0.14920   0.15881

 Mulliken charges and spin densities:
               1          2
     1  Cl  -1.021143   0.053819
     2  N   -2.529296  -0.203144
     3  B    0.439759   1.073972
     4  C   -3.170388   0.119462
     5  H    1.423180   0.003317
     6  H    1.531121  -0.006203
     7  H    1.423179   0.003317
     8  C   -2.228719  -0.023131
     9  H    1.320034  -0.006794
    10  H    1.406134  -0.007307
    11  H    1.406138  -0.007307
 Sum of Mulliken charges =  -0.00000   1.00000

 Dipole moment (field-independent basis, Debye):
    X=             -2.7125    Y=              0.9155    Z=              0.0000  Tot=              2.8628
                          Isotropic Fermi Contact Couplings
        Atom                 a.u.       MegaHertz       Gauss      10(-4) cm-1
     1  Cl(35)             0.15873      69.59882      24.83459      23.21567
     2  N(14)              0.03423      11.06050       3.94666       3.68939
     3  B(11)              0.34603     496.32861     177.10239     165.55740
     4  C(13)              0.01792      20.14257       7.18737       6.71884
     5  H(1)              -0.00065      -2.89184      -1.03188      -0.96461
     6  H(1)              -0.00009      -0.41845      -0.14931      -0.13958
     7  H(1)              -0.00065      -2.89184      -1.03188      -0.96461
     8  C(13)              0.01739      19.55480       6.97764       6.52278

 1\1\GINC-SE250\SP\UHF\Aug-CC-pVDZ\C2H6B1Cl1N1(2)\OHZDE\08-Apr-2025\0\\
 #t hf aug-cc-pvdz iop(5/13=1,5/36=2,99/5=2) pseudo=read geom=check gue
 ss=(read,tcheck) scf=(maxcycle=1)\\title\\0,2\Cl,0,1.966888,-0.0759,-0
 .000008\N,0,-0.852352,-0.085261,0.000003\B,0,0.339815,-0.778998,-0.000
 002\C,0,-2.131394,-0.795995,0.000008\H,0,-2.717286,-0.533454,0.888047\
 H,0,-1.952671,-1.870352,0.000007\H,0,-2.717293,-0.533454,-0.888026\C,0
 ,-0.986321,1.37403,0.000004\H,0,-0.003436,1.840336,-0.000003\H,0,-1.53
 6355,1.705418,0.887495\H,0,-1.536368,1.705418,-0.887478\\Version=ES64L

 Normal termination of Gaussian 16 at Tue Apr  8 23:42:29 2025.
