 Gaussian 16, Revision C.01,

 ----------------------------------------------------------------------
 #t hf aug-cc-pvdz symm=none int=(grid=ultrafine) guess=(read,tcheck) s
 table=opt
 ----------------------------------------------------------------------
 -----
 title
 -----
 Symbolic Z-matrix:
 Charge =  0 Multiplicity = 2

 SCF Done:  E(UHF) =  -557.452587849     A.U. after   16 cycles
 Normal termination of Gaussian 16 at Wed Apr  9 00:00:02 2025.
 Gaussian 16:  ES64L-G16RevC.01  3-Jul-2019

 ----------------------------------------------------------------------
 #t hf aug-cc-pvdz iop(5/13=1,5/36=2,99/5=2) pseudo=read geom=check gue
 ss=(read,tcheck) scf=(maxcycle=1)
 ----------------------------------------------------------------------
 -----
 title
 -----
 Structure from the checkpoint file:  "BDE49_nonexpt_2070_mol2.chk"
 Charge =  0 Multiplicity = 2

                         Standard orientation:
 ---------------------------------------------------------------------
 Center     Atomic      Atomic             Coordinates (Angstroms)
 Number     Number       Type             X           Y           Z
 ---------------------------------------------------------------------
      1         14           0        1.803959   -0.668307   -0.150752
      2          6           0        0.023876   -0.218806    0.453509
      3          8           0       -0.874468   -0.771841   -0.480241
      4          8           0       -0.197882    1.153133    0.701244
      5          6           0       -2.211845   -0.890203    0.004330
      6          1           0       -2.256241   -1.574087    0.861819
      7          1           0       -2.807250   -1.298453   -0.811859
      8          1           0       -2.614046    0.082747    0.302093
      9          6           0       -0.067432    1.997649   -0.437147
     10          1           0       -0.238582    3.015700   -0.088899
     11          1           0       -0.795084    1.744163   -1.213360
     12          1           0        0.941059    1.929402   -0.869574
     13          1           0       -0.124018   -0.683022    1.441120
     14          1           0        1.945388   -2.146456   -0.192314
     15          1           0        2.804553   -0.095867    0.789329
 ---------------------------------------------------------------------

 SCF Done:  E(UHF) =  -558.804236738     A.U. after    2 cycles

 The electronic state is 2-A.
 Alpha  occ. eigenvalues --  -76.22457 -21.05342 -21.05136 -11.43505 -11.40686
 Alpha  occ. eigenvalues --  -11.40014  -5.55837  -2.19701  -2.18139  -2.17509
 Alpha  occ. eigenvalues --   -1.81097  -1.69044  -1.04227  -0.98437  -0.87487
 Alpha  occ. eigenvalues --   -0.74948  -0.66968  -0.63022  -0.60446  -0.59639
 Alpha  occ. eigenvalues --   -0.58596  -0.52207  -0.48123  -0.46492  -0.44354
 Alpha  occ. eigenvalues --   -0.36026  -0.31937  -0.30042  -0.25847
 Alpha virt. eigenvalues --    0.03670   0.04808   0.05451   0.05593   0.05889
 Alpha virt. eigenvalues --    0.06597   0.06657   0.07009   0.08230   0.09302
 Alpha virt. eigenvalues --    0.09679   0.10904   0.12680   0.13652   0.14814

  Beta  occ. eigenvalues --  -76.21899 -21.05359 -21.05135 -11.43457 -11.40680
  Beta  occ. eigenvalues --  -11.39995  -5.54961  -2.18995  -2.17487  -2.13974
  Beta  occ. eigenvalues --   -1.81076  -1.69053  -1.04009  -0.98361  -0.86506
  Beta  occ. eigenvalues --   -0.71513  -0.66780  -0.62503  -0.60383  -0.59409
  Beta  occ. eigenvalues --   -0.58459  -0.52042  -0.47551  -0.45975  -0.44293
  Beta  occ. eigenvalues --   -0.35656  -0.30302  -0.29363
  Beta virt. eigenvalues --    0.03234   0.04210   0.05094   0.05476   0.05762
  Beta virt. eigenvalues --    0.06109   0.06719   0.06784   0.07466   0.09077
  Beta virt. eigenvalues --    0.09732   0.10060   0.11252   0.12842   0.14076

 Mulliken charges and spin densities:
               1          2
     1  Si   3.692945   1.099002
     2  C    1.155652   0.134062
     3  O   -2.846275  -0.088807
     4  O   -2.982382  -0.022035
     5  C   -2.935058  -0.029416
     6  H    1.330801  -0.002443
     7  H    1.290322  -0.003412
     8  H    1.387186   0.001529
     9  C   -2.971170  -0.010739
    10  H    1.215485  -0.002543
    11  H    1.440207   0.000542
    12  H    1.382757  -0.033279
    13  H    1.938156  -0.003598
    14  H   -1.537638  -0.018580
    15  H   -1.560990  -0.020284
 Sum of Mulliken charges =   0.00000   1.00000

 Dipole moment (field-independent basis, Debye):
    X=             -0.9629    Y=              0.4206    Z=             -0.2459  Tot=              1.0791
                          Isotropic Fermi Contact Couplings
        Atom                 a.u.       MegaHertz       Gauss      10(-4) cm-1
     1  Si(29)             0.45290    -402.50511    -143.62383    -134.26125
     2  C(13)              0.00496       5.58032       1.99120       1.86139
     3  O(17)             -0.00711       4.31201       1.53863       1.43833
     4  O(17)              0.00317      -1.92384      -0.68647      -0.64172
     5  C(13)             -0.00094      -1.06006      -0.37826      -0.35360
     6  H(1)               0.00019       0.85722       0.30588       0.28594
     7  H(1)               0.00009       0.42412       0.15134       0.14147
     8  H(1)               0.00001       0.04594       0.01639       0.01532

 Normal termination of Gaussian 16 at Wed Apr  9 00:00:07 2025.
