 Gaussian 16, Revision C.01,

 ----------------------------------------------------------------------
 #t hf aug-cc-pvdz symm=none int=(grid=ultrafine) guess=(read,tcheck) s
 table=opt
 ----------------------------------------------------------------------
 -----
 title
 -----
 Symbolic Z-matrix:
 Charge =  0 Multiplicity = 2

 SCF Done:  E(UHF) =  -631.959476410     A.U. after   15 cycles

 1\1\GINC-SE341\Stability\UHF\Aug-CC-pVDZ\H4P1Si1\OHZDE\08-Apr-2025\0\\
 #t hf aug-cc-pvdz symm=none int=(grid=ultrafine) guess=(read,tcheck) s
 table=opt\\title\\0,2\Si,0,1.144602,0.014648,-0.091854\P,0,-1.129049,-
 0.110282,-0.032925\H,0,1.748357,1.172263,0.619299\H,0,1.734416,-1.2480
 05,0.418729\H,0,-1.317086,1.18972,-0.570698\H,0,-1.254368,0.335187,1.3
 12508\\Version=ES64L-G16RevC.01\HF=-631.9594764\S2=0.756094\S2-1=0.\S2
 A=0.750018\RMSD=7.547e-09\Dipole=0.1171218,0.25482,0.1244079\Quadrupol
 e=-0.6224369,-0.0379941,0.660431,-1.089838,-0.4348178,-0.4467169\PG=Un

 Normal termination of Gaussian 16 at Tue Apr  8 23:54:17 2025.
 Gaussian 16:  ES64L-G16RevC.01  3-Jul-2019

 ----------------------------------------------------------------------
 #t hf aug-cc-pvdz iop(5/13=1,5/36=2,99/5=2) pseudo=read geom=check gue
 ss=(read,tcheck) scf=(maxcycle=1)
 ----------------------------------------------------------------------
 -----
 title
 -----
 Structure from the checkpoint file:  "BDE49_nonexpt_1951_mol2.chk"
 Charge =  0 Multiplicity = 2

                         Standard orientation:
 ---------------------------------------------------------------------
 Center     Atomic      Atomic             Coordinates (Angstroms)
 Number     Number       Type             X           Y           Z
 ---------------------------------------------------------------------
      1         14           0        1.144602    0.014648   -0.091854
      2         15           0       -1.129049   -0.110282   -0.032925
      3          1           0        1.748357    1.172263    0.619299
      4          1           0        1.734416   -1.248005    0.418729
      5          1           0       -1.317086    1.189720   -0.570698
      6          1           0       -1.254368    0.335187    1.312508
 ---------------------------------------------------------------------

 SCF Done:  E(UHF) =  -632.295626927     A.U. after    2 cycles

 The electronic state is 2-A.
 Alpha  occ. eigenvalues -- -105.17950 -76.24200  -5.57480  -2.74906  -2.19258
 Alpha  occ. eigenvalues --   -2.18986  -2.17912  -1.43824  -1.43346  -1.41653
 Alpha  occ. eigenvalues --   -0.79483  -0.67262  -0.48268  -0.32022  -0.25831
 Alpha  occ. eigenvalues --   -0.15239  -0.04911
 Alpha virt. eigenvalues --    0.04500   0.05388   0.07144   0.07286   0.08579
 Alpha virt. eigenvalues --    0.09401   0.09786   0.11089   0.11739   0.12967
 Alpha virt. eigenvalues --    0.15274   0.17124   0.18429   0.19042   0.19567

  Beta  occ. eigenvalues -- -105.17946 -76.23640  -5.56608  -2.74888  -2.18587
  Beta  occ. eigenvalues --   -2.18283  -2.14288  -1.43592  -1.43360  -1.41705
  Beta  occ. eigenvalues --   -0.76755  -0.64818  -0.47657  -0.25832  -0.18128
  Beta  occ. eigenvalues --   -0.04635
  Beta virt. eigenvalues --    0.03256   0.05199   0.05627   0.07304   0.07877
  Beta virt. eigenvalues --    0.09068   0.09749   0.10663   0.11863   0.12019
  Beta virt. eigenvalues --    0.13755   0.16251   0.18376   0.19892   0.20071

 Mulliken charges and spin densities:
               1          2
     1  Si   3.200660   1.089878
     2  P    0.867294  -0.026344
     3  H   -1.438271  -0.007437
     4  H   -1.425881  -0.032572
     5  H   -0.584289  -0.028514
     6  H   -0.619513   0.004989
 Sum of Mulliken charges =  -0.00000   1.00000

 Dipole moment (field-independent basis, Debye):
    X=             -5.5482    Y=             -3.8007    Z=             -1.6939  Tot=              6.9352
                          Isotropic Fermi Contact Couplings
        Atom                 a.u.       MegaHertz       Gauss      10(-4) cm-1
     1  Si(29)             0.26142    -232.32867     -82.90065     -77.49650
     2  P(31)              0.02835      51.34755      18.32208      17.12770
     3  H(1)               0.00096       4.31081       1.53821       1.43793
     4  H(1)              -0.00267     -11.92875      -4.25648      -3.97900
     5  H(1)              -0.00029      -1.30512      -0.46570      -0.43534
     6  H(1)               0.01240      55.42395      19.77664      18.48744
 --------------------------------------------------------
       Center         ----  Spin Dipole Couplings  ----

 Normal termination of Gaussian 16 at Tue Apr  8 23:54:19 2025.
