 Gaussian 16, Revision C.01,

 ----------------------------------------------------------------------
 #t hf aug-cc-pvdz symm=none int=(grid=ultrafine) guess=(read,tcheck) s
 table=opt
 ----------------------------------------------------------------------
 -----
 title
 -----
 Symbolic Z-matrix:
 Charge =  0 Multiplicity = 2

 SCF Done:  E(UHF) =  -740.595261435     A.U. after   19 cycles
 Normal termination of Gaussian 16 at Wed Apr  9 00:53:11 2025.
 Gaussian 16:  ES64L-G16RevC.01  3-Jul-2019

 ----------------------------------------------------------------------
 #t hf aug-cc-pvdz iop(5/13=1,5/36=2,99/5=2) pseudo=read geom=check gue
 ss=(read,tcheck) scf=(maxcycle=1)
 ----------------------------------------------------------------------
 -----
 title
 -----
 Structure from the checkpoint file:  "BDE49_nonexpt_967_mol2.chk"
 Charge =  0 Multiplicity = 2

                         Standard orientation:
 ---------------------------------------------------------------------
 Center     Atomic      Atomic             Coordinates (Angstroms)
 Number     Number       Type             X           Y           Z
 ---------------------------------------------------------------------
      1         16           0       -0.339774   -0.212324    0.000000
      2          8           0       -0.321599   -0.913292    1.258258
      3          7           0        1.002390    0.951039   -0.000001
      4          6           0       -1.644597    1.005269    0.000000
      5          1           0       -2.575095    0.436876    0.000001
      6          1           0       -1.561549    1.608844    0.902148
      7          9           0        2.125669    0.185158   -0.000001
      8          8           0       -0.321599   -0.913295   -1.258256
      9          1           0       -1.561550    1.608842   -0.902151
 ---------------------------------------------------------------------

 SCF Done:  E(UHF) =  -742.231275831     A.U. after    2 cycles

 The electronic state is 2-A.
 Alpha  occ. eigenvalues --  -75.92755 -29.34117 -21.08316 -21.08315 -15.89088
 Alpha  occ. eigenvalues --  -13.55575 -13.45334 -13.33831 -11.45221  -8.28115
 Alpha  occ. eigenvalues --   -1.86963  -1.68557  -1.47006  -1.17678  -0.93924
 Alpha  occ. eigenvalues --   -0.73631  -0.68849  -0.68599  -0.64911  -0.62667
 Alpha  occ. eigenvalues --   -0.57526  -0.46261  -0.46038  -0.43630  -0.41849
 Alpha  occ. eigenvalues --   -0.40109  -0.38520  -0.26921  -0.26684
 Alpha virt. eigenvalues --    0.02206   0.05084   0.05153   0.09384   0.10744
 Alpha virt. eigenvalues --    0.11883   0.12571   0.13488   0.14027   0.14611
 Alpha virt. eigenvalues --    0.16677   0.18522   0.19225   0.20038   0.21713

  Beta  occ. eigenvalues --  -75.92835 -29.33758 -21.08249 -21.08249 -15.85599
  Beta  occ. eigenvalues --  -13.55659 -13.45460 -13.34123 -11.45251  -8.28217
  Beta  occ. eigenvalues --   -1.86799  -1.68384  -1.36716  -1.17206  -0.93379
  Beta  occ. eigenvalues --   -0.71887  -0.66630  -0.66007  -0.61911  -0.56650
  Beta  occ. eigenvalues --   -0.49645  -0.44782  -0.44467  -0.43054  -0.39876
  Beta  occ. eigenvalues --   -0.38775  -0.37065  -0.25592
  Beta virt. eigenvalues --    0.02263   0.04982   0.05161   0.07606   0.09388
  Beta virt. eigenvalues --    0.10841   0.12227   0.12647   0.13516   0.14099
  Beta virt. eigenvalues --    0.15012   0.16765   0.18744   0.20272   0.20370

 Mulliken charges and spin densities:
               1          2
     1  S    5.974752  -0.072142
     2  O   -2.434098   0.018448
     3  N   -1.017315   0.899135
     4  C   -4.243843  -0.020646
     5  H    1.322065  -0.001787
     6  H    1.310168   0.002187
     7  F    0.212204   0.154172
     8  O   -2.434099   0.018448
     9  H    1.310167   0.002187
 Sum of Mulliken charges =  -0.00000   1.00000

 Dipole moment (field-independent basis, Debye):
    X=              0.6946    Y=              0.0735    Z=             -0.0000  Tot=              0.6984
                          Isotropic Fermi Contact Couplings
        Atom                 a.u.       MegaHertz       Gauss      10(-4) cm-1
     1  S(33)             -0.10483     -36.00768     -12.84843     -12.01087
     2  O(17)              0.00179      -1.08308      -0.38647      -0.36128
     3  N(14)              0.20822      67.27801      24.00647      22.44153
     4  C(13)             -0.00594      -6.68085      -2.38389      -2.22849
     5  H(1)              -0.00058      -2.60413      -0.92922      -0.86864
     6  H(1)               0.00021       0.92074       0.32854       0.30713
     7  F(19)              0.03398     142.98951      51.02221      47.69617
     8  O(17)              0.00179      -1.08306      -0.38646      -0.36127

 Normal termination of Gaussian 16 at Wed Apr  9 00:53:14 2025.
