 Gaussian 16, Revision C.01,

 ----------------------------------------------------------------------
 #t hf aug-cc-pvdz symm=none int=(grid=ultrafine) guess=(read,tcheck) s
 table=(opt,rrhf)
 ----------------------------------------------------------------------
 -----
 title
 -----
 Symbolic Z-matrix:
 Charge =  0 Multiplicity = 1

 SCF Done:  E(RHF) =  -956.614411966     A.U. after   15 cycles
 Normal termination of Gaussian 16 at Wed Apr  9 00:11:10 2025.
 Gaussian 16:  ES64L-G16RevC.01  3-Jul-2019

 ----------------------------------------------------------------------
 #t hf aug-cc-pvdz iop(5/13=1,5/36=2,99/5=2) pseudo=read geom=check gue
 ss=(read,tcheck) scf=(maxcycle=1)
 ----------------------------------------------------------------------
 -----
 title
 -----
 Structure from the checkpoint file:  "BDE49_nonexpt_2354_mol1.chk"
 Charge =  0 Multiplicity = 1

                         Standard orientation:
 ---------------------------------------------------------------------
 Center     Atomic      Atomic             Coordinates (Angstroms)
 Number     Number       Type             X           Y           Z
 ---------------------------------------------------------------------
      1         14           0        1.073727    1.157535    0.517101
      2         14           0       -1.053679    1.115089   -0.504197
      3          6           0        1.908142   -0.499989   -0.040005
      4          8           0        1.236448   -1.503226   -0.158187
      5          1           0        1.015810    1.088998    1.995266
      6          1           0        1.957704    2.286791    0.128257
      7          8           0        3.228709   -0.571776   -0.305372
      8          6           0       -2.091698   -0.426439    0.052529
      9          1           0       -0.829759    1.045153   -1.967699
     10          1           0       -1.821657    2.326853   -0.160657
     11          8           0       -3.277451   -0.269484    0.195670
     12          8           0       -1.512143   -1.618591    0.248604
     13          1           0        3.639577    0.293022   -0.181460
     14          1           0       -0.545512   -1.594378    0.084772
 ---------------------------------------------------------------------

 SCF Done:  E(RHF) =  -958.465137857     A.U. after    2 cycles

 The electronic state is 1-A.
 Alpha  occ. eigenvalues --  -76.26622 -76.25427 -21.15879 -21.10524 -21.09153
 Alpha  occ. eigenvalues --  -21.05290 -11.52312 -11.48853  -5.60243  -5.58987
 Alpha  occ. eigenvalues --   -2.23678  -2.22486  -2.22324  -2.21953  -2.21207
 Alpha  occ. eigenvalues --   -2.20237  -1.85434  -1.80767  -1.69068  -1.64564
 Alpha  occ. eigenvalues --   -0.91251  -0.85951  -0.80714  -0.74637  -0.66557
 Alpha  occ. eigenvalues --   -0.63470  -0.58564  -0.57055  -0.54982  -0.53329
 Alpha  occ. eigenvalues --   -0.51774  -0.50589  -0.48451  -0.43195  -0.39915
 Alpha  occ. eigenvalues --   -0.37014  -0.32768  -0.31428  -0.27079
 Alpha virt. eigenvalues --    0.02490   0.03609   0.04245   0.05358   0.05792
 Alpha virt. eigenvalues --    0.06580   0.07059   0.07223   0.08155   0.08709
 Alpha virt. eigenvalues --    0.08837   0.09927   0.10122   0.10963   0.11329

 Mulliken charges:
               1
     1  Si   4.440813
     2  Si   4.277530
     3  C    3.143323
     4  O   -2.511869
     5  H   -1.836811
     6  H   -1.698734
     7  O   -2.754991
     8  C    3.178326
     9  H   -1.605390
    10  H   -1.705711
    11  O   -2.596491
    12  O   -3.043101
    13  H    0.977482
    14  H    1.735626
 Sum of Mulliken charges =   0.00000

 Dipole moment (field-independent basis, Debye):
    X=              3.0396    Y=              1.4862    Z=             -0.1225  Tot=              3.3857

 Test job not archived.
 1\1\GINC-SE404\SP\RHF\Aug-CC-pVDZ\C2H6O4Si2\OHZDE\09-Apr-2025\0\\#t hf
  aug-cc-pvdz iop(5/13=1,5/36=2,99/5=2) pseudo=read geom=check guess=(r
 ead,tcheck) scf=(maxcycle=1)\\title\\0,1\Si,0,-1.073727,1.157535,-0.51
 7101\Si,0,1.053679,1.115089,0.504197\C,0,-1.908142,-0.499989,0.040005\
 O,0,-1.236448,-1.503226,0.158187\H,0,-1.01581,1.088998,-1.995266\H,0,-
 1.957704,2.286791,-0.128257\O,0,-3.228709,-0.571776,0.305372\C,0,2.091
 698,-0.426439,-0.052529\H,0,0.829759,1.045153,1.967699\H,0,1.821657,2.
 326853,0.160657\O,0,3.277451,-0.269484,-0.19567\O,0,1.512143,-1.618591

 Normal termination of Gaussian 16 at Wed Apr  9 00:11:16 2025.
