 Gaussian 16, Revision C.01,

 ----------------------------------------------------------------------
 #t hf aug-cc-pvdz symm=none int=(grid=ultrafine) guess=(read,tcheck) s
 table=(opt,rrhf)
 ----------------------------------------------------------------------
 -----
 title
 -----
 Symbolic Z-matrix:
 Charge =  0 Multiplicity = 1

 SCF Done:  E(RHF) =  -560.216326894     A.U. after   12 cycles
 Normal termination of Gaussian 16 at Wed Apr  9 00:06:19 2025.
 Gaussian 16:  ES64L-G16RevC.01  3-Jul-2019

 ----------------------------------------------------------------------
 #t hf aug-cc-pvdz iop(5/13=1,5/36=2,99/5=2) pseudo=read geom=check gue
 ss=(read,tcheck) scf=(maxcycle=1)
 ----------------------------------------------------------------------
 -----
 title
 -----
 Structure from the checkpoint file:  "BDE49_nonexpt_2221_mol1.chk"
 Charge =  0 Multiplicity = 1

                         Standard orientation:
 ---------------------------------------------------------------------
 Center     Atomic      Atomic             Coordinates (Angstroms)
 Number     Number       Type             X           Y           Z
 ---------------------------------------------------------------------
      1          6           0       -0.018007    1.498207   -0.506255
      2          6           0        1.237390    1.292038    0.373803
      3         14           0       -1.162762    0.008269   -0.429972
      4          1           0        0.284644    1.631589   -1.554190
      5          1           0       -0.537561    2.421763   -0.225080
      6          6           0        2.002675   -0.008175    0.066296
      7          1           0        0.944076    1.285917    1.430691
      8          1           0        1.916822    2.143126    0.252126
      9          6           0       -0.038650   -1.485366   -0.518149
     10          6           0        1.217087   -1.298043    0.366013
     11          1           0        2.929085   -0.016854    0.650567
     12          1           0        2.307701   -0.006741   -0.989107
     13          1           0        0.265988   -1.622440   -1.564274
     14          1           0       -0.580511   -2.392636   -0.232506
     15          1           0        0.919384   -1.294440    1.421166
     16          1           0        1.884344   -2.158116    0.240965
     17          8           0       -1.967641   -0.095140    1.022971
     18          1           0       -2.573042    0.609342    1.263315
     19          1           0       -2.144105    0.052874   -1.548084
 ---------------------------------------------------------------------

 SCF Done:  E(RHF) =  -561.700826680     A.U. after    2 cycles

 The electronic state is 1-A.
 Alpha  occ. eigenvalues --  -76.20317 -21.06268 -11.42341 -11.40818 -11.37178
 Alpha  occ. eigenvalues --  -11.34453 -11.33303  -5.54554  -2.21382  -2.18330
 Alpha  occ. eigenvalues --   -2.17405  -1.64683  -1.25491  -1.10531  -0.99847
 Alpha  occ. eigenvalues --   -0.86882  -0.80904  -0.70192  -0.63575  -0.60781
 Alpha  occ. eigenvalues --   -0.60030  -0.57761  -0.53612  -0.53245  -0.47373
 Alpha  occ. eigenvalues --   -0.47155  -0.44748  -0.44584  -0.40815  -0.39211
 Alpha  occ. eigenvalues --   -0.36650  -0.33470
 Alpha virt. eigenvalues --    0.03720   0.05282   0.05606   0.05648   0.05782
 Alpha virt. eigenvalues --    0.05893   0.06059   0.06483   0.06986   0.08163
 Alpha virt. eigenvalues --    0.08475   0.08651   0.09159   0.10506   0.11471

 Mulliken charges:
               1
     1  C   -3.683669
     2  C   -2.601169
     3  Si   6.783116
     4  H    1.277226
     5  H    1.261412
     6  C   -3.120318
     7  H    1.398938
     8  H    1.235753
     9  C   -3.903813
    10  C   -2.618555
    11  H    1.279835
    12  H    1.505025
    13  H    1.271036
    14  H    1.345249
    15  H    1.409340
    16  H    1.245724
    17  O   -2.964822
    18  H    1.161367
    19  H   -2.281675
 Sum of Mulliken charges =  -0.00000

 Dipole moment (field-independent basis, Debye):
    X=              0.3373    Y=              0.3643    Z=              0.4757  Tot=              0.6876

 Test job not archived.
 1\1\GINC-SE070\SP\RHF\Aug-CC-pVDZ\C5H12O1Si1\OHZDE\09-Apr-2025\0\\#t h
 f aug-cc-pvdz iop(5/13=1,5/36=2,99/5=2) pseudo=read geom=check guess=(
 read,tcheck) scf=(maxcycle=1)\\title\\0,1\C,0,-0.018007,1.498207,-0.50
 6255\C,0,1.23739,1.292038,0.373803\Si,0,-1.162762,0.008269,-0.429972\H
 ,0,0.284644,1.631589,-1.55419\H,0,-0.537561,2.421763,-0.22508\C,0,2.00
 2675,-0.008175,0.066296\H,0,0.944076,1.285917,1.430691\H,0,1.916822,2.
 143126,0.252126\C,0,-0.03865,-1.485366,-0.518149\C,0,1.217087,-1.29804
 3,0.366013\H,0,2.929085,-0.016854,0.650567\H,0,2.307701,-0.006741,-0.9

 Normal termination of Gaussian 16 at Wed Apr  9 00:06:28 2025.
