 Gaussian 16, Revision C.01,

 ----------------------------------------------------------------------
 #t hf aug-cc-pvdz symm=none int=(grid=ultrafine) guess=(read,tcheck) s
 table=(opt,rrhf)
 ----------------------------------------------------------------------
 -----
 title
 -----
 Symbolic Z-matrix:
 Charge =  0 Multiplicity = 1

 SCF Done:  E(RHF) =  -1454.79816377     A.U. after   13 cycles

 1\1\GINC-SE227\Stability\RHF\Aug-CC-pVDZ\C2H1Cl3\OHZDE\08-Apr-2025\0\\
 #t hf aug-cc-pvdz symm=none int=(grid=ultrafine) guess=(read,tcheck) s
 table=(opt,rrhf)\\title\\0,1\C,0,0.642036,-0.906119,-0.000004\C,0,-0.4
 25313,-0.109464,-0.000006\Cl,0,2.274137,-0.342974,0.000001\H,0,0.53631
 5,-1.980635,-0.000001\Cl,0,-0.359334,1.614587,0.\Cl,0,-2.022841,-0.796
 665,0.000002\\Version=ES64L-G16RevC.01\HF=-1454.7981638\RMSD=4.255e-09
 \Dipole=-0.0120895,-0.4162891,0.0000008\Quadrupole=-1.0660036,2.228230
 1,-1.1622265,0.0524625,-0.0000007,0.0000001\PG=Unknown\\@

 Normal termination of Gaussian 16 at Tue Apr  8 22:48:30 2025.
 Gaussian 16:  ES64L-G16RevC.01  3-Jul-2019

 ----------------------------------------------------------------------
 #t hf aug-cc-pvdz iop(5/13=1,5/36=2,99/5=2) pseudo=read geom=check gue
 ss=(read,tcheck) scf=(maxcycle=1)
 ----------------------------------------------------------------------
 -----
 title
 -----
 Structure from the checkpoint file:  "BDE49_expt_1626_mol1.chk"
 Charge =  0 Multiplicity = 1

                         Standard orientation:
 ---------------------------------------------------------------------
 Center     Atomic      Atomic             Coordinates (Angstroms)
 Number     Number       Type             X           Y           Z
 ---------------------------------------------------------------------
      1          6           0       -0.642036   -0.906119    0.000004
      2          6           0        0.425313   -0.109464    0.000006
      3         17           0       -2.274137   -0.342974   -0.000001
      4          1           0       -0.536315   -1.980635    0.000001
      5         17           0        0.359334    1.614587   -0.000000
      6         17           0        2.022841   -0.796665   -0.000002
 ---------------------------------------------------------------------

 SCF Done:  E(RHF) =  -1455.88761155     A.U. after    2 cycles

 The electronic state is 1-A.
 Alpha  occ. eigenvalues --  -99.92710 -99.92607 -99.91909 -11.51726 -11.46336
 Alpha  occ. eigenvalues --  -10.50211 -10.49920 -10.49307  -9.70015  -9.69865
 Alpha  occ. eigenvalues --   -9.69121  -9.69112  -9.69001  -9.68985  -9.68895
 Alpha  occ. eigenvalues --   -9.68284  -9.68193  -1.45429  -1.35036  -1.31562
 Alpha  occ. eigenvalues --   -1.10020  -0.86860  -0.73318  -0.69588  -0.63786
 Alpha  occ. eigenvalues --   -0.60418  -0.56630  -0.54676  -0.54344  -0.52865
 Alpha  occ. eigenvalues --   -0.51072  -0.38663
 Alpha virt. eigenvalues --    0.03075   0.03801   0.05905   0.06392   0.07706
 Alpha virt. eigenvalues --    0.07926   0.10174   0.12477   0.12871   0.13405
 Alpha virt. eigenvalues --    0.13845   0.14719   0.15104   0.17142   0.17807

 Mulliken charges:
               1
     1  C   -1.051426
     2  C   -0.181638
     3  Cl  -0.097654
     4  H    1.673520
     5  Cl  -0.053264
     6  Cl  -0.289538
 Sum of Mulliken charges =  -0.00000

 Dipole moment (field-independent basis, Debye):
    X=             -0.1260    Y=             -1.1173    Z=             -0.0000  Tot=              1.1243

 Test job not archived.
 1\1\GINC-SE227\SP\RHF\Aug-CC-pVDZ\C2H1Cl3\OHZDE\08-Apr-2025\0\\#t hf a
 ug-cc-pvdz iop(5/13=1,5/36=2,99/5=2) pseudo=read geom=check guess=(rea
 d,tcheck) scf=(maxcycle=1)\\title\\0,1\C,0,0.642036,-0.906119,-0.00000
 4\C,0,-0.425313,-0.109464,-0.000006\Cl,0,2.274137,-0.342974,0.000001\H
 ,0,0.536315,-1.980635,-0.000001\Cl,0,-0.359334,1.614587,0.\Cl,0,-2.022
 841,-0.796665,0.000002\\Version=ES64L-G16RevC.01\State=1-A\HF=-1455.88
 76116\RMSD=3.846e-01\Dipole=0.0495769,-0.4395617,0.0000011\Quadrupole=
 -0.1245789,2.4861024,-2.3615235,0.4298271,-0.0000016,0.0000012\PG=C01

 Normal termination of Gaussian 16 at Tue Apr  8 22:48:32 2025.
