 Gaussian 16, Revision C.01,

 ----------------------------------------------------------------------
 #t hf aug-cc-pvdz symm=none int=(grid=ultrafine) guess=(read,tcheck) s
 table=(opt,rrhf)
 ----------------------------------------------------------------------
 -----
 title
 -----
 Symbolic Z-matrix:
 Charge =  0 Multiplicity = 1

 SCF Done:  E(RHF) =  -766.901823806     A.U. after   11 cycles
 Normal termination of Gaussian 16 at Wed Apr  9 00:14:38 2025.
 Gaussian 16:  ES64L-G16RevC.01  3-Jul-2019

 ----------------------------------------------------------------------
 #t hf aug-cc-pvdz iop(5/13=1,5/36=2,99/5=2) pseudo=read geom=check gue
 ss=(read,tcheck) scf=(maxcycle=1)
 ----------------------------------------------------------------------
 -----
 title
 -----
 Structure from the checkpoint file:  "BDE49_nonexpt_2469_mol1.chk"
 Charge =  0 Multiplicity = 1

                         Standard orientation:
 ---------------------------------------------------------------------
 Center     Atomic      Atomic             Coordinates (Angstroms)
 Number     Number       Type             X           Y           Z
 ---------------------------------------------------------------------
      1         16           0       -1.627129   -0.655892   -0.107636
      2         14           0       -0.164710    0.930931    0.159615
      3          6           0        1.483763    0.302983   -0.491649
      4          1           0       -2.639053    0.011442    0.474834
      5          6           0        2.081490   -0.897174    0.263642
      6          1           0        2.175440    1.153915   -0.454807
      7          1           0        1.362109    0.064515   -1.554407
      8          1           0        2.233625   -0.667690    1.321957
      9          1           0        3.050968   -1.181386   -0.154862
     10          1           0        1.429776   -1.772667    0.209265
     11          1           0       -0.072283    1.278886    1.598019
     12          1           0       -0.592089    2.139363   -0.584395
 ---------------------------------------------------------------------

 SCF Done:  E(RHF) =  -767.711859338     A.U. after    2 cycles

 The electronic state is 1-A.
 Alpha  occ. eigenvalues --  -76.23381 -75.67941 -13.13681 -13.06255 -13.02024
 Alpha  occ. eigenvalues --  -11.39880 -11.35300  -8.01910  -5.56911  -2.20497
 Alpha  occ. eigenvalues --   -2.18893  -2.18764  -1.16085  -1.09341  -0.89991
 Alpha  occ. eigenvalues --   -0.72345  -0.61746  -0.57963  -0.51259  -0.50867
 Alpha  occ. eigenvalues --   -0.49208  -0.46946  -0.39861  -0.33887  -0.26760
 Alpha virt. eigenvalues --    0.03170   0.04206   0.04665   0.05417   0.06446
 Alpha virt. eigenvalues --    0.06712   0.07418   0.07827   0.09421   0.09993
 Alpha virt. eigenvalues --    0.10941   0.12125   0.12623   0.13840   0.15009

 Mulliken charges:
               1
     1  S   -2.496861
     2  Si   6.082806
     3  C   -3.986606
     4  H    0.994089
     5  C   -3.510285
     6  H    1.397771
     7  H    1.376552
     8  H    1.316367
     9  H    1.173599
    10  H    1.261040
    11  H   -1.816498
    12  H   -1.791974
 Sum of Mulliken charges =  -0.00000

 Dipole moment (field-independent basis, Debye):
    X=              0.8971    Y=             -1.5123    Z=             -0.8353  Tot=              1.9467

 Test job not archived.
 1\1\GINC-SE453\SP\RHF\Aug-CC-pVDZ\C2H8S1Si1\OHZDE\09-Apr-2025\0\\#t hf
  aug-cc-pvdz iop(5/13=1,5/36=2,99/5=2) pseudo=read geom=check guess=(r
 ead,tcheck) scf=(maxcycle=1)\\title\\0,1\S,0,-1.627129,-0.655892,-0.10
 7636\Si,0,-0.16471,0.930931,0.159615\C,0,1.483763,0.302983,-0.491649\H
 ,0,-2.639053,0.011442,0.474834\C,0,2.08149,-0.897174,0.263642\H,0,2.17
 544,1.153915,-0.454807\H,0,1.362109,0.064515,-1.554407\H,0,2.233625,-0
 .66769,1.321957\H,0,3.050968,-1.181386,-0.154862\H,0,1.429776,-1.77266
 7,0.209265\H,0,-0.072283,1.278886,1.598019\H,0,-0.592089,2.139363,-0.5

 Normal termination of Gaussian 16 at Wed Apr  9 00:14:42 2025.
