 Gaussian 16, Revision C.01,

 ----------------------------------------------------------------------
 #t hf aug-cc-pvdz symm=none int=(grid=ultrafine) guess=(read,tcheck) s
 table=(opt,rrhf)
 ----------------------------------------------------------------------
 -----
 title
 -----
 Symbolic Z-matrix:
 Charge =  0 Multiplicity = 1

 SCF Done:  E(RHF) =  -831.758763582     A.U. after   16 cycles
 Normal termination of Gaussian 16 at Tue Apr  8 23:39:57 2025.
 Gaussian 16:  ES64L-G16RevC.01  3-Jul-2019

 ----------------------------------------------------------------------
 #t hf aug-cc-pvdz iop(5/13=1,5/36=2,99/5=2) pseudo=read geom=check gue
 ss=(read,tcheck) scf=(maxcycle=1)
 ----------------------------------------------------------------------
 -----
 title
 -----
 Structure from the checkpoint file:  "BDE49_nonexpt_1557_mol1.chk"
 Charge =  0 Multiplicity = 1

                         Standard orientation:
 ---------------------------------------------------------------------
 Center     Atomic      Atomic             Coordinates (Angstroms)
 Number     Number       Type             X           Y           Z
 ---------------------------------------------------------------------
      1          6           0        2.128397   -1.140333    0.297680
      2          6           0        0.799091   -1.371988   -0.027223
      3          6           0        2.689052    0.135618    0.126581
      4          6           0        1.869969    1.164962   -0.375277
      5          6           0        0.543513    0.924905   -0.690584
      6          6           0       -0.026682   -0.351396   -0.526450
      7          1           0       -0.069755    1.738019   -1.057137
      8          1           0        2.744223   -1.950137    0.675758
      9          1           0        0.391528   -2.369454    0.102861
     10          7           0       -2.716844    0.140194    0.295436
     11          8           0       -2.414838   -0.361639    1.585848
     12          8           0       -2.363011    1.530494    0.283839
     13          7           0        4.028867    0.364925    0.388962
     14          1           0        4.488742   -0.287751    1.004532
     15          1           0        4.303438    1.322944    0.541209
     16          1           0        2.288953    2.156210   -0.518305
     17          1           0       -1.463068   -0.201557    1.716821
     18          1           0       -3.184898    1.955779    0.559252
     19         15           0       -1.765830   -0.773293   -0.911272
     20          1           0       -1.993121    0.178057   -1.932562
 ---------------------------------------------------------------------

 SCF Done:  E(RHF) =  -834.168788886     A.U. after    2 cycles

 The electronic state is 1-A.
 Alpha  occ. eigenvalues -- -105.19818 -21.09374 -21.09052 -15.78945 -15.77335
 Alpha  occ. eigenvalues --  -11.52485 -11.46032 -11.44293 -11.41825 -11.41042
 Alpha  occ. eigenvalues --  -11.36909  -2.77330  -1.84866  -1.66859  -1.53438
 Alpha  occ. eigenvalues --   -1.49220  -1.47218  -1.41937  -1.26491  -1.10241
 Alpha  occ. eigenvalues --   -1.05559  -1.01125  -0.88262  -0.84490  -0.74328
 Alpha  occ. eigenvalues --   -0.69699  -0.68995  -0.66360  -0.62835  -0.58754
 Alpha  occ. eigenvalues --   -0.56009  -0.55342  -0.54398  -0.52784  -0.51501
 Alpha  occ. eigenvalues --   -0.45657  -0.44834  -0.44441  -0.34780  -0.34008
 Alpha  occ. eigenvalues --   -0.31231  -0.28951  -0.25022  -0.22709  -0.01656
 Alpha virt. eigenvalues --    0.03335   0.04566   0.04758   0.06212   0.06635
 Alpha virt. eigenvalues --    0.06963   0.07419   0.08046   0.09085   0.09780
 Alpha virt. eigenvalues --    0.10959   0.11099   0.11722   0.12189   0.12966

 Mulliken charges:
               1
     1  C   -2.195988
     2  C   -4.490107
     3  C    2.074060
     4  C   -1.368451
     5  C   -2.636818
     6  C    3.645386
     7  H    2.112737
     8  H    1.770120
     9  H    1.981578
    10  N    2.035968
    11  O   -2.426566
    12  O   -2.451307
    13  N   -4.087683
    14  H    0.657561
    15  H    0.616517
    16  H    1.675264
    17  H    0.895623
    18  H    0.892282
    19  P    2.389661
    20  H   -1.089838
 Sum of Mulliken charges =   0.00000

 Dipole moment (field-independent basis, Debye):
    X=              2.7613    Y=              0.9132    Z=              1.6276  Tot=              3.3328

 Test job not archived.
 1\1\GINC-SE367\SP\RHF\Aug-CC-pVDZ\C6H9N2O2P1\OHZDE\08-Apr-2025\0\\#t h
 f aug-cc-pvdz iop(5/13=1,5/36=2,99/5=2) pseudo=read geom=check guess=(
 read,tcheck) scf=(maxcycle=1)\\title\\0,1\C,0,2.128397,-1.140333,0.297
 68\C,0,0.799091,-1.371988,-0.027223\C,0,2.689052,0.135618,0.126581\C,0
 ,1.869969,1.164962,-0.375277\C,0,0.543513,0.924905,-0.690584\C,0,-0.02
 6682,-0.351396,-0.52645\H,0,-0.069755,1.738019,-1.057137\H,0,2.744223,
 -1.950137,0.675758\H,0,0.391528,-2.369454,0.102861\N,0,-2.716844,0.140
 194,0.295436\O,0,-2.414838,-0.361639,1.585848\O,0,-2.363011,1.530494,0

 Normal termination of Gaussian 16 at Tue Apr  8 23:40:07 2025.
