 Gaussian 16, Revision C.01,

 ----------------------------------------------------------------------
 #t hf aug-cc-pvdz symm=none int=(grid=ultrafine) guess=(read,tcheck) s
 table=(opt,rrhf)
 ----------------------------------------------------------------------
 -----
 title
 -----
 Symbolic Z-matrix:
 Charge =  0 Multiplicity = 1

 SCF Done:  E(RHF) =  -226.770871632     A.U. after   12 cycles
 Normal termination of Gaussian 16 at Tue Apr  8 23:35:06 2025.
 Gaussian 16:  ES64L-G16RevC.01  3-Jul-2019

 ----------------------------------------------------------------------
 #t hf aug-cc-pvdz iop(5/13=1,5/36=2,99/5=2) pseudo=read geom=check gue
 ss=(read,tcheck) scf=(maxcycle=1)
 ----------------------------------------------------------------------
 -----
 title
 -----
 Structure from the checkpoint file:  "BDE49_nonexpt_146_mol1.chk"
 Charge =  0 Multiplicity = 1

                         Standard orientation:
 ---------------------------------------------------------------------
 Center     Atomic      Atomic             Coordinates (Angstroms)
 Number     Number       Type             X           Y           Z
 ---------------------------------------------------------------------
      1          5           0        2.392497   -0.000077   -0.359750
      2          5           0        1.107826   -0.000343    0.626312
      3          5           0       -0.508688   -0.000023    0.105373
      4          8           0       -1.121065    1.210024   -0.089600
      5          8           0       -1.121539   -1.209825   -0.089626
      6          1           0       -2.042916    1.170719   -0.368348
      7          1           0       -2.043374   -1.170153   -0.368374
      8          1           0        1.287038   -0.000010    1.813887
      9          1           0        2.891148    1.015661   -0.750985
     10          1           0        2.890760   -1.015592   -0.752050
 ---------------------------------------------------------------------

 SCF Done:  E(RHF) =  -227.713429005     A.U. after    2 cycles

 The electronic state is 1-A.
 Alpha  occ. eigenvalues --  -21.06563 -21.06518  -7.62444  -7.58358  -7.56514
 Alpha  occ. eigenvalues --   -1.81168  -1.65952  -0.94464  -0.78173  -0.66848
 Alpha  occ. eigenvalues --   -0.66246  -0.53696  -0.49227  -0.47130  -0.41454
 Alpha  occ. eigenvalues --   -0.37394  -0.36666  -0.35243
 Alpha virt. eigenvalues --    0.01433   0.02140   0.02570   0.04181   0.07038
 Alpha virt. eigenvalues --    0.07666   0.07988   0.08262   0.09475   0.10048
 Alpha virt. eigenvalues --    0.10110   0.10732   0.11460   0.12219   0.12954

 Mulliken charges:
               1
     1  B    4.760617
     2  B   -1.958228
     3  B    8.241526
     4  O   -3.395463
     5  O   -3.395526
     6  H    1.112869
     7  H    1.112760
     8  H   -1.602686
     9  H   -2.437909
    10  H   -2.437959
 Sum of Mulliken charges =  -0.00000

 Dipole moment (field-independent basis, Debye):
    X=             -1.6038    Y=             -0.0000    Z=             -0.3360  Tot=              1.6386

 Test job not archived.
 1\1\GINC-SE338\SP\RHF\Aug-CC-pVDZ\B3H5O2\OHZDE\08-Apr-2025\0\\#t hf au
 g-cc-pvdz iop(5/13=1,5/36=2,99/5=2) pseudo=read geom=check guess=(read
 ,tcheck) scf=(maxcycle=1)\\title\\0,1\B,0,2.392497,-0.000077,-0.35975\
 B,0,1.107826,-0.000343,0.626312\B,0,-0.508688,-0.000023,0.105373\O,0,-
 1.121065,1.210024,-0.0896\O,0,-1.121539,-1.209825,-0.089626\H,0,-2.042
 916,1.170719,-0.368348\H,0,-2.043374,-1.170153,-0.368374\H,0,1.287038,
 -0.00001,1.813887\H,0,2.891148,1.015661,-0.750985\H,0,2.89076,-1.01559
 2,-0.75205\\Version=ES64L-G16RevC.01\State=1-A\HF=-227.713429\RMSD=1.9

 Normal termination of Gaussian 16 at Tue Apr  8 23:35:09 2025.
