 Gaussian 16, Revision C.01,

 ----------------------------------------------------------------------
 #t hf aug-cc-pvdz symm=none int=(grid=ultrafine) guess=(read,tcheck) s
 table=(opt,rrhf)
 ----------------------------------------------------------------------
 -----
 title
 -----
 Symbolic Z-matrix:
 Charge =  0 Multiplicity = 1

 SCF Done:  E(RHF) =  -886.752674742     A.U. after   14 cycles
 Normal termination of Gaussian 16 at Tue Apr  8 23:37:21 2025.
 Gaussian 16:  ES64L-G16RevC.01  3-Jul-2019

 ----------------------------------------------------------------------
 #t hf aug-cc-pvdz iop(5/13=1,5/36=2,99/5=2) pseudo=read geom=check gue
 ss=(read,tcheck) scf=(maxcycle=1)
 ----------------------------------------------------------------------
 -----
 title
 -----
 Structure from the checkpoint file:  "BDE49_nonexpt_1518_mol1.chk"
 Charge =  0 Multiplicity = 1

                         Standard orientation:
 ---------------------------------------------------------------------
 Center     Atomic      Atomic             Coordinates (Angstroms)
 Number     Number       Type             X           Y           Z
 ---------------------------------------------------------------------
      1          7           0       -1.041777   -0.470254    0.513816
      2          9           0       -2.369777   -0.057968    0.202793
      3          9           0       -1.012525   -1.794233    0.052022
      4         15           0       -0.113519    0.460889   -0.774907
      5          6           0       -0.316830    2.100004    0.017746
      6          1           0       -1.315914    2.467584   -0.218220
      7          1           0        0.421244    2.774995   -0.420593
      8          1           0       -0.178995    2.047151    1.097337
      9          7           0        1.558557    0.195412   -0.191368
     10          9           0        1.877292   -1.137006   -0.491846
     11          9           0        1.622784    0.224853    1.214972
 ---------------------------------------------------------------------

 SCF Done:  E(RHF) =  -888.966609053     A.U. after    2 cycles

 The electronic state is 1-A.
 Alpha  occ. eigenvalues -- -105.27370 -29.31483 -29.31445 -29.31286 -29.31040
 Alpha  occ. eigenvalues --  -15.89988 -15.89814 -11.41648  -2.86211  -1.66108
 Alpha  occ. eigenvalues --   -1.63191  -1.57701  -1.40094  -1.37467  -1.05132
 Alpha  occ. eigenvalues --   -0.84160  -0.83633  -0.80204  -0.68740  -0.64494
 Alpha  occ. eigenvalues --   -0.61334  -0.60927  -0.56221  -0.45914  -0.44845
 Alpha  occ. eigenvalues --   -0.41744  -0.41503  -0.40746  -0.33772  -0.32158
 Alpha  occ. eigenvalues --   -0.29880  -0.27898  -0.23207  -0.22541  -0.19560
 Alpha  occ. eigenvalues --   -0.16436  -0.05493
 Alpha virt. eigenvalues --    0.04306   0.05904   0.06459   0.08450   0.09958
 Alpha virt. eigenvalues --    0.10899   0.13233   0.13655   0.15790   0.16583
 Alpha virt. eigenvalues --    0.17533   0.17818   0.19456   0.19919   0.20320

 Mulliken charges:
               1
     1  N   -0.625055
     2  F   -0.171860
     3  F   -0.156435
     4  P    4.217540
     5  C   -5.498204
     6  H    1.285603
     7  H    1.108756
     8  H    0.921026
     9  N   -0.721150
    10  F   -0.113950
    11  F   -0.246272
 Sum of Mulliken charges =   0.00000

 Dipole moment (field-independent basis, Debye):
    X=             -0.9447    Y=             -3.6623    Z=             -0.4692  Tot=              3.8112

 Test job not archived.
 1\1\GINC-SE361\SP\RHF\Aug-CC-pVDZ\C1H3F4N2P1\OHZDE\08-Apr-2025\0\\#t h
 f aug-cc-pvdz iop(5/13=1,5/36=2,99/5=2) pseudo=read geom=check guess=(
 read,tcheck) scf=(maxcycle=1)\\title\\0,1\N,0,-1.041777,-0.470254,0.51
 3816\F,0,-2.369777,-0.057967,0.202793\F,0,-1.012526,-1.794233,0.052022
 \P,0,-0.113519,0.460889,-0.774907\C,0,-0.316829,2.100004,0.017746\H,0,
 -1.315913,2.467584,-0.21822\H,0,0.421245,2.774995,-0.420593\H,0,-0.178
 994,2.047151,1.097337\N,0,1.558557,0.195411,-0.191368\F,0,1.877292,-1.
 137007,-0.491846\F,0,1.622784,0.224852,1.214972\\Version=ES64L-G16RevC

 Normal termination of Gaussian 16 at Tue Apr  8 23:37:26 2025.
