 Gaussian 16, Revision C.01,

 ----------------------------------------------------------------------
 #t hf aug-cc-pvdz symm=none int=(grid=ultrafine) guess=(read,tcheck) s
 table=(opt,rrhf)
 ----------------------------------------------------------------------
 -----
 title
 -----
 Symbolic Z-matrix:
 Charge =  0 Multiplicity = 1

 SCF Done:  E(RHF) =  -1255.96397070     A.U. after   14 cycles
 Normal termination of Gaussian 16 at Wed Apr  9 00:29:04 2025.
 Gaussian 16:  ES64L-G16RevC.01  3-Jul-2019

 ----------------------------------------------------------------------
 #t hf aug-cc-pvdz iop(5/13=1,5/36=2,99/5=2) pseudo=read geom=check gue
 ss=(read,tcheck) scf=(maxcycle=1)
 ----------------------------------------------------------------------
 -----
 title
 -----
 Structure from the checkpoint file:  "BDE49_nonexpt_2712_mol1.chk"
 Charge =  0 Multiplicity = 1

                         Standard orientation:
 ---------------------------------------------------------------------
 Center     Atomic      Atomic             Coordinates (Angstroms)
 Number     Number       Type             X           Y           Z
 ---------------------------------------------------------------------
      1         16           0       -0.913943    1.436766    0.483916
      2         16           0        0.913938    1.436761   -0.483931
      3          6           0        1.767268    0.017860    0.312089
      4          6           0       -1.767301    0.017903   -0.312141
      5          8           0       -1.278107   -0.645676   -1.177926
      6          8           0        1.278107   -0.645664    1.177933
      7          6           0        4.204658   -0.273836    0.800975
      8          6           0       -4.204694   -0.273894   -0.800945
      9          6           0       -3.141054   -0.221070    0.305903
     10          6           0        3.141050   -0.221076   -0.305907
     11          1           0       -3.969766   -1.066978   -1.513519
     12          1           0       -4.260569    0.670531   -1.347789
     13          1           0        3.969736   -1.066911    1.513561
     14          1           0        4.260484    0.670604    1.347798
     15          6           0       -3.086385   -1.524645    1.123850
     16          1           0       -3.365653    0.610001    0.983707
     17          1           0       -4.052107   -1.704773    1.602559
     18          1           0       -2.319887   -1.476358    1.900494
     19          1           0       -2.857922   -2.370238    0.471403
     20          6           0        3.086453   -1.524672   -1.123825
     21          1           0        3.365640    0.609987   -0.983723
     22          1           0        4.052196   -1.704775   -1.602501
     23          1           0        2.319976   -1.476431   -1.900493
     24          1           0        2.858001   -2.370258   -0.471365
     25          1           0        5.187215   -0.474725    0.366911
     26          1           0       -5.187230   -0.474807   -0.366846
 ---------------------------------------------------------------------

 SCF Done:  E(RHF) =  -1258.58549450     A.U. after    2 cycles

 The electronic state is 1-A.
 Alpha  occ. eigenvalues --  -75.72328 -75.72092 -21.07197 -21.07189 -13.20243
 Alpha  occ. eigenvalues --  -13.15145 -13.13432 -13.11817 -13.06402 -13.06062
 Alpha  occ. eigenvalues --  -11.51823 -11.51521 -11.43641 -11.43629 -11.39607
 Alpha  occ. eigenvalues --  -11.39567 -11.37617 -11.37584  -8.06313  -8.06160
 Alpha  occ. eigenvalues --   -1.73452  -1.72903  -1.27954  -1.25238  -1.20384
 Alpha  occ. eigenvalues --   -1.05844  -1.01577  -1.01253  -0.92807  -0.89226
 Alpha  occ. eigenvalues --   -0.74367  -0.72550  -0.67152  -0.64480  -0.61087
 Alpha  occ. eigenvalues --   -0.60829  -0.58676  -0.58437  -0.54998  -0.54845
 Alpha  occ. eigenvalues --   -0.54052  -0.52751  -0.52109  -0.49960  -0.49915
 Alpha  occ. eigenvalues --   -0.49510  -0.46795  -0.46698  -0.43682  -0.42696
 Alpha  occ. eigenvalues --   -0.35401  -0.29492  -0.28255  -0.25463  -0.24325
 Alpha virt. eigenvalues --    0.03554   0.03760   0.04674   0.05383   0.05517
 Alpha virt. eigenvalues --    0.05990   0.06084   0.06457   0.06718   0.06735
 Alpha virt. eigenvalues --    0.07111   0.07444   0.07618   0.08658   0.09945

 Mulliken charges:
               1
     1  S   -0.116201
     2  S   -0.116251
     3  C    3.938579
     4  C    3.938231
     5  O   -3.250757
     6  O   -3.250824
     7  C   -4.070245
     8  C   -4.070207
     9  C   -2.254840
    10  C   -2.254941
    11  H    1.411165
    12  H    1.244168
    13  H    1.411185
    14  H    1.244155
    15  C   -4.135570
    16  H    2.016992
    17  H    1.296921
    18  H    1.304788
    19  H    1.354368
    20  C   -4.135583
    21  H    2.016998
    22  H    1.296928
    23  H    1.304787
    24  H    1.354360
    25  H    1.260893
    26  H    1.260901
 Sum of Mulliken charges =  -0.00000

 Dipole moment (field-independent basis, Debye):
    X=              0.0001    Y=              0.5422    Z=              0.0001  Tot=              0.5422

 Test job not archived.
 1\1\GINC-SE457\SP\RHF\Aug-CC-pVDZ\C8H14O2S2\OHZDE\09-Apr-2025\0\\#t hf
  aug-cc-pvdz iop(5/13=1,5/36=2,99/5=2) pseudo=read geom=check guess=(r
 ead,tcheck) scf=(maxcycle=1)\\title\\0,1\S,0,0.913943,1.436766,-0.4839
 16\S,0,-0.913938,1.436761,0.483931\C,0,-1.767268,0.01786,-0.312089\C,0
 ,1.767301,0.017903,0.312141\O,0,1.278107,-0.645676,1.177926\O,0,-1.278
 107,-0.645664,-1.177933\C,0,-4.204658,-0.273836,-0.800975\C,0,4.204694
 ,-0.273894,0.800945\C,0,3.141054,-0.22107,-0.305903\C,0,-3.14105,-0.22
 1076,0.305907\H,0,3.969766,-1.066978,1.513519\H,0,4.260569,0.670531,1.

 Normal termination of Gaussian 16 at Wed Apr  9 00:29:24 2025.
