 Gaussian 16, Revision C.01,

 ----------------------------------------------------------------------
 #t hf aug-cc-pvdz symm=none int=(grid=ultrafine) guess=(read,tcheck) s
 table=(opt,rrhf)
 ----------------------------------------------------------------------
 -----
 title
 -----
 Symbolic Z-matrix:
 Charge =  0 Multiplicity = 1

 SCF Done:  E(RHF) =  -522.311553441     A.U. after   12 cycles
 Normal termination of Gaussian 16 at Wed Apr  9 00:09:05 2025.
 Gaussian 16:  ES64L-G16RevC.01  3-Jul-2019

 ----------------------------------------------------------------------
 #t hf aug-cc-pvdz iop(5/13=1,5/36=2,99/5=2) pseudo=read geom=check gue
 ss=(read,tcheck) scf=(maxcycle=1)
 ----------------------------------------------------------------------
 -----
 title
 -----
 Structure from the checkpoint file:  "BDE49_nonexpt_2293_mol1.chk"
 Charge =  0 Multiplicity = 1

                         Standard orientation:
 ---------------------------------------------------------------------
 Center     Atomic      Atomic             Coordinates (Angstroms)
 Number     Number       Type             X           Y           Z
 ---------------------------------------------------------------------
      1          6           0        1.087739    1.348406    0.681001
      2          6           0        0.812591   -0.000643    0.006109
      3          1           0        1.033138    2.154488   -0.054065
      4          1           0        0.355920    1.550618    1.467261
      5          8           0       -0.477459    0.060390   -0.644554
      6         14           0       -2.015206    0.005303   -0.064724
      7          6           0        0.837562   -1.143092    1.028673
      8          1           0        0.589033   -2.092875    0.549242
      9          1           0        0.122938   -0.968185    1.838657
     10          1           0        1.830459   -1.234067    1.476916
     11          6           0        1.817643   -0.260193   -1.118556
     12          1           0        1.756953    0.534619   -1.864914
     13          1           0        1.594686   -1.208736   -1.612035
     14          1           0        2.838501   -0.298736   -0.729085
     15          1           0        2.083024    1.358919    1.133776
     16          1           0       -2.885922    0.330217   -1.211898
     17          1           0       -2.246317    0.985933    1.026720
     18          1           0       -2.373068   -1.336422    0.458630
 ---------------------------------------------------------------------

 SCF Done:  E(RHF) =  -523.615030177     A.U. after    2 cycles

 The electronic state is 1-A.
 Alpha  occ. eigenvalues --  -76.22853 -21.02990 -11.45278 -11.39680 -11.39222
 Alpha  occ. eigenvalues --  -11.35211  -5.56425  -2.23488  -2.18254  -2.17915
 Alpha  occ. eigenvalues --   -1.69619  -1.20633  -1.01649  -1.01211  -0.81548
 Alpha  occ. eigenvalues --   -0.72000  -0.62516  -0.61920  -0.61594  -0.55637
 Alpha  occ. eigenvalues --   -0.55105  -0.51716  -0.48375  -0.48183  -0.47196
 Alpha  occ. eigenvalues --   -0.45990  -0.43655  -0.34685  -0.33705
 Alpha virt. eigenvalues --    0.03763   0.05095   0.05460   0.05621   0.05806
 Alpha virt. eigenvalues --    0.05979   0.06090   0.06473   0.06687   0.08867
 Alpha virt. eigenvalues --    0.09309   0.09367   0.10479   0.10934   0.11550

 Mulliken charges:
               1
     1  C   -4.279893
     2  C    4.027649
     3  H    1.272687
     4  H    1.409899
     5  O   -4.133735
     6  Si   6.720412
     7  C   -4.299610
     8  H    1.318091
     9  H    1.295073
    10  H    1.183214
    11  C   -4.001845
    12  H    1.291045
    13  H    1.251916
    14  H    1.232591
    15  H    1.195137
    16  H   -1.882189
    17  H   -1.791755
    18  H   -1.808685
 Sum of Mulliken charges =  -0.00000

 Dipole moment (field-independent basis, Debye):
    X=              1.3300    Y=             -0.0193    Z=              0.0123  Tot=              1.3302

 Test job not archived.
 1\1\GINC-SE080\SP\RHF\Aug-CC-pVDZ\C4H12O1Si1\OHZDE\09-Apr-2025\0\\#t h
 f aug-cc-pvdz iop(5/13=1,5/36=2,99/5=2) pseudo=read geom=check guess=(
 read,tcheck) scf=(maxcycle=1)\\title\\0,1\C,0,1.087739,1.348406,0.6810
 01\C,0,0.812591,-0.000643,0.006109\H,0,1.033138,2.154488,-0.054065\H,0
 ,0.35592,1.550618,1.467261\O,0,-0.477459,0.06039,-0.644554\Si,0,-2.015
 206,0.005303,-0.064724\C,0,0.837562,-1.143092,1.028673\H,0,0.589033,-2
 .092875,0.549242\H,0,0.122938,-0.968185,1.838657\H,0,1.830459,-1.23406
 7,1.476916\C,0,1.817643,-0.260193,-1.118556\H,0,1.756953,0.534619,-1.8

 Normal termination of Gaussian 16 at Wed Apr  9 00:09:11 2025.
