 Gaussian 16, Revision C.01,

 ----------------------------------------------------------------------
 #t hf aug-cc-pvdz symm=none int=(grid=ultrafine) guess=(read,tcheck) s
 table=(opt,rrhf)
 ----------------------------------------------------------------------
 -----
 title
 -----
 Symbolic Z-matrix:
 Charge =  0 Multiplicity = 1

 SCF Done:  E(RHF) =  -1887.56154572     A.U. after   11 cycles
 Normal termination of Gaussian 16 at Tue Apr  8 23:28:02 2025.
 Gaussian 16:  ES64L-G16RevC.01  3-Jul-2019

 ----------------------------------------------------------------------
 #t hf aug-cc-pvdz iop(5/13=1,5/36=2,99/5=2) pseudo=read geom=check gue
 ss=(read,tcheck) scf=(maxcycle=1)
 ----------------------------------------------------------------------
 -----
 title
 -----
 Structure from the checkpoint file:  "BDE49_nonexpt_12_mol1.chk"
 Charge =  0 Multiplicity = 1

                         Standard orientation:
 ---------------------------------------------------------------------
 Center     Atomic      Atomic             Coordinates (Angstroms)
 Number     Number       Type             X           Y           Z
 ---------------------------------------------------------------------
      1          5           0        0.842179   -0.000251    0.000139
      2          5           0       -0.842203   -0.000767   -0.000745
      3         17           0       -1.728544   -1.079846    1.065693
      4         17           0        1.729128   -1.066223   -1.078901
      5         17           0       -1.727994    1.079676   -1.066244
      6         17           0        1.727417    1.066692    1.079631
 ---------------------------------------------------------------------

 SCF Done:  E(RHF) =  -1888.73583967     A.U. after    2 cycles

 The electronic state is 1-A.
 Alpha  occ. eigenvalues --  -99.91783 -99.91780 -99.91761 -99.91761 -10.49163
 Alpha  occ. eigenvalues --  -10.49163 -10.48957 -10.48949  -9.69105  -9.69105
 Alpha  occ. eigenvalues --   -9.68898  -9.68872  -9.68559  -9.68558  -9.68558
 Alpha  occ. eigenvalues --   -9.68514  -9.68456  -9.68390  -9.68304  -9.68303
 Alpha  occ. eigenvalues --   -7.72613  -7.71542  -1.42555  -1.39864  -1.31355
 Alpha  occ. eigenvalues --   -1.31354  -0.90869  -0.77800  -0.66156  -0.65075
 Alpha  occ. eigenvalues --   -0.65072  -0.58635  -0.58634  -0.57579  -0.54691
 Alpha  occ. eigenvalues --   -0.53254  -0.51935  -0.51934  -0.43803
 Alpha virt. eigenvalues --    0.02415   0.02417   0.02474   0.03653   0.03656
 Alpha virt. eigenvalues --    0.03726   0.08075   0.09676   0.09807   0.09808
 Alpha virt. eigenvalues --    0.10222   0.12880   0.14877   0.14877   0.15436

 Mulliken charges:
               1
     1  B    2.407535
     2  B    2.407618
     3  Cl  -1.203817
     4  Cl  -1.203897
     5  Cl  -1.203749
     6  Cl  -1.203691
 Sum of Mulliken charges =  -0.00000

 Dipole moment (field-independent basis, Debye):
    X=             -0.0001    Y=             -0.0007    Z=             -0.0004  Tot=              0.0008

 Test job not archived.
 1\1\GINC-SE361\SP\RHF\Aug-CC-pVDZ\B2Cl4\OHZDE\08-Apr-2025\0\\#t hf aug
 -cc-pvdz iop(5/13=1,5/36=2,99/5=2) pseudo=read geom=check guess=(read,
 tcheck) scf=(maxcycle=1)\\title\\0,1\B,0,0.842179,-0.000251,0.000139\B
 ,0,-0.842203,-0.000767,-0.000745\Cl,0,-1.728544,-1.079846,1.065693\Cl,
 0,1.729128,-1.066223,-1.078901\Cl,0,-1.727994,1.079676,-1.066244\Cl,0,
 1.727417,1.066692,1.079631\\Version=ES64L-G16RevC.01\State=1-A\HF=-188
 8.7358397\RMSD=6.536e-02\Dipole=-0.0000312,-0.0002691,-0.0001711\Quadr
 upole=-1.8015282,0.9008351,0.9006931,0.0000886,0.0001176,-0.0000468\PG

 Normal termination of Gaussian 16 at Tue Apr  8 23:28:04 2025.
