 Gaussian 16, Revision C.01,

 ----------------------------------------------------------------------
 #t hf aug-cc-pvdz symm=none int=(grid=ultrafine) guess=(read,tcheck) s
 table=(opt,rrhf)
 ----------------------------------------------------------------------
 -----
 title
 -----
 Symbolic Z-matrix:
 Charge =  0 Multiplicity = 1

 SCF Done:  E(RHF) =  -744.985002889     A.U. after   14 cycles
 Normal termination of Gaussian 16 at Tue Apr  8 22:52:05 2025.
 Gaussian 16:  ES64L-G16RevC.01  3-Jul-2019

 ----------------------------------------------------------------------
 #t hf aug-cc-pvdz iop(5/13=1,5/36=2,99/5=2) pseudo=read geom=check gue
 ss=(read,tcheck) scf=(maxcycle=1)
 ----------------------------------------------------------------------
 -----
 title
 -----
 Structure from the checkpoint file:  "BDE49_expt_1723_mol1.chk"
 Charge =  0 Multiplicity = 1

                         Standard orientation:
 ---------------------------------------------------------------------
 Center     Atomic      Atomic             Coordinates (Angstroms)
 Number     Number       Type             X           Y           Z
 ---------------------------------------------------------------------
      1          6           0        1.088004    0.535681    0.751410
      2          6           0       -0.324431    0.770827    0.210672
      3         17           0        2.159696   -0.322872   -0.439409
      4          1           0        1.111480   -0.043189    1.673243
      5          1           0        1.527752    1.514178    0.910368
      6          7           0       -1.157523   -0.304858    0.083228
      7          6           0       -2.488118   -0.094475   -0.475153
      8          8           0       -0.659278    1.913041   -0.059711
      9          1           0       -2.620158    0.966795   -0.666760
     10          1           0       -3.253090   -0.437612    0.229186
     11          1           0       -2.601265   -0.652537   -1.410982
     12          6           0       -0.821785   -1.687879    0.385963
     13          1           0       -1.580395   -2.113981    1.051027
     14          1           0        0.145859   -1.770914    0.871095
     15          1           0       -0.790154   -2.289154   -0.529482
 ---------------------------------------------------------------------

 SCF Done:  E(RHF) =  -746.563168583     A.U. after    2 cycles

 The electronic state is 1-A.
 Alpha  occ. eigenvalues --  -99.89363 -21.02861 -15.75661 -11.51956 -11.44971
 Alpha  occ. eigenvalues --  -11.41530 -11.39747 -10.46569  -9.66498  -9.65874
 Alpha  occ. eigenvalues --   -9.65747  -1.71510  -1.43788  -1.33129  -1.08866
 Alpha  occ. eigenvalues --   -1.05091  -0.97613  -0.75971  -0.70365  -0.66914
 Alpha  occ. eigenvalues --   -0.65700  -0.61742  -0.60333  -0.56462  -0.55606
 Alpha  occ. eigenvalues --   -0.53570  -0.50638  -0.48677  -0.47831  -0.46813
 Alpha  occ. eigenvalues --   -0.29999  -0.29605
 Alpha virt. eigenvalues --    0.02981   0.04809   0.05191   0.05559   0.06269
 Alpha virt. eigenvalues --    0.06583   0.07472   0.07603   0.08462   0.09924
 Alpha virt. eigenvalues --    0.10926   0.12646   0.13141   0.13576   0.14418

 Mulliken charges:
               1
     1  C   -4.332911
     2  C    5.517005
     3  Cl   0.159313
     4  H    1.511500
     5  H    1.410797
     6  N   -2.953146
     7  C   -3.465382
     8  O   -3.269910
     9  H    1.425086
    10  H    1.387816
    11  H    1.431490
    12  C   -3.319444
    13  H    1.459324
    14  H    1.698792
    15  H    1.339670
 Sum of Mulliken charges =  -0.00000

 Dipole moment (field-independent basis, Debye):
    X=             -1.7432    Y=             -1.5406    Z=              1.4339  Tot=              2.7328

 Test job not archived.
 1\1\GINC-SE252\SP\RHF\Aug-CC-pVDZ\C4H8Cl1N1O1\OHZDE\08-Apr-2025\0\\#t
 hf aug-cc-pvdz iop(5/13=1,5/36=2,99/5=2) pseudo=read geom=check guess=
 (read,tcheck) scf=(maxcycle=1)\\title\\0,1\C,0,1.088004,0.535681,0.751
 41\C,0,-0.324431,0.770827,0.210672\Cl,0,2.159696,-0.322873,-0.439409\H
 ,0,1.11148,-0.043189,1.673243\H,0,1.527752,1.514177,0.910368\N,0,-1.15
 7523,-0.304858,0.083228\C,0,-2.488118,-0.094475,-0.475153\O,0,-0.65927
 7,1.913041,-0.059711\H,0,-2.620158,0.966795,-0.66676\H,0,-3.25309,-0.4
 37611,0.229186\H,0,-2.601265,-0.652537,-1.410982\C,0,-0.821785,-1.6878

 Normal termination of Gaussian 16 at Tue Apr  8 22:52:10 2025.
