 Gaussian 16, Revision C.01,

 ----------------------------------------------------------------------
 #t hf aug-cc-pvdz symm=none int=(grid=ultrafine) guess=(read,tcheck) s
 table=(opt,rrhf)
 ----------------------------------------------------------------------
 -----
 title
 -----
 Symbolic Z-matrix:
 Charge =  0 Multiplicity = 1

 SCF Done:  E(RHF) =  -475.584775288     A.U. after   12 cycles
 Normal termination of Gaussian 16 at Tue Apr  8 23:34:05 2025.
 Gaussian 16:  ES64L-G16RevC.01  3-Jul-2019

 ----------------------------------------------------------------------
 #t hf aug-cc-pvdz iop(5/13=1,5/36=2,99/5=2) pseudo=read geom=check gue
 ss=(read,tcheck) scf=(maxcycle=1)
 ----------------------------------------------------------------------
 -----
 title
 -----
 Structure from the checkpoint file:  "BDE49_nonexpt_1452_mol1.chk"
 Charge =  0 Multiplicity = 1

                         Standard orientation:
 ---------------------------------------------------------------------
 Center     Atomic      Atomic             Coordinates (Angstroms)
 Number     Number       Type             X           Y           Z
 ---------------------------------------------------------------------
      1          7           0       -2.382579   -0.124073   -0.096190
      2          6           0       -1.052258    0.482882    0.044103
      3          6           0        0.033921   -0.589369   -0.049716
      4          1           0       -0.923020    1.193990   -0.777572
      5          1           0       -2.601391   -0.678199    0.726979
      6          1           0       -3.093504    0.598574   -0.153945
      7         15           0        1.808044   -0.007050   -0.001206
      8          1           0       -0.075262   -1.311477    0.768078
      9          1           0       -0.097652   -1.157427   -0.975319
     10          1           0       -0.915877    1.051896    0.977950
     11          1           0        1.689171    0.872364    1.108922
     12          1           0        1.684941    1.043465   -0.949995
 ---------------------------------------------------------------------

 SCF Done:  E(RHF) =  -476.456444658     A.U. after    2 cycles

 The electronic state is 1-A.
 Alpha  occ. eigenvalues -- -105.17212 -15.73118 -11.42219 -11.36408  -2.74225
 Alpha  occ. eigenvalues --   -1.46659  -1.42910  -1.42497  -1.33080  -1.05947
 Alpha  occ. eigenvalues --   -0.86687  -0.71171  -0.66231  -0.61024  -0.55702
 Alpha  occ. eigenvalues --   -0.51043  -0.48351  -0.35948  -0.25233  -0.21379
 Alpha  occ. eigenvalues --   -0.02038
 Alpha virt. eigenvalues --    0.04231   0.05538   0.05870   0.06358   0.06744
 Alpha virt. eigenvalues --    0.06916   0.08093   0.09889   0.10796   0.11793
 Alpha virt. eigenvalues --    0.12543   0.13469   0.14619   0.16112   0.17242

 Mulliken charges:
               1
     1  N   -2.418586
     2  C   -1.869137
     3  C   -3.487839
     4  H    1.470639
     5  H    0.582342
     6  H    0.584824
     7  P    2.634107
     8  H    1.234606
     9  H    1.255536
    10  H    1.425459
    11  H   -0.706914
    12  H   -0.705037
 Sum of Mulliken charges =  -0.00000

 Dipole moment (field-independent basis, Debye):
    X=              0.1159    Y=             -1.1218    Z=              0.5239  Tot=              1.2436

 Test job not archived.
 1\1\GINC-SE398\SP\RHF\Aug-CC-pVDZ\C2H8N1P1\OHZDE\08-Apr-2025\0\\#t hf
 aug-cc-pvdz iop(5/13=1,5/36=2,99/5=2) pseudo=read geom=check guess=(re
 ad,tcheck) scf=(maxcycle=1)\\title\\0,1\N,0,-2.382579,-0.124073,-0.096
 19\C,0,-1.052258,0.482882,0.044103\C,0,0.033921,-0.589369,-0.049716\H,
 0,-0.92302,1.19399,-0.777572\H,0,-2.601391,-0.678199,0.726979\H,0,-3.0
 93504,0.598574,-0.153945\P,0,1.808044,-0.00705,-0.001206\H,0,-0.075262
 ,-1.311477,0.768078\H,0,-0.097652,-1.157427,-0.975319\H,0,-0.915877,1.
 051896,0.97795\H,0,1.689171,0.872364,1.108922\H,0,1.684941,1.043465,-0

 Normal termination of Gaussian 16 at Tue Apr  8 23:34:09 2025.
