 Gaussian 16, Revision C.01,

 ----------------------------------------------------------------------
 #t hf aug-cc-pvdz symm=none int=(grid=ultrafine) guess=(read,tcheck) s
 table=(opt,rrhf)
 ----------------------------------------------------------------------
 -----
 title
 -----
 Symbolic Z-matrix:
 Charge =  0 Multiplicity = 1

 SCF Done:  E(RHF) =  -1073.15298856     A.U. after   20 cycles
 Normal termination of Gaussian 16 at Tue Apr  8 23:20:22 2025.
 Gaussian 16:  ES64L-G16RevC.01  3-Jul-2019

 ----------------------------------------------------------------------
 #t hf aug-cc-pvdz iop(5/13=1,5/36=2,99/5=2) pseudo=read geom=check gue
 ss=(read,tcheck) scf=(maxcycle=1)
 ----------------------------------------------------------------------
 -----
 title
 -----
 Structure from the checkpoint file:  "BDE49_nonexpt_1004_mol1.chk"
 Charge =  0 Multiplicity = 1

                         Standard orientation:
 ---------------------------------------------------------------------
 Center     Atomic      Atomic             Coordinates (Angstroms)
 Number     Number       Type             X           Y           Z
 ---------------------------------------------------------------------
      1          6           0        2.506464   -0.036336    0.011830
      2          6           0        2.001796    1.259898   -0.003518
      3          6           0        0.626151    1.434919   -0.028838
      4          6           0        1.682764   -1.155170    0.002992
      5          6           0        0.306563   -0.966939   -0.021940
      6          6           0       -0.229142    0.324941   -0.038104
      7          1           0        2.684330    2.097963    0.004157
      8          1           0        0.192754    2.426486   -0.041739
      9          1           0        2.123240   -2.141915    0.016823
     10          1           0       -0.347912   -1.829356   -0.025521
     11          6           0       -1.703977    0.599539   -0.067080
     12         16           0       -2.782021   -0.871335   -0.144197
     13          7           0       -4.449888    0.169076    0.187847
     14          8           0       -5.410382   -0.465634    0.158780
     15          8           0       -2.157133    1.712458   -0.051845
     16          7           0        3.977605   -0.232463    0.038664
     17          8           0        4.678263    0.768804    0.045272
     18          8           0        4.392025   -1.382279    0.052270
 ---------------------------------------------------------------------

 SCF Done:  E(RHF) =  -1076.30439536     A.U. after    2 cycles

 The electronic state is 1-A.
 Alpha  occ. eigenvalues --  -75.73507 -21.22096 -21.10906 -21.10783 -21.09198
 Alpha  occ. eigenvalues --  -16.01449 -15.97463 -13.16814 -13.12914 -13.04925
 Alpha  occ. eigenvalues --  -11.57084 -11.54992 -11.50001 -11.49024 -11.48404
 Alpha  occ. eigenvalues --  -11.46216 -11.42296  -8.07399  -2.01234  -1.96057
 Alpha  occ. eigenvalues --   -1.75488  -1.70534  -1.40081  -1.22750  -1.17755
 Alpha  occ. eigenvalues --   -1.14537  -1.04784  -0.97372  -0.92428  -0.87696
 Alpha  occ. eigenvalues --   -0.80996  -0.74924  -0.69242  -0.69007  -0.67202
 Alpha  occ. eigenvalues --   -0.65319  -0.63760  -0.63217  -0.62482  -0.60964
 Alpha  occ. eigenvalues --   -0.59588  -0.57383  -0.53311  -0.52001  -0.50695
 Alpha  occ. eigenvalues --   -0.48297  -0.37904  -0.37064  -0.37019  -0.32618
 Alpha  occ. eigenvalues --   -0.32555  -0.29521  -0.28553  -0.26779
 Alpha virt. eigenvalues --    0.02550   0.04357   0.05631   0.06152   0.06519
 Alpha virt. eigenvalues --    0.07122   0.07833   0.08326   0.09510   0.09645
 Alpha virt. eigenvalues --    0.10323   0.11259   0.11474   0.11937   0.12187

 Mulliken charges:
               1
     1  C    1.260719
     2  C   -2.335167
     3  C   -1.266687
     4  C   -3.597500
     5  C    2.157336
     6  C    2.025498
     7  H    1.842158
     8  H    1.855374
     9  H    1.821888
    10  H    2.194645
    11  C   -0.029630
    12  S    1.023960
    13  N    1.376746
    14  O   -1.851370
    15  O   -3.773789
    16  N    3.270532
    17  O   -2.999777
    18  O   -2.974934
 Sum of Mulliken charges =  -0.00000

 Dipole moment (field-independent basis, Debye):
    X=             -2.7389    Y=             -1.7587    Z=             -0.2460  Tot=              3.2642

 Test job not archived.
 1\1\GINC-SE186\SP\RHF\Aug-CC-pVDZ\C7H4N2O4S1\OHZDE\08-Apr-2025\0\\#t h
 f aug-cc-pvdz iop(5/13=1,5/36=2,99/5=2) pseudo=read geom=check guess=(
 read,tcheck) scf=(maxcycle=1)\\title\\0,1\C,0,-2.506464,-0.036336,-0.0
 1183\C,0,-2.001796,1.259898,0.003518\C,0,-0.626151,1.434919,0.028838\C
 ,0,-1.682764,-1.15517,-0.002992\C,0,-0.306563,-0.966939,0.02194\C,0,0.
 229142,0.324941,0.038104\H,0,-2.68433,2.097963,-0.004157\H,0,-0.192754
 ,2.426486,0.041739\H,0,-2.12324,-2.141915,-0.016823\H,0,0.347912,-1.82
 9356,0.025521\C,0,1.703977,0.599539,0.06708\S,0,2.782021,-0.871335,0.1

 Normal termination of Gaussian 16 at Tue Apr  8 23:20:36 2025.
