 Gaussian 16, Revision C.01,

 ----------------------------------------------------------------------
 #t hf aug-cc-pvdz symm=none int=(grid=ultrafine) guess=(read,tcheck) s
 table=(opt,rrhf)
 ----------------------------------------------------------------------
 -----
 title
 -----
 Symbolic Z-matrix:
 Charge =  0 Multiplicity = 1

 SCF Done:  E(RHF) =  -220.427599486     A.U. after   13 cycles

 1\1\GINC-SE083\Stability\RHF\Aug-CC-pVDZ\C5H11B1\OHZDE\09-Apr-2025\0\\
 #t hf aug-cc-pvdz symm=none int=(grid=ultrafine) guess=(read,tcheck) s
 table=(opt,rrhf)\\title\\0,1\B,0,2.00139,-0.131584,0.55507\C,0,0.90662
 3,-0.204954,-0.5342\C,0,0.234461,1.192651,-0.166711\C,0,-0.222248,-1.2
 56628,-0.379501\C,0,-1.296244,-0.57866,0.486777\H,0,0.135494,-2.192148
 ,0.058514\H,0,-0.643084,-1.502173,-1.360541\C,0,-1.264003,0.881714,0.0
 17122\H,0,-1.016449,-0.633302,1.544522\H,0,-2.281923,-1.040084,0.38641
 2\H,0,-1.771398,0.968118,-0.949838\H,0,-1.754592,1.570998,0.708858\H,0

 Normal termination of Gaussian 16 at Wed Apr  9 00:29:12 2025.
 Gaussian 16:  ES64L-G16RevC.01  3-Jul-2019

 ----------------------------------------------------------------------
 #t hf aug-cc-pvdz iop(5/13=1,5/36=2,99/5=2) pseudo=read geom=check gue
 ss=(read,tcheck) scf=(maxcycle=1)
 ----------------------------------------------------------------------
 -----
 title
 -----
 Structure from the checkpoint file:  "BDE49_nonexpt_299_mol1.chk"
 Charge =  0 Multiplicity = 1

                         Standard orientation:
 ---------------------------------------------------------------------
 Center     Atomic      Atomic             Coordinates (Angstroms)
 Number     Number       Type             X           Y           Z
 ---------------------------------------------------------------------
      1          5           0        2.001390   -0.131584    0.555070
      2          6           0        0.906623   -0.204954   -0.534200
      3          6           0        0.234461    1.192651   -0.166711
      4          6           0       -0.222248   -1.256628   -0.379501
      5          6           0       -1.296244   -0.578660    0.486777
      6          1           0        0.135494   -2.192148    0.058514
      7          1           0       -0.643084   -1.502173   -1.360541
      8          6           0       -1.264003    0.881714    0.017122
      9          1           0       -1.016449   -0.633302    1.544522
     10          1           0       -2.281923   -1.040084    0.386412
     11          1           0       -1.771398    0.968118   -0.949838
     12          1           0       -1.754592    1.570998    0.708858
     13          1           0        0.440986    1.942175   -0.931170
     14          1           0        0.634226    1.606532    0.774884
     15          1           0        1.286625   -0.161104   -1.555989
     16          1           0        1.795931   -0.574641    1.647009
     17          1           0        3.015706    0.468808    0.361055
 ---------------------------------------------------------------------

 SCF Done:  E(RHF) =  -221.569698495     A.U. after    2 cycles

 The electronic state is 1-A.
 Alpha  occ. eigenvalues --  -11.45367 -11.42266 -11.37853 -11.36108 -11.32927
 Alpha  occ. eigenvalues --   -7.60179  -1.32764  -1.06717  -1.03849  -0.85841
 Alpha  occ. eigenvalues --   -0.81931  -0.75283  -0.66797  -0.63697  -0.58099
 Alpha  occ. eigenvalues --   -0.54333  -0.49131  -0.46032  -0.45313  -0.44395
 Alpha  occ. eigenvalues --   -0.43227  -0.40831  -0.37353
 Alpha virt. eigenvalues --    0.03849   0.03980   0.04223   0.04532   0.05889
 Alpha virt. eigenvalues --    0.06169   0.06297   0.06338   0.06646   0.08916
 Alpha virt. eigenvalues --    0.09392   0.09738   0.11213   0.12246   0.13032

 Mulliken charges:
               1
     1  B    8.449674
     2  C   -0.881810
     3  C   -2.921787
     4  C   -3.478457
     5  C   -2.767297
     6  H    1.232575
     7  H    1.309365
     8  C   -2.734213
     9  H    1.372498
    10  H    1.272358
    11  H    1.394780
    12  H    1.280376
    13  H    1.286288
    14  H    1.115902
    15  H    1.771707
    16  H   -3.902221
    17  H   -3.799738
 Sum of Mulliken charges =  -0.00000

 Dipole moment (field-independent basis, Debye):
    X=             -0.9412    Y=              0.1706    Z=             -0.6285  Tot=              1.1445

 Test job not archived.
 1\1\GINC-SE083\SP\RHF\Aug-CC-pVDZ\C5H11B1\OHZDE\09-Apr-2025\0\\#t hf a
 ug-cc-pvdz iop(5/13=1,5/36=2,99/5=2) pseudo=read geom=check guess=(rea
 d,tcheck) scf=(maxcycle=1)\\title\\0,1\B,0,2.00139,-0.131584,0.55507\C
 ,0,0.906623,-0.204954,-0.5342\C,0,0.234461,1.192651,-0.166711\C,0,-0.2
 22248,-1.256628,-0.379501\C,0,-1.296244,-0.57866,0.486777\H,0,0.135494
 ,-2.192148,0.058514\H,0,-0.643084,-1.502173,-1.360541\C,0,-1.264003,0.
 881714,0.017122\H,0,-1.016449,-0.633302,1.544522\H,0,-2.281923,-1.0400
 84,0.386412\H,0,-1.771398,0.968118,-0.949838\H,0,-1.754592,1.570998,0.

 Normal termination of Gaussian 16 at Wed Apr  9 00:29:20 2025.
