 Gaussian 16, Revision C.01,

 ----------------------------------------------------------------------
 #t hf aug-cc-pvdz symm=none int=(grid=ultrafine) guess=(read,tcheck) s
 table=(opt,rrhf)
 ----------------------------------------------------------------------
 -----
 title
 -----
 Symbolic Z-matrix:
 Charge =  0 Multiplicity = 1

 SCF Done:  E(RHF) =  -437.878544246     A.U. after   14 cycles
 Normal termination of Gaussian 16 at Wed Apr  9 00:40:27 2025.
 Gaussian 16:  ES64L-G16RevC.01  3-Jul-2019

 ----------------------------------------------------------------------
 #t hf aug-cc-pvdz iop(5/13=1,5/36=2,99/5=2) pseudo=read geom=check gue
 ss=(read,tcheck) scf=(maxcycle=1)
 ----------------------------------------------------------------------
 -----
 title
 -----
 Structure from the checkpoint file:  "BDE49_nonexpt_623_mol1.chk"
 Charge =  0 Multiplicity = 1

                         Standard orientation:
 ---------------------------------------------------------------------
 Center     Atomic      Atomic             Coordinates (Angstroms)
 Number     Number       Type             X           Y           Z
 ---------------------------------------------------------------------
      1          8           0       -2.338725   -1.213254   -0.000059
      2          1           0       -3.298574   -1.134585   -0.000025
      3          8           0       -2.503139    1.122550    0.000077
      4          1           0       -2.026935    1.955890    0.000168
      5          5           0       -1.720579    0.000225   -0.000028
      6          7           0        1.957713    1.185016   -0.000047
      7          6           0        2.536878   -0.017801   -0.000006
      8          1           0        3.623092   -0.031130    0.000033
      9          7           0        1.926450   -1.205512    0.000049
     10          6           0        0.592360   -1.172520    0.000042
     11          1           0        0.083508   -2.131840    0.000069
     12          6           0       -0.151477    0.016712   -0.000011
     13          6           0        0.623281    1.180567   -0.000051
     14          1           0        0.161318    2.167892   -0.000106
 ---------------------------------------------------------------------

 SCF Done:  E(RHF) =  -439.785301891     A.U. after    2 cycles

 The electronic state is 1-A.
 Alpha  occ. eigenvalues --  -21.07602 -21.06489 -15.75036 -15.74830 -11.48982
 Alpha  occ. eigenvalues --  -11.47467 -11.44457 -11.38170  -7.67489  -1.83442
 Alpha  occ. eigenvalues --   -1.66960  -1.51449  -1.30699  -1.17528  -0.94062
 Alpha  occ. eigenvalues --   -0.92808  -0.78585  -0.75231  -0.66998  -0.65092
 Alpha  occ. eigenvalues --   -0.59258  -0.58353  -0.57126  -0.56815  -0.50081
 Alpha  occ. eigenvalues --   -0.48014  -0.43788  -0.40681  -0.37793  -0.37362
 Alpha  occ. eigenvalues --   -0.36781  -0.34591
 Alpha virt. eigenvalues --    0.02865   0.04426   0.04921   0.05395   0.06007
 Alpha virt. eigenvalues --    0.07195   0.07517   0.08876   0.08916   0.09885
 Alpha virt. eigenvalues --    0.09980   0.11319   0.11775   0.12327   0.13665

 Mulliken charges:
               1
     1  O   -4.281286
     2  H    1.132064
     3  O   -4.660035
     4  H    1.541973
     5  B    5.664292
     6  N   -3.292545
     7  C    0.917281
     8  H    1.643827
     9  N   -3.410071
    10  C    0.495148
    11  H    1.834749
    12  C    0.177794
    13  C    0.676131
    14  H    1.560677
 Sum of Mulliken charges =   0.00000

 Dipole moment (field-independent basis, Debye):
    X=             -1.7296    Y=              0.7186    Z=              0.0001  Tot=              1.8729

 Test job not archived.
 1\1\GINC-SE342\SP\RHF\Aug-CC-pVDZ\C4H5B1N2O2\OHZDE\09-Apr-2025\0\\#t h
 f aug-cc-pvdz iop(5/13=1,5/36=2,99/5=2) pseudo=read geom=check guess=(
 read,tcheck) scf=(maxcycle=1)\\title\\0,1\O,0,-2.338725,-1.213254,-0.0
 00059\H,0,-3.298574,-1.134585,-0.000025\O,0,-2.503139,1.12255,0.000077
 \H,0,-2.026935,1.95589,0.000168\B,0,-1.720579,0.000225,-0.000028\N,0,1
 .957713,1.185016,-0.000047\C,0,2.536878,-0.017801,-0.000006\H,0,3.6230
 92,-0.03113,0.000033\N,0,1.92645,-1.205512,0.000049\C,0,0.59236,-1.172
 52,0.000042\H,0,0.083508,-2.13184,0.000069\C,0,-0.151477,0.016712,-0.0

 Normal termination of Gaussian 16 at Wed Apr  9 00:40:32 2025.
