 Gaussian 16, Revision C.01,

 ----------------------------------------------------------------------
 #t hf aug-cc-pvdz symm=none int=(grid=ultrafine) guess=(read,tcheck) s
 table=(opt,rrhf)
 ----------------------------------------------------------------------
 -----
 title
 -----
 Symbolic Z-matrix:
 Charge =  0 Multiplicity = 1

 SCF Done:  E(RHF) =  -1139.25396402     A.U. after   11 cycles
 Normal termination of Gaussian 16 at Wed Apr  9 00:09:31 2025.
 Gaussian 16:  ES64L-G16RevC.01  3-Jul-2019

 ----------------------------------------------------------------------
 #t hf aug-cc-pvdz iop(5/13=1,5/36=2,99/5=2) pseudo=read geom=check gue
 ss=(read,tcheck) scf=(maxcycle=1)
 ----------------------------------------------------------------------
 -----
 title
 -----
 Structure from the checkpoint file:  "BDE49_nonexpt_2323_mol1.chk"
 Charge =  0 Multiplicity = 1

                         Standard orientation:
 ---------------------------------------------------------------------
 Center     Atomic      Atomic             Coordinates (Angstroms)
 Number     Number       Type             X           Y           Z
 ---------------------------------------------------------------------
      1         14           0       -1.354162   -0.582188    0.000000
      2         14           0        0.526020    0.842900    0.000001
      3         17           0        2.201794   -0.413677   -0.000001
      4          1           0        0.605369    1.690483    1.208085
      5          1           0        0.605368    1.690485   -1.208082
      6          9           0       -2.700936    0.317521    0.000000
      7          1           0       -1.369413   -1.428062    1.212424
      8          1           0       -1.369413   -1.428059   -1.212427
 ---------------------------------------------------------------------

 SCF Done:  E(RHF) =  -1140.15131039     A.U. after    2 cycles

 The electronic state is 1-A.
 Alpha  occ. eigenvalues --  -99.89140 -76.27117 -76.26854 -29.27346 -10.46499
 Alpha  occ. eigenvalues --   -9.66381  -9.65754  -9.65721  -5.61052  -5.60566
 Alpha  occ. eigenvalues --   -2.25617  -2.22712  -2.22256  -2.21970  -2.21547
 Alpha  occ. eigenvalues --   -2.20724  -1.29311  -0.89411  -0.77723  -0.60455
 Alpha  occ. eigenvalues --   -0.56013  -0.56010  -0.54175  -0.52132  -0.47959
 Alpha  occ. eigenvalues --   -0.43072  -0.34209  -0.33372  -0.30189
 Alpha virt. eigenvalues --    0.04212   0.04750   0.05306   0.06341   0.07575
 Alpha virt. eigenvalues --    0.07928   0.08420   0.08647   0.09758   0.09766
 Alpha virt. eigenvalues --    0.10849   0.12343   0.12406   0.13627   0.15442

 Mulliken charges:
               1
     1  Si   4.510266
     2  Si   4.043957
     3  Cl  -0.896647
     4  H   -1.687040
     5  H   -1.687039
     6  F   -1.059381
     7  H   -1.612059
     8  H   -1.612058
 Sum of Mulliken charges =  -0.00000

 Dipole moment (field-independent basis, Debye):
    X=             -3.5656    Y=              1.9834    Z=              0.0000  Tot=              4.0801

 Test job not archived.
 1\1\GINC-SE253\SP\RHF\Aug-CC-pVDZ\Cl1F1H4Si2\OHZDE\09-Apr-2025\0\\#t h
 f aug-cc-pvdz iop(5/13=1,5/36=2,99/5=2) pseudo=read geom=check guess=(
 read,tcheck) scf=(maxcycle=1)\\title\\0,1\Si,0,-1.354162,-0.582188,0.\
 Si,0,0.52602,0.8429,0.000001\Cl,0,2.201794,-0.413676,-0.000001\H,0,0.6
 05369,1.690483,1.208085\H,0,0.605368,1.690485,-1.208082\F,0,-2.700936,
 0.317521,0.\H,0,-1.369413,-1.428062,1.212424\H,0,-1.369413,-1.428059,-
 1.212427\\Version=ES64L-G16RevC.01\State=1-A\HF=-1140.1513104\RMSD=8.5
 65e-02\Dipole=-1.4028236,0.7803163,0.0000024\Quadrupole=2.40606,-0.903

 Normal termination of Gaussian 16 at Wed Apr  9 00:09:33 2025.
