 Gaussian 16, Revision C.01,

 ----------------------------------------------------------------------
 #t hf aug-cc-pvdz symm=none int=(grid=ultrafine) guess=(read,tcheck) s
 table=opt
 ----------------------------------------------------------------------
 -----
 title
 -----
 Symbolic Z-matrix:
 Charge =  0 Multiplicity = 2

 SCF Done:  E(UHF) =  -1491.31857197     A.U. after   19 cycles
 Normal termination of Gaussian 16 at Wed Apr  9 00:49:02 2025.
 Gaussian 16:  ES64L-G16RevC.01  3-Jul-2019

 ----------------------------------------------------------------------
 #t hf aug-cc-pvdz iop(5/13=1,5/36=2,99/5=2) pseudo=read geom=check gue
 ss=(read,tcheck) scf=(maxcycle=1)
 ----------------------------------------------------------------------
 -----
 title
 -----
 Structure from the checkpoint file:  "BDE49_nonexpt_867_mol2.chk"
 Charge =  0 Multiplicity = 2

                         Standard orientation:
 ---------------------------------------------------------------------
 Center     Atomic      Atomic             Coordinates (Angstroms)
 Number     Number       Type             X           Y           Z
 ---------------------------------------------------------------------
      1         16           0       -2.417694    0.098459   -0.000006
      2         16           0       -0.735457   -0.940013    0.000011
      3          6           0        0.617555    0.349836    0.000002
      4         17           0        2.175170   -0.530254   -0.000007
      5          9           0        0.542627    1.132233    1.080904
      6          9           0        0.542615    1.132230   -1.080901
 ---------------------------------------------------------------------

 SCF Done:  E(UHF) =  -1492.82089664     A.U. after    2 cycles

 The electronic state is 2-A.
 Alpha  occ. eigenvalues --  -99.93135 -75.76512 -75.74933 -29.33480 -29.33434
 Alpha  occ. eigenvalues --  -13.17405 -13.13779 -13.10892 -13.09451 -13.07480
 Alpha  occ. eigenvalues --  -13.06821 -11.59832 -10.50579  -9.70350  -9.69547
 Alpha  occ. eigenvalues --   -9.69508  -8.10681  -8.08747  -1.46376  -1.29198
 Alpha  occ. eigenvalues --   -1.20170  -1.00899  -0.89034  -0.77099  -0.69400
 Alpha  occ. eigenvalues --   -0.55700  -0.54521  -0.48512  -0.44245  -0.41960
 Alpha  occ. eigenvalues --   -0.40519  -0.38472  -0.32731  -0.32395  -0.26679
 Alpha  occ. eigenvalues --   -0.25963  -0.21731
 Alpha virt. eigenvalues --    0.03977   0.05430   0.06318   0.08835   0.11094
 Alpha virt. eigenvalues --    0.11202   0.13068   0.14265   0.14403   0.14881
 Alpha virt. eigenvalues --    0.15196   0.16521   0.18408   0.19401   0.20264

  Beta  occ. eigenvalues --  -99.93137 -75.76294 -75.74021 -29.33470 -29.33424
  Beta  occ. eigenvalues --  -13.17280 -13.13697 -13.10488 -13.07941 -13.06286
  Beta  occ. eigenvalues --  -13.02172 -11.59879 -10.50581  -9.70362  -9.69556
  Beta  occ. eigenvalues --   -9.69500  -8.10435  -8.07722  -1.46234  -1.27801
  Beta  occ. eigenvalues --   -1.18173  -0.94822  -0.88919  -0.76835  -0.68862
  Beta  occ. eigenvalues --   -0.55641  -0.54542  -0.48484  -0.42855  -0.39223
  Beta  occ. eigenvalues --   -0.38353  -0.38254  -0.32177  -0.29652  -0.25234
  Beta  occ. eigenvalues --   -0.25216
  Beta virt. eigenvalues --    0.04219   0.04318   0.05492   0.06360   0.08877
  Beta virt. eigenvalues --    0.11313   0.11478   0.13224   0.14587   0.14841
  Beta virt. eigenvalues --    0.14964   0.15704   0.16971   0.19436   0.20164

 Mulliken charges and spin densities:
               1          2
     1  S   -0.028221   0.888196
     2  S    0.311714   0.126333
     3  C   -1.664622  -0.011491
     4  Cl  -0.244228  -0.002625
     5  F    0.812677  -0.000206
     6  F    0.812681  -0.000207
 Sum of Mulliken charges =   0.00000   1.00000

 Dipole moment (field-independent basis, Debye):
    X=             -3.0424    Y=              3.6859    Z=              0.0000  Tot=              4.7793
                          Isotropic Fermi Contact Couplings
        Atom                 a.u.       MegaHertz       Gauss      10(-4) cm-1
     1  S(33)              0.28945      99.41957      35.47537      33.16280
     2  S(33)              0.12496      42.92028      15.31502      14.31667
     3  C(13)             -0.00577      -6.48310      -2.31333      -2.16253
     4  Cl(35)            -0.00266      -1.16840      -0.41691      -0.38973
     5  F(19)              0.00077       3.23349       1.15379       1.07858
     6  F(19)              0.00077       3.23276       1.15353       1.07833
 --------------------------------------------------------
       Center         ----  Spin Dipole Couplings  ----

 Normal termination of Gaussian 16 at Wed Apr  9 00:49:04 2025.
