 Gaussian 16, Revision C.01,

 ----------------------------------------------------------------------
 #t hf aug-cc-pvdz symm=none int=(grid=ultrafine) guess=(read,tcheck) s
 table=(opt,rrhf)
 ----------------------------------------------------------------------
 -----
 title
 -----
 Symbolic Z-matrix:
 Charge =  0 Multiplicity = 1

 SCF Done:  E(RHF) =  -612.957186547     A.U. after   14 cycles
 Normal termination of Gaussian 16 at Tue Apr  8 23:17:50 2025.
 Gaussian 16:  ES64L-G16RevC.01  3-Jul-2019

 ----------------------------------------------------------------------
 #t hf aug-cc-pvdz iop(5/13=1,5/36=2,99/5=2) pseudo=read geom=check gue
 ss=(read,tcheck) scf=(maxcycle=1)
 ----------------------------------------------------------------------
 -----
 title
 -----
 Structure from the checkpoint file:  "BDE49_nonexpt_1035_mol1.chk"
 Charge =  0 Multiplicity = 1

                         Standard orientation:
 ---------------------------------------------------------------------
 Center     Atomic      Atomic             Coordinates (Angstroms)
 Number     Number       Type             X           Y           Z
 ---------------------------------------------------------------------
      1         17           0       -1.663906    0.057116    0.000000
      2          8           0        0.000000    0.556477    0.000000
      3          6           0        0.880052   -0.580109    0.000000
      4          6           0        2.283305    0.002694    0.000000
      5          1           0        0.698392   -1.190167    0.890827
      6          1           0        2.448135    0.616784   -0.887184
      7          1           0        3.013212   -0.811533    0.000000
      8          1           0        2.448135    0.616784    0.887184
      9          1           0        0.698392   -1.190167   -0.890827
 ---------------------------------------------------------------------

 SCF Done:  E(RHF) =  -613.918025615     A.U. after    2 cycles

 The electronic state is 1-A'.
 Alpha  occ. eigenvalues --  -99.92931 -21.10838 -11.44453 -11.37697 -10.49689
 Alpha  occ. eigenvalues --   -9.69607  -9.68754  -9.68619  -1.77475  -1.25535
 Alpha  occ. eigenvalues --   -1.11167  -0.89124  -0.66906  -0.65247  -0.60100
 Alpha  occ. eigenvalues --   -0.56814  -0.53986  -0.51425  -0.49007  -0.43379
 Alpha  occ. eigenvalues --   -0.34370
 Alpha virt. eigenvalues --    0.03053   0.05320   0.05841   0.06066   0.06265
 Alpha virt. eigenvalues --    0.06901   0.09669   0.11648   0.13064   0.13206
 Alpha virt. eigenvalues --    0.15067   0.15830   0.17807   0.17811   0.18873

 Mulliken charges:
               1
     1  Cl   0.492874
     2  O   -1.867467
     3  C   -1.457313
     4  C   -3.708874
     5  H    1.422165
     6  H    1.259387
     7  H    1.177679
     8  H    1.259387
     9  H    1.422165
 Sum of Mulliken charges =   0.00000

 Dipole moment (field-independent basis, Debye):
    X=              3.1420    Y=             -0.2712    Z=             -0.0000  Tot=              3.1537

 Test job not archived.
 1\1\GINC-SE332\SP\RHF\Aug-CC-pVDZ\C2H5Cl1O1\OHZDE\08-Apr-2025\0\\#t hf
  aug-cc-pvdz iop(5/13=1,5/36=2,99/5=2) pseudo=read geom=check guess=(r
 ead,tcheck) scf=(maxcycle=1)\\title\\0,1\Cl,0,-1.663906,0.057115,0.\O,
 0,0.,0.556477,0.\C,0,0.880052,-0.580109,0.\C,0,2.283305,0.002695,0.\H,
 0,0.698393,-1.190167,0.890827\H,0,2.448135,0.616785,-0.887184\H,0,3.01
 3212,-0.811532,0.\H,0,2.448135,0.616785,0.887184\H,0,0.698393,-1.19016
 7,-0.890827\\Version=ES64L-G16RevC.01\State=1-A'\HF=-613.9180256\RMSD=
 1.659e-01\Dipole=1.2361497,-0.1066877,0.\Quadrupole=0.5602715,-0.21355

 Normal termination of Gaussian 16 at Tue Apr  8 23:17:52 2025.
