 Gaussian 16, Revision C.01,

 ----------------------------------------------------------------------
 #t hf aug-cc-pvdz symm=none int=(grid=ultrafine) guess=(read,tcheck) s
 table=(opt,rrhf)
 ----------------------------------------------------------------------
 -----
 title
 -----
 Symbolic Z-matrix:
 Charge =  0 Multiplicity = 1

 SCF Done:  E(RHF) =  -1110.99828828     A.U. after   14 cycles
 Normal termination of Gaussian 16 at Wed Apr  9 00:04:29 2025.
 Gaussian 16:  ES64L-G16RevC.01  3-Jul-2019

 ----------------------------------------------------------------------
 #t hf aug-cc-pvdz iop(5/13=1,5/36=2,99/5=2) pseudo=read geom=check gue
 ss=(read,tcheck) scf=(maxcycle=1)
 ----------------------------------------------------------------------
 -----
 title
 -----
 Structure from the checkpoint file:  "BDE49_nonexpt_218_mol1.chk"
 Charge =  0 Multiplicity = 1

                         Standard orientation:
 ---------------------------------------------------------------------
 Center     Atomic      Atomic             Coordinates (Angstroms)
 Number     Number       Type             X           Y           Z
 ---------------------------------------------------------------------
      1         17           0        0.115207    1.655900    0.000003
      2          5           0        0.399661   -0.064734   -0.000002
      3          6           0       -1.907783   -0.664137    0.000002
      4          7           0       -3.044648   -0.465338    0.000005
      5          8           0       -0.648370   -0.968870   -0.000001
      6         17           0        1.999375   -0.754911   -0.000005
 ---------------------------------------------------------------------

 SCF Done:  E(RHF) =  -1112.26686150     A.U. after    2 cycles

 The electronic state is 1-A.
 Alpha  occ. eigenvalues --  -99.93763 -99.93497 -21.17378 -15.78124 -11.51166
 Alpha  occ. eigenvalues --  -10.51117 -10.50776  -9.71069  -9.70719  -9.70504
 Alpha  occ. eigenvalues --   -9.70317  -9.70261  -9.70083  -7.78824  -1.92032
 Alpha  occ. eigenvalues --   -1.41948  -1.34130  -1.30754  -0.90641  -0.76480
 Alpha  occ. eigenvalues --   -0.71344  -0.65388  -0.61168  -0.58228  -0.56143
 Alpha  occ. eigenvalues --   -0.55486  -0.54702  -0.53908  -0.42425  -0.41525
 Alpha virt. eigenvalues --    0.02058   0.03835   0.03853   0.04189   0.04459
 Alpha virt. eigenvalues --    0.08129   0.11047   0.11529   0.12796   0.13378
 Alpha virt. eigenvalues --    0.13641   0.15032   0.15319   0.15948   0.16552

 Mulliken charges:
               1
     1  Cl  -1.047792
     2  B    3.652544
     3  C    4.529181
     4  N   -2.697554
     5  O   -3.343567
     6  Cl  -1.092812
 Sum of Mulliken charges =  -0.00000

 Dipole moment (field-independent basis, Debye):
    X=              2.4285    Y=             -0.3046    Z=             -0.0000  Tot=              2.4475

 Test job not archived.
 1\1\GINC-SE322\SP\RHF\Aug-CC-pVDZ\C1B1Cl2N1O1\OHZDE\09-Apr-2025\0\\#t
 hf aug-cc-pvdz iop(5/13=1,5/36=2,99/5=2) pseudo=read geom=check guess=
 (read,tcheck) scf=(maxcycle=1)\\title\\0,1\Cl,0,0.115207,1.6559,0.0000
 03\B,0,0.399661,-0.064734,-0.000002\C,0,-1.907783,-0.664137,0.000002\N
 ,0,-3.044648,-0.465338,0.000005\O,0,-0.64837,-0.96887,-0.000001\Cl,0,1
 .999375,-0.754911,-0.000005\\Version=ES64L-G16RevC.01\State=1-A\HF=-11
 12.2668615\RMSD=5.459e-02\Dipole=0.9554294,-0.119826,-0.0000028\Quadru
 pole=-5.2993762,3.0365137,2.2628625,-0.7695931,0.000014,0.0000037\PG=C

 Normal termination of Gaussian 16 at Wed Apr  9 00:04:32 2025.
