 Gaussian 16, Revision C.01,

 ----------------------------------------------------------------------
 #t hf aug-cc-pvdz symm=none int=(grid=ultrafine) guess=(read,tcheck) s
 table=opt
 ----------------------------------------------------------------------
 -----
 title
 -----
 Symbolic Z-matrix:
 Charge =  0 Multiplicity = 2

 SCF Done:  E(UHF) =  -1528.67035907     A.U. after   19 cycles
 Normal termination of Gaussian 16 at Tue Apr  8 23:44:18 2025.
 Gaussian 16:  ES64L-G16RevC.01  3-Jul-2019

 ----------------------------------------------------------------------
 #t hf aug-cc-pvdz iop(5/13=1,5/36=2,99/5=2) pseudo=read geom=check gue
 ss=(read,tcheck) scf=(maxcycle=1)
 ----------------------------------------------------------------------
 -----
 title
 -----
 Structure from the checkpoint file:  "BDE49_nonexpt_1702_mol2.chk"
 Charge =  0 Multiplicity = 2

                         Standard orientation:
 ---------------------------------------------------------------------
 Center     Atomic      Atomic             Coordinates (Angstroms)
 Number     Number       Type             X           Y           Z
 ---------------------------------------------------------------------
      1         16           0        2.070198   -0.598756    0.000000
      2          8           0        1.010656    0.680626   -0.000000
      3          6           0       -0.366977    0.462785   -0.000000
      4          9           0       -0.907129    1.682134   -0.000000
      5         17           0       -0.907129   -0.405319    1.472358
      6         17           0       -0.907129   -0.405319   -1.472358
 ---------------------------------------------------------------------

 SCF Done:  E(UHF) =  -1530.15641484     A.U. after    2 cycles

 The electronic state is 2-A".
 Alpha  occ. eigenvalues --  -99.92626 -99.92602 -75.78353 -29.33341 -21.14803
 Alpha  occ. eigenvalues --  -13.23670 -13.11437 -13.11367 -11.60945 -10.50102
 Alpha  occ. eigenvalues --  -10.49991  -9.69955  -9.69788  -9.69054  -9.69053
 Alpha  occ. eigenvalues --   -9.69021  -9.68941  -8.11651  -1.87649  -1.42044
 Alpha  occ. eigenvalues --   -1.32567  -1.16022  -1.02800  -0.81965  -0.75713
 Alpha  occ. eigenvalues --   -0.70665  -0.58238  -0.57510  -0.53629  -0.52130
 Alpha  occ. eigenvalues --   -0.49011  -0.48790  -0.43428  -0.33829  -0.32887
 Alpha  occ. eigenvalues --   -0.29421  -0.27851
 Alpha virt. eigenvalues --    0.02444   0.05526   0.07312   0.07457   0.09704
 Alpha virt. eigenvalues --    0.09954   0.12691   0.12819   0.13783   0.13857
 Alpha virt. eigenvalues --    0.16145   0.16555   0.17408   0.18535   0.19033

  Beta  occ. eigenvalues --  -99.92620 -99.92596 -75.77378 -29.33350 -21.14321
  Beta  occ. eigenvalues --  -13.23287 -13.10804 -13.05432 -11.60985 -10.50097
  Beta  occ. eigenvalues --  -10.49986  -9.69926  -9.69761  -9.69054  -9.69046
  Beta  occ. eigenvalues --   -9.69014  -9.68940  -8.10558  -1.86568  -1.41850
  Beta  occ. eigenvalues --   -1.32513  -1.13600  -0.96620  -0.81934  -0.75288
  Beta  occ. eigenvalues --   -0.69576  -0.57407  -0.57338  -0.53307  -0.52085
  Beta  occ. eigenvalues --   -0.48526  -0.44861  -0.43278  -0.33498  -0.32561
  Beta  occ. eigenvalues --   -0.26571
  Beta virt. eigenvalues --    0.02235   0.02496   0.05802   0.07478   0.07540
  Beta virt. eigenvalues --    0.09863   0.10461   0.12735   0.13864   0.13983
  Beta virt. eigenvalues --    0.15404   0.16309   0.16645   0.17638   0.18853

 Mulliken charges and spin densities:
               1          2
     1  S    0.948216   0.965896
     2  O   -1.995443   0.026137
     3  C   -0.429907  -0.010985
     4  F    1.166493   0.003365
     5  Cl   0.155320   0.007793
     6  Cl   0.155320   0.007793
 Sum of Mulliken charges =  -0.00000   1.00000

 Dipole moment (field-independent basis, Debye):
    X=              1.1801    Y=              3.2822    Z=              0.0000  Tot=              3.4879
                          Isotropic Fermi Contact Couplings
        Atom                 a.u.       MegaHertz       Gauss      10(-4) cm-1
     1  S(33)              0.30122     103.45969      36.91699      34.51044
     2  O(17)              0.03108     -18.83819      -6.72194      -6.28375
     3  C(13)             -0.00438      -4.92545      -1.75752      -1.64295
     4  F(19)             -0.00143      -6.03735      -2.15428      -2.01384
     5  Cl(35)            -0.00190      -0.83441      -0.29774      -0.27833
     6  Cl(35)            -0.00190      -0.83441      -0.29774      -0.27833
 --------------------------------------------------------
       Center         ----  Spin Dipole Couplings  ----

 1\1\GINC-SE026\SP\UHF\Aug-CC-pVDZ\C1Cl2F1O1S1(2)\OHZDE\08-Apr-2025\0\\
 #t hf aug-cc-pvdz iop(5/13=1,5/36=2,99/5=2) pseudo=read geom=check gue
 ss=(read,tcheck) scf=(maxcycle=1)\\title\\0,2\S,0,2.150706,0.,-0.13672
 4\O,0,0.839481,0.,0.883147\C,0,-0.458403,0.,0.372436\F,0,-1.24955,0.,1
 .446058\Cl,0,-0.797964,-1.472358,-0.591963\Cl,0,-0.797964,1.472358,-0.
 591963\\Version=ES64L-G16RevC.01\State=2-A"\HF=-1530.1564148\S2=0.7622
 22\S2-1=0.\S2A=0.75006\RMSD=4.457e-02\Dipole=0.1739276,0.,1.3611838\Qu
 adrupole=2.6884525,-2.6743679,-0.0140846,0.,-4.8561327,0.\PG=CS [SG(C1

 Normal termination of Gaussian 16 at Tue Apr  8 23:44:20 2025.
