 Gaussian 16, Revision C.01,

 ----------------------------------------------------------------------
 #t hf aug-cc-pvdz symm=none int=(grid=ultrafine) guess=(read,tcheck) s
 table=opt
 ----------------------------------------------------------------------
 -----
 title
 -----
 Symbolic Z-matrix:
 Charge =  0 Multiplicity = 2

 SCF Done:  E(UHF) =  -1396.22124352     A.U. after   20 cycles
 Normal termination of Gaussian 16 at Tue Apr  8 23:46:24 2025.
 Gaussian 16:  ES64L-G16RevC.01  3-Jul-2019

 ----------------------------------------------------------------------
 #t hf aug-cc-pvdz iop(5/13=1,5/36=2,99/5=2) pseudo=read geom=check gue
 ss=(read,tcheck) scf=(maxcycle=1)
 ----------------------------------------------------------------------
 -----
 title
 -----
 Structure from the checkpoint file:  "BDE49_nonexpt_1765_mol2.chk"
 Charge =  0 Multiplicity = 2

                         Standard orientation:
 ---------------------------------------------------------------------
 Center     Atomic      Atomic             Coordinates (Angstroms)
 Number     Number       Type             X           Y           Z
 ---------------------------------------------------------------------
      1          6           0       -1.512251   -0.403976    0.019648
      2          8           0       -1.911999   -1.530326    0.026688
      3         14           0        0.315198   -0.021380    0.607258
      4          8           0       -2.297727    0.644086   -0.299843
      5         17           0        0.781069    1.898566   -0.106967
      6         17           0        1.578533   -1.407129   -0.252193
      7          1           0       -1.774682    1.458658   -0.328541
 ---------------------------------------------------------------------

 SCF Done:  E(UHF) =  -1397.59408005     A.U. after    2 cycles

 The electronic state is 2-A.
 Alpha  occ. eigenvalues --  -99.92931 -99.92273 -76.35080 -21.14863 -21.08644
 Alpha  occ. eigenvalues --  -11.52122 -10.50267 -10.49667  -9.70195  -9.69602
 Alpha  occ. eigenvalues --   -9.69578  -9.69485  -9.68870  -9.68816  -5.68458
 Alpha  occ. eigenvalues --   -2.30586  -2.30344  -2.28242  -1.84169  -1.68465
 Alpha  occ. eigenvalues --   -1.34428  -1.31788  -0.89394  -0.78884  -0.69189
 Alpha  occ. eigenvalues --   -0.62811  -0.60172  -0.58445  -0.57705  -0.56671
 Alpha  occ. eigenvalues --   -0.55013  -0.54686  -0.48355  -0.39160  -0.35935
 Alpha  occ. eigenvalues --   -0.28757
 Alpha virt. eigenvalues --    0.03650   0.04171   0.04931   0.05375   0.07358
 Alpha virt. eigenvalues --    0.08313   0.10492   0.10530   0.11738   0.11988
 Alpha virt. eigenvalues --    0.13273   0.14086   0.14357   0.15015   0.15591

  Beta  occ. eigenvalues --  -99.92826 -99.92158 -76.34485 -21.14814 -21.08476
  Beta  occ. eigenvalues --  -11.51874 -10.50151 -10.49542  -9.69973  -9.69502
  Beta  occ. eigenvalues --   -9.69344  -9.69236  -9.68763  -9.68571  -5.67467
  Beta  occ. eigenvalues --   -2.29987  -2.29678  -2.24884  -1.83955  -1.68150
  Beta  occ. eigenvalues --   -1.33463  -1.30904  -0.86753  -0.77648  -0.67636
  Beta  occ. eigenvalues --   -0.61781  -0.58783  -0.58210  -0.56738  -0.55972
  Beta  occ. eigenvalues --   -0.54671  -0.54414  -0.47493  -0.35981  -0.31720
  Beta virt. eigenvalues --   -0.01514   0.04294   0.04866   0.05449   0.05650
  Beta virt. eigenvalues --    0.08083   0.08601   0.11518   0.11798   0.12262
  Beta virt. eigenvalues --    0.12542   0.13329   0.14422   0.14723   0.15467

 Mulliken charges and spin densities:
               1          2
     1  C    3.243556   0.057392
     2  O   -2.450408   0.054257
     3  Si   2.455181   0.753821
     4  O   -2.698076   0.013579
     5  Cl  -0.825928   0.057508
     6  Cl  -0.779529   0.052374
     7  H    1.055205   0.011069
 Sum of Mulliken charges =  -0.00000   1.00000

 Dipole moment (field-independent basis, Debye):
    X=             -0.6373    Y=              0.7010    Z=              1.0691  Tot=              1.4285
                          Isotropic Fermi Contact Couplings
        Atom                 a.u.       MegaHertz       Gauss      10(-4) cm-1
     1  C(13)              0.04324      48.60547      17.34364      16.21304
     2  O(17)              0.00911      -5.52012      -1.96971      -1.84131
     3  Si(29)             0.75836    -673.97702    -240.49176    -224.81453
     4  O(17)              0.00207      -1.25738      -0.44866      -0.41942
     5  Cl(35)             0.06666      29.22933      10.42975       9.74985
     6  Cl(35)             0.07023      30.79421      10.98814      10.27184
     7  H(1)               0.00015       0.65453       0.23355       0.21833
 --------------------------------------------------------

 Normal termination of Gaussian 16 at Tue Apr  8 23:46:27 2025.
