 Gaussian 16, Revision C.01,

 ----------------------------------------------------------------------
 #t hf aug-cc-pvdz symm=none int=(grid=ultrafine) guess=(read,tcheck) s
 table=opt
 ----------------------------------------------------------------------
 -----
 title
 -----
 Symbolic Z-matrix:
 Charge =  0 Multiplicity = 2

 SCF Done:  E(UHF) =  -237.296684598     A.U. after   14 cycles
 Normal termination of Gaussian 16 at Tue Apr  8 22:30:16 2025.
 Gaussian 16:  ES64L-G16RevC.01  3-Jul-2019

 ----------------------------------------------------------------------
 #t hf aug-cc-pvdz iop(5/13=1,5/36=2,99/5=2) pseudo=read geom=check gue
 ss=(read,tcheck) scf=(maxcycle=1)
 ----------------------------------------------------------------------
 -----
 title
 -----
 Structure from the checkpoint file:  "BDE49_expt_1002_mol2.chk"
 Charge =  0 Multiplicity = 2

                         Standard orientation:
 ---------------------------------------------------------------------
 Center     Atomic      Atomic             Coordinates (Angstroms)
 Number     Number       Type             X           Y           Z
 ---------------------------------------------------------------------
      1          6           0       -0.030161    0.509436   -0.000000
      2          9           0       -0.030161   -0.241860    1.100484
      3          9           0       -0.030161   -0.241860   -1.100484
      4          1           0        0.723863    1.296858   -0.000000
 ---------------------------------------------------------------------

 SCF Done:  E(UHF) =  -238.130075941     A.U. after    2 cycles

 The electronic state is 2-A'.
 Alpha  occ. eigenvalues --  -29.31408 -29.31364 -11.50928  -1.27932  -0.80961
 Alpha  occ. eigenvalues --   -0.75297  -0.63189  -0.46266  -0.40655  -0.32288
 Alpha  occ. eigenvalues --   -0.31886  -0.24890  -0.18835
 Alpha virt. eigenvalues --    0.04245   0.09688   0.11365   0.12155   0.18201
 Alpha virt. eigenvalues --    0.22566   0.23380   0.26871   0.26934   0.29661
 Alpha virt. eigenvalues --    0.31161   0.34995   0.35938   0.38105   0.45844

  Beta  occ. eigenvalues --  -29.30999 -29.30955 -11.48236  -1.21411  -0.79358
  Beta  occ. eigenvalues --   -0.72872  -0.46337  -0.45469  -0.39815  -0.31968
  Beta  occ. eigenvalues --   -0.29786  -0.24721
  Beta virt. eigenvalues --    0.04320   0.09435   0.11217   0.12208   0.15791
  Beta virt. eigenvalues --    0.19727   0.22855   0.23525   0.27162   0.27935
  Beta virt. eigenvalues --    0.31958   0.32392   0.35057   0.38297   0.39023

 Mulliken charges and spin densities:
               1          2
     1  C   -2.288542   0.826715
     2  F    0.458278   0.097004
     3  F    0.458278   0.097004
     4  H    1.371986  -0.020723
 Sum of Mulliken charges =   0.00000   1.00000

 Dipole moment (field-independent basis, Debye):
    X=              0.3989    Y=             -1.5948    Z=             -0.0000  Tot=              1.6440
                          Isotropic Fermi Contact Couplings
        Atom                 a.u.       MegaHertz       Gauss      10(-4) cm-1
     1  C(13)              0.18165     204.21064      72.86744      68.11734
     2  F(19)              0.03683     154.96918      55.29686      51.69215
     3  F(19)              0.03683     154.96918      55.29686      51.69215
     4  H(1)               0.00392      17.51919       6.25128       5.84377
 --------------------------------------------------------
       Center         ----  Spin Dipole Couplings  ----
                      3XX-RR        3YY-RR        3ZZ-RR
 --------------------------------------------------------

 Normal termination of Gaussian 16 at Tue Apr  8 22:30:18 2025.
