 Gaussian 16, Revision C.01,

 ----------------------------------------------------------------------
 #t hf aug-cc-pvdz symm=none int=(grid=ultrafine) guess=(read,tcheck) s
 table=(opt,rrhf)
 ----------------------------------------------------------------------
 -----
 title
 -----
 Symbolic Z-matrix:
 Charge =  0 Multiplicity = 1

 SCF Done:  E(RHF) =  -776.367319233     A.U. after   17 cycles
 Normal termination of Gaussian 16 at Wed Apr  9 00:02:21 2025.
 Gaussian 16:  ES64L-G16RevC.01  3-Jul-2019

 ----------------------------------------------------------------------
 #t hf aug-cc-pvdz iop(5/13=1,5/36=2,99/5=2) pseudo=read geom=check gue
 ss=(read,tcheck) scf=(maxcycle=1)
 ----------------------------------------------------------------------
 -----
 title
 -----
 Structure from the checkpoint file:  "BDE49_nonexpt_2114_mol1.chk"
 Charge =  0 Multiplicity = 1

                         Standard orientation:
 ---------------------------------------------------------------------
 Center     Atomic      Atomic             Coordinates (Angstroms)
 Number     Number       Type             X           Y           Z
 ---------------------------------------------------------------------
      1         14           0        0.020316    0.043810   -0.807914
      2          7           0        1.058673   -1.144689    0.168896
      3          7           0       -1.664385   -0.097987   -0.026864
      4          8           0        0.703120   -1.658834    1.214216
      5          8           0        2.165834   -1.279432   -0.360137
      6          8           0       -2.109370    0.858971    0.601137
      7          8           0       -2.243896   -1.163414   -0.202844
      8          6           0        0.730832    1.742477   -0.618114
      9          6           0        1.073391    2.170847    0.822163
     10          1           0        0.002263    2.431624   -1.061880
     11          1           0        1.619303    1.776960   -1.259066
     12          1           0        0.189189    2.149315    1.460432
     13          1           0        1.468768    3.188725    0.825845
     14          1           0        1.833050    1.520734    1.261904
     15          1           0       -0.107862   -0.520235   -2.153938
 ---------------------------------------------------------------------

 SCF Done:  E(RHF) =  -778.616221809     A.U. after    2 cycles

 The electronic state is 1-A.
 Alpha  occ. eigenvalues --  -76.33154 -21.12614 -21.11881 -21.11703 -21.11640
 Alpha  occ. eigenvalues --  -15.99036 -15.98712 -11.44167 -11.39506  -5.67077
 Alpha  occ. eigenvalues --   -2.31588  -2.31496  -2.29819  -1.99931  -1.99513
 Alpha  occ. eigenvalues --   -1.70970  -1.70486  -1.20098  -1.06657  -0.98284
 Alpha  occ. eigenvalues --   -0.93510  -0.77064  -0.72045  -0.68513  -0.68233
 Alpha  occ. eigenvalues --   -0.65128  -0.63486  -0.62355  -0.61947  -0.60607
 Alpha  occ. eigenvalues --   -0.53803  -0.53218  -0.47201  -0.36709  -0.34800
 Alpha  occ. eigenvalues --   -0.34400  -0.33336  -0.32562  -0.32268
 Alpha virt. eigenvalues --    0.02769   0.04203   0.04955   0.05181   0.06556
 Alpha virt. eigenvalues --    0.06938   0.07433   0.07745   0.08713   0.09648
 Alpha virt. eigenvalues --    0.10118   0.11656   0.12208   0.12815   0.13878

 Mulliken charges:
               1
     1  Si   5.846541
     2  N    3.000768
     3  N    3.635876
     4  O   -2.169594
     5  O   -2.251719
     6  O   -2.179304
     7  O   -2.499897
     8  C   -4.291084
     9  C   -3.594291
    10  H    1.393185
    11  H    1.428344
    12  H    1.394575
    13  H    1.143094
    14  H    1.356989
    15  H   -2.213485
 Sum of Mulliken charges =  -0.00000

 Dipole moment (field-independent basis, Debye):
    X=              1.1491    Y=              2.7474    Z=             -1.3207  Tot=              3.2577

 Test job not archived.
 1\1\GINC-SE097\SP\RHF\Aug-CC-pVDZ\C2H6N2O4Si1\OHZDE\09-Apr-2025\0\\#t
 hf aug-cc-pvdz iop(5/13=1,5/36=2,99/5=2) pseudo=read geom=check guess=
 (read,tcheck) scf=(maxcycle=1)\\title\\0,1\Si,0,0.020316,0.04381,-0.80
 7914\N,0,1.058673,-1.144689,0.168896\N,0,-1.664385,-0.097987,-0.026864
 \O,0,0.70312,-1.658834,1.214216\O,0,2.165834,-1.279432,-0.360137\O,0,-
 2.10937,0.858971,0.601137\O,0,-2.243896,-1.163414,-0.202844\C,0,0.7308
 32,1.742477,-0.618114\C,0,1.073391,2.170847,0.822163\H,0,0.002263,2.43
 1624,-1.06188\H,0,1.619303,1.77696,-1.259066\H,0,0.189189,2.149315,1.4

 Normal termination of Gaussian 16 at Wed Apr  9 00:02:27 2025.
