 Gaussian 16, Revision C.01,

 ----------------------------------------------------------------------
 #t hf aug-cc-pvdz symm=none int=(grid=ultrafine) guess=(read,tcheck) s
 table=(opt,rrhf)
 ----------------------------------------------------------------------
 -----
 title
 -----
 Symbolic Z-matrix:
 Charge =  0 Multiplicity = 1

 SCF Done:  E(RHF) =  -367.727667569     A.U. after   12 cycles
 Normal termination of Gaussian 16 at Wed Apr  9 00:35:45 2025.
 Gaussian 16:  ES64L-G16RevC.01  3-Jul-2019

 ----------------------------------------------------------------------
 #t hf aug-cc-pvdz iop(5/13=1,5/36=2,99/5=2) pseudo=read geom=check gue
 ss=(read,tcheck) scf=(maxcycle=1)
 ----------------------------------------------------------------------
 -----
 title
 -----
 Structure from the checkpoint file:  "BDE49_nonexpt_460_mol1.chk"
 Charge =  0 Multiplicity = 1

                         Standard orientation:
 ---------------------------------------------------------------------
 Center     Atomic      Atomic             Coordinates (Angstroms)
 Number     Number       Type             X           Y           Z
 ---------------------------------------------------------------------
      1          1           0       -0.147842    1.885125    1.032972
      2          1           0       -0.147842    1.885125   -1.032972
      3          5           0       -0.061553    1.303100    0.000000
      4         15           0       -0.061553   -0.562087   -0.000000
      5          1           0        0.763369   -0.927226    1.082244
      6          1           0        0.763369   -0.927226   -1.082244
 ---------------------------------------------------------------------

 SCF Done:  E(RHF) =  -368.055503179     A.U. after    2 cycles

 The electronic state is 1-A'.
 Alpha  occ. eigenvalues -- -105.16703  -7.62599  -2.74412  -1.50742  -1.44287
 Alpha  occ. eigenvalues --   -1.40569  -0.84868  -0.66642  -0.49866  -0.25727
 Alpha  occ. eigenvalues --   -0.15711  -0.04791
 Alpha virt. eigenvalues --    0.04059   0.04405   0.04550   0.06875   0.08694
 Alpha virt. eigenvalues --    0.09575   0.10022   0.11821   0.12712   0.13398
 Alpha virt. eigenvalues --    0.14570   0.18276   0.20185   0.22331   0.23909

 Mulliken charges:
               1
     1  H   -1.911270
     2  H   -1.911270
     3  B    3.314959
     4  P    1.951154
     5  H   -0.721787
     6  H   -0.721787
 Sum of Mulliken charges =  -0.00000

 Dipole moment (field-independent basis, Debye):
    X=             -4.0965    Y=             -7.0500    Z=              0.0000  Tot=              8.1538

 Test job not archived.
 1\1\GINC-SE097\SP\RHF\Aug-CC-pVDZ\B1H4P1\OHZDE\09-Apr-2025\0\\#t hf au
 g-cc-pvdz iop(5/13=1,5/36=2,99/5=2) pseudo=read geom=check guess=(read
 ,tcheck) scf=(maxcycle=1)\\title\\0,1\H,0,-0.147842,1.885125,1.032972\
 H,0,-0.147842,1.885125,-1.032972\B,0,-0.061553,1.3031,0.\P,0,-0.061553
 ,-0.562087,0.\H,0,0.763369,-0.927226,1.082244\H,0,0.763369,-0.927226,-
 1.082244\\Version=ES64L-G16RevC.01\State=1-A'\HF=-368.0555032\RMSD=3.1
 51e-01\Dipole=-1.6117001,-2.7736898,0.\Quadrupole=-2.716114,0.3991062,
 2.3170078,1.7737568,0.,0.\PG=CS [SG(B1P1),X(H4)]\\@

 Normal termination of Gaussian 16 at Wed Apr  9 00:35:47 2025.
