 Gaussian 16, Revision C.01,

 ----------------------------------------------------------------------
 #t hf aug-cc-pvdz symm=none int=(grid=ultrafine) guess=(read,tcheck) s
 table=opt
 ----------------------------------------------------------------------
 -----
 title
 -----
 Symbolic Z-matrix:
 Charge =  0 Multiplicity = 2

 SCF Done:  E(UHF) =  -458.991203714     A.U. after   16 cycles
 Normal termination of Gaussian 16 at Tue Apr  8 23:36:15 2025.
 Gaussian 16:  ES64L-G16RevC.01  3-Jul-2019

 ----------------------------------------------------------------------
 #t hf aug-cc-pvdz iop(5/13=1,5/36=2,99/5=2) pseudo=read geom=check gue
 ss=(read,tcheck) scf=(maxcycle=1)
 ----------------------------------------------------------------------
 -----
 title
 -----
 Structure from the checkpoint file:  "BDE49_nonexpt_1494_mol2.chk"
 Charge =  0 Multiplicity = 2

                         Standard orientation:
 ---------------------------------------------------------------------
 Center     Atomic      Atomic             Coordinates (Angstroms)
 Number     Number       Type             X           Y           Z
 ---------------------------------------------------------------------
      1         15           0       -1.821677   -0.187262   -0.000082
      2          6           0        2.406202    0.099976    0.000100
      3          6           0       -0.108315    0.553682    0.000048
      4          6           0        1.000180   -0.507711   -0.000016
      5          1           0       -0.010862    1.205862    0.876957
      6          1           0       -0.010800    1.206033   -0.876727
      7          1           0        0.881457   -1.155654   -0.875722
      8          1           0        0.881389   -1.155831    0.875549
      9          1           0        2.566638    0.725794    0.883438
     10          1           0        2.566705    0.725977   -0.883097
     11          1           0        3.173536   -0.678896    0.000048
     12          1           0       -2.511315    1.059965    0.000005
 ---------------------------------------------------------------------

 SCF Done:  E(UHF) =  -459.779942735     A.U. after    2 cycles

 The electronic state is 2-A.
 Alpha  occ. eigenvalues -- -105.17479 -11.41404 -11.38286 -11.35170  -2.74998
 Alpha  occ. eigenvalues --   -1.47620  -1.44170  -1.42991  -1.19678  -0.98095
 Alpha  occ. eigenvalues --   -0.84481  -0.67872  -0.64142  -0.57239  -0.54381
 Alpha  occ. eigenvalues --   -0.50298  -0.46922  -0.46701  -0.21604  -0.06979
 Alpha  occ. eigenvalues --    0.02210
 Alpha virt. eigenvalues --    0.04325   0.05629   0.06183   0.06233   0.06743
 Alpha virt. eigenvalues --    0.06777   0.07609   0.09091   0.10440   0.10724
 Alpha virt. eigenvalues --    0.12349   0.14841   0.15973   0.16357   0.17075

  Beta  occ. eigenvalues -- -105.16853 -11.41437 -11.38350 -11.35203  -2.73088
  Beta  occ. eigenvalues --   -1.45750  -1.41441  -1.20166  -1.19578  -0.97916
  Beta  occ. eigenvalues --   -0.84270  -0.63893  -0.63816  -0.56957  -0.53902
  Beta  occ. eigenvalues --   -0.49962  -0.46714  -0.46675  -0.22537  -0.04708
  Beta virt. eigenvalues --    0.04319   0.05657   0.06157   0.06260   0.06751
  Beta virt. eigenvalues --    0.06766   0.07019   0.07806   0.10750   0.10915
  Beta virt. eigenvalues --    0.11465   0.12419   0.15013   0.16173   0.17128

 Mulliken charges and spin densities:
               1          2
     1  P    2.651162   1.454747
     2  C   -4.024110  -0.030297
     3  C   -3.940539  -0.593553
     4  C   -2.210411   0.026089
     5  H    1.157239   0.132930
     6  H    1.157243   0.132929
     7  H    1.270405   0.046199
     8  H    1.270408   0.046194
     9  H    1.253038  -0.021961
    10  H    1.253034  -0.021960
    11  H    1.177293  -0.002540
    12  H   -1.014762  -0.168776
 Sum of Mulliken charges =  -0.00000   1.00000

 Dipole moment (field-independent basis, Debye):
    X=             -0.0961    Y=             -1.9575    Z=             -0.0002  Tot=              1.9599
                          Isotropic Fermi Contact Couplings
        Atom                 a.u.       MegaHertz       Gauss      10(-4) cm-1
     1  P(31)              0.26843     486.14550     173.46880     162.16068
     2  C(13)              0.00012       0.13975       0.04986       0.04661
     3  C(13)             -0.00161      -1.81028      -0.64595      -0.60385
     4  C(13)             -0.00096      -1.08063      -0.38560      -0.36046
     5  H(1)               0.00564      25.23004       9.00271       8.41584
     6  H(1)               0.00564      25.22966       9.00257       8.41571
     7  H(1)              -0.00024      -1.08681      -0.38780      -0.36252
     8  H(1)              -0.00024      -1.08683      -0.38781      -0.36253

 Normal termination of Gaussian 16 at Tue Apr  8 23:36:19 2025.
