 Gaussian 16, Revision C.01,

 ----------------------------------------------------------------------
 #t hf aug-cc-pvdz symm=none int=(grid=ultrafine) guess=(read,tcheck) s
 table=opt
 ----------------------------------------------------------------------
 -----
 title
 -----
 Symbolic Z-matrix:
 Charge =  0 Multiplicity = 2

 SCF Done:  E(UHF) =  -647.834502771     A.U. after   15 cycles
 Normal termination of Gaussian 16 at Tue Apr  8 22:51:49 2025.
 Gaussian 16:  ES64L-G16RevC.01  3-Jul-2019

 ----------------------------------------------------------------------
 #t hf aug-cc-pvdz iop(5/13=1,5/36=2,99/5=2) pseudo=read geom=check gue
 ss=(read,tcheck) scf=(maxcycle=1)
 ----------------------------------------------------------------------
 -----
 title
 -----
 Structure from the checkpoint file:  "BDE49_expt_172_mol2.chk"
 Charge =  0 Multiplicity = 2

                         Standard orientation:
 ---------------------------------------------------------------------
 Center     Atomic      Atomic             Coordinates (Angstroms)
 Number     Number       Type             X           Y           Z
 ---------------------------------------------------------------------
      1          6           0       -1.298819   -0.056458    0.178431
      2          8           0       -0.185149   -0.351189   -0.565524
      3          9           0       -2.229204   -0.969379   -0.026051
      4          9           0       -1.774132    1.162960   -0.052360
      5          6           0        1.035393   -0.037490   -0.014525
      6          9           0        1.133327    1.265151    0.270237
      7          9           0        1.956019   -0.360321   -0.909918
      8          9           0        1.254183   -0.723610    1.111509
 ---------------------------------------------------------------------

 SCF Done:  E(UHF) =  -650.112784816     A.U. after    2 cycles

 The electronic state is 2-A.
 Alpha  occ. eigenvalues --  -29.34743 -29.34719 -29.34536 -29.34441 -29.34269
 Alpha  occ. eigenvalues --  -21.16131 -11.64919 -11.58233  -1.95311  -1.41603
 Alpha  occ. eigenvalues --   -1.24154  -0.97503  -0.96148  -0.88829  -0.82363
 Alpha  occ. eigenvalues --   -0.73544  -0.57753  -0.51244  -0.49408  -0.48551
 Alpha  occ. eigenvalues --   -0.47111  -0.46693  -0.43167  -0.41685  -0.37752
 Alpha  occ. eigenvalues --   -0.36836  -0.32989  -0.32248  -0.29048  -0.27447
 Alpha  occ. eigenvalues --   -0.26403  -0.24710  -0.22252
 Alpha virt. eigenvalues --    0.08924   0.10347   0.11444   0.11957   0.12178
 Alpha virt. eigenvalues --    0.12994   0.15063   0.18138   0.20158   0.21089
 Alpha virt. eigenvalues --    0.21344   0.22899   0.23837   0.24182   0.26116

  Beta  occ. eigenvalues --  -29.34733 -29.34536 -29.34445 -29.34347 -29.33814
  Beta  occ. eigenvalues --  -21.15815 -11.64873 -11.55438  -1.94157  -1.40396
  Beta  occ. eigenvalues --   -1.19858  -0.97079  -0.95881  -0.87457  -0.80973
  Beta  occ. eigenvalues --   -0.62327  -0.52552  -0.51048  -0.48107  -0.47434
  Beta  occ. eigenvalues --   -0.46719  -0.46677  -0.42546  -0.40954  -0.37009
  Beta  occ. eigenvalues --   -0.36075  -0.32570  -0.31443  -0.28927  -0.27269
  Beta  occ. eigenvalues --   -0.26223  -0.24563
  Beta virt. eigenvalues --    0.09009   0.09460   0.11230   0.11805   0.12071
  Beta virt. eigenvalues --    0.12446   0.13044   0.15315   0.19563   0.20518
  Beta virt. eigenvalues --    0.21340   0.21558   0.23064   0.24306   0.24761

 Mulliken charges and spin densities:
               1          2
     1  C   -0.604780   0.853632
     2  O   -2.504239  -0.017400
     3  F    0.577430   0.116453
     4  F    0.546652   0.121717
     5  C    0.174469  -0.071314
     6  F    0.590466   0.001826
     7  F    0.684134  -0.003403
     8  F    0.535868  -0.001511
 Sum of Mulliken charges =  -0.00000   1.00000

 Dipole moment (field-independent basis, Debye):
    X=             -0.1413    Y=              0.9342    Z=              0.4063  Tot=              1.0285
                          Isotropic Fermi Contact Couplings
        Atom                 a.u.       MegaHertz       Gauss      10(-4) cm-1
     1  C(13)              0.21673     243.64669      86.93920      81.27179
     2  O(17)              0.02488     -15.07942      -5.38071      -5.02995
     3  F(19)              0.03751     157.81583      56.31261      52.64169
     4  F(19)              0.04918     206.90414      73.82854      69.01579
     5  C(13)              0.00844       9.48500       3.38449       3.16386
     6  F(19)             -0.00082      -3.43839      -1.22690      -1.14692
     7  F(19)              0.00089       3.74036       1.33465       1.24765
     8  F(19)              0.00002       0.07587       0.02707       0.02531

 Normal termination of Gaussian 16 at Tue Apr  8 22:51:52 2025.
