 Gaussian 16, Revision C.01,

 ----------------------------------------------------------------------
 #t hf aug-cc-pvdz symm=none int=(grid=ultrafine) guess=(read,tcheck) s
 table=opt
 ----------------------------------------------------------------------
 -----
 title
 -----
 Symbolic Z-matrix:
 Charge =  0 Multiplicity = 2

 SCF Done:  E(UHF) =  -442.408705709     A.U. after   22 cycles
 Normal termination of Gaussian 16 at Tue Apr  8 23:50:59 2025.
 Gaussian 16:  ES64L-G16RevC.01  3-Jul-2019

 ----------------------------------------------------------------------
 #t hf aug-cc-pvdz iop(5/13=1,5/36=2,99/5=2) pseudo=read geom=check gue
 ss=(read,tcheck) scf=(maxcycle=1)
 ----------------------------------------------------------------------
 -----
 title
 -----
 Structure from the checkpoint file:  "BDE49_nonexpt_1874_mol2.chk"
 Charge =  0 Multiplicity = 2

                         Standard orientation:
 ---------------------------------------------------------------------
 Center     Atomic      Atomic             Coordinates (Angstroms)
 Number     Number       Type             X           Y           Z
 ---------------------------------------------------------------------
      1         14           0        1.398808   -0.192197   -0.086735
      2          6           0       -0.481146    0.208763    0.004435
      3          1           0        2.202490    0.974429    0.340946
      4          1           0        1.794619   -1.432638    0.630434
      5          8           0       -0.811207    1.377274    0.029121
      6          6           0       -1.497421   -0.918715   -0.000488
      7          1           0       -1.335477   -1.581846    0.854817
      8          1           0       -1.377832   -1.523400   -0.905346
      9          1           0       -2.506051   -0.504262    0.036786
 ---------------------------------------------------------------------

 SCF Done:  E(UHF) =  -443.223926562     A.U. after    2 cycles

 The electronic state is 2-A.
 Alpha  occ. eigenvalues --  -76.24076 -21.07293 -11.46964 -11.38885  -5.57551
 Alpha  occ. eigenvalues --   -2.21179  -2.19931  -2.18296  -1.71814  -1.11176
 Alpha  occ. eigenvalues --   -0.84122  -0.70736  -0.60547  -0.59538  -0.55238
 Alpha  occ. eigenvalues --   -0.48385  -0.47341  -0.44848  -0.30641  -0.25375
 Alpha virt. eigenvalues --    0.03253   0.05022   0.05889   0.06296   0.06889
 Alpha virt. eigenvalues --    0.07297   0.08335   0.09619   0.10179   0.12694
 Alpha virt. eigenvalues --    0.13286   0.14002   0.15069   0.15409   0.16426

  Beta  occ. eigenvalues --  -76.23521 -21.06432 -11.47321 -11.38873  -5.56694
  Beta  occ. eigenvalues --   -2.20466  -2.19255  -2.14690  -1.70150  -1.11108
  Beta  occ. eigenvalues --   -0.81795  -0.69244  -0.60351  -0.59732  -0.54951
  Beta  occ. eigenvalues --   -0.47998  -0.47048  -0.42967  -0.27273
  Beta virt. eigenvalues --    0.02902   0.03504   0.05305   0.06049   0.06487
  Beta virt. eigenvalues --    0.07179   0.08470   0.09017   0.10027   0.11172
  Beta virt. eigenvalues --    0.13473   0.13939   0.14990   0.16052   0.16161

 Mulliken charges and spin densities:
               1          2
     1  Si   3.708931   1.062113
     2  C    1.329634  -0.309013
     3  H   -1.474417  -0.017657
     4  H   -1.364618  -0.027976
     5  O   -2.560947   0.237324
     6  C   -3.486735   0.083628
     7  H    1.308397  -0.005864
     8  H    1.289358  -0.018077
     9  H    1.250397  -0.004478
 Sum of Mulliken charges =  -0.00000   1.00000

 Dipole moment (field-independent basis, Debye):
    X=             -0.2098    Y=             -0.8053    Z=             -0.1905  Tot=              0.8537
                          Isotropic Fermi Contact Couplings
        Atom                 a.u.       MegaHertz       Gauss      10(-4) cm-1
     1  Si(29)             0.41436    -368.25424    -131.40227    -122.83639
     2  C(13)             -0.01820     -20.46526      -7.30251      -6.82648
     3  H(1)               0.00058       2.60804       0.93061       0.86995
     4  H(1)              -0.00060      -2.67327      -0.95389      -0.89171
     5  O(17)              0.04902     -29.71780     -10.60405      -9.91279
     6  C(13)              0.00259       2.90751       1.03747       0.96984
     7  H(1)              -0.00225     -10.05642      -3.58838      -3.35446
     8  H(1)              -0.00204      -9.12993      -3.25779      -3.04542

 Normal termination of Gaussian 16 at Tue Apr  8 23:51:02 2025.
