 Gaussian 16, Revision C.01,

 ----------------------------------------------------------------------
 #t hf aug-cc-pvdz symm=none int=(grid=ultrafine) guess=(read,tcheck) s
 table=(opt,rrhf)
 ----------------------------------------------------------------------
 -----
 title
 -----
 Symbolic Z-matrix:
 Charge =  0 Multiplicity = 1

 SCF Done:  E(RHF) =  -484.875272486     A.U. after   13 cycles
 Normal termination of Gaussian 16 at Wed Apr  9 00:43:42 2025.
 Gaussian 16:  ES64L-G16RevC.01  3-Jul-2019

 ----------------------------------------------------------------------
 #t hf aug-cc-pvdz iop(5/13=1,5/36=2,99/5=2) pseudo=read geom=check gue
 ss=(read,tcheck) scf=(maxcycle=1)
 ----------------------------------------------------------------------
 -----
 title
 -----
 Structure from the checkpoint file:  "BDE49_nonexpt_727_mol1.chk"
 Charge =  0 Multiplicity = 1

                         Standard orientation:
 ---------------------------------------------------------------------
 Center     Atomic      Atomic             Coordinates (Angstroms)
 Number     Number       Type             X           Y           Z
 ---------------------------------------------------------------------
      1          5           0        0.855935    0.076588   -0.017898
      2          6           0        1.033100    1.638330   -0.120265
      3          1           0        0.891405    2.050695    0.890691
      4          1           0        0.297325    2.141910   -0.753611
      5          1           0        2.035312    1.942565   -0.438856
      6         15           0       -0.841679   -0.731293   -0.315330
      7          6           0        2.108889   -0.849578    0.208739
      8          1           0        2.827046   -0.714716   -0.611024
      9          1           0        1.900452   -1.917913    0.303207
     10          1           0        2.641482   -0.527164    1.113821
     11          6           0       -2.157582    0.431592    0.309143
     12          1           0       -2.004116    0.744531    1.342539
     13          1           0       -3.133492   -0.049649    0.224279
     14          1           0       -2.170445    1.318236   -0.327846
     15          1           0       -0.845892   -1.724109    0.690531
 ---------------------------------------------------------------------

 SCF Done:  E(RHF) =  -485.826367118     A.U. after    2 cycles

 The electronic state is 1-A.
 Alpha  occ. eigenvalues -- -105.14623 -11.37134 -11.33631 -11.33234  -7.59813
 Alpha  occ. eigenvalues --   -2.72590  -1.48991  -1.44508  -1.40512  -1.11437
 Alpha  occ. eigenvalues --   -1.00752  -1.00067  -0.72468  -0.61073  -0.56334
 Alpha  occ. eigenvalues --   -0.56174  -0.55676  -0.53836  -0.53176  -0.52605
 Alpha  occ. eigenvalues --   -0.41719  -0.23018  -0.12801  -0.01606
 Alpha virt. eigenvalues --    0.03492   0.03926   0.04838   0.05252   0.07258
 Alpha virt. eigenvalues --    0.07575   0.07600   0.08029   0.08402   0.08791
 Alpha virt. eigenvalues --    0.09034   0.09641   0.09963   0.10615   0.11659

 Mulliken charges:
               1
     1  B    4.689017
     2  C   -5.831638
     3  H    1.146635
     4  H    1.487301
     5  H    1.220364
     6  P    2.856276
     7  C   -6.086411
     8  H    0.789891
     9  H    1.451418
    10  H    1.130221
    11  C   -5.839964
    12  H    1.403564
    13  H    1.218022
    14  H    1.398953
    15  H   -1.033650
 Sum of Mulliken charges =  -0.00000

 Dipole moment (field-independent basis, Debye):
    X=             -3.9292    Y=             -1.3009    Z=             -2.2271  Tot=              4.7001

 Test job not archived.
 1\1\GINC-SE229\SP\RHF\Aug-CC-pVDZ\C3H10B1P1\OHZDE\09-Apr-2025\0\\#t hf
  aug-cc-pvdz iop(5/13=1,5/36=2,99/5=2) pseudo=read geom=check guess=(r
 ead,tcheck) scf=(maxcycle=1)\\title\\0,1\B,0,0.855935,0.076588,-0.0178
 98\C,0,1.0331,1.63833,-0.120265\H,0,0.891405,2.050695,0.890691\H,0,0.2
 97325,2.14191,-0.753611\H,0,2.035312,1.942565,-0.438856\P,0,-0.841679,
 -0.731293,-0.31533\C,0,2.108889,-0.849578,0.208739\H,0,2.827046,-0.714
 716,-0.611024\H,0,1.900452,-1.917913,0.303207\H,0,2.641482,-0.527164,1
 .113821\C,0,-2.157582,0.431592,0.309143\H,0,-2.004116,0.744531,1.34253

 Normal termination of Gaussian 16 at Wed Apr  9 00:43:47 2025.
