 Gaussian 16, Revision C.01,

 ----------------------------------------------------------------------
 #t hf aug-cc-pvdz symm=none int=(grid=ultrafine) guess=(read,tcheck) s
 table=(opt,rrhf)
 ----------------------------------------------------------------------
 -----
 title
 -----
 Symbolic Z-matrix:
 Charge =  0 Multiplicity = 1

 SCF Done:  E(RHF) =  -515.702910424     A.U. after   14 cycles
 Normal termination of Gaussian 16 at Wed Apr  9 00:35:47 2025.
 Gaussian 16:  ES64L-G16RevC.01  3-Jul-2019

 ----------------------------------------------------------------------
 #t hf aug-cc-pvdz iop(5/13=1,5/36=2,99/5=2) pseudo=read geom=check gue
 ss=(read,tcheck) scf=(maxcycle=1)
 ----------------------------------------------------------------------
 -----
 title
 -----
 Structure from the checkpoint file:  "BDE49_nonexpt_488_mol1.chk"
 Charge =  0 Multiplicity = 1

                         Standard orientation:
 ---------------------------------------------------------------------
 Center     Atomic      Atomic             Coordinates (Angstroms)
 Number     Number       Type             X           Y           Z
 ---------------------------------------------------------------------
      1          1           0       -1.101813    1.956420   -0.000004
      2          1           0       -2.748631    0.652781   -0.000007
      3          5           0       -1.585831    0.879816    0.000020
      4          6           0        1.020807    0.013406   -0.000002
      5          7           0        2.124865    0.357498    0.000011
      6         16           0       -0.576206   -0.599450   -0.000010
 ---------------------------------------------------------------------

 SCF Done:  E(RHF) =  -516.447236638     A.U. after    2 cycles

 The electronic state is 1-A.
 Alpha  occ. eigenvalues --  -75.75652 -15.78034 -13.23121 -13.16948 -13.08689
 Alpha  occ. eigenvalues --  -11.45219  -8.09894  -7.67340  -1.34195  -1.21549
 Alpha  occ. eigenvalues --   -0.85743  -0.66609  -0.56072  -0.51460  -0.50621
 Alpha  occ. eigenvalues --   -0.48649  -0.37256  -0.32498
 Alpha virt. eigenvalues --    0.02152   0.02944   0.03080   0.04463   0.08182
 Alpha virt. eigenvalues --    0.10345   0.10569   0.11245   0.12128   0.12470
 Alpha virt. eigenvalues --    0.13413   0.14552   0.16056   0.16252   0.16987

 Mulliken charges:
               1
     1  H   -2.320445
     2  H   -2.743073
     3  B    6.559246
     4  C    0.509949
     5  N   -1.863594
     6  S   -0.142083
 Sum of Mulliken charges =  -0.00000

 Dipole moment (field-independent basis, Debye):
    X=             -3.2662    Y=             -2.1491    Z=             -0.0000  Tot=              3.9098

 Test job not archived.
 1\1\GINC-SE458\SP\RHF\Aug-CC-pVDZ\C1H2B1N1S1\OHZDE\09-Apr-2025\0\\#t h
 f aug-cc-pvdz iop(5/13=1,5/36=2,99/5=2) pseudo=read geom=check guess=(
 read,tcheck) scf=(maxcycle=1)\\title\\0,1\H,0,-1.101813,1.95642,-0.000
 004\H,0,-2.748631,0.652781,-0.000007\B,0,-1.585831,0.879816,0.00002\C,
 0,1.020807,0.013406,-0.000002\N,0,2.124865,0.357498,0.000011\S,0,-0.57
 6206,-0.59945,-0.00001\\Version=ES64L-G16RevC.01\State=1-A\HF=-516.447
 2366\RMSD=1.598e-01\Dipole=-1.285005,-0.845534,-0.0000131\Quadrupole=-
 2.7125486,1.7414825,0.9710661,-0.0464941,-0.0000514,0.0000805\PG=C01 [

 Normal termination of Gaussian 16 at Wed Apr  9 00:35:49 2025.
