 Gaussian 16, Revision C.01,

 ----------------------------------------------------------------------
 #t hf aug-cc-pvdz symm=none int=(grid=ultrafine) guess=(read,tcheck) s
 table=(opt,rrhf)
 ----------------------------------------------------------------------
 -----
 title
 -----
 Symbolic Z-matrix:
 Charge =  0 Multiplicity = 1

 SCF Done:  E(RHF) =  -443.023596197     A.U. after   12 cycles
 Normal termination of Gaussian 16 at Tue Apr  8 23:57:22 2025.
 Gaussian 16:  ES64L-G16RevC.01  3-Jul-2019

 ----------------------------------------------------------------------
 #t hf aug-cc-pvdz iop(5/13=1,5/36=2,99/5=2) pseudo=read geom=check gue
 ss=(read,tcheck) scf=(maxcycle=1)
 ----------------------------------------------------------------------
 -----
 title
 -----
 Structure from the checkpoint file:  "BDE49_nonexpt_2038_mol1.chk"
 Charge =  0 Multiplicity = 1

                         Standard orientation:
 ---------------------------------------------------------------------
 Center     Atomic      Atomic             Coordinates (Angstroms)
 Number     Number       Type             X           Y           Z
 ---------------------------------------------------------------------
      1         14           0       -1.373278   -0.171797    0.000004
      2          6           0        0.533604    0.199564   -0.000064
      3          8           0        0.849403    1.371297    0.000016
      4          6           0        1.563437   -0.910518    0.000011
      5          1           0        1.423226   -1.549697    0.878673
      6          1           0        2.570481   -0.490164    0.000042
      7          1           0        1.423297   -1.549738   -0.878633
      8          1           0       -1.944069    0.456469   -1.210924
      9          1           0       -1.944013    0.456556    1.210914
     10          1           0       -1.680491   -1.622915    0.000061
 ---------------------------------------------------------------------

 SCF Done:  E(RHF) =  -443.873940714     A.U. after    2 cycles

 The electronic state is 1-A.
 Alpha  occ. eigenvalues --  -76.22986 -21.06488 -11.46977 -11.38820  -5.56488
 Alpha  occ. eigenvalues --   -2.20149  -2.18865  -2.18626  -1.70820  -1.11101
 Alpha  occ. eigenvalues --   -0.84154  -0.71597  -0.60862  -0.59657  -0.55140
 Alpha  occ. eigenvalues --   -0.49216  -0.48007  -0.46838  -0.42125  -0.26958
 Alpha virt. eigenvalues --    0.03164   0.04933   0.05628   0.06019   0.06993
 Alpha virt. eigenvalues --    0.07072   0.07739   0.09218   0.09559   0.12301
 Alpha virt. eigenvalues --    0.12690   0.13583   0.14157   0.15232   0.15665

 Mulliken charges:
               1
     1  Si   5.750389
     2  C    1.289797
     3  O   -2.535171
     4  C   -3.417211
     5  H    1.297991
     6  H    1.253242
     7  H    1.298026
     8  H   -1.696435
     9  H   -1.696421
    10  H   -1.544207
 Sum of Mulliken charges =  -0.00000

 Dipole moment (field-independent basis, Debye):
    X=              0.2676    Y=             -0.9413    Z=              0.0001  Tot=              0.9786

 Test job not archived.
 1\1\GINC-SE073\SP\RHF\Aug-CC-pVDZ\C2H6O1Si1\OHZDE\08-Apr-2025\0\\#t hf
  aug-cc-pvdz iop(5/13=1,5/36=2,99/5=2) pseudo=read geom=check guess=(r
 ead,tcheck) scf=(maxcycle=1)\\title\\0,1\Si,0,1.373278,-0.171797,-0.00
 0004\C,0,-0.533604,0.199564,0.000064\O,0,-0.849403,1.371297,-0.000016\
 C,0,-1.563437,-0.910518,-0.000011\H,0,-1.423226,-1.549697,-0.878673\H,
 0,-2.570481,-0.490164,-0.000042\H,0,-1.423297,-1.549738,0.878633\H,0,1
 .944069,0.45647,1.210924\H,0,1.944013,0.456557,-1.210914\H,0,1.680491,
 -1.622915,-0.000061\\Version=ES64L-G16RevC.01\State=1-A\HF=-443.873940

 Normal termination of Gaussian 16 at Tue Apr  8 23:57:25 2025.
