 Gaussian 16, Revision C.01,

 ----------------------------------------------------------------------
 #t hf aug-cc-pvdz symm=none int=(grid=ultrafine) guess=(read,tcheck) s
 table=opt
 ----------------------------------------------------------------------
 -----
 title
 -----
 Symbolic Z-matrix:
 Charge =  0 Multiplicity = 2

 SCF Done:  E(UHF) =  -266.247085196     A.U. after   18 cycles
 Normal termination of Gaussian 16 at Tue Apr  8 22:50:47 2025.
 Gaussian 16:  ES64L-G16RevC.01  3-Jul-2019

 ----------------------------------------------------------------------
 #t hf aug-cc-pvdz iop(5/13=1,5/36=2,99/5=2) pseudo=read geom=check gue
 ss=(read,tcheck) scf=(maxcycle=1)
 ----------------------------------------------------------------------
 -----
 title
 -----
 Structure from the checkpoint file:  "BDE49_expt_1717_mol2.chk"
 Charge =  0 Multiplicity = 2

                         Standard orientation:
 ---------------------------------------------------------------------
 Center     Atomic      Atomic             Coordinates (Angstroms)
 Number     Number       Type             X           Y           Z
 ---------------------------------------------------------------------
      1          6           0       -0.525448    0.125760   -0.000143
      2          8           0       -0.407930    1.336648    0.000056
      3          6           0       -1.786905   -0.581669    0.000029
      4          8           0        0.532776   -0.727218   -0.000050
      5          1           0       -1.819706   -1.662106    0.000022
      6          1           0       -2.696923    0.000505    0.000188
      7          6           0        1.824468   -0.101071    0.000040
      8          1           0        2.544631   -0.916467    0.000107
      9          1           0        1.950202    0.522270    0.887536
     10          1           0        1.950334    0.522243   -0.887457
 ---------------------------------------------------------------------

 SCF Done:  E(UHF) =  -267.385669977     A.U. after    2 cycles

 The electronic state is 2-A.
 Alpha  occ. eigenvalues --  -21.08684 -21.06147 -11.51024 -11.41921 -11.41297
 Alpha  occ. eigenvalues --   -1.83760  -1.66813  -1.12484  -0.99561  -0.76217
 Alpha  occ. eigenvalues --   -0.67343  -0.63583  -0.63225  -0.54471  -0.54234
 Alpha  occ. eigenvalues --   -0.53290  -0.42625  -0.35004  -0.33960  -0.30921
 Alpha virt. eigenvalues --    0.03444   0.05176   0.06048   0.06345   0.06803
 Alpha virt. eigenvalues --    0.09099   0.12465   0.12812   0.13995   0.14085
 Alpha virt. eigenvalues --    0.14485   0.15284   0.15785   0.18787   0.18985

  Beta  occ. eigenvalues --  -21.08689 -21.04951 -11.51522 -11.41342 -11.39950
  Beta  occ. eigenvalues --   -1.83453  -1.64834  -1.07366  -0.97212  -0.75488
  Beta  occ. eigenvalues --   -0.66942  -0.62945  -0.62491  -0.54051  -0.52937
  Beta  occ. eigenvalues --   -0.51099  -0.42200  -0.30787  -0.29757
  Beta virt. eigenvalues --    0.03532   0.05244   0.05899   0.06090   0.06351
  Beta virt. eigenvalues --    0.07015   0.09108   0.12958   0.14156   0.14227
  Beta virt. eigenvalues --    0.14571   0.15084   0.15418   0.16031   0.18824

 Mulliken charges and spin densities:
               1          2
     1  C    6.250321  -0.527082
     2  O   -3.044114   0.322610
     3  C   -4.487820   1.346353
     4  O   -3.074725  -0.009412
     5  H    1.578819  -0.062970
     6  H    1.549515  -0.063655
     7  C   -2.670546  -0.007771
     8  H    1.309163  -0.000384
     9  H    1.294679   0.001154
    10  H    1.294708   0.001159
 Sum of Mulliken charges =  -0.00000   1.00000

 Dipole moment (field-independent basis, Debye):
    X=              0.2559    Y=             -1.2946    Z=              0.0002  Tot=              1.3197
                          Isotropic Fermi Contact Couplings
        Atom                 a.u.       MegaHertz       Gauss      10(-4) cm-1
     1  C(13)             -0.05585     -62.79132     -22.40550     -20.94493
     2  O(17)              0.06810     -41.28414     -14.73121     -13.77091
     3  C(13)              0.11065     124.38901      44.38509      41.49171
     4  O(17)             -0.01101       6.67221       2.38081       2.22561
     5  H(1)              -0.01694     -75.69927     -27.01138     -25.25056
     6  H(1)              -0.01692     -75.62242     -26.98396     -25.22493
     7  C(13)             -0.00169      -1.89627      -0.67664      -0.63253
     8  H(1)               0.00008       0.34720       0.12389       0.11581

 Normal termination of Gaussian 16 at Tue Apr  8 22:50:50 2025.
