 Gaussian 16, Revision C.01,

 ----------------------------------------------------------------------
 #t hf aug-cc-pvdz symm=none int=(grid=ultrafine) guess=(read,tcheck) s
 table=(opt,rrhf)
 ----------------------------------------------------------------------
 -----
 title
 -----
 Symbolic Z-matrix:
 Charge =  0 Multiplicity = 1

 SCF Done:  E(RHF) =  -1367.80014929     A.U. after   14 cycles
 Normal termination of Gaussian 16 at Tue Apr  8 23:18:50 2025.
 Gaussian 16:  ES64L-G16RevC.01  3-Jul-2019

 ----------------------------------------------------------------------
 #t hf aug-cc-pvdz iop(5/13=1,5/36=2,99/5=2) pseudo=read geom=check gue
 ss=(read,tcheck) scf=(maxcycle=1)
 ----------------------------------------------------------------------
 -----
 title
 -----
 Structure from the checkpoint file:  "BDE49_nonexpt_1060_mol1.chk"
 Charge =  0 Multiplicity = 1

                         Standard orientation:
 ---------------------------------------------------------------------
 Center     Atomic      Atomic             Coordinates (Angstroms)
 Number     Number       Type             X           Y           Z
 ---------------------------------------------------------------------
      1         17           0        2.160684   -0.421967   -0.000570
      2          8           0        0.490485   -0.909900    0.000290
      3          6           0       -0.442334    0.075146    0.000938
      4         16           0       -0.223360    1.679261    0.000093
      5         16           0       -1.980910   -0.822147    0.000052
      6          1           0       -2.733199    0.287934   -0.000570
 ---------------------------------------------------------------------

 SCF Done:  E(RHF) =  -1368.97010283     A.U. after    2 cycles

 The electronic state is 1-A.
 Alpha  occ. eigenvalues --  -99.97341 -75.74100 -75.68257 -21.17615 -13.18981
 Alpha  occ. eigenvalues --  -13.15696 -13.15070 -13.05504 -13.02282 -12.99224
 Alpha  occ. eigenvalues --  -11.54028 -10.53981  -9.73857  -9.72997  -9.72857
 Alpha  occ. eigenvalues --   -8.08163  -8.02575  -1.86239  -1.31067  -1.21583
 Alpha  occ. eigenvalues --   -1.11738  -0.82017  -0.66336  -0.63417  -0.61525
 Alpha  occ. eigenvalues --   -0.54118  -0.52069  -0.50498  -0.41973  -0.33473
 Alpha  occ. eigenvalues --   -0.25841  -0.24061
 Alpha virt. eigenvalues --   -0.00028   0.03338   0.06222   0.06850   0.07677
 Alpha virt. eigenvalues --    0.08910   0.10673   0.12269   0.12592   0.13877
 Alpha virt. eigenvalues --    0.14981   0.16824   0.17193   0.17752   0.18300

 Mulliken charges:
               1
     1  Cl   0.662473
     2  O   -1.916692
     3  C   -0.379129
     4  S    1.011775
     5  S   -0.517350
     6  H    1.138923
 Sum of Mulliken charges =   0.00000

 Dipole moment (field-independent basis, Debye):
    X=             -2.7927    Y=             -0.1433    Z=             -0.0035  Tot=              2.7964

 Test job not archived.
 1\1\GINC-SE332\SP\RHF\Aug-CC-pVDZ\C1H1Cl1O1S2\OHZDE\08-Apr-2025\0\\#t
 hf aug-cc-pvdz iop(5/13=1,5/36=2,99/5=2) pseudo=read geom=check guess=
 (read,tcheck) scf=(maxcycle=1)\\title\\0,1\Cl,0,-2.160684,-0.421968,0.
 00057\O,0,-0.490485,-0.9099,-0.00029\C,0,0.442334,0.075146,-0.000938\S
 ,0,0.223359,1.679261,-0.000093\S,0,1.98091,-0.822146,-0.000052\H,0,2.7
 33199,0.287935,0.00057\\Version=ES64L-G16RevC.01\State=1-A\HF=-1368.97
 01028\RMSD=1.288e-01\Dipole=1.0987417,-0.0563878,0.0013721\Quadrupole=
 1.2430742,3.0230065,-4.2660807,-2.8521055,0.0038729,0.0033351\PG=C01 [

 Normal termination of Gaussian 16 at Tue Apr  8 23:18:52 2025.
