 Gaussian 16, Revision C.01,

 ----------------------------------------------------------------------
 #t hf aug-cc-pvdz symm=none int=(grid=ultrafine) guess=(read,tcheck) s
 table=(opt,rrhf)
 ----------------------------------------------------------------------
 -----
 title
 -----
 Symbolic Z-matrix:
 Charge =  0 Multiplicity = 1

 SCF Done:  E(RHF) =  -498.011154187     A.U. after   14 cycles
 Normal termination of Gaussian 16 at Tue Apr  8 23:59:03 2025.
 Gaussian 16:  ES64L-G16RevC.01  3-Jul-2019

 ----------------------------------------------------------------------
 #t hf aug-cc-pvdz iop(5/13=1,5/36=2,99/5=2) pseudo=read geom=check gue
 ss=(read,tcheck) scf=(maxcycle=1)
 ----------------------------------------------------------------------
 -----
 title
 -----
 Structure from the checkpoint file:  "BDE49_nonexpt_2065_mol1.chk"
 Charge =  0 Multiplicity = 1

                         Standard orientation:
 ---------------------------------------------------------------------
 Center     Atomic      Atomic             Coordinates (Angstroms)
 Number     Number       Type             X           Y           Z
 ---------------------------------------------------------------------
      1         14           0       -1.778512   -0.268191   -0.000001
      2          6           0        0.055459    0.154879   -0.000000
      3          7           0        0.829698   -0.866684   -0.000000
      4          8           0        2.189238   -0.498201    0.000001
      5          1           0        2.632441   -1.352799   -0.000000
      6          6           0        0.554501    1.579279    0.000002
      7          1           0       -0.268107    2.296027    0.000002
      8          1           0        1.181219    1.759439   -0.878120
      9          1           0        1.181218    1.759438    0.878125
     10          1           0       -1.974408   -1.730791   -0.000004
     11          1           0       -2.417370    0.335409   -1.195170
     12          1           0       -2.417371    0.335404    1.195170
 ---------------------------------------------------------------------

 SCF Done:  E(RHF) =  -499.113487788     A.U. after    2 cycles

 The electronic state is 1-A.
 Alpha  occ. eigenvalues --  -76.22143 -21.09586 -15.78484 -11.42555 -11.37430
 Alpha  occ. eigenvalues --   -5.55714  -2.19874  -2.18285  -2.17710  -1.78350
 Alpha  occ. eigenvalues --   -1.27264  -1.06263  -0.82662  -0.71128  -0.64507
 Alpha  occ. eigenvalues --   -0.59637  -0.59259  -0.52929  -0.49805  -0.47415
 Alpha  occ. eigenvalues --   -0.47247  -0.44543  -0.33682  -0.30812
 Alpha virt. eigenvalues --    0.03576   0.05056   0.05944   0.06305   0.06565
 Alpha virt. eigenvalues --    0.07113   0.07248   0.07890   0.09309   0.10617
 Alpha virt. eigenvalues --    0.12868   0.13406   0.13903   0.14834   0.15719

 Mulliken charges:
               1
     1  Si   6.382027
     2  C    0.741972
     3  N   -0.602022
     4  O   -2.284438
     5  H    0.910831
     6  C   -3.845922
     7  H    1.349609
     8  H    1.274150
     9  H    1.274150
    10  H   -1.749837
    11  H   -1.725259
    12  H   -1.725259
 Sum of Mulliken charges =   0.00000

 Dipole moment (field-independent basis, Debye):
    X=              1.1979    Y=              0.6043    Z=              0.0000  Tot=              1.3417

 Test job not archived.
 1\1\GINC-SE273\SP\RHF\Aug-CC-pVDZ\C2H7N1O1Si1\OHZDE\08-Apr-2025\0\\#t
 hf aug-cc-pvdz iop(5/13=1,5/36=2,99/5=2) pseudo=read geom=check guess=
 (read,tcheck) scf=(maxcycle=1)\\title\\0,1\Si,0,-1.778512,-0.268191,-0
 .000001\C,0,0.055459,0.154879,0.\N,0,0.829698,-0.866684,0.\O,0,2.18923
 8,-0.498201,0.000001\H,0,2.632441,-1.352799,0.\C,0,0.554501,1.579279,0
 .000002\H,0,-0.268107,2.296027,0.000002\H,0,1.181219,1.759439,-0.87812
 \H,0,1.181218,1.759438,0.878125\H,0,-1.974408,-1.730791,-0.000004\H,0,
 -2.41737,0.335409,-1.19517\H,0,-2.417371,0.335404,1.19517\\Version=ES6

 Normal termination of Gaussian 16 at Tue Apr  8 23:59:07 2025.
