 Gaussian 16, Revision C.01,

 ----------------------------------------------------------------------
 #t hf aug-cc-pvdz symm=none int=(grid=ultrafine) guess=(read,tcheck) s
 table=(opt,rrhf)
 ----------------------------------------------------------------------
 -----
 title
 -----
 Symbolic Z-matrix:
 Charge =  0 Multiplicity = 1

 SCF Done:  E(RHF) =  -766.136732755     A.U. after   15 cycles
 Normal termination of Gaussian 16 at Wed Apr  9 00:25:38 2025.
 Gaussian 16:  ES64L-G16RevC.01  3-Jul-2019

 ----------------------------------------------------------------------
 #t hf aug-cc-pvdz iop(5/13=1,5/36=2,99/5=2) pseudo=read geom=check gue
 ss=(read,tcheck) scf=(maxcycle=1)
 ----------------------------------------------------------------------
 -----
 title
 -----
 Structure from the checkpoint file:  "BDE49_nonexpt_2704_mol1.chk"
 Charge =  0 Multiplicity = 1

                         Standard orientation:
 ---------------------------------------------------------------------
 Center     Atomic      Atomic             Coordinates (Angstroms)
 Number     Number       Type             X           Y           Z
 ---------------------------------------------------------------------
      1          6           0       -1.065744    1.205584    0.259788
      2          6           0       -2.396062    1.205858   -0.149745
      3          6           0       -3.064023   -0.000001   -0.353953
      4          6           0       -2.396061   -1.205859   -0.149743
      5          6           0       -1.065743   -1.205583    0.259789
      6          6           0        1.056630    0.000002    0.910920
      7          6           0       -0.390541    0.000001    0.480777
      8         16           0        2.014437   -0.000002   -0.635003
      9          9           0        3.566075    0.000001    0.010766
     10          1           0        1.308954   -0.891911    1.485567
     11          1           0        1.308954    0.891917    1.485563
     12          1           0       -0.546092    2.144790    0.416685
     13          1           0       -2.910755    2.146549   -0.308625
     14          1           0       -4.100622   -0.000002   -0.671100
     15          1           0       -2.910753   -2.146550   -0.308622
     16          1           0       -0.546091   -2.144789    0.416688
 ---------------------------------------------------------------------

 SCF Done:  E(RHF) =  -768.006523997     A.U. after    2 cycles

 The electronic state is 1-A.
 Alpha  occ. eigenvalues --  -75.75090 -29.25823 -13.20312 -13.14632 -13.07507
 Alpha  occ. eigenvalues --  -11.53090 -11.45352 -11.44358 -11.42879 -11.42064
 Alpha  occ. eigenvalues --  -11.41653 -11.37488  -8.08933  -1.37709  -1.24329
 Alpha  occ. eigenvalues --   -1.11577  -1.10359  -0.98070  -0.87711  -0.84393
 Alpha  occ. eigenvalues --   -0.72024  -0.68309  -0.65197  -0.64421  -0.59225
 Alpha  occ. eigenvalues --   -0.57044  -0.54753  -0.52644  -0.46906  -0.45949
 Alpha  occ. eigenvalues --   -0.45532  -0.39075  -0.35294  -0.34225  -0.31181
 Alpha  occ. eigenvalues --   -0.26660  -0.17031
 Alpha virt. eigenvalues --    0.02896   0.04780   0.04806   0.05368   0.05786
 Alpha virt. eigenvalues --    0.06860   0.08435   0.08443   0.09745   0.10653
 Alpha virt. eigenvalues --    0.11093   0.11895   0.12618   0.13224   0.13561

 Mulliken charges:
               1
     1  C   -2.517655
     2  C   -1.416810
     3  C   -2.880252
     4  C   -1.416816
     5  C   -2.517648
     6  C   -5.133283
     7  C    4.776260
     8  S    1.112482
     9  F   -0.365955
    10  H    1.188738
    11  H    1.188738
    12  H    1.740050
    13  H    1.488542
    14  H    1.525015
    15  H    1.488543
    16  H    1.740050
 Sum of Mulliken charges =  -0.00000

 Dipole moment (field-independent basis, Debye):
    X=              1.4390    Y=              0.0000    Z=              0.3817  Tot=              1.4888

 Test job not archived.
 1\1\GINC-SE103\SP\RHF\Aug-CC-pVDZ\C7H7F1S1\OHZDE\09-Apr-2025\0\\#t hf
 aug-cc-pvdz iop(5/13=1,5/36=2,99/5=2) pseudo=read geom=check guess=(re
 ad,tcheck) scf=(maxcycle=1)\\title\\0,1\C,0,-1.065744,1.205584,0.25978
 8\C,0,-2.396062,1.205858,-0.149745\C,0,-3.064023,-0.000001,-0.353953\C
 ,0,-2.396061,-1.205859,-0.149743\C,0,-1.065743,-1.205583,0.259789\C,0,
 1.05663,0.000002,0.91092\C,0,-0.390541,0.000001,0.480777\S,0,2.014437,
 -0.000002,-0.635003\F,0,3.566075,0.000001,0.010766\H,0,1.308954,-0.891
 911,1.485567\H,0,1.308954,0.891917,1.485563\H,0,-0.546092,2.14479,0.41

 Normal termination of Gaussian 16 at Wed Apr  9 00:25:46 2025.
