 Gaussian 16, Revision C.01,

 ----------------------------------------------------------------------
 #t hf aug-cc-pvdz symm=none int=(grid=ultrafine) guess=(read,tcheck) s
 table=(opt,rrhf)
 ----------------------------------------------------------------------
 -----
 title
 -----
 Symbolic Z-matrix:
 Charge =  0 Multiplicity = 1

 SCF Done:  E(RHF) =  -761.193594573     A.U. after   14 cycles
 Normal termination of Gaussian 16 at Wed Apr  9 00:23:43 2025.
 Gaussian 16:  ES64L-G16RevC.01  3-Jul-2019

 ----------------------------------------------------------------------
 #t hf aug-cc-pvdz iop(5/13=1,5/36=2,99/5=2) pseudo=read geom=check gue
 ss=(read,tcheck) scf=(maxcycle=1)
 ----------------------------------------------------------------------
 -----
 title
 -----
 Structure from the checkpoint file:  "BDE49_nonexpt_2677_mol1.chk"
 Charge =  0 Multiplicity = 1

                         Standard orientation:
 ---------------------------------------------------------------------
 Center     Atomic      Atomic             Coordinates (Angstroms)
 Number     Number       Type             X           Y           Z
 ---------------------------------------------------------------------
      1          9           0       -1.919808    0.608113    0.082465
      2         16           0       -0.975726   -0.787213   -0.005296
      3          6           0        0.658514    0.058802   -0.028227
      4          8           0        1.547308   -0.972635   -0.310604
      5          1           0        1.926200   -1.239720    0.535435
      6          8           0        0.903943    0.623468    1.222382
      7          1           0        1.473702    1.388404    1.063241
      8          8           0        0.753476    0.995626   -1.036408
      9          1           0       -0.098910    1.449230   -1.089727
 ---------------------------------------------------------------------

 SCF Done:  E(RHF) =  -762.839653030     A.U. after    2 cycles

 The electronic state is 1-A.
 Alpha  occ. eigenvalues --  -75.76608 -29.28011 -21.11941 -21.11705 -21.11657
 Alpha  occ. eigenvalues --  -13.21612 -13.18344 -13.08912 -11.53657  -8.10596
 Alpha  occ. eigenvalues --   -1.89792  -1.70819  -1.70288  -1.21911  -0.91269
 Alpha  occ. eigenvalues --   -0.75014  -0.70952  -0.63468  -0.61895  -0.54958
 Alpha  occ. eigenvalues --   -0.51371  -0.46626  -0.40859  -0.39385  -0.36088
 Alpha  occ. eigenvalues --   -0.34951  -0.33474  -0.27033  -0.19098
 Alpha virt. eigenvalues --    0.03577   0.05430   0.06021   0.07642   0.11199
 Alpha virt. eigenvalues --    0.11885   0.12634   0.14082   0.14971   0.17227
 Alpha virt. eigenvalues --    0.18129   0.19200   0.20216   0.21171   0.22460

 Mulliken charges:
               1
     1  F   -0.334176
     2  S    1.119340
     3  C    5.548338
     4  O   -2.523406
     5  H    0.484135
     6  O   -2.469424
     7  H    0.434416
     8  O   -3.186636
     9  H    0.927414
 Sum of Mulliken charges =   0.00000

 Dipole moment (field-independent basis, Debye):
    X=             -1.6904    Y=              1.7317    Z=              0.4509  Tot=              2.4616

 Test job not archived.
 1\1\GINC-SE015\SP\RHF\Aug-CC-pVDZ\C1H3F1O3S1\OHZDE\09-Apr-2025\0\\#t h
 f aug-cc-pvdz iop(5/13=1,5/36=2,99/5=2) pseudo=read geom=check guess=(
 read,tcheck) scf=(maxcycle=1)\\title\\0,1\F,0,1.919808,-0.608114,0.082
 465\S,0,0.975726,0.787213,-0.005296\C,0,-0.658514,-0.058802,-0.028227\
 O,0,-1.547308,0.972635,-0.310604\H,0,-1.9262,1.23972,0.535435\O,0,-0.9
 03943,-0.623468,1.222382\H,0,-1.473702,-1.388404,1.063241\O,0,-0.75347
 6,-0.995626,-1.036408\H,0,0.09891,-1.44923,-1.089727\\Version=ES64L-G1
 6RevC.01\State=1-A\HF=-762.839653\RMSD=7.342e-02\Dipole=0.6650532,-0.6

 Normal termination of Gaussian 16 at Wed Apr  9 00:23:46 2025.
