 Gaussian 16, Revision C.01,

 ----------------------------------------------------------------------
 #t hf aug-cc-pvdz symm=none int=(grid=ultrafine) guess=(read,tcheck) s
 table=(opt,rrhf)
 ----------------------------------------------------------------------
 -----
 title
 -----
 Symbolic Z-matrix:
 Charge =  0 Multiplicity = 1

 SCF Done:  E(RHF) =  -362.193521066     A.U. after   12 cycles
 Normal termination of Gaussian 16 at Wed Apr  9 00:30:58 2025.
 Gaussian 16:  ES64L-G16RevC.01  3-Jul-2019

 ----------------------------------------------------------------------
 #t hf aug-cc-pvdz iop(5/13=1,5/36=2,99/5=2) pseudo=read geom=check gue
 ss=(read,tcheck) scf=(maxcycle=1)
 ----------------------------------------------------------------------
 -----
 title
 -----
 Structure from the checkpoint file:  "BDE49_nonexpt_357_mol1.chk"
 Charge =  0 Multiplicity = 1

                         Standard orientation:
 ---------------------------------------------------------------------
 Center     Atomic      Atomic             Coordinates (Angstroms)
 Number     Number       Type             X           Y           Z
 ---------------------------------------------------------------------
      1          9           0        1.662235   -0.731959   -0.000020
      2          9           0        0.690820    1.312710   -0.000048
      3          5           0        0.557580    0.002239    0.000047
      4          6           0       -0.838999   -0.713274    0.000035
      5          9           0       -1.896087    0.196501    0.000009
      6          1           0       -0.933323   -1.363398    0.879312
      7          1           0       -0.933299   -1.363419   -0.879229
 ---------------------------------------------------------------------

 SCF Done:  E(RHF) =  -363.498724499     A.U. after    2 cycles

 The electronic state is 1-A.
 Alpha  occ. eigenvalues --  -29.27290 -29.26730 -29.26504 -11.42718  -7.71156
 Alpha  occ. eigenvalues --   -1.26073  -1.05474  -0.78571  -0.67500  -0.66412
 Alpha  occ. eigenvalues --   -0.64703  -0.49826  -0.47281  -0.46306  -0.39848
 Alpha  occ. eigenvalues --   -0.35409  -0.33928  -0.30121  -0.26257  -0.22432
 Alpha virt. eigenvalues --    0.03289   0.03447   0.05620   0.06375   0.07872
 Alpha virt. eigenvalues --    0.08136   0.13321   0.14539   0.15907   0.16505
 Alpha virt. eigenvalues --    0.18118   0.19215   0.22424   0.23067   0.23211

 Mulliken charges:
               1
     1  F    0.070248
     2  F   -0.349317
     3  B    2.223606
     4  C   -4.475575
     5  F    0.248537
     6  H    1.141271
     7  H    1.141230
 Sum of Mulliken charges =   0.00000

 Dipole moment (field-independent basis, Debye):
    X=              0.9942    Y=              1.4828    Z=             -0.0002  Tot=              1.7852

 Test job not archived.
 1\1\GINC-SE120\SP\RHF\Aug-CC-pVDZ\C1H2B1F3\OHZDE\09-Apr-2025\0\\#t hf
 aug-cc-pvdz iop(5/13=1,5/36=2,99/5=2) pseudo=read geom=check guess=(re
 ad,tcheck) scf=(maxcycle=1)\\title\\0,1\F,0,1.662235,-0.731959,-0.0000
 2\F,0,0.69082,1.31271,-0.000048\B,0,0.55758,0.002239,0.000047\C,0,-0.8
 38999,-0.713274,0.000035\F,0,-1.896087,0.196501,0.000009\H,0,-0.933323
 ,-1.363398,0.879312\H,0,-0.933299,-1.363419,-0.879229\\Version=ES64L-G
 16RevC.01\State=1-A\HF=-363.4987245\RMSD=2.625e-01\Dipole=0.391134,0.5
 833744,-0.000076\Quadrupole=0.932422,1.0618414,-1.9942635,-1.7162365,-

 Normal termination of Gaussian 16 at Wed Apr  9 00:31:00 2025.
