 Gaussian 16, Revision C.01,

 ----------------------------------------------------------------------
 #t hf aug-cc-pvdz symm=none int=(grid=ultrafine) guess=(read,tcheck) s
 table=(opt,rrhf)
 ----------------------------------------------------------------------
 -----
 title
 -----
 Symbolic Z-matrix:
 Charge =  0 Multiplicity = 1

 SCF Done:  E(RHF) =  -212.778038649     A.U. after   12 cycles
 Normal termination of Gaussian 16 at Tue Apr  8 23:01:36 2025.
 Gaussian 16:  ES64L-G16RevC.01  3-Jul-2019

 ----------------------------------------------------------------------
 #t hf aug-cc-pvdz iop(5/13=1,5/36=2,99/5=2) pseudo=read geom=check gue
 ss=(read,tcheck) scf=(maxcycle=1)
 ----------------------------------------------------------------------
 -----
 title
 -----
 Structure from the checkpoint file:  "BDE49_expt_202_mol1.chk"
 Charge =  0 Multiplicity = 1

                         Standard orientation:
 ---------------------------------------------------------------------
 Center     Atomic      Atomic             Coordinates (Angstroms)
 Number     Number       Type             X           Y           Z
 ---------------------------------------------------------------------
      1          6           0       -0.131304    0.377651    0.000096
      2          8           0       -1.128364   -0.247492   -0.000037
      3          9           0        1.092177   -0.194796   -0.000032
      4          1           0       -0.014859    1.467194    0.000002
 ---------------------------------------------------------------------

 SCF Done:  E(RHF) =  -213.580534314     A.U. after    2 cycles

 The electronic state is 1-A.
 Alpha  occ. eigenvalues --  -29.31881 -21.11071 -11.55815  -1.77594  -1.07541
 Alpha  occ. eigenvalues --   -0.77086  -0.60605  -0.56465  -0.44443  -0.32930
 Alpha  occ. eigenvalues --   -0.30985  -0.29882
 Alpha virt. eigenvalues --    0.03789   0.09649   0.10079   0.11706   0.15599
 Alpha virt. eigenvalues --    0.16045   0.21222   0.22290   0.25488   0.26569
 Alpha virt. eigenvalues --    0.30318   0.32621   0.33000   0.35382   0.37360

 Mulliken charges:
               1
     1  C    0.215716
     2  O   -2.305665
     3  F    0.700601
     4  H    1.389348
 Sum of Mulliken charges =   0.00000

 Dipole moment (field-independent basis, Debye):
    X=              3.0714    Y=              0.0980    Z=             -0.0002  Tot=              3.0730

 Test job not archived.
 1\1\GINC-SE074\SP\RHF\Aug-CC-pVDZ\C1H1F1O1\OHZDE\08-Apr-2025\0\\#t hf
 aug-cc-pvdz iop(5/13=1,5/36=2,99/5=2) pseudo=read geom=check guess=(re
 ad,tcheck) scf=(maxcycle=1)\\title\\0,1\C,0,-0.131304,0.377651,0.00009
 6\O,0,-1.128364,-0.247492,-0.000037\F,0,1.092177,-0.194796,-0.000032\H
 ,0,-0.014859,1.467194,0.000002\\Version=ES64L-G16RevC.01\State=1-A\HF=
 -213.5805343\RMSD=5.152e-02\Dipole=1.2083972,0.0385647,-0.0000661\Quad
 rupole=-0.4026109,0.0820428,0.320568,-0.705221,-0.0000974,-0.0000215\P
 G=C01 [X(C1H1F1O1)]\\@

 Normal termination of Gaussian 16 at Tue Apr  8 23:01:37 2025.
