 Gaussian 16, Revision C.01,

 ----------------------------------------------------------------------
 #t hf aug-cc-pvdz symm=none int=(grid=ultrafine) guess=(read,tcheck) s
 table=(opt,rrhf)
 ----------------------------------------------------------------------
 -----
 title
 -----
 Symbolic Z-matrix:
 Charge =  0 Multiplicity = 1

 SCF Done:  E(RHF) =  -270.065888601     A.U. after   14 cycles

 1\1\GINC-SE338\Stability\RHF\Aug-CC-pVDZ\C5H10O1\OHZDE\08-Apr-2025\0\\
 #t hf aug-cc-pvdz symm=none int=(grid=ultrafine) guess=(read,tcheck) s
 table=(opt,rrhf)\\title\\0,1\C,0,-0.127626,-0.91749,-0.234809\C,0,-1.5
 29182,-0.37421,-0.52327\C,0,-2.165748,0.337937,0.674336\H,0,-2.168545,
 -1.205394,-0.838297\H,0,-1.467211,0.318065,-1.367219\H,0,-2.249945,-0.
 33314,1.535742\H,0,-3.171635,0.689965,0.430781\H,0,-1.573908,1.20563,0
 .972879\C,0,0.954738,0.150699,-0.112305\H,0,0.197538,-1.589848,-1.0409
 33\H,0,-0.118858,-1.534906,0.672754\O,0,0.762949,1.301802,-0.433733\C,

 Normal termination of Gaussian 16 at Tue Apr  8 22:36:45 2025.
 Gaussian 16:  ES64L-G16RevC.01  3-Jul-2019

 ----------------------------------------------------------------------
 #t hf aug-cc-pvdz iop(5/13=1,5/36=2,99/5=2) pseudo=read geom=check gue
 ss=(read,tcheck) scf=(maxcycle=1)
 ----------------------------------------------------------------------
 -----
 title
 -----
 Structure from the checkpoint file:  "BDE49_expt_1088_mol1.chk"
 Charge =  0 Multiplicity = 1

                         Standard orientation:
 ---------------------------------------------------------------------
 Center     Atomic      Atomic             Coordinates (Angstroms)
 Number     Number       Type             X           Y           Z
 ---------------------------------------------------------------------
      1          6           0       -0.127626   -0.917490   -0.234809
      2          6           0       -1.529182   -0.374210   -0.523270
      3          6           0       -2.165748    0.337937    0.674336
      4          1           0       -2.168545   -1.205394   -0.838297
      5          1           0       -1.467211    0.318065   -1.367219
      6          1           0       -2.249945   -0.333140    1.535742
      7          1           0       -3.171635    0.689965    0.430781
      8          1           0       -1.573908    1.205630    0.972879
      9          6           0        0.954738    0.150699   -0.112305
     10          1           0        0.197538   -1.589848   -1.040933
     11          1           0       -0.118858   -1.534906    0.672754
     12          8           0        0.762949    1.301802   -0.433733
     13          6           0        2.297551   -0.310243    0.426254
     14          1           0        2.207223   -0.512344    1.499100
     15          1           0        3.043673    0.468500    0.272974
     16          1           0        2.619677   -1.241092   -0.049145
 ---------------------------------------------------------------------

 SCF Done:  E(RHF) =  -271.366855335     A.U. after    2 cycles

 The electronic state is 1-A.
 Alpha  occ. eigenvalues --  -21.04561 -11.49100 -11.42301 -11.39164 -11.38254
 Alpha  occ. eigenvalues --  -11.35064  -1.70417  -1.22548  -1.10893  -1.01021
 Alpha  occ. eigenvalues --   -0.86496  -0.73254  -0.64893  -0.63461  -0.59486
 Alpha  occ. eigenvalues --   -0.58084  -0.55945  -0.53515  -0.48838  -0.46452
 Alpha  occ. eigenvalues --   -0.45656  -0.44497  -0.40348  -0.28002
 Alpha virt. eigenvalues --    0.03461   0.05117   0.05167   0.05519   0.05860
 Alpha virt. eigenvalues --    0.06348   0.06433   0.07463   0.07923   0.08727
 Alpha virt. eigenvalues --    0.10812   0.12702   0.13544   0.13891   0.14175

 Mulliken charges:
               1
     1  C   -3.354891
     2  C   -3.052547
     3  C   -3.628589
     4  H    1.252995
     5  H    1.477208
     6  H    1.275158
     7  H    1.163372
     8  H    1.345819
     9  C    4.587848
    10  H    1.443146
    11  H    1.663311
    12  O   -3.332226
    13  C   -4.676674
    14  H    1.255248
    15  H    1.264690
    16  H    1.316129
 Sum of Mulliken charges =   0.00000

 Dipole moment (field-independent basis, Debye):
    X=              0.0973    Y=             -1.2126    Z=              0.2005  Tot=              1.2329

 Test job not archived.
 1\1\GINC-SE338\SP\RHF\Aug-CC-pVDZ\C5H10O1\OHZDE\08-Apr-2025\0\\#t hf a
 ug-cc-pvdz iop(5/13=1,5/36=2,99/5=2) pseudo=read geom=check guess=(rea
 d,tcheck) scf=(maxcycle=1)\\title\\0,1\C,0,-0.127626,-0.91749,-0.23480
 9\C,0,-1.529182,-0.37421,-0.52327\C,0,-2.165748,0.337937,0.674336\H,0,
 -2.168545,-1.205394,-0.838297\H,0,-1.467211,0.318065,-1.367219\H,0,-2.
 249945,-0.33314,1.535742\H,0,-3.171635,0.689965,0.430781\H,0,-1.573908
 ,1.20563,0.972879\C,0,0.954738,0.150699,-0.112305\H,0,0.197538,-1.5898
 48,-1.040933\H,0,-0.118858,-1.534906,0.672754\O,0,0.762949,1.301802,-0

 Normal termination of Gaussian 16 at Tue Apr  8 22:36:49 2025.
