 Gaussian 16, Revision C.01,

 ----------------------------------------------------------------------
 #t hf aug-cc-pvdz symm=none int=(grid=ultrafine) guess=(read,tcheck) s
 table=(opt,rrhf)
 ----------------------------------------------------------------------
 -----
 title
 -----
 Symbolic Z-matrix:
 Charge =  0 Multiplicity = 1

 SCF Done:  E(RHF) =  -634.777847458     A.U. after   15 cycles
 Normal termination of Gaussian 16 at Wed Apr  9 00:08:12 2025.
 Gaussian 16:  ES64L-G16RevC.01  3-Jul-2019

 ----------------------------------------------------------------------
 #t hf aug-cc-pvdz iop(5/13=1,5/36=2,99/5=2) pseudo=read geom=check gue
 ss=(read,tcheck) scf=(maxcycle=1)
 ----------------------------------------------------------------------
 -----
 title
 -----
 Structure from the checkpoint file:  "BDE49_nonexpt_2242_mol1.chk"
 Charge =  0 Multiplicity = 1

                         Standard orientation:
 ---------------------------------------------------------------------
 Center     Atomic      Atomic             Coordinates (Angstroms)
 Number     Number       Type             X           Y           Z
 ---------------------------------------------------------------------
      1          6           0       -3.724355    0.562681   -0.000000
      2         14           0       -2.220785   -0.534688    0.000001
      3          1           0       -4.635655   -0.043104    0.000002
      4          1           0       -3.740705    1.202789   -0.885658
      5          1           0       -3.740704    1.202793    0.885654
      6          8           0       -0.902443    0.483804   -0.000003
      7          6           0        0.439706    0.223636   -0.000001
      8          6           0        1.305068    1.320545   -0.000002
      9          6           0        0.960436   -1.072647    0.000001
     10          6           0        2.341323   -1.262882    0.000002
     11          6           0        3.207509   -0.173378    0.000002
     12          6           0        2.680341    1.118290   -0.000000
     13          1           0        0.878828    2.316318   -0.000003
     14          1           0        3.344269    1.975638   -0.000001
     15          1           0        0.295349   -1.929023    0.000001
     16          1           0        2.736859   -2.272499    0.000004
     17          1           0        4.280056   -0.327229    0.000003
     18          1           0       -2.183965   -1.403976   -1.201242
     19          1           0       -2.183962   -1.403971    1.201247
 ---------------------------------------------------------------------

 SCF Done:  E(RHF) =  -636.562379369     A.U. after    2 cycles

 The electronic state is 1-A.
 Alpha  occ. eigenvalues --  -76.23350 -21.06230 -11.53051 -11.45631 -11.42533
 Alpha  occ. eigenvalues --  -11.40340 -11.40020 -11.36219 -11.35400  -5.57144
 Alpha  occ. eigenvalues --   -2.23928  -2.20358  -2.18642  -1.73475  -1.31484
 Alpha  occ. eigenvalues --   -1.09299  -1.07381  -1.03613  -0.87319  -0.84717
 Alpha  occ. eigenvalues --   -0.73516  -0.70046  -0.64193  -0.59051  -0.58271
 Alpha  occ. eigenvalues --   -0.57584  -0.57335  -0.54645  -0.54193  -0.48144
 Alpha  occ. eigenvalues --   -0.46497  -0.45538  -0.42792  -0.42028  -0.36977
 Alpha  occ. eigenvalues --   -0.33114  -0.28200
 Alpha virt. eigenvalues --    0.03383   0.04284   0.04859   0.05519   0.06289
 Alpha virt. eigenvalues --    0.06413   0.06825   0.07066   0.07835   0.08496
 Alpha virt. eigenvalues --    0.08544   0.10206   0.10432   0.11694   0.12406

 Mulliken charges:
               1
     1  C   -5.117702
     2  Si   6.391389
     3  H    1.231908
     4  H    1.311646
     5  H    1.311647
     6  O   -5.530216
     7  C    6.628524
     8  C   -4.060107
     9  C   -3.856386
    10  C   -0.300370
    11  C   -2.593709
    12  C    0.298021
    13  H    1.842698
    14  H    1.487710
    15  H    1.894463
    16  H    1.481941
    17  H    1.536763
    18  H   -1.979110
    19  H   -1.979111
 Sum of Mulliken charges =   0.00000

 Dipole moment (field-independent basis, Debye):
    X=             -0.5524    Y=              0.6312    Z=              0.0000  Tot=              0.8388

 Test job not archived.
 1\1\GINC-SE094\SP\RHF\Aug-CC-pVDZ\C7H10O1Si1\OHZDE\09-Apr-2025\0\\#t h
 f aug-cc-pvdz iop(5/13=1,5/36=2,99/5=2) pseudo=read geom=check guess=(
 read,tcheck) scf=(maxcycle=1)\\title\\0,1\C,0,-3.724355,0.562681,0.\Si
 ,0,-2.220785,-0.534688,0.000001\H,0,-4.635655,-0.043104,0.000002\H,0,-
 3.740705,1.202789,-0.885658\H,0,-3.740704,1.202793,0.885654\O,0,-0.902
 443,0.483804,-0.000003\C,0,0.439706,0.223636,-0.000001\C,0,1.305068,1.
 320545,-0.000002\C,0,0.960436,-1.072647,0.000001\C,0,2.341323,-1.26288
 2,0.000002\C,0,3.207509,-0.173378,0.000002\C,0,2.680341,1.11829,0.\H,0

 Normal termination of Gaussian 16 at Wed Apr  9 00:08:21 2025.
