 Gaussian 16, Revision C.01,

 ----------------------------------------------------------------------
 #t hf aug-cc-pvdz symm=none int=(grid=ultrafine) guess=(read,tcheck) s
 table=(opt,rrhf)
 ----------------------------------------------------------------------
 -----
 title
 -----
 Symbolic Z-matrix:
 Charge =  0 Multiplicity = 1

 SCF Done:  E(RHF) =  -182.556591885     A.U. after   13 cycles

 1\1\GINC-SE116\Stability\RHF\Aug-CC-pVDZ\C4H11B1\OHZDE\09-Apr-2025\0\\
 #t hf aug-cc-pvdz symm=none int=(grid=ultrafine) guess=(read,tcheck) s
 table=(opt,rrhf)\\title\\0,1\B,0,-1.105794,1.439337,-0.301141\C,0,-0.6
 24048,0.12269,0.370621\H,0,-1.14885,0.302641,1.341023\C,0,0.88083,0.03
 9645,0.707134\C,0,1.785828,-0.082149,-0.524437\H,0,1.062084,-0.814522,
 1.371461\H,0,1.166336,0.934721,1.269558\H,0,1.576195,-0.990114,-1.0962
 28\H,0,2.8398,-0.114742,-0.235273\C,0,-1.198854,-1.188165,-0.197803\H,
 0,-2.284919,-1.129639,-0.302722\H,0,-0.966648,-2.041392,0.448131\H,0,-

 Normal termination of Gaussian 16 at Wed Apr  9 00:25:00 2025.
 Gaussian 16:  ES64L-G16RevC.01  3-Jul-2019

 ----------------------------------------------------------------------
 #t hf aug-cc-pvdz iop(5/13=1,5/36=2,99/5=2) pseudo=read geom=check gue
 ss=(read,tcheck) scf=(maxcycle=1)
 ----------------------------------------------------------------------
 -----
 title
 -----
 Structure from the checkpoint file:  "BDE49_nonexpt_269_mol1.chk"
 Charge =  0 Multiplicity = 1

                         Standard orientation:
 ---------------------------------------------------------------------
 Center     Atomic      Atomic             Coordinates (Angstroms)
 Number     Number       Type             X           Y           Z
 ---------------------------------------------------------------------
      1          5           0       -1.105794    1.439337   -0.301141
      2          6           0       -0.624048    0.122690    0.370621
      3          1           0       -1.148850    0.302641    1.341023
      4          6           0        0.880830    0.039645    0.707134
      5          6           0        1.785828   -0.082149   -0.524437
      6          1           0        1.062084   -0.814522    1.371461
      7          1           0        1.166336    0.934721    1.269558
      8          1           0        1.576195   -0.990114   -1.096228
      9          1           0        2.839800   -0.114742   -0.235273
     10          6           0       -1.198854   -1.188165   -0.197803
     11          1           0       -2.284919   -1.129639   -0.302722
     12          1           0       -0.966648   -2.041392    0.448131
     13          1           0       -0.790188   -1.407425   -1.187921
     14          1           0        1.654219    0.773084   -1.195832
     15          1           0       -0.487376    2.453560   -0.166289
     16          1           0       -2.154216    1.485022   -0.873291
 ---------------------------------------------------------------------

 SCF Done:  E(RHF) =  -183.520345473     A.U. after    2 cycles

 The electronic state is 1-A.
 Alpha  occ. eigenvalues --  -11.41125 -11.38693 -11.36318 -11.33260  -7.60250
 Alpha  occ. eigenvalues --   -1.24984  -1.07438  -0.94713  -0.86830  -0.73171
 Alpha  occ. eigenvalues --   -0.62574  -0.61200  -0.57081  -0.53358  -0.52465
 Alpha  occ. eigenvalues --   -0.49099  -0.46740  -0.43918  -0.40654  -0.38474
 Alpha virt. eigenvalues --    0.03567   0.03927   0.04193   0.04430   0.05975
 Alpha virt. eigenvalues --    0.06330   0.06671   0.06972   0.07320   0.09147
 Alpha virt. eigenvalues --    0.09526   0.09713   0.11044   0.11563   0.12882

 Mulliken charges:
               1
     1  B    7.913291
     2  C   -1.834502
     3  H    1.770493
     4  C   -2.986006
     5  C   -3.830345
     6  H    1.364557
     7  H    1.271023
     8  H    1.431622
     9  H    1.111736
    10  C   -3.814578
    11  H    1.244042
    12  H    1.211226
    13  H    1.368946
    14  H    1.225191
    15  H   -3.716285
    16  H   -3.730412
 Sum of Mulliken charges =   0.00000

 Dipole moment (field-independent basis, Debye):
    X=              0.2355    Y=             -0.5542    Z=              0.4457  Tot=              0.7491

 Test job not archived.
 1\1\GINC-SE116\SP\RHF\Aug-CC-pVDZ\C4H11B1\OHZDE\09-Apr-2025\0\\#t hf a
 ug-cc-pvdz iop(5/13=1,5/36=2,99/5=2) pseudo=read geom=check guess=(rea
 d,tcheck) scf=(maxcycle=1)\\title\\0,1\B,0,-1.105794,1.439337,-0.30114
 1\C,0,-0.624048,0.12269,0.370621\H,0,-1.14885,0.302641,1.341023\C,0,0.
 88083,0.039645,0.707134\C,0,1.785828,-0.082149,-0.524437\H,0,1.062084,
 -0.814522,1.371461\H,0,1.166336,0.934721,1.269558\H,0,1.576195,-0.9901
 14,-1.096228\H,0,2.8398,-0.114742,-0.235273\C,0,-1.198854,-1.188165,-0
 .197803\H,0,-2.284919,-1.129639,-0.302722\H,0,-0.966648,-2.041392,0.44

 Normal termination of Gaussian 16 at Wed Apr  9 00:25:05 2025.
