 Gaussian 16, Revision C.01,

 ----------------------------------------------------------------------
 #t hf aug-cc-pvdz symm=none int=(grid=ultrafine) guess=(read,tcheck) s
 table=(opt,rrhf)
 ----------------------------------------------------------------------
 -----
 title
 -----
 Symbolic Z-matrix:
 Charge =  0 Multiplicity = 1

 SCF Done:  E(RHF) =  -383.394027030     A.U. after   13 cycles
 Normal termination of Gaussian 16 at Tue Apr  8 22:37:45 2025.
 Gaussian 16:  ES64L-G16RevC.01  3-Jul-2019

 ----------------------------------------------------------------------
 #t hf aug-cc-pvdz iop(5/13=1,5/36=2,99/5=2) pseudo=read geom=check gue
 ss=(read,tcheck) scf=(maxcycle=1)
 ----------------------------------------------------------------------
 -----
 title
 -----
 Structure from the checkpoint file:  "BDE49_expt_106_mol1.chk"
 Charge =  0 Multiplicity = 1

                         Standard orientation:
 ---------------------------------------------------------------------
 Center     Atomic      Atomic             Coordinates (Angstroms)
 Number     Number       Type             X           Y           Z
 ---------------------------------------------------------------------
      1          6           0        0.000000    1.243675    1.400396
      2          6           0        0.000000    2.429330    0.707675
      3          6           0        0.000000    2.429330   -0.707675
      4          6           0        0.000000    1.243675   -1.400396
      5          6           0        0.000000    0.000000   -0.715236
      6          6           0       -0.000000    0.000000    0.715236
      7          6           0       -0.000000   -1.243675    1.400396
      8          6           0       -0.000000   -2.429330    0.707675
      9          6           0       -0.000000   -2.429330   -0.707675
     10          6           0       -0.000000   -1.243675   -1.400396
     11          1           0        0.000000   -1.241383   -2.485579
     12          1           0        0.000000   -3.372433   -1.242578
     13          1           0       -0.000000   -1.241383    2.485579
     14          1           0       -0.000000   -3.372433    1.242578
     15          1           0        0.000000    1.241383    2.485579
     16          1           0        0.000000    3.372433    1.242578
     17          1           0        0.000000    3.372433   -1.242578
     18          1           0        0.000000    1.241383   -2.485579
 ---------------------------------------------------------------------

 SCF Done:  E(RHF) =  -385.231995681     A.U. after    2 cycles

 The electronic state is 1-AG.
 Alpha  occ. eigenvalues --  -11.51998 -11.49341 -11.44614 -11.43369 -11.42635
 Alpha  occ. eigenvalues --  -11.41354 -11.41323 -11.40870 -11.38886 -11.36159
 Alpha  occ. eigenvalues --   -1.39302  -1.23503  -1.14056  -1.07768  -1.04144
 Alpha  occ. eigenvalues --   -0.89329  -0.86926  -0.84559  -0.72399  -0.70171
 Alpha  occ. eigenvalues --   -0.67294  -0.63111  -0.57131  -0.57128  -0.54444
 Alpha  occ. eigenvalues --   -0.53369  -0.53301  -0.48348  -0.44303  -0.42141
 Alpha  occ. eigenvalues --   -0.42092  -0.38101  -0.31259  -0.27465
 Alpha virt. eigenvalues --    0.03366   0.04637   0.05061   0.05801   0.06221
 Alpha virt. eigenvalues --    0.06573   0.06861   0.09147   0.09271   0.10225
 Alpha virt. eigenvalues --    0.10298   0.11474   0.11742   0.12453   0.12528

 Mulliken charges:
               1
     1  C   -2.143208
     2  C   -3.893215
     3  C   -3.893215
     4  C   -2.143208
     5  C    5.723752
     6  C    5.723752
     7  C   -2.143208
     8  C   -3.893215
     9  C   -3.893215
    10  C   -2.143208
    11  H    1.690751
    12  H    1.483795
    13  H    1.690751
    14  H    1.483795
    15  H    1.690751
    16  H    1.483795
    17  H    1.483795
    18  H    1.690751
 Sum of Mulliken charges =  -0.00000

 Dipole moment (field-independent basis, Debye):
    X=              0.0000    Y=              0.0000    Z=              0.0000  Tot=              0.0000

 Test job not archived.
 1\1\GINC-SE212\SP\RHF\Aug-CC-pVDZ\C10H8\OHZDE\08-Apr-2025\0\\#t hf aug
 -cc-pvdz iop(5/13=1,5/36=2,99/5=2) pseudo=read geom=check guess=(read,
 tcheck) scf=(maxcycle=1)\\title\\0,1\C,0,0.,1.243675,1.400396\C,0,0.,2
 .42933,0.707675\C,0,0.,2.42933,-0.707675\C,0,0.,1.243675,-1.400396\C,0
 ,0.,0.,-0.715236\C,0,0.,0.,0.715236\C,0,0.,-1.243675,1.400396\C,0,0.,-
 2.42933,0.707675\C,0,0.,-2.42933,-0.707675\C,0,0.,-1.243675,-1.400396\
 H,0,0.,-1.241383,-2.485579\H,0,0.,-3.372433,-1.242578\H,0,0.,-1.241383
 ,2.485579\H,0,0.,-3.372433,1.242578\H,0,0.,1.241383,2.485579\H,0,0.,3.

 Normal termination of Gaussian 16 at Tue Apr  8 22:37:52 2025.
