 Gaussian 16, Revision C.01,

 ----------------------------------------------------------------------
 #t hf aug-cc-pvdz symm=none int=(grid=ultrafine) guess=(read,tcheck) s
 table=(opt,rrhf)
 ----------------------------------------------------------------------
 -----
 title
 -----
 Symbolic Z-matrix:
 Charge =  0 Multiplicity = 1

 SCF Done:  E(RHF) =  -764.837809376     A.U. after   14 cycles
 Normal termination of Gaussian 16 at Tue Apr  8 22:37:47 2025.
 Gaussian 16:  ES64L-G16RevC.01  3-Jul-2019

 ----------------------------------------------------------------------
 #t hf aug-cc-pvdz iop(5/13=1,5/36=2,99/5=2) pseudo=read geom=check gue
 ss=(read,tcheck) scf=(maxcycle=1)
 ----------------------------------------------------------------------
 -----
 title
 -----
 Structure from the checkpoint file:  "BDE49_expt_1132_mol1.chk"
 Charge =  0 Multiplicity = 1

                         Standard orientation:
 ---------------------------------------------------------------------
 Center     Atomic      Atomic             Coordinates (Angstroms)
 Number     Number       Type             X           Y           Z
 ---------------------------------------------------------------------
      1          6           0       -1.083257    0.160090   -0.000020
      2          8           0       -1.293235    1.347800    0.000010
      3          8           0       -2.051278   -0.774813   -0.000011
      4          6           0        0.288201   -0.486036   -0.000023
      5          6           0       -3.403820   -0.276387    0.000013
      6          1           0       -4.037926   -1.159733    0.000014
      7          1           0       -3.586772    0.329334   -0.888610
      8          1           0       -3.586747    0.329319    0.888651
      9          6           0        1.390185    0.561088    0.000014
     10          1           0        0.366728   -1.137683   -0.874445
     11          1           0        0.366713   -1.137731    0.874366
     12          1           0        1.350026    1.191257    0.884936
     13         17           0        3.022717   -0.231911    0.000004
     14          1           0        1.350038    1.191306   -0.884873
 ---------------------------------------------------------------------

 SCF Done:  E(RHF) =  -766.446751115     A.U. after    2 cycles

 The electronic state is 1-A.
 Alpha  occ. eigenvalues --  -99.88010 -21.10217 -21.06147 -11.53784 -11.46574
 Alpha  occ. eigenvalues --  -11.42491 -11.41341 -10.45241  -9.65193  -9.64449
 Alpha  occ. eigenvalues --   -9.64349  -1.85316  -1.67410  -1.33741  -1.16662
 Alpha  occ. eigenvalues --   -1.03463  -0.93210  -0.76736  -0.69430  -0.69124
 Alpha  occ. eigenvalues --   -0.63642  -0.61441  -0.59700  -0.57434  -0.54879
 Alpha  occ. eigenvalues --   -0.53026  -0.48947  -0.47194  -0.47151  -0.42599
 Alpha  occ. eigenvalues --   -0.33487  -0.31047
 Alpha virt. eigenvalues --    0.03068   0.04932   0.05538   0.05697   0.06317
 Alpha virt. eigenvalues --    0.06687   0.06976   0.07649   0.09680   0.11163
 Alpha virt. eigenvalues --    0.12857   0.13758   0.14005   0.14151   0.15045

 Mulliken charges:
               1
     1  C    6.101810
     2  O   -2.948145
     3  O   -3.240788
     4  C   -3.370945
     5  C   -3.055155
     6  H    1.395226
     7  H    1.309097
     8  H    1.309100
     9  C   -3.534574
    10  H    1.487576
    11  H    1.487559
    12  H    1.529695
    13  Cl  -0.000152
    14  H    1.529696
 Sum of Mulliken charges =   0.00000

 Dipole moment (field-independent basis, Debye):
    X=             -2.9151    Y=             -0.3247    Z=              0.0000  Tot=              2.9332

 Test job not archived.
 1\1\GINC-SE343\SP\RHF\Aug-CC-pVDZ\C4H7Cl1O2\OHZDE\08-Apr-2025\0\\#t hf
  aug-cc-pvdz iop(5/13=1,5/36=2,99/5=2) pseudo=read geom=check guess=(r
 ead,tcheck) scf=(maxcycle=1)\\title\\0,1\C,0,-1.083257,0.16009,-0.0000
 2\O,0,-1.293235,1.3478,0.00001\O,0,-2.051278,-0.774813,-0.000011\C,0,0
 .288201,-0.486036,-0.000023\C,0,-3.40382,-0.276387,0.000013\H,0,-4.037
 926,-1.159733,0.000014\H,0,-3.586772,0.329334,-0.88861\H,0,-3.586747,0
 .329319,0.888651\C,0,1.390185,0.561088,0.000014\H,0,0.366728,-1.137683
 ,-0.874445\H,0,0.366713,-1.137731,0.874366\H,0,1.350026,1.191257,0.884

 Normal termination of Gaussian 16 at Tue Apr  8 22:37:52 2025.
