 Gaussian 16, Revision C.01,

 ----------------------------------------------------------------------
 #t hf aug-cc-pvdz symm=none int=(grid=ultrafine) guess=(read,tcheck) s
 table=opt
 ----------------------------------------------------------------------
 -----
 title
 -----
 Symbolic Z-matrix:
 Charge =  0 Multiplicity = 2

 SCF Done:  E(UHF) =  -764.212203089     A.U. after   19 cycles
 Normal termination of Gaussian 16 at Tue Apr  8 22:52:14 2025.
 Gaussian 16:  ES64L-G16RevC.01  3-Jul-2019

 ----------------------------------------------------------------------
 #t hf aug-cc-pvdz iop(5/13=1,5/36=2,99/5=2) pseudo=read geom=check gue
 ss=(read,tcheck) scf=(maxcycle=1)
 ----------------------------------------------------------------------
 -----
 title
 -----
 Structure from the checkpoint file:  "BDE49_expt_1718_mol2.chk"
 Charge =  0 Multiplicity = 2

                         Standard orientation:
 ---------------------------------------------------------------------
 Center     Atomic      Atomic             Coordinates (Angstroms)
 Number     Number       Type             X           Y           Z
 ---------------------------------------------------------------------
      1          6           0       -0.144027    0.931850   -0.000117
      2          8           0        0.251035    2.082504    0.000044
      3          6           0       -1.563312    0.625930    0.000015
      4          8           0        0.651991   -0.152049   -0.000075
      5         17           0       -2.200484   -0.954526    0.000028
      6          1           0       -2.275416    1.436938    0.000144
      7          6           0        2.076785    0.110048   -0.000010
      8          6           0        2.783128   -1.229451    0.000031
      9          1           0        2.322407    0.706113    0.882193
     10          1           0        2.322485    0.706101   -0.882200
     11          1           0        2.516809   -1.809833    0.885813
     12          1           0        3.865410   -1.076425    0.000078
     13          1           0        2.516888   -1.809845   -0.885768
 ---------------------------------------------------------------------

 SCF Done:  E(UHF) =  -765.787293874     A.U. after    2 cycles

 The electronic state is 2-A.
 Alpha  occ. eigenvalues --  -99.91840 -21.09288 -21.07114 -11.52903 -11.46151
 Alpha  occ. eigenvalues --  -11.44814 -11.37782 -10.49258  -9.69013  -9.68369
 Alpha  occ. eigenvalues --   -9.68307  -1.85051  -1.68190  -1.37761  -1.15093
 Alpha  occ. eigenvalues --   -1.06721  -0.90786  -0.78614  -0.68791  -0.67084
 Alpha  occ. eigenvalues --   -0.67078  -0.62075  -0.58512  -0.54674  -0.53816
 Alpha  occ. eigenvalues --   -0.52365  -0.50560  -0.49133  -0.42915  -0.35587
 Alpha  occ. eigenvalues --   -0.34713  -0.32110
 Alpha virt. eigenvalues --    0.03393   0.05054   0.05867   0.06188   0.06433
 Alpha virt. eigenvalues --    0.06534   0.06699   0.09856   0.11104   0.12073
 Alpha virt. eigenvalues --    0.12187   0.12838   0.14412   0.14917   0.15718

  Beta  occ. eigenvalues --  -99.91782 -21.09339 -21.05916 -11.53212 -11.44843
  Beta  occ. eigenvalues --  -11.44181 -11.37781 -10.49198  -9.69277  -9.68273
  Beta  occ. eigenvalues --   -9.67840  -1.84816  -1.66238  -1.36112  -1.14767
  Beta  occ. eigenvalues --   -1.01571  -0.90045  -0.77878  -0.68356  -0.66716
  Beta  occ. eigenvalues --   -0.66059  -0.58344  -0.56935  -0.53655  -0.53605
  Beta  occ. eigenvalues --   -0.52225  -0.49443  -0.48936  -0.42522  -0.31728
  Beta  occ. eigenvalues --   -0.30944
  Beta virt. eigenvalues --    0.03424   0.04456   0.05131   0.05877   0.06217
  Beta virt. eigenvalues --    0.06461   0.06556   0.07127   0.10002   0.11252
  Beta virt. eigenvalues --    0.12277   0.12340   0.12879   0.14494   0.15300

 Mulliken charges and spin densities:
               1          2
     1  C    7.322360  -0.600260
     2  O   -3.158785   0.330954
     3  C   -3.981876   1.311901
     4  O   -2.832879  -0.013629
     5  Cl  -0.182272   0.004898
     6  H    1.604853  -0.027369
     7  C   -2.113141  -0.008351
     8  C   -3.479019  -0.000654
     9  H    1.605181   0.001184
    10  H    1.605221   0.001190
    11  H    1.250678  -0.000012
    12  H    1.108994   0.000158
    13  H    1.250685  -0.000012
 Sum of Mulliken charges =   0.00000   1.00000

 Dipole moment (field-independent basis, Debye):
    X=              1.1892    Y=             -0.2453    Z=              0.0001  Tot=              1.2142
                          Isotropic Fermi Contact Couplings
        Atom                 a.u.       MegaHertz       Gauss      10(-4) cm-1
     1  C(13)             -0.05366     -60.32086     -21.52398     -20.12087
     2  O(17)              0.06862     -41.59632     -14.84260     -13.87504
     3  C(13)              0.13695     153.95351      54.93444      51.35336
     4  O(17)             -0.01488       9.02285       3.21958       3.00970
     5  Cl(35)             0.04191      18.37722       6.55745       6.12998
     6  H(1)              -0.01744     -77.96157     -27.81863     -26.00518
     7  C(13)             -0.00134      -1.50561      -0.53724      -0.50222
     8  C(13)              0.00016       0.17436       0.06221       0.05816

 Normal termination of Gaussian 16 at Tue Apr  8 22:52:18 2025.
