 Gaussian 16, Revision C.01,

 ----------------------------------------------------------------------
 #t hf aug-cc-pvdz symm=none int=(grid=ultrafine) guess=(read,tcheck) s
 table=(opt,rrhf)
 ----------------------------------------------------------------------
 -----
 title
 -----
 Symbolic Z-matrix:
 Charge =  0 Multiplicity = 1

 SCF Done:  E(RHF) =  -793.051888819     A.U. after   17 cycles
 Normal termination of Gaussian 16 at Tue Apr  8 22:56:10 2025.
 Gaussian 16:  ES64L-G16RevC.01  3-Jul-2019

 ----------------------------------------------------------------------
 #t hf aug-cc-pvdz iop(5/13=1,5/36=2,99/5=2) pseudo=read geom=check gue
 ss=(read,tcheck) scf=(maxcycle=1)
 ----------------------------------------------------------------------
 -----
 title
 -----
 Structure from the checkpoint file:  "BDE49_expt_1818_mol1.chk"
 Charge =  0 Multiplicity = 1

                         Standard orientation:
 ---------------------------------------------------------------------
 Center     Atomic      Atomic             Coordinates (Angstroms)
 Number     Number       Type             X           Y           Z
 ---------------------------------------------------------------------
      1          7           0        2.705032   -0.202492   -0.515980
      2          8           0        2.714380   -1.174646    0.139827
      3         16           0        1.218774    0.953181   -0.316124
      4          6           0        0.248931    0.041207    0.908061
      5          8           0       -0.830394   -0.705692    0.343498
      6          1           0       -0.116933    0.748560    1.649932
      7          1           0        0.916469   -0.700688    1.351223
      8          6           0       -1.949215    0.008666    0.027884
      9          8           0       -2.037401    1.195389    0.198905
     10          6           0       -3.006401   -0.891191   -0.551679
     11          1           0       -2.653676   -1.301608   -1.500969
     12          1           0       -3.918264   -0.320451   -0.712295
     13          1           0       -3.195781   -1.731766    0.118514
 ---------------------------------------------------------------------

 SCF Done:  E(RHF) =  -794.975785669     A.U. after    2 cycles

 The electronic state is 1-A.
 Alpha  occ. eigenvalues --  -75.72169 -21.17369 -21.10784 -21.06470 -15.92694
 Alpha  occ. eigenvalues --  -13.14660 -13.11649 -13.05664 -11.53548 -11.46109
 Alpha  occ. eigenvalues --  -11.40433  -8.06125  -1.91618  -1.85782  -1.67820
 Alpha  occ. eigenvalues --   -1.21586  -1.12445  -1.02135  -0.88890  -0.76826
 Alpha  occ. eigenvalues --   -0.71794  -0.65125  -0.63199  -0.61259  -0.60329
 Alpha  occ. eigenvalues --   -0.57677  -0.56542  -0.53512  -0.52108  -0.46110
 Alpha  occ. eigenvalues --   -0.42778  -0.32715  -0.31055  -0.26389  -0.26308
 Alpha virt. eigenvalues --    0.03252   0.05034   0.05878   0.06155   0.06532
 Alpha virt. eigenvalues --    0.07438   0.08845   0.09939   0.11159   0.11650
 Alpha virt. eigenvalues --    0.12391   0.14001   0.14711   0.14767   0.15282

 Mulliken charges:
               1
     1  N    1.130631
     2  O   -1.936686
     3  S    1.287455
     4  C   -2.576101
     5  O   -2.922029
     6  H    1.631852
     7  H    1.411912
     8  C    5.479551
     9  O   -2.918234
    10  C   -4.362394
    11  H    1.243851
    12  H    1.260960
    13  H    1.269233
 Sum of Mulliken charges =  -0.00000

 Dipole moment (field-independent basis, Debye):
    X=             -1.2439    Y=             -0.4323    Z=              0.2274  Tot=              1.3364

 Test job not archived.
 1\1\GINC-SE096\SP\RHF\Aug-CC-pVDZ\C3H5N1O3S1\OHZDE\08-Apr-2025\0\\#t h
 f aug-cc-pvdz iop(5/13=1,5/36=2,99/5=2) pseudo=read geom=check guess=(
 read,tcheck) scf=(maxcycle=1)\\title\\0,1\N,0,-2.705032,0.202492,-0.51
 598\O,0,-2.71438,1.174646,0.139827\S,0,-1.218774,-0.953181,-0.316124\C
 ,0,-0.248931,-0.041207,0.908061\O,0,0.830394,0.705692,0.343498\H,0,0.1
 16933,-0.74856,1.649932\H,0,-0.916469,0.700688,1.351223\C,0,1.949215,-
 0.008666,0.027884\O,0,2.037401,-1.195389,0.198905\C,0,3.006401,0.89119
 1,-0.551679\H,0,2.653676,1.301608,-1.500969\H,0,3.918264,0.320451,-0.7

 Normal termination of Gaussian 16 at Tue Apr  8 22:56:15 2025.
