 Gaussian 16, Revision C.01,

 ----------------------------------------------------------------------
 #t hf aug-cc-pvdz symm=none int=(grid=ultrafine) guess=(read,tcheck) s
 table=(opt,rrhf)
 ----------------------------------------------------------------------
 -----
 title
 -----
 Symbolic Z-matrix:
 Charge =  0 Multiplicity = 1

 SCF Done:  E(RHF) =  -655.281230912     A.U. after   12 cycles
 Normal termination of Gaussian 16 at Tue Apr  8 22:33:51 2025.
 Gaussian 16:  ES64L-G16RevC.01  3-Jul-2019

 ----------------------------------------------------------------------
 #t hf aug-cc-pvdz iop(5/13=1,5/36=2,99/5=2) pseudo=read geom=check gue
 ss=(read,tcheck) scf=(maxcycle=1)
 ----------------------------------------------------------------------
 -----
 title
 -----
 Structure from the checkpoint file:  "BDE49_expt_1037_mol1.chk"
 Charge =  0 Multiplicity = 1

                         Standard orientation:
 ---------------------------------------------------------------------
 Center     Atomic      Atomic             Coordinates (Angstroms)
 Number     Number       Type             X           Y           Z
 ---------------------------------------------------------------------
      1          6           0       -1.594094    0.839571    0.374350
      2          6           0       -0.213153    1.028750   -0.233828
      3         17           0       -2.369335   -0.735697   -0.126099
      4          1           0       -2.286778    1.614469    0.051136
      5          1           0       -1.561994    0.816290    1.463418
      6          6           0        0.850915    0.047520    0.266936
      7          1           0        0.095196    2.055468    0.006652
      8          1           0       -0.291914    0.976023   -1.324697
      9          6           0        2.232534    0.295231   -0.349278
     10          1           0        0.532282   -0.976356    0.045876
     11          1           0        0.922664    0.119523    1.360046
     12          6           0        3.298013   -0.683298    0.152527
     13          1           0        2.549115    1.322821   -0.132271
     14          1           0        2.157115    0.224096   -1.440928
     15          1           0        3.421836   -0.611423    1.237555
     16          1           0        4.270007   -0.483649   -0.306320
     17          1           0        3.025880   -1.717067   -0.081031
 ---------------------------------------------------------------------

 SCF Done:  E(RHF) =  -656.555402195     A.U. after    2 cycles

 The electronic state is 1-A.
 Alpha  occ. eigenvalues --  -99.86930 -11.45473 -11.42155 -11.40286 -11.37420
 Alpha  occ. eigenvalues --  -11.34790 -10.44170  -9.64075  -9.63464  -9.63337
 Alpha  occ. eigenvalues --   -1.33598  -1.23245  -1.11327  -0.98684  -0.87780
 Alpha  occ. eigenvalues --   -0.82888  -0.67141  -0.64785  -0.61560  -0.58248
 Alpha  occ. eigenvalues --   -0.57526  -0.54856  -0.51129  -0.48944  -0.48144
 Alpha  occ. eigenvalues --   -0.46484  -0.45729  -0.44886  -0.41502
 Alpha virt. eigenvalues --    0.03827   0.04543   0.05233   0.05800   0.05889
 Alpha virt. eigenvalues --    0.06066   0.06389   0.07213   0.08478   0.08813
 Alpha virt. eigenvalues --    0.09027   0.09843   0.10215   0.12361   0.13770

 Mulliken charges:
               1
     1  C   -4.325914
     2  C   -2.242837
     3  Cl   0.077950
     4  H    1.417145
     5  H    1.677689
     6  C   -2.234154
     7  H    1.388929
     8  H    1.485471
     9  C   -2.766495
    10  H    1.534667
    11  H    1.513573
    12  C   -4.129675
    13  H    1.443769
    14  H    1.471454
    15  H    1.300570
    16  H    1.080108
    17  H    1.307750
 Sum of Mulliken charges =  -0.00000

 Dipole moment (field-independent basis, Debye):
    X=              1.4783    Y=              2.0428    Z=              0.4799  Tot=              2.5668

 Test job not archived.
 1\1\GINC-SE070\SP\RHF\Aug-CC-pVDZ\C5H11Cl1\OHZDE\08-Apr-2025\0\\#t hf
 aug-cc-pvdz iop(5/13=1,5/36=2,99/5=2) pseudo=read geom=check guess=(re
 ad,tcheck) scf=(maxcycle=1)\\title\\0,1\C,0,-1.594094,0.839571,0.37435
 \C,0,-0.213153,1.02875,-0.233828\Cl,0,-2.369335,-0.735697,-0.126099\H,
 0,-2.286778,1.614469,0.051136\H,0,-1.561994,0.81629,1.463418\C,0,0.850
 915,0.04752,0.266936\H,0,0.095196,2.055468,0.006652\H,0,-0.291914,0.97
 6023,-1.324697\C,0,2.232534,0.295231,-0.349278\H,0,0.532282,-0.976356,
 0.045876\H,0,0.922664,0.119523,1.360046\C,0,3.298013,-0.683298,0.15252

 Normal termination of Gaussian 16 at Tue Apr  8 22:33:56 2025.
