 Gaussian 16, Revision C.01,

 ----------------------------------------------------------------------
 #t hf aug-cc-pvdz symm=none int=(grid=ultrafine) guess=(read,tcheck) s
 table=opt
 ----------------------------------------------------------------------
 -----
 title
 -----
 Symbolic Z-matrix:
 Charge =  0 Multiplicity = 2

 SCF Done:  E(UHF) =  -479.328561158     A.U. after   22 cycles
 Normal termination of Gaussian 16 at Tue Apr  8 23:51:23 2025.
 Gaussian 16:  ES64L-G16RevC.01  3-Jul-2019

 ----------------------------------------------------------------------
 #t hf aug-cc-pvdz iop(5/13=1,5/36=2,99/5=2) pseudo=read geom=check gue
 ss=(read,tcheck) scf=(maxcycle=1)
 ----------------------------------------------------------------------
 -----
 title
 -----
 Structure from the checkpoint file:  "BDE49_nonexpt_1890_mol2.chk"
 Charge =  0 Multiplicity = 2

                         Standard orientation:
 ---------------------------------------------------------------------
 Center     Atomic      Atomic             Coordinates (Angstroms)
 Number     Number       Type             X           Y           Z
 ---------------------------------------------------------------------
      1         14           0       -1.547177    0.147731   -0.083111
      2          8           0       -0.116496   -0.691478   -0.300414
      3          1           0       -2.148929   -0.092770    1.252539
      4          1           0       -1.367935    1.600236   -0.334717
      5          8           0        0.894319   -0.072413    0.617657
      6          6           0        2.007707    0.252037   -0.195236
      7          1           0        2.747718    0.646701    0.506470
      8          1           0        1.758736    1.016870   -0.938100
      9          1           0        2.402060   -0.640372   -0.689164
 ---------------------------------------------------------------------

 SCF Done:  E(UHF) =  -480.274729519     A.U. after    2 cycles

 The electronic state is 2-A.
 Alpha  occ. eigenvalues --  -76.25589 -21.10991 -21.08286 -11.41138  -5.59039
 Alpha  occ. eigenvalues --   -2.25003  -2.20396  -2.19681  -1.90439  -1.44868
 Alpha  occ. eigenvalues --   -0.97142  -0.74995  -0.63521  -0.62343  -0.55795
 Alpha  occ. eigenvalues --   -0.51047  -0.46575  -0.43880  -0.35981  -0.31466
 Alpha  occ. eigenvalues --   -0.26894
 Alpha virt. eigenvalues --    0.03833   0.05132   0.06094   0.06363   0.06723
 Alpha virt. eigenvalues --    0.07221   0.08415   0.09287   0.12282   0.14359
 Alpha virt. eigenvalues --    0.15074   0.15349   0.16366   0.17421   0.18507

  Beta  occ. eigenvalues --  -76.25031 -21.09954 -21.09057 -11.41189  -5.58150
  Beta  occ. eigenvalues --   -2.24389  -2.19766  -2.16169  -1.89685  -1.44922
  Beta  occ. eigenvalues --   -0.96782  -0.71051  -0.62785  -0.61712  -0.55876
  Beta  occ. eigenvalues --   -0.50227  -0.46484  -0.43147  -0.36060  -0.29544
  Beta virt. eigenvalues --    0.03286   0.04045   0.05504   0.06156   0.06481
  Beta virt. eigenvalues --    0.06940   0.07917   0.09399   0.10655   0.12775
  Beta virt. eigenvalues --    0.14899   0.15527   0.16020   0.17304   0.18154

 Mulliken charges and spin densities:
               1          2
     1  Si   4.349819   1.120107
     2  O   -1.128128  -0.397825
     3  H   -1.528781   0.012359
     4  H   -1.514352   0.006732
     5  O   -1.602626   0.278740
     6  C   -2.484947  -0.032309
     7  H    1.261569   0.019317
     8  H    1.331836  -0.005441
     9  H    1.315610  -0.001681
 Sum of Mulliken charges =  -0.00000   1.00000

 Dipole moment (field-independent basis, Debye):
    X=              0.9510    Y=              0.2225    Z=             -0.3158  Tot=              1.0265
                          Isotropic Fermi Contact Couplings
        Atom                 a.u.       MegaHertz       Gauss      10(-4) cm-1
     1  Si(29)             0.51036    -453.57231    -161.84588    -151.29544
     2  O(17)              0.06766     -41.01642     -14.63568     -13.68161
     3  H(1)               0.01069      47.77047      17.04569      15.93451
     4  H(1)               0.00873      39.02246      13.92418      13.01649
     5  O(17)              0.01115      -6.75685      -2.41101      -2.25384
     6  C(13)             -0.00409      -4.59786      -1.64063      -1.53368
     7  H(1)               0.00466      20.82939       7.43245       6.94794
     8  H(1)               0.00072       3.21794       1.14824       1.07339

 Normal termination of Gaussian 16 at Tue Apr  8 23:51:25 2025.
