 Gaussian 16, Revision C.01,

 ----------------------------------------------------------------------
 #t hf aug-cc-pvdz symm=none int=(grid=ultrafine) guess=(read,tcheck) s
 table=opt
 ----------------------------------------------------------------------
 -----
 title
 -----
 Symbolic Z-matrix:
 Charge =  0 Multiplicity = 2

 SCF Done:  E(UHF) =  -697.442751912     a.u. after    9 cycles
 Normal termination of Gaussian 16 at Tue Apr  8 23:18:08 2025.
 Gaussian 16:  ES64L-G16RevC.01  3-Jul-2019

 ----------------------------------------------------------------------
 #t hf aug-cc-pvdz iop(5/13=1,5/36=2,99/5=2) pseudo=read geom=check gue
 ss=(read,tcheck) scf=(maxcycle=1)
 ----------------------------------------------------------------------
 -----
 title
 -----
 Structure from the checkpoint file:  "BDE49_nonexpt_1041_mol2.chk"
 Charge =  0 Multiplicity = 2

                         Standard orientation:
 ---------------------------------------------------------------------
 Center     Atomic      Atomic             Coordinates (Angstroms)
 Number     Number       Type             X           Y           Z
 ---------------------------------------------------------------------
      1          8           0        0.704337   -0.609975    1.147306
      2         16           0        0.077543    0.082222   -0.000002
      3          8           0        0.109043    1.507119   -0.000014
      4          8           0        0.704329   -0.609998   -1.147298
      5          8           0       -1.475844   -0.294232    0.000008
      6          1           0       -1.575600   -1.258863    0.000014
 ---------------------------------------------------------------------

 SCF Done:  E(UHF) =  -698.876126749     A.U. after    2 cycles

 The electronic state is 2-A.
 Alpha  occ. eigenvalues --  -75.97862 -21.24042 -21.17589 -21.11161 -21.10127
 Alpha  occ. eigenvalues --  -13.60046 -13.53752 -13.49202  -8.33797  -2.01980
 Alpha  occ. eigenvalues --   -1.81371  -1.74922  -1.70526  -0.96205  -0.73778
 Alpha  occ. eigenvalues --   -0.67222  -0.65925  -0.62068  -0.53428  -0.48047
 Alpha  occ. eigenvalues --   -0.46386  -0.44796  -0.43125  -0.40524  -0.38742
 Alpha virt. eigenvalues --    0.02638   0.08591   0.09595   0.09761   0.12037
 Alpha virt. eigenvalues --    0.17066   0.17946   0.19660   0.20095   0.20528
 Alpha virt. eigenvalues --    0.21167   0.24430   0.25763   0.26271   0.27322

  Beta  occ. eigenvalues --  -75.97977 -21.20599 -21.17627 -21.09995 -21.09911
  Beta  occ. eigenvalues --  -13.60365 -13.53998 -13.49345  -8.33963  -1.98983
  Beta  occ. eigenvalues --   -1.77657  -1.70932  -1.66766  -0.94749  -0.71999
  Beta  occ. eigenvalues --   -0.65356  -0.62431  -0.52400  -0.50137  -0.45934
  Beta  occ. eigenvalues --   -0.44176  -0.42299  -0.40582  -0.37958
  Beta virt. eigenvalues --    0.01262   0.02720   0.08962   0.09763   0.10147
  Beta virt. eigenvalues --    0.12103   0.17059   0.18040   0.19740   0.20414
  Beta virt. eigenvalues --    0.20561   0.21249   0.25128   0.26251   0.26351

 Mulliken charges and spin densities:
               1          2
     1  O   -2.050638   0.915487
     2  S    8.441326  -0.290322
     3  O   -2.456348   0.046321
     4  O   -2.234719   0.330842
     5  O   -2.479072  -0.004391
     6  H    0.779451   0.002063
 Sum of Mulliken charges =  -0.00000   1.00000

 Dipole moment (field-independent basis, Debye):
    X=             -1.3010    Y=             -1.3550    Z=              0.5759  Tot=              1.9647
                          Isotropic Fermi Contact Couplings
        Atom                 a.u.       MegaHertz       Gauss      10(-4) cm-1
     1  O(17)              0.14562     -88.27341     -31.49815     -29.44484
     2  S(33)             -0.19273     -66.19921     -23.62153     -22.08168
     3  O(17)              0.00418      -2.53297      -0.90383      -0.84491
     4  O(17)              0.04569     -27.69630      -9.88273      -9.23849
     5  O(17)             -0.00325       1.96867       0.70247       0.65668
     6  H(1)              -0.00007      -0.29825      -0.10642      -0.09948
 --------------------------------------------------------
       Center         ----  Spin Dipole Couplings  ----

 Normal termination of Gaussian 16 at Tue Apr  8 23:18:10 2025.
