 Gaussian 16, Revision C.01,

 ----------------------------------------------------------------------
 #t hf aug-cc-pvdz symm=none int=(grid=ultrafine) guess=(read,tcheck) s
 table=(opt,rrhf)
 ----------------------------------------------------------------------
 -----
 title
 -----
 Symbolic Z-matrix:
 Charge =  0 Multiplicity = 1

 SCF Done:  E(RHF) =  -1473.64364618     A.U. after   15 cycles
 Normal termination of Gaussian 16 at Tue Apr  8 23:51:41 2025.
 Gaussian 16:  ES64L-G16RevC.01  3-Jul-2019

 ----------------------------------------------------------------------
 #t hf aug-cc-pvdz iop(5/13=1,5/36=2,99/5=2) pseudo=read geom=check gue
 ss=(read,tcheck) scf=(maxcycle=1)
 ----------------------------------------------------------------------
 -----
 title
 -----
 Structure from the checkpoint file:  "BDE49_nonexpt_1875_mol1.chk"
 Charge =  0 Multiplicity = 1

                         Standard orientation:
 ---------------------------------------------------------------------
 Center     Atomic      Atomic             Coordinates (Angstroms)
 Number     Number       Type             X           Y           Z
 ---------------------------------------------------------------------
      1         14           0       -0.370112    1.394870    0.503255
      2          6           0        0.941541    0.986695   -0.810644
      3          6           0       -1.642610   -0.039573    0.646967
      4          8           0       -1.991010   -0.646899    1.589571
      5          1           0       -1.140246    2.569582    0.056210
      6          1           0        0.235077    1.591409    1.832618
      7         17           0       -2.427726   -0.376988   -1.034506
      8          6           0        2.097699    0.206370   -0.272027
      9          8           0        3.194359    0.580691   -0.052195
     10         17           0        1.622449   -1.531080    0.105038
     11          1           0        1.328414    1.926966   -1.212270
     12          1           0        0.441450    0.429719   -1.605949
 ---------------------------------------------------------------------

 SCF Done:  E(RHF) =  -1475.41838062     A.U. after    2 cycles

 The electronic state is 1-A.
 Alpha  occ. eigenvalues --  -99.91065 -99.89864 -76.28195 -21.13570 -21.11830
 Alpha  occ. eigenvalues --  -11.57516 -11.54377 -11.43156 -10.48326 -10.47047
 Alpha  occ. eigenvalues --   -9.68213  -9.67650  -9.67455  -9.66925  -9.66394
 Alpha  occ. eigenvalues --   -9.66269  -5.61797  -2.25863  -2.24577  -2.24235
 Alpha  occ. eigenvalues --   -1.78149  -1.77695  -1.33216  -1.30679  -1.15429
 Alpha  occ. eigenvalues --   -0.91548  -0.83098  -0.76011  -0.69593  -0.64949
 Alpha  occ. eigenvalues --   -0.63618  -0.61083  -0.59222  -0.58084  -0.55872
 Alpha  occ. eigenvalues --   -0.52968  -0.51349  -0.50441  -0.49797  -0.47648
 Alpha  occ. eigenvalues --   -0.43898  -0.36428  -0.35023
 Alpha virt. eigenvalues --    0.02775   0.04399   0.05046   0.05576   0.05921
 Alpha virt. eigenvalues --    0.06697   0.07297   0.08168   0.08207   0.08961
 Alpha virt. eigenvalues --    0.10045   0.10763   0.10852   0.11582   0.12523

 Mulliken charges:
               1
     1  Si   6.282669
     2  C   -3.610777
     3  C    0.986611
     4  O   -2.175233
     5  H   -1.849545
     6  H   -1.894200
     7  Cl  -0.183972
     8  C    2.586081
     9  O   -2.698900
    10  Cl  -0.096350
    11  H    1.256851
    12  H    1.396766
 Sum of Mulliken charges =   0.00000

 Dipole moment (field-independent basis, Debye):
    X=              1.7530    Y=              3.4222    Z=              1.6363  Tot=              4.1787

 Test job not archived.
 1\1\GINC-SE102\SP\RHF\Aug-CC-pVDZ\C3H4Cl2O2Si1\OHZDE\08-Apr-2025\0\\#t
  hf aug-cc-pvdz iop(5/13=1,5/36=2,99/5=2) pseudo=read geom=check guess
 =(read,tcheck) scf=(maxcycle=1)\\title\\0,1\Si,0,-0.370112,1.39487,0.5
 03255\C,0,0.941541,0.986695,-0.810644\C,0,-1.64261,-0.039573,0.646967\
 O,0,-1.99101,-0.646899,1.589571\H,0,-1.140246,2.569582,0.05621\H,0,0.2
 35077,1.591409,1.832618\Cl,0,-2.427726,-0.376988,-1.034506\C,0,2.09769
 9,0.20637,-0.272027\O,0,3.194359,0.580691,-0.052195\Cl,0,1.622449,-1.5
 3108,0.105038\H,0,1.328414,1.926966,-1.21227\H,0,0.44145,0.429719,-1.6

 Normal termination of Gaussian 16 at Tue Apr  8 23:51:47 2025.
