 Gaussian 16, Revision C.01,

 ----------------------------------------------------------------------
 #t hf aug-cc-pvdz symm=none int=(grid=ultrafine) guess=(read,tcheck) s
 table=(opt,rrhf)
 ----------------------------------------------------------------------
 -----
 title
 -----
 Symbolic Z-matrix:
 Charge =  0 Multiplicity = 1

 SCF Done:  E(RHF) =  -747.996722655     A.U. after   15 cycles
 Normal termination of Gaussian 16 at Wed Apr  9 00:46:55 2025.
 Gaussian 16:  ES64L-G16RevC.01  3-Jul-2019

 ----------------------------------------------------------------------
 #t hf aug-cc-pvdz iop(5/13=1,5/36=2,99/5=2) pseudo=read geom=check gue
 ss=(read,tcheck) scf=(maxcycle=1)
 ----------------------------------------------------------------------
 -----
 title
 -----
 Structure from the checkpoint file:  "BDE49_nonexpt_795_mol1.chk"
 Charge =  0 Multiplicity = 1

                         Standard orientation:
 ---------------------------------------------------------------------
 Center     Atomic      Atomic             Coordinates (Angstroms)
 Number     Number       Type             X           Y           Z
 ---------------------------------------------------------------------
      1         14           0       -0.125829    0.215003    0.799601
      2          7           0       -1.141868   -1.193358    0.017086
      3          5           0        1.739155   -0.067702    0.031296
      4          8           0       -2.343746   -1.055816   -0.148593
      5          8           0       -0.531008   -2.234438   -0.274664
      6          8           0        2.105880   -1.245491   -0.522685
      7          8           0        2.606716    0.978087    0.104899
      8          6           0       -1.037766    1.806870    0.430649
      9          6           0       -1.041880    2.218995   -1.052044
     10          1           0       -0.560333    2.583587    1.041332
     11          1           0       -2.060357    1.704015    0.806303
     12          1           0       -0.025655    2.340268   -1.436622
     13          1           0       -1.562813    3.169603   -1.191584
     14          1           0       -1.551920    1.473981   -1.667667
     15          1           0        3.472622    0.762768   -0.266578
     16          1           0        1.370706   -1.883046   -0.525890
     17          1           0       -0.248196   -0.163129    2.226932
 ---------------------------------------------------------------------

 SCF Done:  E(RHF) =  -750.117441656     A.U. after    2 cycles

 The electronic state is 1-A.
 Alpha  occ. eigenvalues --  -76.25416 -21.10389 -21.09086 -21.07799 -21.06369
 Alpha  occ. eigenvalues --  -15.96109 -11.41533 -11.36954  -7.66095  -5.59333
 Alpha  occ. eigenvalues --   -2.23839  -2.22831  -2.21724  -1.97485  -1.82265
 Alpha  occ. eigenvalues --   -1.68468  -1.66925  -1.17253  -1.00623  -0.90919
 Alpha  occ. eigenvalues --   -0.79038  -0.74608  -0.65716  -0.65223  -0.63277
 Alpha  occ. eigenvalues --   -0.61984  -0.60552  -0.58994  -0.56247  -0.51438
 Alpha  occ. eigenvalues --   -0.50880  -0.50281  -0.44811  -0.43607  -0.37742
 Alpha  occ. eigenvalues --   -0.35772  -0.32494  -0.31667  -0.31308
 Alpha virt. eigenvalues --    0.03175   0.03786   0.04434   0.05300   0.06026
 Alpha virt. eigenvalues --    0.06458   0.07127   0.07596   0.07954   0.08365
 Alpha virt. eigenvalues --    0.08693   0.09430   0.09540   0.10206   0.10895

 Mulliken charges:
               1
     1  Si   4.267687
     2  N    3.499705
     3  B    6.150469
     4  O   -2.306304
     5  O   -2.391376
     6  O   -4.536613
     7  O   -4.244954
     8  C   -3.872843
     9  C   -3.694765
    10  H    1.466800
    11  H    1.420578
    12  H    1.445774
    13  H    1.141702
    14  H    1.305164
    15  H    1.230409
    16  H    1.755770
    17  H   -2.637206
 Sum of Mulliken charges =  -0.00000

 Dipole moment (field-independent basis, Debye):
    X=              0.7654    Y=              2.3064    Z=              0.2005  Tot=              2.4383

 Test job not archived.
 1\1\GINC-SE329\SP\RHF\Aug-CC-pVDZ\C2H8B1N1O4Si1\OHZDE\09-Apr-2025\0\\#
 t hf aug-cc-pvdz iop(5/13=1,5/36=2,99/5=2) pseudo=read geom=check gues
 s=(read,tcheck) scf=(maxcycle=1)\\title\\0,1\Si,0,0.125829,0.215003,-0
 .799601\N,0,1.141868,-1.193358,-0.017086\B,0,-1.739155,-0.067702,-0.03
 1296\O,0,2.343746,-1.055816,0.148593\O,0,0.531008,-2.234438,0.274664\O
 ,0,-2.10588,-1.245491,0.522685\O,0,-2.606716,0.978087,-0.104899\C,0,1.
 037766,1.80687,-0.430649\C,0,1.04188,2.218995,1.052044\H,0,0.560333,2.
 583587,-1.041332\H,0,2.060357,1.704015,-0.806303\H,0,0.025655,2.340268

 Normal termination of Gaussian 16 at Wed Apr  9 00:47:03 2025.
