 Gaussian 16, Revision C.01,

 ----------------------------------------------------------------------
 #t hf aug-cc-pvdz symm=none int=(grid=ultrafine) guess=(read,tcheck) s
 table=opt
 ----------------------------------------------------------------------
 -----
 title
 -----
 Symbolic Z-matrix:
 Charge =  0 Multiplicity = 2

 SCF Done:  E(UHF) =  -155.494357570     A.U. after   20 cycles
 Normal termination of Gaussian 16 at Tue Apr  8 23:07:51 2025.
 Gaussian 16:  ES64L-G16RevC.01  3-Jul-2019

 ----------------------------------------------------------------------
 #t hf aug-cc-pvdz iop(5/13=1,5/36=2,99/5=2) pseudo=read geom=check gue
 ss=(read,tcheck) scf=(maxcycle=1)
 ----------------------------------------------------------------------
 -----
 title
 -----
 Structure from the checkpoint file:  "BDE49_expt_41_mol2.chk"
 Charge =  0 Multiplicity = 2

                         Standard orientation:
 ---------------------------------------------------------------------
 Center     Atomic      Atomic             Coordinates (Angstroms)
 Number     Number       Type             X           Y           Z
 ---------------------------------------------------------------------
      1          6           0       -1.794935   -0.055597   -0.264448
      2          6           0       -0.663678   -0.178410    0.422938
      3          1           0       -1.872730    0.612922   -1.117002
      4          1           0       -2.685175   -0.615309   -0.000430
      5          6           0        0.619513    0.554189    0.119450
      6          1           0       -0.623715   -0.864253    1.267125
      7          6           0        1.754198   -0.358770   -0.216259
      8          1           0        0.897029    1.177339    0.979571
      9          1           0        0.434847    1.257980   -0.709606
     10          1           0        1.584637   -1.235717   -0.829225
     11          1           0        2.774511   -0.101434    0.039482
 ---------------------------------------------------------------------

 SCF Done:  E(UHF) =  -156.259675754     A.U. after    2 cycles

 The electronic state is 2-A.
 Alpha  occ. eigenvalues --  -11.42399 -11.39616 -11.37750 -11.35877  -1.23390
 Alpha  occ. eigenvalues --   -1.06348  -0.89028  -0.78422  -0.64832  -0.59873
 Alpha  occ. eigenvalues --   -0.58147  -0.52560  -0.50030  -0.45825  -0.34989
 Alpha  occ. eigenvalues --   -0.31652
 Alpha virt. eigenvalues --    0.03871   0.05424   0.05907   0.06250   0.06401
 Alpha virt. eigenvalues --    0.06442   0.07144   0.10576   0.12157   0.12516
 Alpha virt. eigenvalues --    0.14110   0.15076   0.15586   0.15964   0.16628

  Beta  occ. eigenvalues --  -11.42297 -11.39389 -11.36972 -11.34962  -1.21914
  Beta  occ. eigenvalues --   -1.03808  -0.84691  -0.77559  -0.64344  -0.58944
  Beta  occ. eigenvalues --   -0.56663  -0.51435  -0.48955  -0.45345  -0.34482
  Beta virt. eigenvalues --    0.03926   0.05485   0.05842   0.06257   0.06422
  Beta virt. eigenvalues --    0.06455   0.06995   0.08932   0.11753   0.12441
  Beta virt. eigenvalues --    0.12636   0.14439   0.15676   0.15847   0.16746

 Mulliken charges and spin densities:
               1          2
     1  C   -2.955071  -0.093049
     2  C   -0.220458   0.146131
     3  H    1.416255   0.003336
     4  H    1.347991   0.004154
     5  C   -3.817986  -0.390395
     6  H    1.423274  -0.008929
     7  C   -2.727234   1.484021
     8  H    1.313885   0.001373
     9  H    1.412748   0.014772
    10  H    1.433678  -0.087352
    11  H    1.372918  -0.074062
 Sum of Mulliken charges =  -0.00000   1.00000

 Dipole moment (field-independent basis, Debye):
    X=              0.1896    Y=              0.1988    Z=              0.0472  Tot=              0.2787
                          Isotropic Fermi Contact Couplings
        Atom                 a.u.       MegaHertz       Gauss      10(-4) cm-1
     1  C(13)             -0.00906     -10.18028      -3.63258      -3.39578
     2  C(13)              0.02738      30.78545      10.98501      10.26892
     3  H(1)               0.00105       4.68837       1.67293       1.56387
     4  H(1)               0.00112       5.01671       1.79009       1.67339
     5  C(13)             -0.03771     -42.39051     -15.12599     -14.13995
     6  H(1)              -0.00160      -7.15553      -2.55327      -2.38683
     7  C(13)              0.12938     145.45311      51.90129      48.51794
     8  H(1)               0.00527      23.54415       8.40114       7.85348

 Normal termination of Gaussian 16 at Tue Apr  8 23:07:55 2025.
