 Gaussian 16, Revision C.01,

 ----------------------------------------------------------------------
 #t hf aug-cc-pvdz symm=none int=(grid=ultrafine) guess=(read,tcheck) s
 table=(opt,rrhf)
 ----------------------------------------------------------------------
 -----
 title
 -----
 Symbolic Z-matrix:
 Charge =  0 Multiplicity = 1

 SCF Done:  E(RHF) =  -647.728471447     A.U. after   15 cycles
 Normal termination of Gaussian 16 at Wed Apr  9 00:07:56 2025.
 Gaussian 16:  ES64L-G16RevC.01  3-Jul-2019

 ----------------------------------------------------------------------
 #t hf aug-cc-pvdz iop(5/13=1,5/36=2,99/5=2) pseudo=read geom=check gue
 ss=(read,tcheck) scf=(maxcycle=1)
 ----------------------------------------------------------------------
 -----
 title
 -----
 Structure from the checkpoint file:  "BDE49_nonexpt_2258_mol1.chk"
 Charge =  0 Multiplicity = 1

                         Standard orientation:
 ---------------------------------------------------------------------
 Center     Atomic      Atomic             Coordinates (Angstroms)
 Number     Number       Type             X           Y           Z
 ---------------------------------------------------------------------
      1          8           0        0.589518   -0.000079   -0.919369
      2          7           0        1.543704   -0.000044    0.093955
      3          8           0        1.119720    0.000105    1.236032
      4          8           0        2.679589   -0.000033   -0.282251
      5         14           0       -1.099665   -0.000018   -0.506442
      6          6           0       -1.568490   -1.566018    0.387289
      7          1           0       -1.205870   -2.446523   -0.149688
      8          1           0       -2.659628   -1.638603    0.444883
      9          1           0       -1.168981   -1.588184    1.402533
     10          6           0       -1.568406    1.566087    0.387147
     11          1           0       -2.659540    1.638734    0.444738
     12          1           0       -1.205741    2.446525   -0.149909
     13          1           0       -1.168895    1.588323    1.402389
     14          1           0       -1.631214   -0.000068   -1.884341
 ---------------------------------------------------------------------

 SCF Done:  E(RHF) =  -649.447793010     A.U. after    2 cycles

 The electronic state is 1-A.
 Alpha  occ. eigenvalues --  -76.25140 -21.12568 -21.12274 -21.11501 -16.05980
 Alpha  occ. eigenvalues --  -11.36433 -11.36408  -5.58987  -2.25044  -2.22618
 Alpha  occ. eigenvalues --   -2.21323  -2.07778  -1.73610  -1.72221  -1.07972
 Alpha  occ. eigenvalues --   -1.03270  -0.92986  -0.75019  -0.72620  -0.68389
 Alpha  occ. eigenvalues --   -0.65361  -0.58720  -0.58197  -0.56808  -0.56800
 Alpha  occ. eigenvalues --   -0.48519  -0.45487  -0.43763  -0.38717  -0.37405
 Alpha  occ. eigenvalues --   -0.34293  -0.31243
 Alpha virt. eigenvalues --    0.02882   0.04685   0.05425   0.05571   0.06424
 Alpha virt. eigenvalues --    0.06580   0.07311   0.08374   0.08885   0.10706
 Alpha virt. eigenvalues --    0.12283   0.14398   0.14582   0.14946   0.15350

 Mulliken charges:
               1
     1  O   -2.844562
     2  N    6.546032
     3  O   -2.645817
     4  O   -2.730449
     5  Si   6.877478
     6  C   -5.171415
     7  H    1.216979
     8  H    1.253500
     9  H    1.295485
    10  C   -5.171429
    11  H    1.253495
    12  H    1.216970
    13  H    1.295522
    14  H   -2.391788
 Sum of Mulliken charges =  -0.00000

 Dipole moment (field-independent basis, Debye):
    X=             -2.1974    Y=              0.0001    Z=              0.0978  Tot=              2.1996

 Test job not archived.
 1\1\GINC-SE339\SP\RHF\Aug-CC-pVDZ\C2H7N1O3Si1\OHZDE\09-Apr-2025\0\\#t
 hf aug-cc-pvdz iop(5/13=1,5/36=2,99/5=2) pseudo=read geom=check guess=
 (read,tcheck) scf=(maxcycle=1)\\title\\0,1\O,0,0.589518,-0.000079,-0.9
 19369\N,0,1.543704,-0.000044,0.093955\O,0,1.11972,0.000105,1.236032\O,
 0,2.679589,-0.000033,-0.282251\Si,0,-1.099665,-0.000018,-0.506442\C,0,
 -1.56849,-1.566018,0.387289\H,0,-1.20587,-2.446523,-0.149688\H,0,-2.65
 9628,-1.638603,0.444883\H,0,-1.168981,-1.588184,1.402533\C,0,-1.568406
 ,1.566087,0.387147\H,0,-2.65954,1.638734,0.444738\H,0,-1.205741,2.4465

 Normal termination of Gaussian 16 at Wed Apr  9 00:08:01 2025.
