 Gaussian 16, Revision C.01,

 ----------------------------------------------------------------------
 #t hf aug-cc-pvdz symm=none int=(grid=ultrafine) guess=(read,tcheck) s
 table=(opt,rrhf)
 ----------------------------------------------------------------------
 -----
 title
 -----
 Symbolic Z-matrix:
 Charge =  0 Multiplicity = 1

 SCF Done:  E(RHF) =  -325.978976571     A.U. after   14 cycles

 1\1\GINC-SE016\Stability\RHF\Aug-CC-pVDZ\C7H11N1\OHZDE\08-Apr-2025\0\\
 #t hf aug-cc-pvdz symm=none int=(grid=ultrafine) guess=(read,tcheck) s
 table=(opt,rrhf)\\title\\0,1\C,0,-2.157876,0.000286,0.070544\N,0,-3.27
 9464,-0.000157,-0.198325\C,0,-0.729622,0.000121,0.390346\C,0,2.150463,
 -0.000137,-0.33668\C,0,1.459956,-1.268123,0.184357\C,0,-0.038699,-1.27
 7188,-0.144563\H,0,1.592068,-1.333157,1.271918\H,0,1.931527,-2.160011,
 -0.238781\H,0,-0.182337,-1.324322,-1.22973\H,0,-0.522399,-2.161698,0.2
 78026\C,0,-0.038476,1.277296,-0.144602\H,0,-0.650128,0.000129,1.48529\

 Normal termination of Gaussian 16 at Tue Apr  8 22:39:30 2025.
 Gaussian 16:  ES64L-G16RevC.01  3-Jul-2019

 ----------------------------------------------------------------------
 #t hf aug-cc-pvdz iop(5/13=1,5/36=2,99/5=2) pseudo=read geom=check gue
 ss=(read,tcheck) scf=(maxcycle=1)
 ----------------------------------------------------------------------
 -----
 title
 -----
 Structure from the checkpoint file:  "BDE49_expt_1160_mol1.chk"
 Charge =  0 Multiplicity = 1

                         Standard orientation:
 ---------------------------------------------------------------------
 Center     Atomic      Atomic             Coordinates (Angstroms)
 Number     Number       Type             X           Y           Z
 ---------------------------------------------------------------------
      1          6           0        2.157876   -0.000286    0.070544
      2          7           0        3.279464    0.000157   -0.198325
      3          6           0        0.729622   -0.000121    0.390346
      4          6           0       -2.150463    0.000137   -0.336680
      5          6           0       -1.459956    1.268123    0.184357
      6          6           0        0.038699    1.277188   -0.144563
      7          1           0       -1.592068    1.333157    1.271918
      8          1           0       -1.931527    2.160011   -0.238781
      9          1           0        0.182337    1.324322   -1.229730
     10          1           0        0.522399    2.161698    0.278026
     11          6           0        0.038476   -1.277296   -0.144602
     12          1           0        0.650128   -0.000129    1.485290
     13          6           0       -1.460175   -1.267981    0.184329
     14          1           0       -2.125979    0.000146   -1.433692
     15          1           0       -3.205956    0.000225   -0.048374
     16          1           0        0.522036   -2.161902    0.277947
     17          1           0        0.182098   -1.324414   -1.229771
     18          1           0       -1.931899   -2.159778   -0.238829
     19          1           0       -1.592294   -1.333018    1.271888
 ---------------------------------------------------------------------

 SCF Done:  E(RHF) =  -327.582890032     A.U. after    2 cycles

 The electronic state is 1-A.
 Alpha  occ. eigenvalues --  -15.75033 -11.48495 -11.45471 -11.43878 -11.43403
 Alpha  occ. eigenvalues --  -11.40024 -11.39524 -11.36105  -1.36727  -1.27422
 Alpha  occ. eigenvalues --   -1.13728  -1.12290  -0.92968  -0.90345  -0.80863
 Alpha  occ. eigenvalues --   -0.71993  -0.66795  -0.63279  -0.62968  -0.58239
 Alpha  occ. eigenvalues --   -0.54544  -0.53283  -0.51242  -0.51007  -0.48909
 Alpha  occ. eigenvalues --   -0.46204  -0.43768  -0.43399  -0.40473  -0.39150
 Alpha virt. eigenvalues --    0.03595   0.04534   0.04875   0.05007   0.05098
 Alpha virt. eigenvalues --    0.05343   0.06488   0.06660   0.07138   0.08273
 Alpha virt. eigenvalues --    0.08429   0.11175   0.11799   0.12029   0.12904

 Mulliken charges:
               1
     1  C    1.970058
     2  N   -2.543667
     3  C   -0.382788
     4  C   -2.655591
     5  C   -2.791051
     6  C   -3.149159
     7  H    1.351022
     8  H    1.230366
     9  H    1.451028
    10  H    1.448676
    11  C   -3.148483
    12  H    1.815885
    13  C   -2.791141
    14  H    1.387947
    15  H    1.325656
    16  H    1.448725
    17  H    1.451163
    18  H    1.230401
    19  H    1.350955
 Sum of Mulliken charges =   0.00000

 Dipole moment (field-independent basis, Debye):
    X=             -4.1020    Y=             -0.0001    Z=              0.6313  Tot=              4.1503

 Test job not archived.
 1\1\GINC-SE016\SP\RHF\Aug-CC-pVDZ\C7H11N1\OHZDE\08-Apr-2025\0\\#t hf a
 ug-cc-pvdz iop(5/13=1,5/36=2,99/5=2) pseudo=read geom=check guess=(rea
 d,tcheck) scf=(maxcycle=1)\\title\\0,1\C,0,-2.157876,0.000286,0.070544
 \N,0,-3.279464,-0.000157,-0.198325\C,0,-0.729622,0.000121,0.390346\C,0
 ,2.150463,-0.000137,-0.33668\C,0,1.459956,-1.268123,0.184357\C,0,-0.03
 8699,-1.277188,-0.144563\H,0,1.592068,-1.333157,1.271918\H,0,1.931527,
 -2.160011,-0.238781\H,0,-0.182337,-1.324322,-1.22973\H,0,-0.522399,-2.
 161698,0.278026\C,0,-0.038476,1.277296,-0.144602\H,0,-0.650128,0.00012

 Normal termination of Gaussian 16 at Tue Apr  8 22:39:39 2025.
