 Gaussian 16, Revision C.01,

 ----------------------------------------------------------------------
 #t hf aug-cc-pvdz symm=none int=(grid=ultrafine) guess=(read,tcheck) s
 table=(opt,rrhf)
 ----------------------------------------------------------------------
 -----
 title
 -----
 Symbolic Z-matrix:
 Charge =  0 Multiplicity = 1

 SCF Done:  E(RHF) =  -633.530777206     A.U. after   13 cycles
 Normal termination of Gaussian 16 at Wed Apr  9 00:45:24 2025.
 Gaussian 16:  ES64L-G16RevC.01  3-Jul-2019

 ----------------------------------------------------------------------
 #t hf aug-cc-pvdz iop(5/13=1,5/36=2,99/5=2) pseudo=read geom=check gue
 ss=(read,tcheck) scf=(maxcycle=1)
 ----------------------------------------------------------------------
 -----
 title
 -----
 Structure from the checkpoint file:  "BDE49_nonexpt_758_mol1.chk"
 Charge =  0 Multiplicity = 1

                         Standard orientation:
 ---------------------------------------------------------------------
 Center     Atomic      Atomic             Coordinates (Angstroms)
 Number     Number       Type             X           Y           Z
 ---------------------------------------------------------------------
      1          5           0        1.590580    0.142122   -0.001042
      2          8           0        1.460525    1.503596    0.037051
      3          8           0        2.833200   -0.405698    0.070047
      4          6           0       -1.265768   -0.015454    0.511730
      5          6           0       -2.710231   -0.279099    0.153129
      6          6           0       -2.035594    0.951757   -0.381106
      7          1           0       -3.450448   -0.157671    0.934910
      8          1           0       -2.917572   -1.082081   -0.544153
      9          1           0       -1.793560    0.972196   -1.438060
     10          1           0       -2.318052    1.912466    0.034218
     11          1           0        3.520338    0.267999    0.142766
     12          1           0        0.543673    1.793485    0.000514
     13         15           0        0.062767   -1.036369   -0.267638
     14          1           0       -1.094484    0.325694    1.527856
     15          1           0        0.335455   -1.923564    0.802433
 ---------------------------------------------------------------------

 SCF Done:  E(RHF) =  -635.034085838     A.U. after    2 cycles

 The electronic state is 1-A.
 Alpha  occ. eigenvalues -- -105.15874 -21.06529 -21.05772 -11.43159 -11.41724
 Alpha  occ. eigenvalues --  -11.37033  -7.64682  -2.73589  -1.81731  -1.65972
 Alpha  occ. eigenvalues --   -1.48132  -1.45330  -1.42107  -1.27911  -0.87120
 Alpha  occ. eigenvalues --   -0.85485  -0.76409  -0.70586  -0.66860  -0.62261
 Alpha  occ. eigenvalues --   -0.58351  -0.51881  -0.50619  -0.48683  -0.43261
 Alpha  occ. eigenvalues --   -0.42350  -0.41536  -0.36710  -0.23057  -0.15617
 Alpha  occ. eigenvalues --   -0.02078
 Alpha virt. eigenvalues --    0.03789   0.04938   0.05346   0.05671   0.06113
 Alpha virt. eigenvalues --    0.06566   0.06978   0.07921   0.08512   0.09541
 Alpha virt. eigenvalues --    0.09907   0.11124   0.11796   0.12625   0.13217

 Mulliken charges:
               1
     1  B    5.300156
     2  O   -3.860725
     3  O   -3.654627
     4  C   -1.569804
     5  C   -3.286878
     6  C   -2.802256
     7  H    1.164320
     8  H    1.466777
     9  H    1.320553
    10  H    1.119799
    11  H    1.244452
    12  H    1.835766
    13  P    1.401549
    14  H    1.297860
    15  H   -0.976943
 Sum of Mulliken charges =   0.00000

 Dipole moment (field-independent basis, Debye):
    X=             -1.8287    Y=             -0.5629    Z=             -1.2850  Tot=              2.3048

 Test job not archived.
 1\1\GINC-SE038\SP\RHF\Aug-CC-pVDZ\C3H8B1O2P1\OHZDE\09-Apr-2025\0\\#t h
 f aug-cc-pvdz iop(5/13=1,5/36=2,99/5=2) pseudo=read geom=check guess=(
 read,tcheck) scf=(maxcycle=1)\\title\\0,1\B,0,1.59058,0.142122,-0.0010
 42\O,0,1.460525,1.503596,0.037051\O,0,2.8332,-0.405698,0.070047\C,0,-1
 .265768,-0.015454,0.51173\C,0,-2.710231,-0.279099,0.153129\C,0,-2.0355
 94,0.951757,-0.381106\H,0,-3.450448,-0.157671,0.93491\H,0,-2.917572,-1
 .082081,-0.544153\H,0,-1.79356,0.972196,-1.43806\H,0,-2.318052,1.91246
 6,0.034218\H,0,3.520338,0.267999,0.142766\H,0,0.543673,1.793485,0.0005

 Normal termination of Gaussian 16 at Wed Apr  9 00:45:29 2025.
