 Gaussian 16, Revision C.01,

 ----------------------------------------------------------------------
 #t hf aug-cc-pvdz symm=none int=(grid=ultrafine) guess=(read,tcheck) s
 table=opt
 ----------------------------------------------------------------------
 -----
 title
 -----
 Symbolic Z-matrix:
 Charge =  0 Multiplicity = 2

 SCF Done:  E(UHF) =  -1146.11477478     A.U. after   19 cycles
 Normal termination of Gaussian 16 at Tue Apr  8 23:10:56 2025.
 Gaussian 16:  ES64L-G16RevC.01  3-Jul-2019

 ----------------------------------------------------------------------
 #t hf aug-cc-pvdz iop(5/13=1,5/36=2,99/5=2) pseudo=read geom=check gue
 ss=(read,tcheck) scf=(maxcycle=1)
 ----------------------------------------------------------------------
 -----
 title
 -----
 Structure from the checkpoint file:  "BDE49_expt_624_mol2.chk"
 Charge =  0 Multiplicity = 2

                         Standard orientation:
 ---------------------------------------------------------------------
 Center     Atomic      Atomic             Coordinates (Angstroms)
 Number     Number       Type             X           Y           Z
 ---------------------------------------------------------------------
      1          6           0       -0.000000   -0.191393    0.326460
      2          8           0       -0.000000    1.157194    0.862372
      3          8           0       -0.000001    2.105976   -0.048380
      4          6           0       -0.000000   -1.102588    1.530977
      5          1           0        0.891288   -0.907664    2.128714
      6          1           0        0.000001   -2.141379    1.206039
      7          1           0       -0.891288   -0.907665    2.128713
      8         17           0       -1.467803   -0.423082   -0.680001
      9         17           0        1.467804   -0.423081   -0.680001
 ---------------------------------------------------------------------

 SCF Done:  E(UHF) =  -1147.55454018     A.U. after    2 cycles

 The electronic state is 2-A.
 Alpha  occ. eigenvalues --  -99.91263 -99.91252 -21.17840 -21.16408 -11.56573
 Alpha  occ. eigenvalues --  -11.41586 -10.48729 -10.48548  -9.68622  -9.68469
 Alpha  occ. eigenvalues --   -9.67746  -9.67727  -9.67656  -9.67598  -2.08734
 Alpha  occ. eigenvalues --   -1.47305  -1.33923  -1.30519  -1.12577  -0.89706
 Alpha  occ. eigenvalues --   -0.73128  -0.69635  -0.68485  -0.62692  -0.59145
 Alpha  occ. eigenvalues --   -0.55714  -0.53893  -0.52103  -0.50999  -0.50515
 Alpha  occ. eigenvalues --   -0.48327  -0.36524  -0.33989
 Alpha virt. eigenvalues --    0.03317   0.04032   0.05918   0.06445   0.07935
 Alpha virt. eigenvalues --    0.08479   0.11116   0.12819   0.12844   0.13672
 Alpha virt. eigenvalues --    0.14055   0.15266   0.15570   0.16885   0.17885

  Beta  occ. eigenvalues --  -99.91257 -99.91247 -21.15863 -21.13901 -11.56641
  Beta  occ. eigenvalues --  -11.41592 -10.48724 -10.48543  -9.68588  -9.68432
  Beta  occ. eigenvalues --   -9.67741  -9.67731  -9.67661  -9.67596  -2.03611
  Beta  occ. eigenvalues --   -1.43616  -1.30463  -1.29042  -1.11912  -0.89351
  Beta  occ. eigenvalues --   -0.72119  -0.69113  -0.68068  -0.59046  -0.58829
  Beta  occ. eigenvalues --   -0.53458  -0.53354  -0.50551  -0.50430  -0.47354
  Beta  occ. eigenvalues --   -0.44401  -0.34278
  Beta virt. eigenvalues --    0.03342   0.04090   0.05676   0.06448   0.07139
  Beta virt. eigenvalues --    0.08509   0.09477   0.11131   0.12889   0.13312
  Beta virt. eigenvalues --    0.13765   0.15373   0.15594   0.16297   0.16974

 Mulliken charges and spin densities:
               1          2
     1  C    0.595155  -0.010316
     2  O   -1.333593   0.068001
     3  O   -0.294913   0.924247
     4  C   -3.001257   0.005256
     5  H    1.254451   0.000773
     6  H    1.222189  -0.002548
     7  H    1.254451   0.000773
     8  Cl   0.151759   0.006907
     9  Cl   0.151759   0.006907
 Sum of Mulliken charges =   0.00000   1.00000

 Dipole moment (field-independent basis, Debye):
    X=             -0.0000    Y=              0.0617    Z=              2.0468  Tot=              2.0477
                          Isotropic Fermi Contact Couplings
        Atom                 a.u.       MegaHertz       Gauss      10(-4) cm-1
     1  C(13)             -0.01146     -12.88684      -4.59834      -4.29859
     2  O(17)              0.04966     -30.10621     -10.74265     -10.04235
     3  O(17)              0.19887    -120.55322     -43.01639     -40.21223
     4  C(13)             -0.00162      -1.81747      -0.64852      -0.60624
     5  H(1)               0.00016       0.72532       0.25881       0.24194
     6  H(1)              -0.00049      -2.18348      -0.77912      -0.72833
     7  H(1)               0.00016       0.72533       0.25882       0.24194
     8  Cl(35)            -0.00118      -0.51583      -0.18406      -0.17206

 Normal termination of Gaussian 16 at Tue Apr  8 23:11:00 2025.
