 Gaussian 16, Revision C.01,

 ----------------------------------------------------------------------
 #t hf aug-cc-pvdz symm=none int=(grid=ultrafine) guess=(read,tcheck) s
 table=(opt,rrhf)
 ----------------------------------------------------------------------
 -----
 title
 -----
 Symbolic Z-matrix:
 Charge =  0 Multiplicity = 1

 SCF Done:  E(RHF) =  -421.556888370     A.U. after   15 cycles

 1\1\GINC-SE364\Stability\RHF\Aug-CC-pVDZ\C9H10O1\OHZDE\08-Apr-2025\0\\
 #t hf aug-cc-pvdz symm=none int=(grid=ultrafine) guess=(read,tcheck) s
 table=(opt,rrhf)\\title\\0,1\C,0,2.396894,-1.079624,-0.105262\C,0,1.10
 2001,-1.219312,0.392095\C,0,2.874058,0.177096,-0.467185\C,0,2.049047,1
 .292812,-0.329284\C,0,0.756881,1.152112,0.167396\C,0,0.268466,-0.10701
 8,0.536949\H,0,0.739749,-2.20135,0.679235\H,0,2.413239,2.275272,-0.608
 378\H,0,0.114746,2.020565,0.266904\H,0,3.031911,-1.952815,-0.206101\H,
 0,3.881368,0.287944,-0.852262\C,0,-2.176524,0.104941,-0.006419\O,0,-2.

 Normal termination of Gaussian 16 at Tue Apr  8 22:37:54 2025.
 Gaussian 16:  ES64L-G16RevC.01  3-Jul-2019

 ----------------------------------------------------------------------
 #t hf aug-cc-pvdz iop(5/13=1,5/36=2,99/5=2) pseudo=read geom=check gue
 ss=(read,tcheck) scf=(maxcycle=1)
 ----------------------------------------------------------------------
 -----
 title
 -----
 Structure from the checkpoint file:  "BDE49_expt_1096_mol1.chk"
 Charge =  0 Multiplicity = 1

                         Standard orientation:
 ---------------------------------------------------------------------
 Center     Atomic      Atomic             Coordinates (Angstroms)
 Number     Number       Type             X           Y           Z
 ---------------------------------------------------------------------
      1          6           0        2.396894   -1.079624   -0.105262
      2          6           0        1.102001   -1.219312    0.392095
      3          6           0        2.874058    0.177096   -0.467185
      4          6           0        2.049047    1.292812   -0.329284
      5          6           0        0.756881    1.152112    0.167396
      6          6           0        0.268466   -0.107018    0.536949
      7          1           0        0.739749   -2.201350    0.679235
      8          1           0        2.413239    2.275272   -0.608378
      9          1           0        0.114746    2.020565    0.266904
     10          1           0        3.031911   -1.952815   -0.206101
     11          1           0        3.881368    0.287944   -0.852262
     12          6           0       -2.176524    0.104941   -0.006419
     13          8           0       -2.661212    1.211411   -0.067566
     14          6           0       -2.529257   -0.989121   -0.993503
     15          1           0       -1.624304   -1.447248   -1.402238
     16          1           0       -3.139986   -0.580293   -1.797206
     17          1           0       -3.087747   -1.779212   -0.479781
     18          6           0       -1.146048   -0.246303    1.073033
     19          1           0       -1.306812    0.440926    1.906521
     20          1           0       -1.305573   -1.268571    1.426907
 ---------------------------------------------------------------------

 SCF Done:  E(RHF) =  -423.547529837     A.U. after    2 cycles

 The electronic state is 1-A.
 Alpha  occ. eigenvalues --  -21.05038 -11.52418 -11.49934 -11.44929 -11.43653
 Alpha  occ. eigenvalues --  -11.42070 -11.41093 -11.40881 -11.38677 -11.36521
 Alpha  occ. eigenvalues --   -1.70694  -1.35632  -1.18227  -1.09458  -1.09384
 Alpha  occ. eigenvalues --   -1.01053  -0.86795  -0.84611  -0.75327  -0.70815
 Alpha  occ. eigenvalues --   -0.65304  -0.63768  -0.61525  -0.60002  -0.58240
 Alpha  occ. eigenvalues --   -0.55876  -0.54762  -0.52949  -0.49011  -0.47797
 Alpha  occ. eigenvalues --   -0.45073  -0.44374  -0.40344  -0.33495  -0.33124
 Alpha  occ. eigenvalues --   -0.27477
 Alpha virt. eigenvalues --    0.03166   0.04611   0.04732   0.05299   0.05980
 Alpha virt. eigenvalues --    0.06050   0.06689   0.06824   0.07839   0.08376
 Alpha virt. eigenvalues --    0.10290   0.10421   0.11177   0.11453   0.12626

 Mulliken charges:
               1
     1  C   -1.147904
     2  C   -2.601599
     3  C   -2.999205
     4  C   -1.274424
     5  C   -2.935323
     6  C    4.905016
     7  H    1.759120
     8  H    1.511797
     9  H    1.934880
    10  H    1.498064
    11  H    1.551795
    12  C    4.648437
    13  O   -3.545261
    14  C   -4.732800
    15  H    1.442859
    16  H    1.260785
    17  H    1.233164
    18  C   -5.050791
    19  H    1.032225
    20  H    1.509163
 Sum of Mulliken charges =   0.00000

 Dipole moment (field-independent basis, Debye):
    X=              0.7834    Y=             -1.1091    Z=              0.0372  Tot=              1.3584

 Test job not archived.
 1\1\GINC-SE364\SP\RHF\Aug-CC-pVDZ\C9H10O1\OHZDE\08-Apr-2025\0\\#t hf a
 ug-cc-pvdz iop(5/13=1,5/36=2,99/5=2) pseudo=read geom=check guess=(rea
 d,tcheck) scf=(maxcycle=1)\\title\\0,1\C,0,2.396894,-1.079624,-0.10526
 2\C,0,1.102001,-1.219312,0.392095\C,0,2.874058,0.177096,-0.467185\C,0,
 2.049047,1.292812,-0.329284\C,0,0.756881,1.152112,0.167396\C,0,0.26846
 6,-0.107018,0.536949\H,0,0.739749,-2.20135,0.679235\H,0,2.413239,2.275
 272,-0.608378\H,0,0.114746,2.020565,0.266904\H,0,3.031911,-1.952815,-0
 .206101\H,0,3.881368,0.287944,-0.852262\C,0,-2.176524,0.104941,-0.0064

 Normal termination of Gaussian 16 at Tue Apr  8 22:38:04 2025.
