 Gaussian 16, Revision C.01,

 ----------------------------------------------------------------------
 #t hf aug-cc-pvdz symm=none int=(grid=ultrafine) guess=(read,tcheck) s
 table=(opt,rrhf)
 ----------------------------------------------------------------------
 -----
 title
 -----
 Symbolic Z-matrix:
 Charge =  0 Multiplicity = 1

 SCF Done:  E(RHF) =  -769.721152524     A.U. after   20 cycles
 Normal termination of Gaussian 16 at Tue Apr  8 22:57:45 2025.
 Gaussian 16:  ES64L-G16RevC.01  3-Jul-2019

 ----------------------------------------------------------------------
 #t hf aug-cc-pvdz iop(5/13=1,5/36=2,99/5=2) pseudo=read geom=check gue
 ss=(read,tcheck) scf=(maxcycle=1)
 ----------------------------------------------------------------------
 -----
 title
 -----
 Structure from the checkpoint file:  "BDE49_expt_1751_mol1.chk"
 Charge =  0 Multiplicity = 1

                         Standard orientation:
 ---------------------------------------------------------------------
 Center     Atomic      Atomic             Coordinates (Angstroms)
 Number     Number       Type             X           Y           Z
 ---------------------------------------------------------------------
      1          6           0       -2.843435   -0.887659   -0.352730
      2          7           0       -2.016753    0.202970    0.061004
      3          6           0       -0.584224    0.110740    0.031984
      4          7           0       -2.679711    1.335602    0.525690
      5          8           0       -1.972784    2.234592    0.883801
      6          8           0       -2.329986   -1.909527   -0.729538
      7          6           0        0.143180    0.999867   -0.759401
      8          6           0        1.529559    0.926361   -0.782157
      9          6           0        2.159177   -0.045188   -0.013665
     10          6           0        1.448837   -0.940767    0.776683
     11          6           0        0.063172   -0.856036    0.800951
     12          1           0       -0.514065   -1.543003    1.404527
     13          1           0        1.982276   -1.681671    1.354876
     14          1           0       -0.371171    1.744475   -1.351835
     15          1           0        2.124044    1.599703   -1.382957
     16          6           0       -4.334848   -0.664673   -0.285352
     17          1           0       -4.654169   -0.450580    0.735754
     18          1           0       -4.812001   -1.574136   -0.644897
     19          1           0       -4.635098    0.186013   -0.899032
     20          7           0        3.638432   -0.130106   -0.039203
     21          8           0        4.237144    0.671251   -0.742287
     22          8           0        4.165363   -0.995806    0.644681
 ---------------------------------------------------------------------

 SCF Done:  E(RHF) =  -773.099142712     A.U. after    2 cycles

 The electronic state is 1-A.
 Alpha  occ. eigenvalues --  -21.14332 -21.10005 -21.09886 -21.07828 -16.00593
 Alpha  occ. eigenvalues --  -15.93019 -15.82301 -11.57638 -11.55815 -11.50785
 Alpha  occ. eigenvalues --  -11.48635 -11.48220 -11.45206 -11.41961 -11.41602
 Alpha  occ. eigenvalues --   -2.00381  -1.91634  -1.75801  -1.69660  -1.50073
 Alpha  occ. eigenvalues --   -1.36894  -1.19783  -1.14302  -1.12742  -1.04737
 Alpha  occ. eigenvalues --   -0.97204  -0.92459  -0.86651  -0.80930  -0.74177
 Alpha  occ. eigenvalues --   -0.71216  -0.69172  -0.68896  -0.68146  -0.65823
 Alpha  occ. eigenvalues --   -0.64003  -0.62621  -0.60454  -0.59779  -0.58287
 Alpha  occ. eigenvalues --   -0.57380  -0.53893  -0.53434  -0.51743  -0.49964
 Alpha  occ. eigenvalues --   -0.48385  -0.39069  -0.37639  -0.36265  -0.34514
 Alpha  occ. eigenvalues --   -0.33818  -0.31766  -0.31678  -0.30728
 Alpha virt. eigenvalues --    0.02763   0.04316   0.04965   0.05672   0.06069
 Alpha virt. eigenvalues --    0.06153   0.06608   0.07356   0.08182   0.09604
 Alpha virt. eigenvalues --    0.09816   0.10846   0.11058   0.11554   0.12148

 Mulliken charges:
               1
     1  C    3.847089
     2  N   -3.284876
     3  C    3.547630
     4  N    1.128385
     5  O   -2.183608
     6  O   -3.240655
     7  C   -1.472232
     8  C   -1.856082
     9  C    1.198568
    10  C   -1.709528
    11  C   -0.594524
    12  H    1.938918
    13  H    1.909188
    14  H    1.970089
    15  H    1.907635
    16  C   -4.276678
    17  H    1.285351
    18  H    1.147086
    19  H    1.289549
    20  N    3.492067
    21  O   -3.013419
    22  O   -3.029953
 Sum of Mulliken charges =   0.00000

 Dipole moment (field-independent basis, Debye):
    X=             -2.6977    Y=              0.2704    Z=              0.0564  Tot=              2.7118

 Test job not archived.
 1\1\GINC-SE365\SP\RHF\Aug-CC-pVDZ\C8H7N3O4\OHZDE\08-Apr-2025\0\\#t hf
 aug-cc-pvdz iop(5/13=1,5/36=2,99/5=2) pseudo=read geom=check guess=(re
 ad,tcheck) scf=(maxcycle=1)\\title\\0,1\C,0,-2.843435,-0.887659,-0.352
 73\N,0,-2.016753,0.20297,0.061004\C,0,-0.584224,0.11074,0.031984\N,0,-
 2.679711,1.335602,0.52569\O,0,-1.972784,2.234592,0.883801\O,0,-2.32998
 6,-1.909527,-0.729538\C,0,0.14318,0.999867,-0.759401\C,0,1.529559,0.92
 6361,-0.782157\C,0,2.159177,-0.045188,-0.013665\C,0,1.448837,-0.940767
 ,0.776683\C,0,0.063172,-0.856036,0.800951\H,0,-0.514065,-1.543003,1.40

 Normal termination of Gaussian 16 at Tue Apr  8 22:58:01 2025.
