 Gaussian 16, Revision C.01,

 ----------------------------------------------------------------------
 #t hf aug-cc-pvdz symm=none int=(grid=ultrafine) guess=(read,tcheck) s
 table=(opt,rrhf)
 ----------------------------------------------------------------------
 -----
 title
 -----
 Symbolic Z-matrix:
 Charge =  0 Multiplicity = 1

 SCF Done:  E(RHF) =  -1643.78886516     A.U. after   12 cycles
 Normal termination of Gaussian 16 at Tue Apr  8 23:49:26 2025.
 Gaussian 16:  ES64L-G16RevC.01  3-Jul-2019

 ----------------------------------------------------------------------
 #t hf aug-cc-pvdz iop(5/13=1,5/36=2,99/5=2) pseudo=read geom=check gue
 ss=(read,tcheck) scf=(maxcycle=1)
 ----------------------------------------------------------------------
 -----
 title
 -----
 Structure from the checkpoint file:  "BDE49_nonexpt_1811_mol1.chk"
 Charge =  0 Multiplicity = 1

                         Standard orientation:
 ---------------------------------------------------------------------
 Center     Atomic      Atomic             Coordinates (Angstroms)
 Number     Number       Type             X           Y           Z
 ---------------------------------------------------------------------
      1          6           0        0.476678    0.946226    0.000000
      2         14           0       -0.359263   -0.766988    0.000000
      3         17           0        2.264625    0.766383    0.000000
      4          9           0        0.112850    1.658127    1.091343
      5          9           0        0.112850    1.658127   -1.091343
      6         17           0       -2.375978   -0.580662    0.000000
      7          9           0        0.112850   -1.552393    1.286037
      8          9           0        0.112850   -1.552393   -1.286037
 ---------------------------------------------------------------------

 SCF Done:  E(RHF) =  -1645.94211963     A.U. after    2 cycles

 The electronic state is 1-A'.
 Alpha  occ. eigenvalues --  -99.93442 -99.93023 -76.36142 -29.33496 -29.33454
 Alpha  occ. eigenvalues --  -29.32616 -29.32614 -11.57569 -10.50985 -10.50442
 Alpha  occ. eigenvalues --   -9.70835  -9.70252  -9.70196  -9.70129  -9.69499
 Alpha  occ. eigenvalues --   -9.69413  -5.72216  -2.37073  -2.35371  -2.33262
 Alpha  occ. eigenvalues --   -1.44038  -1.34875  -1.22809  -0.98753  -0.88437
 Alpha  occ. eigenvalues --   -0.77108  -0.74815  -0.73967  -0.65888  -0.58583
 Alpha  occ. eigenvalues --   -0.58458  -0.55498  -0.54440  -0.48922  -0.45059
 Alpha  occ. eigenvalues --   -0.43009  -0.42819  -0.40316  -0.39386  -0.37952
 Alpha  occ. eigenvalues --   -0.37400  -0.33559  -0.32592  -0.27293  -0.25927
 Alpha virt. eigenvalues --    0.04944   0.05567   0.07198   0.07598   0.08166
 Alpha virt. eigenvalues --    0.10080   0.11346   0.13013   0.13746   0.15152
 Alpha virt. eigenvalues --    0.15839   0.16516   0.16673   0.17577   0.19137

 Mulliken charges:
               1
     1  C   -0.881970
     2  Si   3.173794
     3  Cl  -0.564927
     4  F    0.410411
     5  F    0.410411
     6  Cl  -0.875049
     7  F   -0.836335
     8  F   -0.836335
 Sum of Mulliken charges =  -0.00000

 Dipole moment (field-independent basis, Debye):
    X=             -1.5433    Y=             -0.1240    Z=             -0.0000  Tot=              1.5483

 Test job not archived.
 1\1\GINC-SE054\SP\RHF\Aug-CC-pVDZ\C1Cl2F4Si1\OHZDE\08-Apr-2025\0\\#t h
 f aug-cc-pvdz iop(5/13=1,5/36=2,99/5=2) pseudo=read geom=check guess=(
 read,tcheck) scf=(maxcycle=1)\\title\\0,1\C,0,0.476678,0.946226,0.\Si,
 0,-0.359263,-0.766988,0.\Cl,0,2.264625,0.766383,0.\F,0,0.11285,1.65812
 7,1.091343\F,0,0.11285,1.658127,-1.091343\Cl,0,-2.375978,-0.580662,0.\
 F,0,0.11285,-1.552393,1.286037\F,0,0.11285,-1.552393,-1.286037\\Versio
 n=ES64L-G16RevC.01\State=1-A'\HF=-1645.9421196\RMSD=4.934e-02\Dipole=-
 0.6071793,-0.048791,0.\Quadrupole=-7.9668825,5.1919224,2.7749601,-3.24

 Normal termination of Gaussian 16 at Tue Apr  8 23:49:30 2025.
