 Gaussian 16, Revision C.01,

 ----------------------------------------------------------------------
 #t hf aug-cc-pvdz symm=none int=(grid=ultrafine) guess=(read,tcheck) s
 table=(opt,rrhf)
 ----------------------------------------------------------------------
 -----
 title
 -----
 Symbolic Z-matrix:
 Charge =  0 Multiplicity = 1

 SCF Done:  E(RHF) =  -104.481485216     A.U. after   12 cycles
 Normal termination of Gaussian 16 at Wed Apr  9 00:28:40 2025.
 Gaussian 16:  ES64L-G16RevC.01  3-Jul-2019

 ----------------------------------------------------------------------
 #t hf aug-cc-pvdz iop(5/13=1,5/36=2,99/5=2) pseudo=read geom=check gue
 ss=(read,tcheck) scf=(maxcycle=1)
 ----------------------------------------------------------------------
 -----
 title
 -----
 Structure from the checkpoint file:  "BDE49_nonexpt_307_mol1.chk"
 Charge =  0 Multiplicity = 1

                         Standard orientation:
 ---------------------------------------------------------------------
 Center     Atomic      Atomic             Coordinates (Angstroms)
 Number     Number       Type             X           Y           Z
 ---------------------------------------------------------------------
      1          5           0        1.364066   -0.277066   -0.000001
      2          6           0        0.097664    0.633476   -0.000010
      3          6           0       -1.133199   -0.323351    0.000009
      4          1           0        0.035275    1.273055   -0.886024
      5          1           0        0.035280    1.273082    0.885986
      6          1           0       -1.145095   -0.967409   -0.883534
      7          1           0       -2.061098    0.253782    0.000004
      8          1           0       -1.145089   -0.967384    0.883570
      9          1           0        1.836797   -0.670292   -1.025091
     10          1           0        1.836813   -0.670251    1.025098
 ---------------------------------------------------------------------

 SCF Done:  E(RHF) =  -105.035556259     A.U. after    2 cycles

 The electronic state is 1-A.
 Alpha  occ. eigenvalues --  -11.38884 -11.33219  -7.60047  -1.17452  -0.92088
 Alpha  occ. eigenvalues --   -0.76817  -0.61508  -0.56931  -0.50335  -0.48755
 Alpha  occ. eigenvalues --   -0.43623  -0.40457
 Alpha virt. eigenvalues --    0.03043   0.03881   0.03952   0.04309   0.06965
 Alpha virt. eigenvalues --    0.07816   0.07963   0.08161   0.10020   0.11880
 Alpha virt. eigenvalues --    0.12546   0.13226   0.14410   0.16044   0.16908

 Mulliken charges:
               1
     1  B    7.190144
     2  C   -4.366193
     3  C   -3.593122
     4  H    1.328954
     5  H    1.328949
     6  H    1.324406
     7  H    1.138622
     8  H    1.324406
     9  H   -2.838080
    10  H   -2.838086
 Sum of Mulliken charges =  -0.00000

 Dipole moment (field-independent basis, Debye):
    X=             -0.6779    Y=              0.4169    Z=             -0.0000  Tot=              0.7958

 Test job not archived.
 1\1\GINC-SE455\SP\RHF\Aug-CC-pVDZ\C2H7B1\OHZDE\09-Apr-2025\0\\#t hf au
 g-cc-pvdz iop(5/13=1,5/36=2,99/5=2) pseudo=read geom=check guess=(read
 ,tcheck) scf=(maxcycle=1)\\title\\0,1\B,0,1.364066,-0.277066,-0.000001
 \C,0,0.097664,0.633476,-0.00001\C,0,-1.133199,-0.323351,0.000009\H,0,0
 .035275,1.273055,-0.886024\H,0,0.03528,1.273082,0.885986\H,0,-1.145095
 ,-0.967409,-0.883534\H,0,-2.061098,0.253782,0.000004\H,0,-1.145089,-0.
 967384,0.88357\H,0,1.836797,-0.670292,-1.025091\H,0,1.836813,-0.670251
 ,1.025098\\Version=ES64L-G16RevC.01\State=1-A\HF=-105.0355563\RMSD=1.8

 Normal termination of Gaussian 16 at Wed Apr  9 00:28:42 2025.
