 Gaussian 16, Revision C.01,

 ----------------------------------------------------------------------
 #t hf aug-cc-pvdz symm=none int=(grid=ultrafine) guess=(read,tcheck) s
 table=(opt,rrhf)
 ----------------------------------------------------------------------
 -----
 title
 -----
 Symbolic Z-matrix:
 Charge =  0 Multiplicity = 1

 SCF Done:  E(RHF) =  -158.378974088     A.U. after   13 cycles
 Normal termination of Gaussian 16 at Wed Apr  9 00:36:49 2025.
 Gaussian 16:  ES64L-G16RevC.01  3-Jul-2019

 ----------------------------------------------------------------------
 #t hf aug-cc-pvdz iop(5/13=1,5/36=2,99/5=2) pseudo=read geom=check gue
 ss=(read,tcheck) scf=(maxcycle=1)
 ----------------------------------------------------------------------
 -----
 title
 -----
 Structure from the checkpoint file:  "BDE49_nonexpt_541_mol1.chk"
 Charge =  0 Multiplicity = 1

                         Standard orientation:
 ---------------------------------------------------------------------
 Center     Atomic      Atomic             Coordinates (Angstroms)
 Number     Number       Type             X           Y           Z
 ---------------------------------------------------------------------
      1          5           0       -1.985093   -0.244579    0.000077
      2          1           0       -2.537619   -0.422204   -1.043713
      3          1           0       -2.538077   -0.420000    1.043998
      4          7           0       -0.691930    0.167474   -0.000075
      5          6           0        0.497693    0.546288   -0.000204
      6          6           0        1.689589   -0.372031    0.000146
      7          1           0        2.312402   -0.179223   -0.879816
      8          1           0        1.377661   -1.416347    0.000473
      9          1           0        2.312321   -0.178647    0.880038
     10          1           0        0.718594    1.621455   -0.000493
 ---------------------------------------------------------------------

 SCF Done:  E(RHF) =  -159.147352060     A.U. after    2 cycles

 The electronic state is 1-A.
 Alpha  occ. eigenvalues --  -15.71426 -11.46276 -11.38741  -7.60595  -1.38558
 Alpha  occ. eigenvalues --   -1.11060  -0.93569  -0.73195  -0.61658  -0.59421
 Alpha  occ. eigenvalues --   -0.55877  -0.53229  -0.52367  -0.38114  -0.36758
 Alpha virt. eigenvalues --    0.02950   0.04382   0.04514   0.05211   0.06304
 Alpha virt. eigenvalues --    0.06385   0.07643   0.08922   0.10743   0.11882
 Alpha virt. eigenvalues --    0.13016   0.13355   0.14093   0.14734   0.16443

 Mulliken charges:
               1
     1  B    6.655339
     2  H   -2.875028
     3  H   -2.875165
     4  N   -4.997591
     5  C    2.558742
     6  C   -3.905268
     7  H    1.245149
     8  H    1.285560
     9  H    1.245122
    10  H    1.663140
 Sum of Mulliken charges =   0.00000

 Dipole moment (field-independent basis, Debye):
    X=              2.4709    Y=              0.5303    Z=             -0.0001  Tot=              2.5272

 Test job not archived.
 1\1\GINC-SE343\SP\RHF\Aug-CC-pVDZ\C2H6B1N1\OHZDE\09-Apr-2025\0\\#t hf
 aug-cc-pvdz iop(5/13=1,5/36=2,99/5=2) pseudo=read geom=check guess=(re
 ad,tcheck) scf=(maxcycle=1)\\title\\0,1\B,0,-1.985093,-0.244579,0.0000
 77\H,0,-2.537619,-0.422204,-1.043713\H,0,-2.538077,-0.42,1.043998\N,0,
 -0.69193,0.167474,-0.000075\C,0,0.497693,0.546288,-0.000204\C,0,1.6895
 89,-0.372031,0.000146\H,0,2.312402,-0.179223,-0.879816\H,0,1.377661,-1
 .416347,0.000473\H,0,2.312321,-0.178647,0.880038\H,0,0.718594,1.621455
 ,-0.000493\\Version=ES64L-G16RevC.01\State=1-A\HF=-159.1473521\RMSD=1.

 Normal termination of Gaussian 16 at Wed Apr  9 00:36:52 2025.
