 Gaussian 16, Revision C.01,

 ----------------------------------------------------------------------
 #t hf aug-cc-pvdz symm=none int=(grid=ultrafine) guess=(read,tcheck) s
 table=(opt,rrhf)
 ----------------------------------------------------------------------
 -----
 title
 -----
 Symbolic Z-matrix:
 Charge =  0 Multiplicity = 1

 SCF Done:  E(RHF) =  -767.733647465     A.U. after   15 cycles

 1\1\GINC-SE088\Stability\RHF\Aug-CC-pVDZ\C8H9Cl1\OHZDE\08-Apr-2025\0\\
 #t hf aug-cc-pvdz symm=none int=(grid=ultrafine) guess=(read,tcheck) s
 table=(opt,rrhf)\\title\\0,1\C,0,0.021653,1.571669,0.155295\C,0,-1.290
 048,1.843893,-0.221921\C,0,-2.22377,0.815107,-0.301786\C,0,-1.864686,-
 0.505508,-0.007627\C,0,-0.546472,-0.760862,0.372667\C,0,0.402661,0.262
 585,0.457301\H,0,0.749649,2.373549,0.215803\H,0,-1.586819,2.861492,-0.
 449949\C,0,1.806422,-0.042743,0.875316\C,0,-2.873547,-1.623247,-0.1194
 81\H,0,-3.24526,1.038242,-0.593046\H,0,-0.248365,-1.778634,0.606576\H,

 Normal termination of Gaussian 16 at Tue Apr  8 22:51:46 2025.
 Gaussian 16:  ES64L-G16RevC.01  3-Jul-2019

 ----------------------------------------------------------------------
 #t hf aug-cc-pvdz iop(5/13=1,5/36=2,99/5=2) pseudo=read geom=check gue
 ss=(read,tcheck) scf=(maxcycle=1)
 ----------------------------------------------------------------------
 -----
 title
 -----
 Structure from the checkpoint file:  "BDE49_expt_1690_mol1.chk"
 Charge =  0 Multiplicity = 1

                         Standard orientation:
 ---------------------------------------------------------------------
 Center     Atomic      Atomic             Coordinates (Angstroms)
 Number     Number       Type             X           Y           Z
 ---------------------------------------------------------------------
      1          6           0        0.021653    1.571669    0.155295
      2          6           0       -1.290048    1.843893   -0.221921
      3          6           0       -2.223770    0.815107   -0.301786
      4          6           0       -1.864686   -0.505508   -0.007627
      5          6           0       -0.546472   -0.760862    0.372667
      6          6           0        0.402661    0.262585    0.457301
      7          1           0        0.749649    2.373549    0.215803
      8          1           0       -1.586819    2.861492   -0.449949
      9          6           0        1.806422   -0.042743    0.875316
     10          6           0       -2.873547   -1.623247   -0.119481
     11          1           0       -3.245260    1.038242   -0.593046
     12          1           0       -0.248365   -1.778634    0.606576
     13          1           0        2.290952    0.810477    1.344156
     14         17           0        2.882385   -0.471649   -0.556025
     15          1           0        1.862059   -0.905599    1.535001
     16          1           0       -3.846540   -1.323027    0.277806
     17          1           0       -2.546030   -2.512427    0.422881
     18          1           0       -3.023473   -1.911396   -1.165385
 ---------------------------------------------------------------------

 SCF Done:  E(RHF) =  -769.492319942     A.U. after    2 cycles

 The electronic state is 1-A.
 Alpha  occ. eigenvalues --  -99.87164 -11.51518 -11.45817 -11.44771 -11.43695
 Alpha  occ. eigenvalues --  -11.42279 -11.41446 -11.39181 -11.36409 -10.44333
 Alpha  occ. eigenvalues --   -9.64301  -9.63605  -9.63529  -1.38214  -1.29488
 Alpha  occ. eigenvalues --   -1.15830  -1.11810  -1.00549  -0.98452  -0.85956
 Alpha  occ. eigenvalues --   -0.82397  -0.70524  -0.65631  -0.64586  -0.60677
 Alpha  occ. eigenvalues --   -0.59271  -0.57844  -0.57358  -0.55566  -0.51573
 Alpha  occ. eigenvalues --   -0.48910  -0.48472  -0.47095  -0.43766  -0.42975
 Alpha  occ. eigenvalues --   -0.33243  -0.32254
 Alpha virt. eigenvalues --    0.03105   0.04560   0.04802   0.05494   0.06116
 Alpha virt. eigenvalues --    0.06339   0.07127   0.07330   0.07583   0.08507
 Alpha virt. eigenvalues --    0.09245   0.10663   0.11566   0.12213   0.12526

 Mulliken charges:
               1
     1  C   -3.466592
     2  C   -1.232374
     3  C   -2.914094
     4  C    2.841616
     5  C   -1.797809
     6  C    3.735993
     7  H    1.771951
     8  H    1.475946
     9  C   -4.777249
    10  C   -5.337050
    11  H    1.791531
    12  H    1.936193
    13  H    1.240059
    14  Cl   0.128349
    15  H    1.221513
    16  H    1.066696
    17  H    1.223473
    18  H    1.091850
 Sum of Mulliken charges =   0.00000

 Dipole moment (field-independent basis, Debye):
    X=             -2.3829    Y=              0.5001    Z=              1.4755  Tot=              2.8470

 Test job not archived.
 1\1\GINC-SE088\SP\RHF\Aug-CC-pVDZ\C8H9Cl1\OHZDE\08-Apr-2025\0\\#t hf a
 ug-cc-pvdz iop(5/13=1,5/36=2,99/5=2) pseudo=read geom=check guess=(rea
 d,tcheck) scf=(maxcycle=1)\\title\\0,1\C,0,0.021653,1.571669,0.155295\
 C,0,-1.290048,1.843893,-0.221921\C,0,-2.22377,0.815107,-0.301786\C,0,-
 1.864686,-0.505508,-0.007627\C,0,-0.546472,-0.760862,0.372667\C,0,0.40
 2661,0.262585,0.457301\H,0,0.749649,2.373549,0.215803\H,0,-1.586819,2.
 861492,-0.449949\C,0,1.806422,-0.042743,0.875316\C,0,-2.873547,-1.6232
 47,-0.119481\H,0,-3.24526,1.038242,-0.593046\H,0,-0.248365,-1.778634,0

 Normal termination of Gaussian 16 at Tue Apr  8 22:51:55 2025.
