 Gaussian 16, Revision C.01,

 ----------------------------------------------------------------------
 #t hf aug-cc-pvdz symm=none int=(grid=ultrafine) guess=(read,tcheck) s
 table=opt
 ----------------------------------------------------------------------
 -----
 title
 -----
 Symbolic Z-matrix:
 Charge =  0 Multiplicity = 2

 SCF Done:  E(UHF) =  -375.203769748     A.U. after   15 cycles
 Normal termination of Gaussian 16 at Tue Apr  8 22:39:28 2025.
 Gaussian 16:  ES64L-G16RevC.01  3-Jul-2019

 ----------------------------------------------------------------------
 #t hf aug-cc-pvdz iop(5/13=1,5/36=2,99/5=2) pseudo=read geom=check gue
 ss=(read,tcheck) scf=(maxcycle=1)
 ----------------------------------------------------------------------
 -----
 title
 -----
 Structure from the checkpoint file:  "BDE49_expt_121_mol2.chk"
 Charge =  0 Multiplicity = 2

                         Standard orientation:
 ---------------------------------------------------------------------
 Center     Atomic      Atomic             Coordinates (Angstroms)
 Number     Number       Type             X           Y           Z
 ---------------------------------------------------------------------
      1          6           0        0.553044    0.000000    0.376687
      2          9           0        1.069256   -1.096332   -0.180222
      3          6           0       -0.910022   -0.000000    0.626827
      4          9           0        1.069256    1.096333   -0.180222
      5          9           0       -1.638503   -0.000000   -0.572439
      6          1           0       -1.179105    0.896642    1.187433
      7          1           0       -1.179105   -0.896641    1.187434
 ---------------------------------------------------------------------

 SCF Done:  E(UHF) =  -376.556690067     A.U. after    2 cycles

 The electronic state is 2-A.
 Alpha  occ. eigenvalues --  -29.31972 -29.31924 -29.27667 -11.54046 -11.47309
 Alpha  occ. eigenvalues --   -1.36798  -1.11607  -0.85177  -0.76228  -0.72091
 Alpha  occ. eigenvalues --   -0.64611  -0.59587  -0.46586  -0.40998  -0.39698
 Alpha  occ. eigenvalues --   -0.34791  -0.32925  -0.26992  -0.26846  -0.24965
 Alpha  occ. eigenvalues --   -0.17941
 Alpha virt. eigenvalues --    0.04112   0.05584   0.09001   0.11186   0.11834
 Alpha virt. eigenvalues --    0.12518   0.12966   0.17152   0.18484   0.21744
 Alpha virt. eigenvalues --    0.23274   0.23849   0.24954   0.28580   0.29500

  Beta  occ. eigenvalues --  -29.31582 -29.31533 -29.27379 -11.51940 -11.46765
  Beta  occ. eigenvalues --   -1.31767  -1.09477  -0.83720  -0.73752  -0.68866
  Beta  occ. eigenvalues --   -0.64389  -0.47108  -0.45863  -0.40191  -0.38850
  Beta  occ. eigenvalues --   -0.34546  -0.31145  -0.26567  -0.26090  -0.24785
  Beta virt. eigenvalues --    0.04152   0.05587   0.09072   0.11025   0.11293
  Beta virt. eigenvalues --    0.12562   0.13024   0.16170   0.17183   0.18529
  Beta virt. eigenvalues --    0.23332   0.23856   0.24053   0.26564   0.28693

 Mulliken charges and spin densities:
               1          2
     1  C   -1.489836   0.970000
     2  F    0.593332   0.121856
     3  C   -2.757468  -0.250410
     4  F    0.593333   0.121857
     5  F    0.384810   0.048333
     6  H    1.337915  -0.005818
     7  H    1.337914  -0.005818
 Sum of Mulliken charges =  -0.00000   1.00000

 Dipole moment (field-independent basis, Debye):
    X=              0.1449    Y=              0.0000    Z=             -2.1353  Tot=              2.1402
                          Isotropic Fermi Contact Couplings
        Atom                 a.u.       MegaHertz       Gauss      10(-4) cm-1
     1  C(13)              0.18373     206.54609      73.70078      68.89636
     2  F(19)              0.03566     150.02110      53.53126      50.04165
     3  C(13)              0.01275      14.33348       5.11454       4.78113
     4  F(19)              0.03566     150.02129      53.53133      50.04172
     5  F(19)              0.01813      76.26284      27.21248      25.43855
     6  H(1)               0.00099       4.40377       1.57137       1.46894
     7  H(1)               0.00099       4.40377       1.57138       1.46894
 --------------------------------------------------------

 Normal termination of Gaussian 16 at Tue Apr  8 22:39:30 2025.
