 Gaussian 16, Revision C.01,

 ----------------------------------------------------------------------
 #t hf aug-cc-pvdz symm=none int=(grid=ultrafine) guess=(read,tcheck) s
 table=(opt,rrhf)
 ----------------------------------------------------------------------
 -----
 title
 -----
 Symbolic Z-matrix:
 Charge =  0 Multiplicity = 1

 SCF Done:  E(RHF) =  -2255.09016411     A.U. after   12 cycles
 Normal termination of Gaussian 16 at Wed Apr  9 00:09:40 2025.
 Gaussian 16:  ES64L-G16RevC.01  3-Jul-2019

 ----------------------------------------------------------------------
 #t hf aug-cc-pvdz iop(5/13=1,5/36=2,99/5=2) pseudo=read geom=check gue
 ss=(read,tcheck) scf=(maxcycle=1)
 ----------------------------------------------------------------------
 -----
 title
 -----
 Structure from the checkpoint file:  "BDE49_nonexpt_2330_mol1.chk"
 Charge =  0 Multiplicity = 1

                         Standard orientation:
 ---------------------------------------------------------------------
 Center     Atomic      Atomic             Coordinates (Angstroms)
 Number     Number       Type             X           Y           Z
 ---------------------------------------------------------------------
      1         14           0        1.305826   -0.000003    0.394216
      2         14           0       -1.034730   -0.000001    0.301429
      3          9           0       -1.620887   -0.000007    1.784992
      4         17           0       -1.712112   -1.679987   -0.650568
      5          9           0        1.816476   -1.281442    1.183425
      6         17           0        2.135754    0.000009   -1.469805
      7         17           0       -1.712110    1.679994   -0.650554
      8          9           0        1.816477    1.281426    1.183442
 ---------------------------------------------------------------------

 SCF Done:  E(RHF) =  -2257.11937100     A.U. after    2 cycles

 The electronic state is 1-A.
 Alpha  occ. eigenvalues --  -99.92615 -99.92614 -99.92559 -76.36193 -76.35353
 Alpha  occ. eigenvalues --  -29.31568 -29.31567 -29.31504 -10.50140 -10.50082
 Alpha  occ. eigenvalues --  -10.50068  -9.69960  -9.69943  -9.69920  -9.69397
 Alpha  occ. eigenvalues --   -9.69369  -9.69330  -9.69259  -9.69259  -9.69178
 Alpha  occ. eigenvalues --   -5.70982  -5.70804  -2.35598  -2.34917  -2.33477
 Alpha  occ. eigenvalues --   -2.32160  -2.30592  -2.29796  -1.34900  -1.33771
 Alpha  occ. eigenvalues --   -1.32176  -0.98327  -0.89995  -0.74086  -0.68587
 Alpha  occ. eigenvalues --   -0.65331  -0.63654  -0.62206  -0.58753  -0.57935
 Alpha  occ. eigenvalues --   -0.57394  -0.56954  -0.55001  -0.51369  -0.44506
 Alpha  occ. eigenvalues --   -0.40315  -0.39876  -0.38951  -0.38342  -0.37858
 Alpha  occ. eigenvalues --   -0.36804  -0.31665  -0.31582
 Alpha virt. eigenvalues --    0.04651   0.05387   0.06190   0.07135   0.08257
 Alpha virt. eigenvalues --    0.08666   0.08910   0.10138   0.10358   0.10471
 Alpha virt. eigenvalues --    0.12314   0.12713   0.13524   0.14425   0.14737

 Mulliken charges:
               1
     1  Si   2.475534
     2  Si   1.271137
     3  F   -0.365613
     4  Cl  -0.788235
     5  F   -0.454169
     6  Cl  -0.896251
     7  Cl  -0.788235
     8  F   -0.454168
 Sum of Mulliken charges =  -0.00000

 Dipole moment (field-independent basis, Debye):
    X=              1.1830    Y=             -0.0000    Z=              7.0497  Tot=              7.1483

 Test job not archived.
 1\1\GINC-SE335\SP\RHF\Aug-CC-pVDZ\Cl3F3Si2\OHZDE\09-Apr-2025\0\\#t hf
 aug-cc-pvdz iop(5/13=1,5/36=2,99/5=2) pseudo=read geom=check guess=(re
 ad,tcheck) scf=(maxcycle=1)\\title\\0,1\Si,0,1.305826,-0.000003,0.3942
 16\Si,0,-1.03473,-0.000001,0.301429\F,0,-1.620887,-0.000007,1.784992\C
 l,0,-1.712112,-1.679987,-0.650568\F,0,1.816476,-1.281442,1.183425\Cl,0
 ,2.135754,0.000009,-1.469805\Cl,0,-1.71211,1.679994,-0.650554\F,0,1.81
 6477,1.281426,1.183442\\Version=ES64L-G16RevC.01\State=1-A\HF=-2257.11
 9371\RMSD=4.174e-02\Dipole=0.4654208,-0.000016,2.7735742\Quadrupole=-1

 Normal termination of Gaussian 16 at Wed Apr  9 00:09:43 2025.
