 Gaussian 16, Revision C.01,

 ----------------------------------------------------------------------
 #t hf aug-cc-pvdz symm=none int=(grid=ultrafine) guess=(read,tcheck) s
 table=(opt,rrhf)
 ----------------------------------------------------------------------
 -----
 title
 -----
 Symbolic Z-matrix:
 Charge =  0 Multiplicity = 1

 SCF Done:  E(RHF) =  -515.810279434     A.U. after   12 cycles
 Normal termination of Gaussian 16 at Tue Apr  8 22:46:33 2025.
 Gaussian 16:  ES64L-G16RevC.01  3-Jul-2019

 ----------------------------------------------------------------------
 #t hf aug-cc-pvdz iop(5/13=1,5/36=2,99/5=2) pseudo=read geom=check gue
 ss=(read,tcheck) scf=(maxcycle=1)
 ----------------------------------------------------------------------
 -----
 title
 -----
 Structure from the checkpoint file:  "BDE49_expt_1548_mol1.chk"
 Charge =  0 Multiplicity = 1

                         Standard orientation:
 ---------------------------------------------------------------------
 Center     Atomic      Atomic             Coordinates (Angstroms)
 Number     Number       Type             X           Y           Z
 ---------------------------------------------------------------------
      1         16           0       -1.370010   -0.080548   -0.092025
      2          6           0        0.416663    0.016680    0.402021
      3          6           0        1.091751   -1.265272   -0.089743
      4          1           0       -1.748929    1.095556    0.437133
      5          1           0        1.056808   -1.332591   -1.180885
      6          1           0        0.613037   -2.155587    0.324018
      7          6           0        1.093014    1.273438   -0.142253
      8          1           0        0.437027    0.030066    1.494247
      9          1           0        2.143562    1.299147    0.167954
     10          1           0        0.612933    2.182174    0.228635
     11          1           0        1.055099    1.292583   -1.234278
     12          1           0        2.142051   -1.271646    0.215433
 ---------------------------------------------------------------------

 SCF Done:  E(RHF) =  -516.665940714     A.U. after    2 cycles

 The electronic state is 1-A.
 Alpha  occ. eigenvalues --  -75.67688 -13.12934 -13.08183 -13.01496 -11.43119
 Alpha  occ. eigenvalues --  -11.38838 -11.36323  -8.01564  -1.26399  -1.05063
 Alpha  occ. eigenvalues --   -1.01095  -0.82184  -0.64305  -0.60325  -0.57386
 Alpha  occ. eigenvalues --   -0.54281  -0.49128  -0.48080  -0.44986  -0.36192
 Alpha  occ. eigenvalues --   -0.23576
 Alpha virt. eigenvalues --    0.03209   0.04841   0.05508   0.05718   0.06193
 Alpha virt. eigenvalues --    0.06847   0.07139   0.07586   0.11065   0.11977
 Alpha virt. eigenvalues --    0.13478   0.14368   0.15313   0.15477   0.16656

 Mulliken charges:
               1
     1  S   -0.495099
     2  C   -2.668167
     3  C   -3.558620
     4  H    0.956937
     5  H    1.314826
     6  H    1.273859
     7  C   -3.403969
     8  H    1.584821
     9  H    1.236258
    10  H    1.149539
    11  H    1.381115
    12  H    1.228498
 Sum of Mulliken charges =   0.00000

 Dipole moment (field-independent basis, Debye):
    X=              0.5856    Y=             -0.8562    Z=             -0.1252  Tot=              1.0448

 Test job not archived.
 1\1\GINC-SE096\SP\RHF\Aug-CC-pVDZ\C3H8S1\OHZDE\08-Apr-2025\0\\#t hf au
 g-cc-pvdz iop(5/13=1,5/36=2,99/5=2) pseudo=read geom=check guess=(read
 ,tcheck) scf=(maxcycle=1)\\title\\0,1\S,0,-1.37001,-0.080549,-0.092025
 \C,0,0.416663,0.01668,0.402021\C,0,1.091752,-1.265272,-0.089743\H,0,-1
 .74893,1.095555,0.437133\H,0,1.056809,-1.332591,-1.180885\H,0,0.613038
 ,-2.155587,0.324018\C,0,1.093013,1.273438,-0.142253\H,0,0.437027,0.030
 066,1.494247\H,0,2.143561,1.299148,0.167954\H,0,0.612932,2.182174,0.22
 8635\H,0,1.055098,1.292583,-1.234278\H,0,2.142052,-1.271645,0.215433\\

 Normal termination of Gaussian 16 at Tue Apr  8 22:46:37 2025.
