 Gaussian 16, Revision C.01,

 ----------------------------------------------------------------------
 #t hf aug-cc-pvdz symm=none int=(grid=ultrafine) guess=(read,tcheck) s
 table=(opt,rrhf)
 ----------------------------------------------------------------------
 -----
 title
 -----
 Symbolic Z-matrix:
 Charge =  0 Multiplicity = 1

 SCF Done:  E(RHF) =  -373.127162168     A.U. after   14 cycles

 1\1\GINC-SE273\Stability\RHF\Aug-CC-pVDZ\C9H13B1\OHZDE\09-Apr-2025\0\\
 #t hf aug-cc-pvdz symm=none int=(grid=ultrafine) guess=(read,tcheck) s
 table=(opt,rrhf)\\title\\0,1\B,0,2.235568,0.000126,0.11785\C,0,1.88609
 5,-0.000358,1.64862\C,0,-0.346463,0.000154,-0.553994\C,0,3.737457,0.00
 0017,-0.356167\H,0,4.260601,-0.870059,0.062988\H,0,4.260833,0.869775,0
 .063352\H,0,3.889168,0.000221,-1.4391\H,0,1.257436,0.865784,1.89353\H,
 0,2.751088,-0.000613,2.316543\H,0,1.257353,-0.866597,1.892979\C,0,-1.0
 33906,-1.199181,-0.330972\C,0,-1.034005,1.199344,-0.330499\C,0,-2.3572

 Normal termination of Gaussian 16 at Wed Apr  9 00:30:25 2025.
 Gaussian 16:  ES64L-G16RevC.01  3-Jul-2019

 ----------------------------------------------------------------------
 #t hf aug-cc-pvdz iop(5/13=1,5/36=2,99/5=2) pseudo=read geom=check gue
 ss=(read,tcheck) scf=(maxcycle=1)
 ----------------------------------------------------------------------
 -----
 title
 -----
 Structure from the checkpoint file:  "BDE49_nonexpt_298_mol1.chk"
 Charge =  0 Multiplicity = 1

                         Standard orientation:
 ---------------------------------------------------------------------
 Center     Atomic      Atomic             Coordinates (Angstroms)
 Number     Number       Type             X           Y           Z
 ---------------------------------------------------------------------
      1          5           0        2.235568    0.000126    0.117850
      2          6           0        1.886095   -0.000358    1.648620
      3          6           0       -0.346463    0.000154   -0.553994
      4          6           0        3.737457    0.000017   -0.356167
      5          1           0        4.260601   -0.870059    0.062988
      6          1           0        4.260833    0.869775    0.063352
      7          1           0        3.889168    0.000221   -1.439100
      8          1           0        1.257436    0.865784    1.893530
      9          1           0        2.751088   -0.000613    2.316543
     10          1           0        1.257353   -0.866597    1.892979
     11          6           0       -1.033906   -1.199181   -0.330972
     12          6           0       -1.034005    1.199344   -0.330499
     13          6           0       -2.357298    1.202097    0.104582
     14          6           0       -3.025603   -0.000130    0.325417
     15          6           0       -2.357199   -1.202215    0.104108
     16          1           0       -2.868029   -2.145346    0.265860
     17          1           0       -0.527300   -2.143534   -0.506693
     18          1           0       -2.868206    2.145122    0.266706
     19          1           0       -4.056332   -0.000239    0.661375
     20          1           0       -0.527476    2.143808   -0.505848
     21          6           0        1.097158    0.000301   -0.990950
     22          1           0        1.297774    0.865364   -1.640728
     23          1           0        1.297840   -0.864482   -1.641082
 ---------------------------------------------------------------------

 SCF Done:  E(RHF) =  -374.983529398     A.U. after    2 cycles

 The electronic state is 1-A.
 Alpha  occ. eigenvalues --  -11.51146 -11.43262 -11.42295 -11.40006 -11.39728
 Alpha  occ. eigenvalues --  -11.36717 -11.34872 -11.32995 -11.32549  -7.58592
 Alpha  occ. eigenvalues --   -1.34569  -1.18201  -1.09674  -1.08183  -1.00310
 Alpha  occ. eigenvalues --   -0.98208  -0.85460  -0.82835  -0.70328  -0.66440
 Alpha  occ. eigenvalues --   -0.63854  -0.60090  -0.58175  -0.56981  -0.56882
 Alpha  occ. eigenvalues --   -0.54856  -0.52423  -0.51583  -0.50656  -0.49732
 Alpha  occ. eigenvalues --   -0.44947  -0.43132  -0.39930  -0.37877  -0.32319
 Alpha  occ. eigenvalues --   -0.29821
 Alpha virt. eigenvalues --    0.03071   0.04135   0.04441   0.04759   0.05593
 Alpha virt. eigenvalues --    0.05930   0.06327   0.06909   0.07158   0.08109
 Alpha virt. eigenvalues --    0.08115   0.08582   0.09039   0.09387   0.09689

 Mulliken charges:
               1
     1  B    8.521979
     2  C   -6.290716
     3  C    4.698261
     4  C   -6.452764
     5  H    0.934097
     6  H    0.934133
     7  H    1.375720
     8  H    0.931250
     9  H    1.341724
    10  H    0.931444
    11  C   -2.274425
    12  C   -2.274443
    13  C   -2.073496
    14  C   -2.693517
    15  C   -2.073641
    16  H    1.529029
    17  H    1.732688
    18  H    1.529035
    19  H    1.523697
    20  H    1.732641
    21  C   -6.271113
    22  H    1.344316
    23  H    1.344101
 Sum of Mulliken charges =  -0.00000

 Dipole moment (field-independent basis, Debye):
    X=              0.4653    Y=              0.0001    Z=              0.0440  Tot=              0.4674

 Test job not archived.
 1\1\GINC-SE273\SP\RHF\Aug-CC-pVDZ\C9H13B1\OHZDE\09-Apr-2025\0\\#t hf a
 ug-cc-pvdz iop(5/13=1,5/36=2,99/5=2) pseudo=read geom=check guess=(rea
 d,tcheck) scf=(maxcycle=1)\\title\\0,1\B,0,2.235568,0.000126,0.11785\C
 ,0,1.886095,-0.000358,1.64862\C,0,-0.346463,0.000154,-0.553994\C,0,3.7
 37457,0.000017,-0.356167\H,0,4.260601,-0.870059,0.062988\H,0,4.260833,
 0.869775,0.063352\H,0,3.889168,0.000221,-1.4391\H,0,1.257436,0.865784,
 1.89353\H,0,2.751088,-0.000613,2.316543\H,0,1.257353,-0.866597,1.89297
 9\C,0,-1.033906,-1.199181,-0.330972\C,0,-1.034005,1.199344,-0.330499\C

 Normal termination of Gaussian 16 at Wed Apr  9 00:30:40 2025.
