 Gaussian 16, Revision C.01,

 ----------------------------------------------------------------------
 #t hf aug-cc-pvdz symm=none int=(grid=ultrafine) guess=(read,tcheck) s
 table=(opt,rrhf)
 ----------------------------------------------------------------------
 -----
 title
 -----
 Symbolic Z-matrix:
 Charge =  0 Multiplicity = 1

 SCF Done:  E(RHF) =  -521.171185181     A.U. after   12 cycles
 Normal termination of Gaussian 16 at Wed Apr  9 00:06:20 2025.
 Gaussian 16:  ES64L-G16RevC.01  3-Jul-2019

 ----------------------------------------------------------------------
 #t hf aug-cc-pvdz iop(5/13=1,5/36=2,99/5=2) pseudo=read geom=check gue
 ss=(read,tcheck) scf=(maxcycle=1)
 ----------------------------------------------------------------------
 -----
 title
 -----
 Structure from the checkpoint file:  "BDE49_nonexpt_2223_mol1.chk"
 Charge =  0 Multiplicity = 1

                         Standard orientation:
 ---------------------------------------------------------------------
 Center     Atomic      Atomic             Coordinates (Angstroms)
 Number     Number       Type             X           Y           Z
 ---------------------------------------------------------------------
      1          6           0        1.539616    0.767121   -0.483934
      2          6           0        1.730394   -0.684597    0.006065
      3          6           0        0.348692    1.393785    0.285868
      4          1           0        1.311605    0.754499   -1.556274
      5          1           0        2.458485    1.349478   -0.364250
      6         14           0       -0.871897   -0.042281    0.439064
      7          1           0       -0.050155    2.282295   -0.210398
      8          1           0        0.669540    1.703084    1.288227
      9          6           0        0.355230   -1.401448    0.000856
     10          1           0        0.332051   -2.268151    0.665070
     11          1           0        0.112778   -1.761443   -1.005509
     12          1           0        2.126786   -0.663884    1.028432
     13          1           0        2.467849   -1.214624   -0.604253
     14          8           0       -2.093634   -0.052496   -0.687306
     15          1           0       -2.853430    0.515561   -0.543593
     16          1           0       -1.463462   -0.134074    1.800977
 ---------------------------------------------------------------------

 SCF Done:  E(RHF) =  -522.452961106     A.U. after    2 cycles

 The electronic state is 1-A.
 Alpha  occ. eigenvalues --  -76.20698 -21.06604 -11.41410 -11.39060 -11.34379
 Alpha  occ. eigenvalues --  -11.33280  -5.54863  -2.22061  -2.17995  -2.17577
 Alpha  occ. eigenvalues --   -1.64961  -1.24586  -1.04322  -0.92781  -0.80603
 Alpha  occ. eigenvalues --   -0.70291  -0.63286  -0.62702  -0.58340  -0.57227
 Alpha  occ. eigenvalues --   -0.50229  -0.46721  -0.45004  -0.44205  -0.42901
 Alpha  occ. eigenvalues --   -0.40228  -0.37787  -0.33498
 Alpha virt. eigenvalues --    0.03772   0.05295   0.05809   0.05928   0.06052
 Alpha virt. eigenvalues --    0.06167   0.06287   0.06728   0.06908   0.08644
 Alpha virt. eigenvalues --    0.08903   0.09809   0.10413   0.13297   0.14085

 Mulliken charges:
               1
     1  C   -2.648327
     2  C   -2.577815
     3  C   -3.814411
     4  H    1.374921
     5  H    1.261697
     6  Si   6.245594
     7  H    1.248562
     8  H    1.346799
     9  C   -3.955553
    10  H    1.255205
    11  H    1.432573
    12  H    1.364556
    13  H    1.243645
    14  O   -2.900142
    15  H    1.134497
    16  H   -2.011803
 Sum of Mulliken charges =   0.00000

 Dipole moment (field-independent basis, Debye):
    X=             -0.0363    Y=              0.3613    Z=             -0.3350  Tot=              0.4940

 Test job not archived.
 1\1\GINC-SE331\SP\RHF\Aug-CC-pVDZ\C4H10O1Si1\OHZDE\09-Apr-2025\0\\#t h
 f aug-cc-pvdz iop(5/13=1,5/36=2,99/5=2) pseudo=read geom=check guess=(
 read,tcheck) scf=(maxcycle=1)\\title\\0,1\C,0,1.539616,0.767121,-0.483
 934\C,0,1.730394,-0.684597,0.006065\C,0,0.348692,1.393785,0.285868\H,0
 ,1.311605,0.754499,-1.556274\H,0,2.458485,1.349478,-0.36425\Si,0,-0.87
 1897,-0.042281,0.439064\H,0,-0.050155,2.282295,-0.210398\H,0,0.66954,1
 .703084,1.288227\C,0,0.35523,-1.401448,0.000856\H,0,0.332051,-2.268151
 ,0.66507\H,0,0.112778,-1.761443,-1.005509\H,0,2.126786,-0.663884,1.028

 Normal termination of Gaussian 16 at Wed Apr  9 00:06:25 2025.
