 Gaussian 16, Revision C.01,

 ----------------------------------------------------------------------
 #t hf aug-cc-pvdz symm=none int=(grid=ultrafine) guess=(read,tcheck) s
 table=(opt,rrhf)
 ----------------------------------------------------------------------
 -----
 title
 -----
 Symbolic Z-matrix:
 Charge =  0 Multiplicity = 1

 SCF Done:  E(RHF) =  -498.082107434     A.U. after   13 cycles
 Normal termination of Gaussian 16 at Tue Apr  8 23:52:23 2025.
 Gaussian 16:  ES64L-G16RevC.01  3-Jul-2019

 ----------------------------------------------------------------------
 #t hf aug-cc-pvdz iop(5/13=1,5/36=2,99/5=2) pseudo=read geom=check gue
 ss=(read,tcheck) scf=(maxcycle=1)
 ----------------------------------------------------------------------
 -----
 title
 -----
 Structure from the checkpoint file:  "BDE49_nonexpt_1905_mol1.chk"
 Charge =  0 Multiplicity = 1

                         Standard orientation:
 ---------------------------------------------------------------------
 Center     Atomic      Atomic             Coordinates (Angstroms)
 Number     Number       Type             X           Y           Z
 ---------------------------------------------------------------------
      1         14           0        1.962676   -0.133036   -0.234252
      2          6           0        0.344276   -0.065094    0.753908
      3          1           0        1.729341   -0.751470   -1.557949
      4          1           0        2.975964   -0.911009    0.517031
      5          1           0        2.469789    1.247414   -0.435676
      6          7           0       -0.666569    0.778629    0.119111
      7          6           0       -1.889598    0.307223   -0.254627
      8          8           0       -2.272214   -0.834942   -0.115032
      9          1           0       -2.511682    1.097836   -0.715361
     10          1           0       -0.467836    1.754809   -0.037167
     11          1           0        0.531858    0.266889    1.781800
     12          1           0       -0.089266   -1.065600    0.817645
 ---------------------------------------------------------------------

 SCF Done:  E(RHF) =  -499.177229671     A.U. after    2 cycles

 The electronic state is 1-A.
 Alpha  occ. eigenvalues --  -76.22133 -21.03082 -15.77501 -11.48197 -11.39082
 Alpha  occ. eigenvalues --   -5.55668  -2.19522  -2.17976  -2.17836  -1.70224
 Alpha  occ. eigenvalues --   -1.39265  -1.03175  -0.82881  -0.77516  -0.72313
 Alpha  occ. eigenvalues --   -0.60995  -0.58719  -0.53095  -0.49601  -0.47718
 Alpha  occ. eigenvalues --   -0.47352  -0.43811  -0.30265  -0.29783
 Alpha virt. eigenvalues --    0.03374   0.04516   0.04827   0.05708   0.06598
 Alpha virt. eigenvalues --    0.06980   0.07900   0.09084   0.09378   0.10354
 Alpha virt. eigenvalues --    0.11658   0.12149   0.13450   0.14715   0.15286

 Mulliken charges:
               1
     1  Si   6.009833
     2  C   -3.397094
     3  H   -1.714755
     4  H   -1.651882
     5  H   -1.687942
     6  N   -2.295409
     7  C    2.181582
     8  O   -2.702381
     9  H    1.591642
    10  H    0.740133
    11  H    1.330335
    12  H    1.595939
 Sum of Mulliken charges =   0.00000

 Dipole moment (field-independent basis, Debye):
    X=              1.1133    Y=              1.7046    Z=              0.5643  Tot=              2.1127

 Test job not archived.
 1\1\GINC-SE403\SP\RHF\Aug-CC-pVDZ\C2H7N1O1Si1\OHZDE\08-Apr-2025\0\\#t
 hf aug-cc-pvdz iop(5/13=1,5/36=2,99/5=2) pseudo=read geom=check guess=
 (read,tcheck) scf=(maxcycle=1)\\title\\0,1\Si,0,1.962676,-0.133036,-0.
 234252\C,0,0.344276,-0.065094,0.753908\H,0,1.729341,-0.75147,-1.557949
 \H,0,2.975964,-0.911009,0.517031\H,0,2.469789,1.247414,-0.435676\N,0,-
 0.666569,0.778629,0.119111\C,0,-1.889598,0.307223,-0.254627\O,0,-2.272
 214,-0.834942,-0.115032\H,0,-2.511682,1.097836,-0.715361\H,0,-0.467836
 ,1.754809,-0.037167\H,0,0.531858,0.266889,1.7818\H,0,-0.089266,-1.0656

 Normal termination of Gaussian 16 at Tue Apr  8 23:52:27 2025.
