 Gaussian 16, Revision C.01,

 ----------------------------------------------------------------------
 #t hf aug-cc-pvdz symm=none int=(grid=ultrafine) guess=(read,tcheck) s
 table=(opt,rrhf)
 ----------------------------------------------------------------------
 -----
 title
 -----
 Symbolic Z-matrix:
 Charge =  0 Multiplicity = 1

 SCF Done:  E(RHF) =  -285.768823037     A.U. after   14 cycles
 Normal termination of Gaussian 16 at Tue Apr  8 22:38:48 2025.
 Gaussian 16:  ES64L-G16RevC.01  3-Jul-2019

 ----------------------------------------------------------------------
 #t hf aug-cc-pvdz iop(5/13=1,5/36=2,99/5=2) pseudo=read geom=check gue
 ss=(read,tcheck) scf=(maxcycle=1)
 ----------------------------------------------------------------------
 -----
 title
 -----
 Structure from the checkpoint file:  "BDE49_expt_1178_mol1.chk"
 Charge =  0 Multiplicity = 1

                         Standard orientation:
 ---------------------------------------------------------------------
 Center     Atomic      Atomic             Coordinates (Angstroms)
 Number     Number       Type             X           Y           Z
 ---------------------------------------------------------------------
      1          6           0        1.206523    0.167376    0.000000
      2          6           0       -0.000000    0.875700    0.000000
      3          6           0        1.178566   -1.223384    0.000000
      4          6           0       -0.053287   -1.868702    0.000000
      5          6           0       -1.202601   -1.080909    0.000000
      6          7           0       -1.187970    0.252781    0.000000
      7          1           0        2.149915    0.701358    0.000000
      8          1           0        2.102367   -1.791559    0.000000
      9          1           0       -0.126938   -2.949641    0.000000
     10          1           0       -2.185637   -1.545130    0.000000
     11          6           0       -0.035932    2.381817    0.000000
     12          1           0        0.966705    2.813185    0.000000
     13          1           0       -0.575117    2.745467    0.878855
     14          1           0       -0.575117    2.745467   -0.878855
 ---------------------------------------------------------------------

 SCF Done:  E(RHF) =  -287.138685094     A.U. after    2 cycles

 The electronic state is 1-A'.
 Alpha  occ. eigenvalues --  -15.72811 -11.48934 -11.45002 -11.43537 -11.40528
 Alpha  occ. eigenvalues --  -11.38772 -11.36990  -1.44844  -1.18485  -1.15495
 Alpha  occ. eigenvalues --   -1.01286  -0.88647  -0.85015  -0.70983  -0.64168
 Alpha  occ. eigenvalues --   -0.62022  -0.58595  -0.56778  -0.54417  -0.51664
 Alpha  occ. eigenvalues --   -0.50994  -0.45682  -0.36396  -0.35215  -0.32839
 Alpha virt. eigenvalues --    0.03337   0.04976   0.05216   0.05629   0.06423
 Alpha virt. eigenvalues --    0.07093   0.07642   0.10432   0.10493   0.11471
 Alpha virt. eigenvalues --    0.11803   0.12629   0.13360   0.14010   0.14274

 Mulliken charges:
               1
     1  C   -1.748282
     2  C    2.559485
     3  C   -0.096139
     4  C   -0.948441
     5  C   -0.976735
     6  N   -3.761571
     7  H    1.595867
     8  H    1.556147
     9  H    1.427250
    10  H    1.594369
    11  C   -4.737644
    12  H    1.238419
    13  H    1.148637
    14  H    1.148637
 Sum of Mulliken charges =   0.00000

 Dipole moment (field-independent basis, Debye):
    X=              1.4359    Y=             -0.6666    Z=              0.0000  Tot=              1.5830

 Test job not archived.
 1\1\GINC-SE227\SP\RHF\Aug-CC-pVDZ\C6H7N1\OHZDE\08-Apr-2025\0\\#t hf au
 g-cc-pvdz iop(5/13=1,5/36=2,99/5=2) pseudo=read geom=check guess=(read
 ,tcheck) scf=(maxcycle=1)\\title\\0,1\C,0,1.206523,0.167376,0.\C,0,0.,
 0.8757,0.\C,0,1.178566,-1.223384,0.\C,0,-0.053287,-1.868702,0.\C,0,-1.
 202601,-1.080909,0.\N,0,-1.18797,0.252781,0.\H,0,2.149915,0.701358,0.\
 H,0,2.102367,-1.791559,0.\H,0,-0.126938,-2.949641,0.\H,0,-2.185637,-1.
 54513,0.\C,0,-0.035932,2.381817,0.\H,0,0.966705,2.813185,0.\H,0,-0.575
 117,2.745467,0.878855\H,0,-0.575117,2.745467,-0.878855\\Version=ES64L-

 Normal termination of Gaussian 16 at Tue Apr  8 22:38:52 2025.
