 Gaussian 16, Revision C.01,

 ----------------------------------------------------------------------
 #t hf aug-cc-pvdz symm=none int=(grid=ultrafine) guess=(read,tcheck) s
 table=(opt,rrhf)
 ----------------------------------------------------------------------
 -----
 title
 -----
 Symbolic Z-matrix:
 Charge =  0 Multiplicity = 1

 SCF Done:  E(RHF) =  -733.128565585     A.U. after   13 cycles
 Normal termination of Gaussian 16 at Wed Apr  9 00:10:35 2025.
 Gaussian 16:  ES64L-G16RevC.01  3-Jul-2019

 ----------------------------------------------------------------------
 #t hf aug-cc-pvdz iop(5/13=1,5/36=2,99/5=2) pseudo=read geom=check gue
 ss=(read,tcheck) scf=(maxcycle=1)
 ----------------------------------------------------------------------
 -----
 title
 -----
 Structure from the checkpoint file:  "BDE49_nonexpt_2342_mol1.chk"
 Charge =  0 Multiplicity = 1

                         Standard orientation:
 ---------------------------------------------------------------------
 Center     Atomic      Atomic             Coordinates (Angstroms)
 Number     Number       Type             X           Y           Z
 ---------------------------------------------------------------------
      1         14           0       -1.841151   -0.730939    0.050870
      2         14           0       -0.448381    1.159701   -0.170302
      3          6           0        1.972014   -0.305842   -0.246911
      4          8           0        1.804251   -1.477226   -0.005096
      5          1           0       -1.407769   -1.818950   -0.853449
      6          1           0       -1.824310   -1.213781    1.451864
      7          1           0       -3.229524   -0.341758   -0.299860
      8          6           0        1.311657    0.812939    0.501501
      9          1           0        1.895229    1.735110    0.425926
     10          1           0        1.201624    0.531994    1.552731
     11          1           0       -0.994755    2.307596    0.595093
     12          1           0       -0.347417    1.566381   -1.594967
     13          1           0        2.624333    0.005956   -1.092069
 ---------------------------------------------------------------------

 SCF Done:  E(RHF) =  -734.134835183     A.U. after    2 cycles

 The electronic state is 1-A.
 Alpha  occ. eigenvalues --  -76.22729 -76.21702 -21.06315 -11.48989 -11.38419
 Alpha  occ. eigenvalues --   -5.56260  -5.55105  -2.19696  -2.18443  -2.17845
 Alpha  occ. eigenvalues --   -2.17199  -2.17152  -2.16121  -1.71023  -1.12002
 Alpha  occ. eigenvalues --   -0.83515  -0.79488  -0.71322  -0.65214  -0.58240
 Alpha  occ. eigenvalues --   -0.51765  -0.49828  -0.48627  -0.46977  -0.46419
 Alpha  occ. eigenvalues --   -0.39092  -0.34839  -0.29845
 Alpha virt. eigenvalues --    0.03683   0.04592   0.05002   0.05581   0.05947
 Alpha virt. eigenvalues --    0.06919   0.07919   0.08406   0.08492   0.09383
 Alpha virt. eigenvalues --    0.09686   0.09897   0.10255   0.10751   0.11710

 Mulliken charges:
               1
     1  Si   4.731856
     2  Si   4.325066
     3  C    1.511273
     4  O   -2.624065
     5  H   -1.517922
     6  H   -1.556397
     7  H   -1.588474
     8  C   -3.991397
     9  H    1.369751
    10  H    1.418105
    11  H   -1.749137
    12  H   -1.804920
    13  H    1.476262
 Sum of Mulliken charges =  -0.00000

 Dipole moment (field-independent basis, Debye):
    X=              0.3358    Y=              1.0322    Z=              0.2301  Tot=              1.1096

 Test job not archived.
 1\1\GINC-SE322\SP\RHF\Aug-CC-pVDZ\C2H8O1Si2\OHZDE\09-Apr-2025\0\\#t hf
  aug-cc-pvdz iop(5/13=1,5/36=2,99/5=2) pseudo=read geom=check guess=(r
 ead,tcheck) scf=(maxcycle=1)\\title\\0,1\Si,0,-1.841151,-0.730939,0.05
 087\Si,0,-0.448381,1.159701,-0.170302\C,0,1.972014,-0.305842,-0.246911
 \O,0,1.804251,-1.477226,-0.005096\H,0,-1.407769,-1.81895,-0.853449\H,0
 ,-1.82431,-1.213781,1.451864\H,0,-3.229524,-0.341759,-0.29986\C,0,1.31
 1657,0.812939,0.501501\H,0,1.895229,1.73511,0.425926\H,0,1.201624,0.53
 1994,1.552731\H,0,-0.994755,2.307596,0.595093\H,0,-0.347417,1.566381,-

 Normal termination of Gaussian 16 at Wed Apr  9 00:10:46 2025.
