 Gaussian 16, Revision C.01,

 ----------------------------------------------------------------------
 #t hf aug-cc-pvdz symm=none int=(grid=ultrafine) guess=(read,tcheck) s
 table=(opt,rrhf)
 ----------------------------------------------------------------------
 -----
 title
 -----
 Symbolic Z-matrix:
 Charge =  0 Multiplicity = 1

 SCF Done:  E(RHF) =  -312.664035537     A.U. after   14 cycles
 Normal termination of Gaussian 16 at Tue Apr  8 23:19:49 2025.
 Gaussian 16:  ES64L-G16RevC.01  3-Jul-2019

 ----------------------------------------------------------------------
 #t hf aug-cc-pvdz iop(5/13=1,5/36=2,99/5=2) pseudo=read geom=check gue
 ss=(read,tcheck) scf=(maxcycle=1)
 ----------------------------------------------------------------------
 -----
 title
 -----
 Structure from the checkpoint file:  "BDE49_nonexpt_1108_mol1.chk"
 Charge =  0 Multiplicity = 1

                         Standard orientation:
 ---------------------------------------------------------------------
 Center     Atomic      Atomic             Coordinates (Angstroms)
 Number     Number       Type             X           Y           Z
 ---------------------------------------------------------------------
      1          9           0        1.436698   -0.479145    0.120618
      2          8           0        0.587529    0.585004   -0.372471
      3          6           0       -0.604757    0.471902    0.313381
      4          9           0       -1.386733   -0.549077   -0.162706
      5          1           0       -1.090513    1.430856    0.099361
      6          1           0       -0.430862    0.311693    1.378911
 ---------------------------------------------------------------------

 SCF Done:  E(RHF) =  -313.819589481     A.U. after    2 cycles

 The electronic state is 1-A.
 Alpha  occ. eigenvalues --  -29.30843 -29.28786 -21.18294 -11.50359  -1.85131
 Alpha  occ. eigenvalues --   -1.13365  -0.79593  -0.75372  -0.68200  -0.56943
 Alpha  occ. eigenvalues --   -0.48364  -0.39959  -0.37114  -0.30151  -0.28779
 Alpha  occ. eigenvalues --   -0.26937  -0.22727
 Alpha virt. eigenvalues --    0.03973   0.05323   0.10638   0.11368   0.14803
 Alpha virt. eigenvalues --    0.16396   0.19952   0.20801   0.22624   0.22909
 Alpha virt. eigenvalues --    0.25399   0.28701   0.29706   0.30956   0.32465

 Mulliken charges:
               1
     1  F    0.010629
     2  O   -1.311824
     3  C   -1.697631
     4  F    0.442028
     5  H    1.240407
     6  H    1.316392
 Sum of Mulliken charges =  -0.00000

 Dipole moment (field-independent basis, Debye):
    X=             -0.7121    Y=             -1.6146    Z=              0.3098  Tot=              1.7916

 Test job not archived.
 1\1\GINC-SE333\SP\RHF\Aug-CC-pVDZ\C1H2F2O1\OHZDE\08-Apr-2025\0\\#t hf
 aug-cc-pvdz iop(5/13=1,5/36=2,99/5=2) pseudo=read geom=check guess=(re
 ad,tcheck) scf=(maxcycle=1)\\title\\0,1\F,0,1.436698,-0.479145,0.12061
 8\O,0,0.587529,0.585004,-0.372471\C,0,-0.604757,0.471902,0.313381\F,0,
 -1.386733,-0.549076,-0.162706\H,0,-1.090513,1.430856,0.099361\H,0,-0.4
 30862,0.311693,1.378911\\Version=ES64L-G16RevC.01\State=1-A\HF=-313.81
 95895\RMSD=5.737e-02\Dipole=-0.2801652,-0.6352273,0.1219004\Quadrupole
 =1.0548982,-0.5470429,-0.5078553,-0.3250873,0.4068682,0.1859081\PG=C01

 Normal termination of Gaussian 16 at Tue Apr  8 23:19:51 2025.
