 Gaussian 16, Revision C.01,

 ----------------------------------------------------------------------
 #t hf aug-cc-pvdz symm=none int=(grid=ultrafine) guess=(read,tcheck) s
 table=opt
 ----------------------------------------------------------------------
 -----
 title
 -----
 Symbolic Z-matrix:
 Charge =  0 Multiplicity = 2

 SCF Done:  E(UHF) =  -368.708933686     A.U. after   14 cycles

 1\1\GINC-SE038\Stability\UHF\Aug-CC-pVDZ\C2H7Si1\OHZDE\08-Apr-2025\0\\
 #t hf aug-cc-pvdz symm=none int=(grid=ultrafine) guess=(read,tcheck) s
 table=opt\\title\\0,2\Si,0,-1.223912,-0.038444,0.\C,0,0.531084,0.67298
 2,-0.000002\C,0,1.64014,-0.398943,0.000001\H,0,1.575209,-1.041644,-0.8
 82028\H,0,1.575209,-1.041638,0.882035\H,0,2.632462,0.063863,0.\H,0,0.6
 35938,1.323068,0.875199\H,0,0.635938,1.323063,-0.875207\H,0,-1.473664,
 -0.86637,-1.211484\H,0,-1.473665,-0.86636,1.21149\\Version=ES64L-G16Re
 vC.01\HF=-368.7089337\S2=0.754155\S2-1=0.\S2A=0.750007\RMSD=5.919e-09\

 Normal termination of Gaussian 16 at Tue Apr  8 23:41:14 2025.
 Gaussian 16:  ES64L-G16RevC.01  3-Jul-2019

 ----------------------------------------------------------------------
 #t hf aug-cc-pvdz iop(5/13=1,5/36=2,99/5=2) pseudo=read geom=check gue
 ss=(read,tcheck) scf=(maxcycle=1)
 ----------------------------------------------------------------------
 -----
 title
 -----
 Structure from the checkpoint file:  "BDE49_nonexpt_1634_mol2.chk"
 Charge =  0 Multiplicity = 2

                         Standard orientation:
 ---------------------------------------------------------------------
 Center     Atomic      Atomic             Coordinates (Angstroms)
 Number     Number       Type             X           Y           Z
 ---------------------------------------------------------------------
      1         14           0       -1.223912   -0.038444    0.000000
      2          6           0        0.531084    0.672982   -0.000002
      3          6           0        1.640140   -0.398943    0.000001
      4          1           0        1.575209   -1.041644   -0.882028
      5          1           0        1.575209   -1.041638    0.882035
      6          1           0        2.632462    0.063863    0.000000
      7          1           0        0.635938    1.323068    0.875199
      8          1           0        0.635938    1.323063   -0.875207
      9          1           0       -1.473664   -0.866370   -1.211484
     10          1           0       -1.473665   -0.866360    1.211490
 ---------------------------------------------------------------------

 SCF Done:  E(UHF) =  -369.270858327     A.U. after    2 cycles

 The electronic state is 2-A.
 Alpha  occ. eigenvalues --  -76.21730 -11.39365 -11.35041  -5.55139  -2.18666
 Alpha  occ. eigenvalues --   -2.17118  -2.16440  -1.15204  -0.89690  -0.73070
 Alpha  occ. eigenvalues --   -0.61308  -0.57180  -0.50382  -0.49530  -0.46152
 Alpha  occ. eigenvalues --   -0.40097  -0.26395
 Alpha virt. eigenvalues --    0.03562   0.05219   0.05775   0.05925   0.06489
 Alpha virt. eigenvalues --    0.07093   0.08001   0.08100   0.09986   0.11057
 Alpha virt. eigenvalues --    0.11987   0.13490   0.15083   0.15811   0.16626

  Beta  occ. eigenvalues --  -76.21185 -11.39292 -11.34981  -5.54286  -2.17949
  Beta  occ. eigenvalues --   -2.16478  -2.12973  -1.14774  -0.89124  -0.69111
  Beta  occ. eigenvalues --   -0.61193  -0.56527  -0.49811  -0.49382  -0.45534
  Beta  occ. eigenvalues --   -0.39166
  Beta virt. eigenvalues --    0.03667   0.03773   0.05408   0.06021   0.06421
  Beta virt. eigenvalues --    0.07123   0.07177   0.08158   0.09275   0.11089
  Beta virt. eigenvalues --    0.11242   0.12568   0.13751   0.15467   0.16314

 Mulliken charges and spin densities:
               1          2
     1  Si   4.038766   1.016877
     2  C   -3.939450   0.036699
     3  C   -3.495606  -0.002006
     4  H    1.306837  -0.006178
     5  H    1.306836  -0.006178
     6  H    1.179449   0.001339
     7  H    1.369162  -0.012892
     8  H    1.369162  -0.012892
     9  H   -1.567577  -0.007384
    10  H   -1.567578  -0.007384
 Sum of Mulliken charges =  -0.00000   1.00000

 Dipole moment (field-independent basis, Debye):
    X=              0.8551    Y=              0.7090    Z=             -0.0000  Tot=              1.1108
                          Isotropic Fermi Contact Couplings
        Atom                 a.u.       MegaHertz       Gauss      10(-4) cm-1
     1  Si(29)             0.44910    -399.13190    -142.42019    -133.13607
     2  C(13)              0.01486      16.70933       5.96230       5.57363
     3  C(13)              0.02287      25.71090       9.17429       8.57623
     4  H(1)              -0.00014      -0.62316      -0.22236      -0.20786
     5  H(1)              -0.00014      -0.62316      -0.22236      -0.20787
     6  H(1)               0.00253      11.31805       4.03856       3.77530
     7  H(1)               0.00028       1.23465       0.44055       0.41183
     8  H(1)               0.00028       1.23469       0.44057       0.41185

 Normal termination of Gaussian 16 at Tue Apr  8 23:41:18 2025.
