 Gaussian 16, Revision C.01,

 ----------------------------------------------------------------------
 #t hf aug-cc-pvdz symm=none int=(grid=ultrafine) guess=(read,tcheck) s
 table=opt
 ----------------------------------------------------------------------
 -----
 title
 -----
 Symbolic Z-matrix:
 Charge =  0 Multiplicity = 2

 SCF Done:  E(UHF) =  -345.451133968     A.U. after   16 cycles

 1\1\GINC-SE038\Stability\UHF\Aug-CC-pVDZ\C5H11O2\OHZDE\08-Apr-2025\0\\
 #t hf aug-cc-pvdz symm=none int=(grid=ultrafine) guess=(read,tcheck) s
 table=opt\\title\\0,2\C,0,-0.168467,-0.756297,-0.477602\O,0,1.176255,-
 0.722864,-0.317301\O,0,-0.872172,-0.272909,0.602946\H,0,-0.500743,-1.7
 24959,-0.861014\C,0,1.742108,0.533851,0.09551\C,0,-2.292942,-0.283307,
 0.43761\C,0,3.250721,0.384887,0.077215\H,0,1.379193,0.78495,1.095499\H
 ,0,1.408542,1.31667,-0.596305\H,0,3.565504,-0.410728,0.756257\H,0,3.72
 5917,1.317313,0.393482\H,0,3.603023,0.138439,-0.926848\C,0,-2.791314,0

 Normal termination of Gaussian 16 at Tue Apr  8 22:59:42 2025.
 Gaussian 16:  ES64L-G16RevC.01  3-Jul-2019

 ----------------------------------------------------------------------
 #t hf aug-cc-pvdz iop(5/13=1,5/36=2,99/5=2) pseudo=read geom=check gue
 ss=(read,tcheck) scf=(maxcycle=1)
 ----------------------------------------------------------------------
 -----
 title
 -----
 Structure from the checkpoint file:  "BDE49_expt_189_mol2.chk"
 Charge =  0 Multiplicity = 2

                         Standard orientation:
 ---------------------------------------------------------------------
 Center     Atomic      Atomic             Coordinates (Angstroms)
 Number     Number       Type             X           Y           Z
 ---------------------------------------------------------------------
      1          6           0       -0.168467   -0.756297   -0.477602
      2          8           0        1.176255   -0.722864   -0.317301
      3          8           0       -0.872172   -0.272909    0.602946
      4          1           0       -0.500743   -1.724959   -0.861014
      5          6           0        1.742108    0.533851    0.095510
      6          6           0       -2.292942   -0.283307    0.437610
      7          6           0        3.250721    0.384887    0.077215
      8          1           0        1.379193    0.784950    1.095499
      9          1           0        1.408542    1.316670   -0.596305
     10          1           0        3.565504   -0.410728    0.756257
     11          1           0        3.725917    1.317313    0.393482
     12          1           0        3.603023    0.138439   -0.926848
     13          6           0       -2.791314    0.873783   -0.418045
     14          1           0       -2.696894   -0.221811    1.449653
     15          1           0       -2.603390   -1.246164    0.009902
     16          1           0       -2.489520    1.829031    0.018015
     17          1           0       -3.883155    0.853763   -0.483549
     18          1           0       -2.381789    0.812183   -1.428375
 ---------------------------------------------------------------------

 SCF Done:  E(UHF) =  -347.039764993     A.U. after    2 cycles

 The electronic state is 2-A.
 Alpha  occ. eigenvalues --  -21.05825 -21.05551 -11.43819 -11.42888 -11.42500
 Alpha  occ. eigenvalues --  -11.36661 -11.36054  -1.82886  -1.70214  -1.13637
 Alpha  occ. eigenvalues --   -1.11242  -0.93610  -0.88305  -0.82163  -0.67029
 Alpha  occ. eigenvalues --   -0.65130  -0.63939  -0.61167  -0.58465  -0.53171
 Alpha  occ. eigenvalues --   -0.52640  -0.51733  -0.50000  -0.48898  -0.46625
 Alpha  occ. eigenvalues --   -0.39669  -0.38559  -0.32025  -0.21676
 Alpha virt. eigenvalues --    0.03983   0.04862   0.05360   0.05426   0.05763
 Alpha virt. eigenvalues --    0.06262   0.06392   0.06732   0.07456   0.08001
 Alpha virt. eigenvalues --    0.08424   0.11724   0.12533   0.13366   0.14210

  Beta  occ. eigenvalues --  -21.05316 -21.05165 -11.43757 -11.42735 -11.40411
  Beta  occ. eigenvalues --  -11.36653 -11.36042  -1.81309  -1.69177  -1.13202
  Beta  occ. eigenvalues --   -1.11155  -0.91177  -0.88125  -0.79127  -0.66542
  Beta  occ. eigenvalues --   -0.64154  -0.62878  -0.60148  -0.56523  -0.52516
  Beta  occ. eigenvalues --   -0.51840  -0.50918  -0.49651  -0.46964  -0.42052
  Beta  occ. eigenvalues --   -0.38702  -0.36704  -0.29993
  Beta virt. eigenvalues --    0.03943   0.04878   0.05349   0.05446   0.05677
  Beta virt. eigenvalues --    0.06276   0.06335   0.06713   0.07472   0.08009
  Beta virt. eigenvalues --    0.08416   0.11454   0.12156   0.13263   0.13975

 Mulliken charges and spin densities:
               1          2
     1  C    1.577495   1.104573
     2  O   -3.253498  -0.041960
     3  O   -2.852856   0.052327
     4  H    1.834481   0.014308
     5  C   -1.909037  -0.035850
     6  C   -1.823408  -0.008181
     7  C   -3.738957  -0.027736
     8  H    1.597649   0.009287
     9  H    1.582701  -0.037408
    10  H    1.271750   0.001532
    11  H    1.100174  -0.002456
    12  H    1.247217  -0.001731
    13  C   -3.574073  -0.008553
    14  H    1.374058   0.008884
    15  H    1.622317   0.002770
    16  H    1.373996  -0.001906
    17  H    1.193911  -0.001713
    18  H    1.376080  -0.026186
 Sum of Mulliken charges =   0.00000   1.00000

 Dipole moment (field-independent basis, Debye):
    X=             -0.4886    Y=              0.2875    Z=              0.5577  Tot=              0.7952
                          Isotropic Fermi Contact Couplings
        Atom                 a.u.       MegaHertz       Gauss      10(-4) cm-1
     1  C(13)              0.18806     211.41832      75.43932      70.52156
     2  O(17)              0.02827     -17.13960      -6.11584      -5.71716
     3  O(17)              0.04250     -25.76450      -9.19341      -8.59411
     4  H(1)              -0.00070      -3.14555      -1.12241      -1.04924
     5  C(13)              0.01152      12.95153       4.62143       4.32016
     6  C(13)              0.00049       0.54752       0.19537       0.18263
     7  C(13)             -0.00150      -1.68746      -0.60213      -0.56287
     8  H(1)               0.00078       3.47509       1.24000       1.15916

 Normal termination of Gaussian 16 at Tue Apr  8 22:59:50 2025.
