 Gaussian 16, Revision C.01,

 ----------------------------------------------------------------------
 #t hf aug-cc-pvdz symm=none int=(grid=ultrafine) guess=(read,tcheck) s
 table=(opt,rrhf)
 ----------------------------------------------------------------------
 -----
 title
 -----
 Symbolic Z-matrix:
 Charge =  0 Multiplicity = 1

 SCF Done:  E(RHF) =  -2373.81459760     A.U. after   13 cycles

 1\1\GINC-SE165\Stability\RHF\Aug-CC-pVDZ\C2H1Cl5\OHZDE\08-Apr-2025\0\\
 #t hf aug-cc-pvdz symm=none int=(grid=ultrafine) guess=(read,tcheck) s
 table=(opt,rrhf)\\title\\0,1\C,0,-0.619654,-0.000012,0.001656\C,0,0.81
 9312,-0.000009,-0.590877\Cl,0,-1.484418,1.45337,-0.604303\Cl,0,-0.6117
 42,-0.000409,1.782014\Cl,0,-1.484725,-1.45294,-0.604954\H,0,0.732142,0
 .000008,-1.673104\Cl,0,1.733687,-1.46511,-0.133202\Cl,0,1.733663,1.465
 096,-0.133176\\Version=ES64L-G16RevC.01\HF=-2373.8145976\RMSD=2.984e-0
 9\Dipole=-0.0535337,0.0000003,-0.3878637\Quadrupole=-1.6235754,-0.0816

 Normal termination of Gaussian 16 at Tue Apr  8 22:40:49 2025.
 Gaussian 16:  ES64L-G16RevC.01  3-Jul-2019

 ----------------------------------------------------------------------
 #t hf aug-cc-pvdz iop(5/13=1,5/36=2,99/5=2) pseudo=read geom=check gue
 ss=(read,tcheck) scf=(maxcycle=1)
 ----------------------------------------------------------------------
 -----
 title
 -----
 Structure from the checkpoint file:  "BDE49_expt_131_mol1.chk"
 Charge =  0 Multiplicity = 1

                         Standard orientation:
 ---------------------------------------------------------------------
 Center     Atomic      Atomic             Coordinates (Angstroms)
 Number     Number       Type             X           Y           Z
 ---------------------------------------------------------------------
      1          6           0       -0.619654   -0.000012    0.001656
      2          6           0        0.819312   -0.000009   -0.590877
      3         17           0       -1.484419    1.453369   -0.604303
      4         17           0       -0.611742   -0.000409    1.782014
      5         17           0       -1.484724   -1.452941   -0.604954
      6          1           0        0.732142    0.000008   -1.673104
      7         17           0        1.733688   -1.465109   -0.133202
      8         17           0        1.733662    1.465097   -0.133176
 ---------------------------------------------------------------------

 SCF Done:  E(RHF) =  -2375.41034948     A.U. after    2 cycles

 The electronic state is 1-A.
 Alpha  occ. eigenvalues --  -99.92827 -99.92821 -99.92628 -99.91840 -99.91830
 Alpha  occ. eigenvalues --  -11.59031 -11.52954 -10.50335 -10.50070 -10.49966
 Alpha  occ. eigenvalues --  -10.49303 -10.49076  -9.70149  -9.70051  -9.69826
 Alpha  occ. eigenvalues --   -9.69302  -9.69260  -9.69223  -9.69163  -9.69111
 Alpha  occ. eigenvalues --   -9.69019  -9.68980  -9.68953  -9.68300  -9.68288
 Alpha  occ. eigenvalues --   -9.68175  -9.68148  -1.50489  -1.38377  -1.32016
 Alpha  occ. eigenvalues --   -1.31839  -1.30713  -1.09631  -0.93006  -0.76776
 Alpha  occ. eigenvalues --   -0.74221  -0.73746  -0.67238  -0.64668  -0.57225
 Alpha  occ. eigenvalues --   -0.56623  -0.56299  -0.54771  -0.53009  -0.52683
 Alpha  occ. eigenvalues --   -0.51926  -0.51073  -0.49355  -0.49305
 Alpha virt. eigenvalues --   -0.00716   0.02811   0.03846   0.04261   0.06143
 Alpha virt. eigenvalues --    0.07565   0.07806   0.09248   0.09777   0.11305
 Alpha virt. eigenvalues --    0.12524   0.12644   0.13803   0.14235   0.15084

 Mulliken charges:
               1
     1  C   -0.701104
     2  C   -2.361002
     3  Cl   0.188485
     4  Cl   0.171246
     5  Cl   0.188472
     6  H    1.946287
     7  Cl   0.283811
     8  Cl   0.283804
 Sum of Mulliken charges =  -0.00000

 Dipole moment (field-independent basis, Debye):
    X=             -0.0921    Y=              0.0000    Z=             -0.8573  Tot=              0.8622

 Test job not archived.
 1\1\GINC-SE165\SP\RHF\Aug-CC-pVDZ\C2H1Cl5\OHZDE\08-Apr-2025\0\\#t hf a
 ug-cc-pvdz iop(5/13=1,5/36=2,99/5=2) pseudo=read geom=check guess=(rea
 d,tcheck) scf=(maxcycle=1)\\title\\0,1\C,0,-0.619654,-0.000012,0.00165
 6\C,0,0.819312,-0.000009,-0.590877\Cl,0,-1.484418,1.45337,-0.604303\Cl
 ,0,-0.611742,-0.000409,1.782014\Cl,0,-1.484725,-1.45294,-0.604954\H,0,
 0.732142,0.000008,-1.673104\Cl,0,1.733687,-1.46511,-0.133202\Cl,0,1.73
 3663,1.465096,-0.133176\\Version=ES64L-G16RevC.01\State=1-A\HF=-2375.4
 103495\RMSD=1.194e-01\Dipole=-0.0362526,0.0000027,-0.337292\Quadrupole

 Normal termination of Gaussian 16 at Tue Apr  8 22:40:54 2025.
