 Gaussian 16, Revision C.01,

 ----------------------------------------------------------------------
 #t hf aug-cc-pvdz symm=none int=(grid=ultrafine) guess=(read,tcheck) s
 table=(opt,rrhf)
 ----------------------------------------------------------------------
 -----
 title
 -----
 Symbolic Z-matrix:
 Charge =  0 Multiplicity = 1

 SCF Done:  E(RHF) =  -680.580251535     A.U. after   12 cycles
 Normal termination of Gaussian 16 at Tue Apr  8 23:55:34 2025.
 Gaussian 16:  ES64L-G16RevC.01  3-Jul-2019

 ----------------------------------------------------------------------
 #t hf aug-cc-pvdz iop(5/13=1,5/36=2,99/5=2) pseudo=read geom=check gue
 ss=(read,tcheck) scf=(maxcycle=1)
 ----------------------------------------------------------------------
 -----
 title
 -----
 Structure from the checkpoint file:  "BDE49_nonexpt_1958_mol1.chk"
 Charge =  0 Multiplicity = 1

                         Standard orientation:
 ---------------------------------------------------------------------
 Center     Atomic      Atomic             Coordinates (Angstroms)
 Number     Number       Type             X           Y           Z
 ---------------------------------------------------------------------
      1         14           0        0.570434   -1.334940   -0.092491
      2          6           0       -1.082449   -0.960397    0.789770
      3          5           0       -1.884138    0.192250    0.106556
      4          5           0        1.816671    0.283218   -0.064661
      5          1           0        0.258508   -1.734455   -1.493684
      6          1           0        1.192380   -2.517505    0.556832
      7          8           0       -3.013020    0.045549   -0.652294
      8          1           0       -3.316076   -0.863064   -0.721248
      9          8           0       -1.409225    1.486406    0.226565
     10          1           0       -1.958281    2.119148   -0.250538
     11          8           0        1.407473    1.563538    0.142522
     12          1           0        0.447760    1.662556    0.257334
     13          8           0        3.144782    0.042739   -0.269006
     14          1           0        3.659440    0.860462   -0.251435
     15          1           0       -0.819253   -0.669726    1.813247
     16          1           0       -1.658610   -1.889064    0.853988
 ---------------------------------------------------------------------

 SCF Done:  E(RHF) =  -682.382635782     A.U. after    2 cycles

 The electronic state is 1-A.
 Alpha  occ. eigenvalues --  -76.19795 -21.07387 -21.07149 -21.04892 -21.04065
 Alpha  occ. eigenvalues --  -11.33248  -7.64515  -7.62740  -5.53404  -2.17124
 Alpha  occ. eigenvalues --   -2.16068  -2.15495  -1.83501  -1.79512  -1.66995
 Alpha  occ. eigenvalues --   -1.63999  -1.07298  -0.78870  -0.75754  -0.70157
 Alpha  occ. eigenvalues --   -0.66263  -0.61620  -0.60424  -0.54661  -0.53858
 Alpha  occ. eigenvalues --   -0.50908  -0.48088  -0.45661  -0.44389  -0.42901
 Alpha  occ. eigenvalues --   -0.40655  -0.38222  -0.37210  -0.35132  -0.32421
 Alpha virt. eigenvalues --    0.02485   0.03801   0.04336   0.04510   0.06022
 Alpha virt. eigenvalues --    0.06273   0.07183   0.07872   0.08200   0.08756
 Alpha virt. eigenvalues --    0.09019   0.09391   0.09591   0.09881   0.10753

 Mulliken charges:
               1
     1  Si   4.089149
     2  C   -6.305940
     3  B    8.830544
     4  B    5.664136
     5  H   -1.912796
     6  H   -1.949162
     7  O   -3.992034
     8  H    1.193314
     9  O   -4.044807
    10  H    1.213704
    11  O   -4.663030
    12  H    1.946262
    13  O   -4.106952
    14  H    1.390673
    15  H    1.596183
    16  H    1.050757
 Sum of Mulliken charges =  -0.00000

 Dipole moment (field-independent basis, Debye):
    X=             -2.2345    Y=              0.5086    Z=              0.4078  Tot=              2.3277

 Test job not archived.
 1\1\GINC-SE059\SP\RHF\Aug-CC-pVDZ\C1H8B2O4Si1\OHZDE\08-Apr-2025\0\\#t
 hf aug-cc-pvdz iop(5/13=1,5/36=2,99/5=2) pseudo=read geom=check guess=
 (read,tcheck) scf=(maxcycle=1)\\title\\0,1\Si,0,0.570434,-1.33494,-0.0
 92491\C,0,-1.082449,-0.960397,0.78977\B,0,-1.884138,0.19225,0.106556\B
 ,0,1.816671,0.283218,-0.064661\H,0,0.258508,-1.734455,-1.493684\H,0,1.
 19238,-2.517505,0.556832\O,0,-3.01302,0.045549,-0.652294\H,0,-3.316076
 ,-0.863064,-0.721248\O,0,-1.409225,1.486406,0.226565\H,0,-1.958281,2.1
 19148,-0.250538\O,0,1.407473,1.563538,0.142522\H,0,0.44776,1.662556,0.

 Normal termination of Gaussian 16 at Tue Apr  8 23:55:40 2025.
