 Gaussian 16, Revision C.01,

 ----------------------------------------------------------------------
 #t hf aug-cc-pvdz symm=none int=(grid=ultrafine) guess=(read,tcheck) s
 table=(opt,rrhf)
 ----------------------------------------------------------------------
 -----
 title
 -----
 Symbolic Z-matrix:
 Charge =  0 Multiplicity = 1

 SCF Done:  E(RHF) =  -510.255126606     A.U. after   14 cycles
 Normal termination of Gaussian 16 at Tue Apr  8 23:38:06 2025.
 Gaussian 16:  ES64L-G16RevC.01  3-Jul-2019

 ----------------------------------------------------------------------
 #t hf aug-cc-pvdz iop(5/13=1,5/36=2,99/5=2) pseudo=read geom=check gue
 ss=(read,tcheck) scf=(maxcycle=1)
 ----------------------------------------------------------------------
 -----
 title
 -----
 Structure from the checkpoint file:  "BDE49_nonexpt_1543_mol1.chk"
 Charge =  0 Multiplicity = 1

                         Standard orientation:
 ---------------------------------------------------------------------
 Center     Atomic      Atomic             Coordinates (Angstroms)
 Number     Number       Type             X           Y           Z
 ---------------------------------------------------------------------
      1          6           0       -1.150906   -0.419362    0.024016
      2          7           0        1.244210    0.939982    0.129811
      3          8           0       -1.684943    0.661127   -0.042751
      4         15           0        0.693804   -0.647596   -0.123932
      5          1           0       -1.742701   -1.354104    0.155062
      6          1           0        0.767846   -1.204017    1.183885
      7          1           0        1.700641    1.337784   -0.679247
      8          1           0        0.542665    1.581553    0.488515
 ---------------------------------------------------------------------

 SCF Done:  E(RHF) =  -511.179200465     A.U. after    2 cycles

 The electronic state is 1-A.
 Alpha  occ. eigenvalues -- -105.20409 -21.08032 -15.75401 -11.47421  -2.78870
 Alpha  occ. eigenvalues --   -1.72376  -1.58126  -1.48055  -1.45865  -1.18656
 Alpha  occ. eigenvalues --   -0.87421  -0.71792  -0.65707  -0.56349  -0.46877
 Alpha  occ. eigenvalues --   -0.45629  -0.40321  -0.28347  -0.19711  -0.03485
 Alpha virt. eigenvalues --    0.04590   0.05507   0.06585   0.07277   0.09034
 Alpha virt. eigenvalues --    0.09777   0.11172   0.12434   0.12856   0.15854
 Alpha virt. eigenvalues --    0.15943   0.17319   0.19271   0.20573   0.21434

 Mulliken charges:
               1
     1  C   -0.910737
     2  N   -2.299942
     3  O   -2.342132
     4  P    3.793200
     5  H    1.231544
     6  H   -0.538488
     7  H    0.542684
     8  H    0.523872
 Sum of Mulliken charges =  -0.00000

 Dipole moment (field-independent basis, Debye):
    X=              1.4488    Y=              0.6730    Z=             -0.7878  Tot=              1.7812

 Test job not archived.
 1\1\GINC-SE247\SP\RHF\Aug-CC-pVDZ\C1H4N1O1P1\OHZDE\08-Apr-2025\0\\#t h
 f aug-cc-pvdz iop(5/13=1,5/36=2,99/5=2) pseudo=read geom=check guess=(
 read,tcheck) scf=(maxcycle=1)\\title\\0,1\C,0,-1.150906,-0.419362,0.02
 4016\N,0,1.24421,0.939982,0.129811\O,0,-1.684943,0.661127,-0.042751\P,
 0,0.693804,-0.647596,-0.123932\H,0,-1.742701,-1.354104,0.155062\H,0,0.
 767846,-1.204017,1.183885\H,0,1.700641,1.337784,-0.679247\H,0,0.542665
 ,1.581553,0.488515\\Version=ES64L-G16RevC.01\State=1-A\HF=-511.1792005
 \RMSD=2.764e-01\Dipole=0.5700111,0.2647653,-0.3099491\Quadrupole=-0.66

 Normal termination of Gaussian 16 at Tue Apr  8 23:38:08 2025.
