 Gaussian 16, Revision C.01,

 ----------------------------------------------------------------------
 #t hf aug-cc-pvdz symm=none int=(grid=ultrafine) guess=(read,tcheck) s
 table=(opt,rrhf)
 ----------------------------------------------------------------------
 -----
 title
 -----
 Symbolic Z-matrix:
 Charge =  0 Multiplicity = 1

 SCF Done:  E(RHF) =  -705.142571772     A.U. after   15 cycles
 Normal termination of Gaussian 16 at Tue Apr  8 23:40:20 2025.
 Gaussian 16:  ES64L-G16RevC.01  3-Jul-2019

 ----------------------------------------------------------------------
 #t hf aug-cc-pvdz iop(5/13=1,5/36=2,99/5=2) pseudo=read geom=check gue
 ss=(read,tcheck) scf=(maxcycle=1)
 ----------------------------------------------------------------------
 -----
 title
 -----
 Structure from the checkpoint file:  "BDE49_nonexpt_1535_mol1.chk"
 Charge =  0 Multiplicity = 1

                         Standard orientation:
 ---------------------------------------------------------------------
 Center     Atomic      Atomic             Coordinates (Angstroms)
 Number     Number       Type             X           Y           Z
 ---------------------------------------------------------------------
      1          7           0       -1.674780   -0.006783    0.207379
      2          6           0        0.747564   -0.288822   -0.323025
      3          6           0        1.080568    1.057282   -0.142318
      4          6           0        1.763181   -1.245390   -0.266088
      5          6           0        3.087104   -0.868738   -0.043957
      6          6           0        3.409266    0.474260    0.131312
      7          6           0        2.400444    1.436197    0.083748
      8          1           0        4.437261    0.770168    0.308094
      9          1           0        2.643860    2.484006    0.222132
     10          1           0        0.292729    1.801390   -0.169538
     11          1           0        1.516720   -2.294944   -0.395112
     12          1           0        3.863400   -1.624777   -0.001483
     13         15           0       -3.176483    0.349902   -0.544254
     14          6           0       -1.651075   -0.395253    1.615655
     15          1           0       -0.624510   -0.373669    1.990420
     16          1           0       -2.059193   -1.406141    1.776926
     17          1           0       -2.242009    0.308382    2.204511
     18          6           0       -0.684584   -0.700594   -0.622155
     19          1           0       -0.910275   -0.468654   -1.668362
     20          1           0       -0.768448   -1.794515   -0.519339
     21          1           0       -3.659192    1.276272    0.417274
     22          1           0       -4.034446   -0.692223   -0.052391
 ---------------------------------------------------------------------

 SCF Done:  E(RHF) =  -707.120346147     A.U. after    2 cycles

 The electronic state is 1-A.
 Alpha  occ. eigenvalues -- -105.19459 -15.71430 -11.51543 -11.44642 -11.42858
 Alpha  occ. eigenvalues --  -11.42255 -11.40551 -11.40274 -11.38828 -11.35749
 Alpha  occ. eigenvalues --   -2.76334  -1.57642  -1.46077  -1.43864  -1.36244
 Alpha  occ. eigenvalues --   -1.28113  -1.11753  -1.08795  -1.01608  -0.89877
 Alpha  occ. eigenvalues --   -0.86039  -0.81801  -0.72318  -0.70646  -0.64804
 Alpha  occ. eigenvalues --   -0.63232  -0.59635  -0.58433  -0.57532  -0.55346
 Alpha  occ. eigenvalues --   -0.53357  -0.51758  -0.48141  -0.44305  -0.44003
 Alpha  occ. eigenvalues --   -0.35216  -0.32724  -0.32070  -0.26048  -0.25837
 Alpha  occ. eigenvalues --   -0.02959
 Alpha virt. eigenvalues --    0.03594   0.04993   0.05135   0.05670   0.05949
 Alpha virt. eigenvalues --    0.06476   0.06782   0.06961   0.07434   0.07719
 Alpha virt. eigenvalues --    0.08767   0.09750   0.11028   0.11510   0.11777

 Mulliken charges:
               1
     1  N   -0.149934
     2  C    4.690482
     3  C   -1.793892
     4  C   -2.271019
     5  C   -1.507485
     6  C   -2.867619
     7  C   -1.956595
     8  H    1.567703
     9  H    1.495273
    10  H    2.008852
    11  H    1.739811
    12  H    1.489623
    13  P    1.828699
    14  C   -4.124064
    15  H    1.765924
    16  H    1.217410
    17  H    1.332636
    18  C   -4.936704
    19  H    1.268515
    20  H    1.519112
    21  H   -1.163729
    22  H   -1.152999
 Sum of Mulliken charges =  -0.00000

 Dipole moment (field-independent basis, Debye):
    X=              0.9700    Y=              0.0088    Z=             -1.6314  Tot=              1.8980

 Test job not archived.
 1\1\GINC-SE177\SP\RHF\Aug-CC-pVDZ\C8H12N1P1\OHZDE\08-Apr-2025\0\\#t hf
  aug-cc-pvdz iop(5/13=1,5/36=2,99/5=2) pseudo=read geom=check guess=(r
 ead,tcheck) scf=(maxcycle=1)\\title\\0,1\N,0,-1.67478,-0.006783,0.2073
 79\C,0,0.747564,-0.288822,-0.323025\C,0,1.080568,1.057282,-0.142318\C,
 0,1.763181,-1.24539,-0.266088\C,0,3.087104,-0.868738,-0.043957\C,0,3.4
 09266,0.47426,0.131312\C,0,2.400444,1.436197,0.083748\H,0,4.437261,0.7
 70168,0.308094\H,0,2.64386,2.484006,0.222132\H,0,0.292729,1.80139,-0.1
 69538\H,0,1.51672,-2.294944,-0.395112\H,0,3.8634,-1.624777,-0.001483\P

 Normal termination of Gaussian 16 at Tue Apr  8 23:40:34 2025.
