 Gaussian 16, Revision C.01,

 ----------------------------------------------------------------------
 #t hf aug-cc-pvdz symm=none int=(grid=ultrafine) guess=(read,tcheck) s
 table=(opt,rrhf)
 ----------------------------------------------------------------------
 -----
 title
 -----
 Symbolic Z-matrix:
 Charge =  0 Multiplicity = 1

 SCF Done:  E(RHF) =  -1030.96131560     A.U. after   15 cycles
 Normal termination of Gaussian 16 at Tue Apr  8 23:33:44 2025.
 Gaussian 16:  ES64L-G16RevC.01  3-Jul-2019

 ----------------------------------------------------------------------
 #t hf aug-cc-pvdz iop(5/13=1,5/36=2,99/5=2) pseudo=read geom=check gue
 ss=(read,tcheck) scf=(maxcycle=1)
 ----------------------------------------------------------------------
 -----
 title
 -----
 Structure from the checkpoint file:  "BDE49_nonexpt_1419_mol1.chk"
 Charge =  0 Multiplicity = 1

                         Standard orientation:
 ---------------------------------------------------------------------
 Center     Atomic      Atomic             Coordinates (Angstroms)
 Number     Number       Type             X           Y           Z
 ---------------------------------------------------------------------
      1          6           0        0.094333    2.096652    0.003673
      2          6           0       -1.133176    1.435925   -0.013065
      3          6           0       -1.189483    0.038163   -0.011640
      4          6           0        1.283210    1.375205    0.009079
      5          6           0        1.221491   -0.015862    0.000617
      6          6           0        0.007072   -0.690433   -0.007146
      7          1           0        0.126912    3.180089    0.005559
      8          1           0       -2.052604    2.010167   -0.031762
      9         15           0       -2.860947   -0.760606   -0.028544
     10          1           0        2.242727    1.875635    0.015510
     11          1           0       -0.001102   -1.772719   -0.008321
     12         17           0        2.716445   -0.940627    0.002045
     13          1           0       -2.786677   -1.387893    1.243690
     14          1           0       -2.495298   -1.943427   -0.720393
 ---------------------------------------------------------------------

 SCF Done:  E(RHF) =  -1032.50215682     A.U. after    2 cycles

 The electronic state is 1-A.
 Alpha  occ. eigenvalues -- -105.19177 -99.89774 -11.52830 -11.46477 -11.45083
 Alpha  occ. eigenvalues --  -11.43255 -11.42868 -11.38428 -10.47115  -9.67141
 Alpha  occ. eigenvalues --   -9.66256  -9.66081  -2.76037  -1.50822  -1.45753
 Alpha  occ. eigenvalues --   -1.44526  -1.39807  -1.27714  -1.10506  -1.08474
 Alpha  occ. eigenvalues --   -0.88465  -0.86506  -0.75684  -0.70512  -0.64701
 Alpha  occ. eigenvalues --   -0.61620  -0.60390  -0.57717  -0.52262  -0.50210
 Alpha  occ. eigenvalues --   -0.49949  -0.47293  -0.35825  -0.34373  -0.26005
 Alpha  occ. eigenvalues --   -0.24434  -0.03588
 Alpha virt. eigenvalues --    0.03259   0.05321   0.05745   0.06212   0.06995
 Alpha virt. eigenvalues --    0.07618   0.07941   0.08726   0.09559   0.09815
 Alpha virt. eigenvalues --    0.11485   0.11611   0.12180   0.12273   0.13752

 Mulliken charges:
               1
     1  C   -0.039794
     2  C   -4.859051
     3  C    3.632199
     4  C   -1.786709
     5  C   -1.030733
     6  C   -1.387279
     7  H    1.529320
     8  H    1.844159
     9  P    0.640952
    10  H    1.687642
    11  H    1.855800
    12  Cl  -0.816414
    13  H   -0.520983
    14  H   -0.749111
 Sum of Mulliken charges =  -0.00000

 Dipole moment (field-independent basis, Debye):
    X=             -2.6410    Y=              3.3392    Z=             -0.8389  Tot=              4.3392

 Test job not archived.
 1\1\GINC-SE247\SP\RHF\Aug-CC-pVDZ\C6H6Cl1P1\OHZDE\08-Apr-2025\0\\#t hf
  aug-cc-pvdz iop(5/13=1,5/36=2,99/5=2) pseudo=read geom=check guess=(r
 ead,tcheck) scf=(maxcycle=1)\\title\\0,1\C,0,0.094333,2.096652,0.00367
 3\C,0,-1.133176,1.435925,-0.013065\C,0,-1.189483,0.038163,-0.01164\C,0
 ,1.28321,1.375205,0.009079\C,0,1.221491,-0.015862,0.000617\C,0,0.00707
 2,-0.690433,-0.007146\H,0,0.126912,3.180089,0.005559\H,0,-2.052604,2.0
 10167,-0.031762\P,0,-2.860947,-0.760606,-0.028544\H,0,2.242727,1.87563
 5,0.01551\H,0,-0.001102,-1.772719,-0.008321\Cl,0,2.716445,-0.940627,0.

 Normal termination of Gaussian 16 at Tue Apr  8 23:33:50 2025.
