 Gaussian 16, Revision C.01,

 ----------------------------------------------------------------------
 #t hf aug-cc-pvdz symm=none int=(grid=ultrafine) guess=(read,tcheck) s
 table=(opt,rrhf)
 ----------------------------------------------------------------------
 -----
 title
 -----
 Symbolic Z-matrix:
 Charge =  0 Multiplicity = 1

 SCF Done:  E(RHF) =  -1904.06925935     A.U. after   16 cycles
 Normal termination of Gaussian 16 at Tue Apr  8 23:27:12 2025.
 Gaussian 16:  ES64L-G16RevC.01  3-Jul-2019

 ----------------------------------------------------------------------
 #t hf aug-cc-pvdz iop(5/13=1,5/36=2,99/5=2) pseudo=read geom=check gue
 ss=(read,tcheck) scf=(maxcycle=1)
 ----------------------------------------------------------------------
 -----
 title
 -----
 Structure from the checkpoint file:  "BDE49_nonexpt_1262_mol1.chk"
 Charge =  0 Multiplicity = 1

                         Standard orientation:
 ---------------------------------------------------------------------
 Center     Atomic      Atomic             Coordinates (Angstroms)
 Number     Number       Type             X           Y           Z
 ---------------------------------------------------------------------
      1         17           0        2.102927   -0.896305    1.213878
      2         17           0       -3.001039    0.235047   -0.109937
      3          8           0       -0.935880   -2.249015   -1.002604
      4          8           0       -0.270431    2.386466    0.694616
      5         15           0        1.424780   -0.821014   -0.794648
      6         15           0       -1.191212   -0.184184    0.850472
      7          6           0       -0.404419   -1.343546   -0.436022
      8          6           0       -0.141572    1.295879    0.216574
      9          6           0        0.888965    0.969348   -0.876757
     10          1           0        0.305892    0.974215   -1.813968
     11          6           0        2.023268    1.992824   -0.965941
     12          1           0        2.646839    1.958931   -0.070440
     13          1           0        1.610980    2.999085   -1.047228
     14          1           0        2.653726    1.800481   -1.835926
 ---------------------------------------------------------------------

 SCF Done:  E(RHF) =  -1906.24750268     A.U. after    2 cycles

 The electronic state is 1-A.
 Alpha  occ. eigenvalues -- -105.26849-105.25568 -99.91986 -99.91456 -21.12358
 Alpha  occ. eigenvalues --  -21.10371 -11.53462 -11.51558 -11.46009 -11.40619
 Alpha  occ. eigenvalues --  -10.49227 -10.48700  -9.69145  -9.68622  -9.68552
 Alpha  occ. eigenvalues --   -9.68464  -9.67918  -9.67870  -2.84626  -2.83959
 Alpha  occ. eigenvalues --   -1.76842  -1.75709  -1.56831  -1.55151  -1.53763
 Alpha  occ. eigenvalues --   -1.53369  -1.52532  -1.51949  -1.26157  -1.24788
 Alpha  occ. eigenvalues --   -1.19093  -0.98921  -0.86879  -0.82054  -0.71320
 Alpha  occ. eigenvalues --   -0.65800  -0.62339  -0.60424  -0.57670  -0.56217
 Alpha  occ. eigenvalues --   -0.55991  -0.55605  -0.55313  -0.53435  -0.51328
 Alpha  occ. eigenvalues --   -0.49691  -0.49194  -0.46507  -0.46004  -0.37908
 Alpha  occ. eigenvalues --   -0.27435  -0.15415  -0.09457  -0.02000
 Alpha virt. eigenvalues --    0.03742   0.05533   0.05845   0.06206   0.06551
 Alpha virt. eigenvalues --    0.07690   0.08081   0.08435   0.09142   0.09792
 Alpha virt. eigenvalues --    0.10714   0.11355   0.11609   0.12132   0.12915

 Mulliken charges:
               1
     1  Cl  -1.399067
     2  Cl  -1.403463
     3  O   -2.966681
     4  O   -3.291769
     5  P    5.440216
     6  P    5.574282
     7  C   -0.945193
     8  C    1.462300
     9  C   -3.251430
    10  H    1.331636
    11  C   -4.227792
    12  H    1.118651
    13  H    1.224946
    14  H    1.333365
 Sum of Mulliken charges =  -0.00000

 Dipole moment (field-independent basis, Debye):
    X=              2.2719    Y=             -1.6497    Z=              0.8093  Tot=              2.9220

 Test job not archived.
 1\1\GINC-SE458\SP\RHF\Aug-CC-pVDZ\C4H4Cl2O2P2\OHZDE\08-Apr-2025\0\\#t
 hf aug-cc-pvdz iop(5/13=1,5/36=2,99/5=2) pseudo=read geom=check guess=
 (read,tcheck) scf=(maxcycle=1)\\title\\0,1\Cl,0,2.102927,-0.896305,1.2
 13878\Cl,0,-3.001039,0.235047,-0.109937\O,0,-0.93588,-2.249015,-1.0026
 04\O,0,-0.270431,2.386466,0.694616\P,0,1.42478,-0.821014,-0.794648\P,0
 ,-1.191212,-0.184184,0.850472\C,0,-0.404419,-1.343546,-0.436022\C,0,-0
 .141572,1.295879,0.216574\C,0,0.888965,0.969348,-0.876757\H,0,0.305892
 ,0.974215,-1.813968\C,0,2.023268,1.992824,-0.965941\H,0,2.646839,1.958

 Normal termination of Gaussian 16 at Tue Apr  8 23:27:20 2025.
