 Gaussian 16, Revision C.01,

 ----------------------------------------------------------------------
 #t hf aug-cc-pvdz symm=none int=(grid=ultrafine) guess=(read,tcheck) s
 table=(opt,rrhf)
 ----------------------------------------------------------------------
 -----
 title
 -----
 Symbolic Z-matrix:
 Charge =  0 Multiplicity = 1

 SCF Done:  E(RHF) =  -436.545632623     A.U. after   12 cycles
 Normal termination of Gaussian 16 at Tue Apr  8 23:38:06 2025.
 Gaussian 16:  ES64L-G16RevC.01  3-Jul-2019

 ----------------------------------------------------------------------
 #t hf aug-cc-pvdz iop(5/13=1,5/36=2,99/5=2) pseudo=read geom=check gue
 ss=(read,tcheck) scf=(maxcycle=1)
 ----------------------------------------------------------------------
 -----
 title
 -----
 Structure from the checkpoint file:  "BDE49_nonexpt_1533_mol1.chk"
 Charge =  0 Multiplicity = 1

                         Standard orientation:
 ---------------------------------------------------------------------
 Center     Atomic      Atomic             Coordinates (Angstroms)
 Number     Number       Type             X           Y           Z
 ---------------------------------------------------------------------
      1         15           0       -1.144574   -0.015392    0.013268
      2          7           0        0.452461    0.574343   -0.099318
      3          6           0        1.624943   -0.286110    0.015736
      4          1           0        2.533590    0.297877   -0.154218
      5          1           0        1.580509   -1.063592   -0.751594
      6          1           0        1.707185   -0.783356    0.993652
      7          1           0       -1.041388   -1.034765    1.016710
      8          1           0       -1.093554   -0.966458   -1.041222
      9          1           0        0.565389    1.477431    0.338469
 ---------------------------------------------------------------------

 SCF Done:  E(RHF) =  -437.215071423     A.U. after    2 cycles

 The electronic state is 1-A.
 Alpha  occ. eigenvalues -- -105.18879 -15.72749 -11.38921  -2.76088  -1.56089
 Alpha  occ. eigenvalues --   -1.43920  -1.42988  -1.24723  -0.94607  -0.72705
 Alpha  occ. eigenvalues --   -0.61805  -0.58699  -0.53767  -0.37207  -0.26981
 Alpha  occ. eigenvalues --   -0.25370  -0.02527
 Alpha virt. eigenvalues --    0.03787   0.05835   0.06577   0.06749   0.07284
 Alpha virt. eigenvalues --    0.09217   0.10651   0.11254   0.12488   0.14365
 Alpha virt. eigenvalues --    0.15665   0.16627   0.17151   0.20199   0.21726

 Mulliken charges:
               1
     1  P    2.120839
     2  N   -1.890156
     3  C   -3.070778
     4  H    1.225558
     5  H    1.327426
     6  H    1.207754
     7  H   -0.687505
     8  H   -0.803016
     9  H    0.569879
 Sum of Mulliken charges =  -0.00000

 Dipole moment (field-independent basis, Debye):
    X=             -0.3994    Y=              1.6670    Z=              0.4576  Tot=              1.7742

 Test job not archived.
 1\1\GINC-SE048\SP\RHF\Aug-CC-pVDZ\C1H6N1P1\OHZDE\08-Apr-2025\0\\#t hf
 aug-cc-pvdz iop(5/13=1,5/36=2,99/5=2) pseudo=read geom=check guess=(re
 ad,tcheck) scf=(maxcycle=1)\\title\\0,1\P,0,-1.144574,-0.015392,0.0132
 68\N,0,0.452461,0.574343,-0.099318\C,0,1.624943,-0.28611,0.015736\H,0,
 2.53359,0.297877,-0.154218\H,0,1.580509,-1.063592,-0.751594\H,0,1.7071
 85,-0.783356,0.993652\H,0,-1.041388,-1.034765,1.01671\H,0,-1.093554,-0
 .966458,-1.041222\H,0,0.565389,1.477431,0.338469\\Version=ES64L-G16Rev
 C.01\State=1-A\HF=-437.2150714\RMSD=1.979e-01\Dipole=-0.157127,0.65584

 Normal termination of Gaussian 16 at Tue Apr  8 23:38:08 2025.
