 Gaussian 16, Revision C.01,

 ----------------------------------------------------------------------
 #t hf aug-cc-pvdz symm=none int=(grid=ultrafine) guess=(read,tcheck) s
 table=(opt,rrhf)
 ----------------------------------------------------------------------
 -----
 title
 -----
 Symbolic Z-matrix:
 Charge =  0 Multiplicity = 1

 SCF Done:  E(RHF) =  -624.068006323     A.U. after   15 cycles
 Normal termination of Gaussian 16 at Tue Apr  8 23:28:08 2025.
 Gaussian 16:  ES64L-G16RevC.01  3-Jul-2019

 ----------------------------------------------------------------------
 #t hf aug-cc-pvdz iop(5/13=1,5/36=2,99/5=2) pseudo=read geom=check gue
 ss=(read,tcheck) scf=(maxcycle=1)
 ----------------------------------------------------------------------
 -----
 title
 -----
 Structure from the checkpoint file:  "BDE49_nonexpt_1302_mol1.chk"
 Charge =  0 Multiplicity = 1

                         Standard orientation:
 ---------------------------------------------------------------------
 Center     Atomic      Atomic             Coordinates (Angstroms)
 Number     Number       Type             X           Y           Z
 ---------------------------------------------------------------------
      1         15           0       -0.677652   -0.000055   -0.631612
      2          6           0       -1.273602   -1.430761    0.362522
      3          1           0       -1.105160   -1.302775    1.433341
      4          1           0       -0.766508   -2.332930    0.021274
      5          1           0       -2.344894   -1.542581    0.172830
      6          7           0        1.095158    0.000013   -0.017027
      7          8           0        1.638536   -1.085834    0.124262
      8          8           0        1.638363    1.085920    0.124461
      9          6           0       -1.273619    1.430760    0.362359
     10          1           0       -2.344912    1.542545    0.172652
     11          1           0       -0.766536    2.332896    0.021006
     12          1           0       -1.105179    1.302899    1.433193
 ---------------------------------------------------------------------

 SCF Done:  E(RHF) =  -625.528793984     A.U. after    2 cycles

 The electronic state is 1-A.
 Alpha  occ. eigenvalues -- -105.23054 -21.08993 -21.08868 -15.96998 -11.39944
 Alpha  occ. eigenvalues --  -11.39908  -2.81626  -1.97975  -1.68426  -1.54250
 Alpha  occ. eigenvalues --   -1.51896  -1.49767  -1.07935  -0.99538  -0.91137
 Alpha  occ. eigenvalues --   -0.71733  -0.64885  -0.60567  -0.60414  -0.59337
 Alpha  occ. eigenvalues --   -0.58249  -0.57670  -0.53784  -0.32048  -0.30978
 Alpha  occ. eigenvalues --   -0.24332  -0.22493  -0.04117
 Alpha virt. eigenvalues --    0.03901   0.05180   0.05685   0.06520   0.07008
 Alpha virt. eigenvalues --    0.07211   0.08451   0.09853   0.10614   0.12397
 Alpha virt. eigenvalues --    0.13166   0.15447   0.15678   0.16449   0.16657

 Mulliken charges:
               1
     1  P    6.942904
     2  C   -6.120867
     3  H    1.039092
     4  H    1.308125
     5  H    1.089310
     6  N    3.544652
     7  O   -2.559615
     8  O   -2.559391
     9  C   -6.120736
    10  H    1.089278
    11  H    1.308140
    12  H    1.039107
 Sum of Mulliken charges =   0.00000

 Dipole moment (field-independent basis, Debye):
    X=             -1.1197    Y=             -0.0002    Z=             -1.7552  Tot=              2.0820

 Test job not archived.
 1\1\GINC-SE424\SP\RHF\Aug-CC-pVDZ\C2H6N1O2P1\OHZDE\08-Apr-2025\0\\#t h
 f aug-cc-pvdz iop(5/13=1,5/36=2,99/5=2) pseudo=read geom=check guess=(
 read,tcheck) scf=(maxcycle=1)\\title\\0,1\P,0,0.677652,0.000055,-0.631
 612\C,0,1.273602,1.430761,0.362522\H,0,1.10516,1.302775,1.433341\H,0,0
 .766508,2.33293,0.021274\H,0,2.344894,1.542581,0.17283\N,0,-1.095158,-
 0.000013,-0.017027\O,0,-1.638536,1.085834,0.124262\O,0,-1.638363,-1.08
 592,0.124461\C,0,1.273619,-1.43076,0.362359\H,0,2.344912,-1.542545,0.1
 72652\H,0,0.766536,-2.332896,0.021006\H,0,1.105179,-1.302899,1.433193\

 Normal termination of Gaussian 16 at Tue Apr  8 23:28:12 2025.
