 Gaussian 16, Revision C.01,

 ----------------------------------------------------------------------
 #t hf aug-cc-pvdz symm=none int=(grid=ultrafine) guess=(read,tcheck) s
 table=opt
 ----------------------------------------------------------------------
 -----
 title
 -----
 Symbolic Z-matrix:
 Charge =  0 Multiplicity = 2

 SCF Done:  E(UHF) =  -611.427773193     A.U. after   16 cycles
 Normal termination of Gaussian 16 at Wed Apr  9 00:13:23 2025.
 Gaussian 16:  ES64L-G16RevC.01  3-Jul-2019

 ----------------------------------------------------------------------
 #t hf aug-cc-pvdz iop(5/13=1,5/36=2,99/5=2) pseudo=read geom=check gue
 ss=(read,tcheck) scf=(maxcycle=1)
 ----------------------------------------------------------------------
 -----
 title
 -----
 Structure from the checkpoint file:  "BDE49_nonexpt_2413_mol2.chk"
 Charge =  0 Multiplicity = 2

                         Standard orientation:
 ---------------------------------------------------------------------
 Center     Atomic      Atomic             Coordinates (Angstroms)
 Number     Number       Type             X           Y           Z
 ---------------------------------------------------------------------
      1         14           0       -2.477232    0.076788   -0.049022
      2          8           0       -0.857070    0.588757   -0.044080
      3          1           0       -2.782219   -0.684463    1.187787
      4          1           0       -3.203778    1.372088   -0.063745
      5          6           0        0.109680   -0.372438   -0.032813
      6          8           0       -0.178528   -1.556483   -0.052199
      7          7           0        1.369488    0.132535   -0.001531
      8          6           0        1.679781    1.554244    0.037306
      9          1           0        0.762978    2.133833    0.010224
     10          1           0        2.303076    1.827960   -0.821137
     11          1           0        2.230976    1.798001    0.952596
     12          6           0        2.496524   -0.788287    0.017811
     13          1           0        2.119081   -1.806496   -0.021891
     14          1           0        3.084254   -0.654762    0.932654
     15          1           0        3.149329   -0.608243   -0.843048
 ---------------------------------------------------------------------

 SCF Done:  E(UHF) =  -612.996257090     A.U. after    2 cycles

 The electronic state is 2-A.
 Alpha  occ. eigenvalues --  -76.25861 -21.08225 -21.02673 -15.75414 -11.51978
 Alpha  occ. eigenvalues --  -11.40729 -11.39730  -5.59087  -2.24695  -2.20734
 Alpha  occ. eigenvalues --   -2.19813  -1.81928  -1.64241  -1.43203  -1.05687
 Alpha  occ. eigenvalues --   -1.00086  -0.79701  -0.71024  -0.67279  -0.66808
 Alpha  occ. eigenvalues --   -0.63412  -0.56438  -0.56030  -0.55259  -0.53046
 Alpha  occ. eigenvalues --   -0.50289  -0.48254  -0.43190  -0.38128  -0.30476
 Alpha  occ. eigenvalues --   -0.30000  -0.27344
 Alpha virt. eigenvalues --    0.03358   0.04924   0.05466   0.05497   0.06047
 Alpha virt. eigenvalues --    0.06492   0.07284   0.07643   0.08077   0.08912
 Alpha virt. eigenvalues --    0.10432   0.11647   0.12748   0.13488   0.13603

  Beta  occ. eigenvalues --  -76.25293 -21.07993 -21.02673 -15.75396 -11.51977
  Beta  occ. eigenvalues --  -11.40730 -11.39731  -5.58166  -2.23997  -2.20114
  Beta  occ. eigenvalues --   -2.16411  -1.81598  -1.64017  -1.43159  -1.05675
  Beta  occ. eigenvalues --   -0.99986  -0.78099  -0.69787  -0.66833  -0.65703
  Beta  occ. eigenvalues --   -0.62954  -0.56144  -0.55846  -0.55058  -0.53012
  Beta  occ. eigenvalues --   -0.49981  -0.47001  -0.41695  -0.37185  -0.30418
  Beta  occ. eigenvalues --   -0.29779
  Beta virt. eigenvalues --    0.03242   0.04072   0.05045   0.05494   0.05761
  Beta virt. eigenvalues --    0.06172   0.06885   0.07420   0.07875   0.08831
  Beta virt. eigenvalues --    0.10012   0.10609   0.12051   0.13383   0.13630

 Mulliken charges and spin densities:
               1          2
     1  Si   3.749855   1.073245
     2  O   -2.921268  -0.107887
     3  H   -1.450671   0.020558
     4  H   -1.521804   0.018563
     5  C    5.827385   0.065990
     6  O   -2.641900  -0.026366
     7  N   -2.874671  -0.023045
     8  C   -3.453450  -0.008881
     9  H    1.667420  -0.003855
    10  H    1.421081  -0.002070
    11  H    1.418863   0.003518
    12  C   -3.448130  -0.008691
    13  H    1.419109  -0.001733
    14  H    1.401408  -0.000651
    15  H    1.406774   0.001303
 Sum of Mulliken charges =  -0.00000   1.00000

 Dipole moment (field-independent basis, Debye):
    X=              1.9559    Y=              1.4878    Z=             -0.2854  Tot=              2.4740
                          Isotropic Fermi Contact Couplings
        Atom                 a.u.       MegaHertz       Gauss      10(-4) cm-1
     1  Si(29)             0.59501    -528.80614    -188.69118    -176.39074
     2  O(17)              0.01996     -12.10040      -4.31772      -4.03626
     3  H(1)               0.01286      57.46657      20.50550      19.16878
     4  H(1)               0.01270      56.76728      20.25598      18.93553
     5  C(13)             -0.00067      -0.75586      -0.26971      -0.25213
     6  O(17)              0.00096      -0.58000      -0.20696      -0.19347
     7  N(14)              0.00461       1.48889       0.53127       0.49664
     8  C(13)              0.00001       0.01253       0.00447       0.00418

 1\1\GINC-SE364\SP\UHF\Aug-CC-pVDZ\C3H8N1O2Si1(2)\OHZDE\09-Apr-2025\0\\
 #t hf aug-cc-pvdz iop(5/13=1,5/36=2,99/5=2) pseudo=read geom=check gue
 ss=(read,tcheck) scf=(maxcycle=1)\\title\\0,2\Si,0,-2.477232,0.076788,
 -0.049022\O,0,-0.85707,0.588757,-0.04408\H,0,-2.782219,-0.684463,1.187
 787\H,0,-3.203778,1.372088,-0.063745\C,0,0.10968,-0.372438,-0.032813\O
 ,0,-0.178528,-1.556483,-0.052199\N,0,1.369488,0.132535,-0.001531\C,0,1
 .679781,1.554244,0.037306\H,0,0.762978,2.133833,0.010224\H,0,2.303076,
 1.82796,-0.821137\H,0,2.230976,1.798001,0.952596\C,0,2.496524,-0.78828

 Normal termination of Gaussian 16 at Wed Apr  9 00:13:29 2025.
