 Gaussian 16, Revision C.01,

 ----------------------------------------------------------------------
 #t hf aug-cc-pvdz symm=none int=(grid=ultrafine) guess=(read,tcheck) s
 table=(opt,rrhf)
 ----------------------------------------------------------------------
 -----
 title
 -----
 Symbolic Z-matrix:
 Charge =  0 Multiplicity = 1

 SCF Done:  E(RHF) =  -663.531361231     A.U. after   12 cycles

 1\1\GINC-SE232\Stability\RHF\Aug-CC-pVDZ\Cl1N1O2\OHZDE\08-Apr-2025\0\\
 #t hf aug-cc-pvdz symm=none int=(grid=ultrafine) guess=(read,tcheck) s
 table=(opt,rrhf)\\title\\0,1\N,0,0.,0.,-0.637278\O,0,0.,1.088307,-1.10
 367\Cl,0,0.,0.,1.301156\O,0,0.,-1.088307,-1.10367\\Version=ES64L-G16Re
 vC.01\HF=-663.5313612\RMSD=9.723e-09\Dipole=0.,0.,0.3082068\Quadrupole
 =0.9752014,-1.4791928,0.5039914,0.,0.,0.\PG=Unknown\\@
 The archive entry for this job was punched.

 Normal termination of Gaussian 16 at Tue Apr  8 22:56:34 2025.
 Gaussian 16:  ES64L-G16RevC.01  3-Jul-2019

 ----------------------------------------------------------------------
 #t hf aug-cc-pvdz iop(5/13=1,5/36=2,99/5=2) pseudo=read geom=check gue
 ss=(read,tcheck) scf=(maxcycle=1)
 ----------------------------------------------------------------------
 -----
 title
 -----
 Structure from the checkpoint file:  "BDE49_expt_1836_mol1.chk"
 Charge =  0 Multiplicity = 1

                         Standard orientation:
 ---------------------------------------------------------------------
 Center     Atomic      Atomic             Coordinates (Angstroms)
 Number     Number       Type             X           Y           Z
 ---------------------------------------------------------------------
      1          7           0        0.000000    0.000000   -0.637278
      2          8           0        0.000000    1.088307   -1.103670
      3         17           0        0.000000   -0.000000    1.301156
      4          8           0       -0.000000   -1.088307   -1.103670
 ---------------------------------------------------------------------

 SCF Done:  E(RHF) =  -664.615248203     A.U. after    2 cycles

 The electronic state is 1-A1.
 Alpha  occ. eigenvalues --  -99.95899 -21.17817 -21.17657 -16.10274 -10.52729
 Alpha  occ. eigenvalues --   -9.72474  -9.71805  -9.71730  -2.07318  -1.78490
 Alpha  occ. eigenvalues --   -1.33769  -0.96472  -0.77803  -0.74308  -0.68155
 Alpha  occ. eigenvalues --   -0.57045  -0.55690  -0.43418  -0.38011  -0.37846
 Alpha virt. eigenvalues --   -0.00429   0.09078   0.09765   0.10730   0.12429
 Alpha virt. eigenvalues --    0.13449   0.15024   0.19027   0.19051   0.21375
 Alpha virt. eigenvalues --    0.23160   0.23755   0.26099   0.26818   0.27729

 Mulliken charges:
               1
     1  N    4.625286
     2  O   -2.392192
     3  Cl   0.159098
     4  O   -2.392192
 Sum of Mulliken charges =   0.00000

 Dipole moment (field-independent basis, Debye):
    X=              0.0000    Y=              0.0000    Z=             -2.5870  Tot=              2.5870

 Test job not archived.
 1\1\GINC-SE232\SP\RHF\Aug-CC-pVDZ\Cl1N1O2\OHZDE\08-Apr-2025\0\\#t hf a
 ug-cc-pvdz iop(5/13=1,5/36=2,99/5=2) pseudo=read geom=check guess=(rea
 d,tcheck) scf=(maxcycle=1)\\title\\0,1\N,0,0.,0.,-0.637278\O,0,0.,1.08
 8307,-1.10367\Cl,0,0.,0.,1.301156\O,0,0.,-1.088307,-1.10367\\Version=E
 S64L-G16RevC.01\State=1-A1\HF=-664.6152482\RMSD=9.721e-02\Dipole=0.,0.
 ,-1.0178161\Quadrupole=-0.0913574,-0.2474284,0.3387859,0.,0.,0.\PG=C02
 V [C2(N1Cl1),SGV(O2)]\\@

 Normal termination of Gaussian 16 at Tue Apr  8 22:56:36 2025.
