 Gaussian 16, Revision C.01,

 ----------------------------------------------------------------------
 #t hf aug-cc-pvdz symm=none int=(grid=ultrafine) guess=(read,tcheck) s
 table=(opt,rrhf)
 ----------------------------------------------------------------------
 -----
 title
 -----
 Symbolic Z-matrix:
 Charge =  0 Multiplicity = 1

 SCF Done:  E(RHF) =  -581.025842466     A.U. after   15 cycles
 Normal termination of Gaussian 16 at Wed Apr  9 00:43:13 2025.
 Gaussian 16:  ES64L-G16RevC.01  3-Jul-2019

 ----------------------------------------------------------------------
 #t hf aug-cc-pvdz iop(5/13=1,5/36=2,99/5=2) pseudo=read geom=check gue
 ss=(read,tcheck) scf=(maxcycle=1)
 ----------------------------------------------------------------------
 -----
 title
 -----
 Structure from the checkpoint file:  "BDE49_nonexpt_673_mol1.chk"
 Charge =  0 Multiplicity = 1

                         Standard orientation:
 ---------------------------------------------------------------------
 Center     Atomic      Atomic             Coordinates (Angstroms)
 Number     Number       Type             X           Y           Z
 ---------------------------------------------------------------------
      1          8           0       -2.503835    0.103304   -0.671540
      2          8           0        1.072789    2.847743    0.477657
      3          8           0       -2.407480   -1.751752    0.724817
      4          8           0       -1.098409    2.373461   -0.225816
      5          6           0        0.654530    0.419545   -0.015247
      6          6           0        0.470680   -2.005063   -0.102181
      7          6           0        2.648479   -0.998210   -0.136410
      8          6           0        2.049799    0.254871   -0.051095
      9          6           0        1.853649   -2.138897   -0.166617
     10          6           0       -0.157330   -0.747173   -0.036222
     11          5           0       -1.724561   -0.792953    0.026437
     12          5           0        0.146646    1.918353    0.074290
     13          1           0       -0.137230   -2.905449   -0.132501
     14          1           0        3.729093   -1.082724   -0.176042
     15          1           0        2.672426    1.140390   -0.009958
     16          1           0        2.303298   -3.123344   -0.236411
     17          1           0       -3.445227   -0.051184   -0.530202
     18          1           0       -1.836238   -2.315281    1.253809
     19          1           0       -1.708465    1.687295   -0.539259
     20          1           0        0.688548    3.730798    0.472616
 ---------------------------------------------------------------------

 SCF Done:  E(RHF) =  -583.561831487     A.U. after    2 cycles

 The electronic state is 1-A.
 Alpha  occ. eigenvalues --  -21.07601 -21.07215 -21.04194 -21.03204 -11.52011
 Alpha  occ. eigenvalues --  -11.43717 -11.42874 -11.40918 -11.40837 -11.35722
 Alpha  occ. eigenvalues --   -7.68684  -7.64491  -1.84134  -1.80465  -1.67421
 Alpha  occ. eigenvalues --   -1.63638  -1.33786  -1.10513  -1.09767  -0.89803
 Alpha  occ. eigenvalues --   -0.87087  -0.77903  -0.75242  -0.70884  -0.65448
 Alpha  occ. eigenvalues --   -0.64515  -0.62572  -0.59365  -0.57026  -0.54573
 Alpha  occ. eigenvalues --   -0.51870  -0.51206  -0.48839  -0.47720  -0.46373
 Alpha  occ. eigenvalues --   -0.43915  -0.40697  -0.39202  -0.37760  -0.34861
 Alpha  occ. eigenvalues --   -0.34522  -0.32943  -0.32878
 Alpha virt. eigenvalues --    0.02892   0.04200   0.04818   0.05347   0.05425
 Alpha virt. eigenvalues --    0.05570   0.06492   0.06716   0.07331   0.08102
 Alpha virt. eigenvalues --    0.09016   0.09560   0.09886   0.09930   0.10548

 Mulliken charges:
               1
     1  O   -4.683760
     2  O   -4.583895
     3  O   -4.820604
     4  O   -4.903375
     5  C   -0.311100
     6  C   -0.095972
     7  C   -1.505945
     8  C    0.995194
     9  C   -1.836698
    10  C   -0.978070
    11  B    5.095619
    12  B    4.965466
    13  H    1.897301
    14  H    1.576535
    15  H    2.020936
    16  H    1.539984
    17  H    1.157693
    18  H    1.385272
    19  H    1.971679
    20  H    1.113739
 Sum of Mulliken charges =   0.00000

 Dipole moment (field-independent basis, Debye):
    X=             -0.4622    Y=             -1.6742    Z=              0.1376  Tot=              1.7422

 Test job not archived.
 1\1\GINC-SE332\SP\RHF\Aug-CC-pVDZ\C6H8B2O4\OHZDE\09-Apr-2025\0\\#t hf
 aug-cc-pvdz iop(5/13=1,5/36=2,99/5=2) pseudo=read geom=check guess=(re
 ad,tcheck) scf=(maxcycle=1)\\title\\0,1\O,0,-2.503835,0.103299,-0.6715
 4\O,0,1.072784,2.847745,0.477657\O,0,-2.407477,-1.751756,0.724817\O,0,
 -1.098413,2.373459,-0.225816\C,0,0.654529,0.419546,-0.015247\C,0,0.470
 684,-2.005062,-0.102181\C,0,2.648481,-0.998205,-0.13641\C,0,2.049799,0
 .254875,-0.051095\C,0,1.853653,-2.138894,-0.166617\C,0,-0.157329,-0.74
 7173,-0.036222\B,0,-1.72456,-0.792956,0.026437\B,0,0.146643,1.918353,0

 Normal termination of Gaussian 16 at Wed Apr  9 00:43:24 2025.
