 Gaussian 16, Revision C.01,

 ----------------------------------------------------------------------
 #t hf aug-cc-pvdz symm=none int=(grid=ultrafine) guess=(read,tcheck) s
 table=(opt,rrhf)
 ----------------------------------------------------------------------
 -----
 title
 -----
 Symbolic Z-matrix:
 Charge =  0 Multiplicity = 1

 SCF Done:  E(RHF) =  -563.710935278     A.U. after   15 cycles
 Normal termination of Gaussian 16 at Wed Apr  9 00:34:06 2025.
 Gaussian 16:  ES64L-G16RevC.01  3-Jul-2019

 ----------------------------------------------------------------------
 #t hf aug-cc-pvdz iop(5/13=1,5/36=2,99/5=2) pseudo=read geom=check gue
 ss=(read,tcheck) scf=(maxcycle=1)
 ----------------------------------------------------------------------
 -----
 title
 -----
 Structure from the checkpoint file:  "BDE49_nonexpt_413_mol1.chk"
 Charge =  0 Multiplicity = 1

                         Standard orientation:
 ---------------------------------------------------------------------
 Center     Atomic      Atomic             Coordinates (Angstroms)
 Number     Number       Type             X           Y           Z
 ---------------------------------------------------------------------
      1          9           0        1.952572    1.519051   -0.409445
      2          5           0        1.882475    0.261445   -0.032947
      3          9           0        2.993069   -0.402572    0.185322
      4          6           0        0.478124   -0.488937    0.154151
      5          8           0        0.366036   -1.662576    0.349365
      6          8           0       -0.577532    0.406536    0.112596
      7          6           0       -1.902103   -0.007179   -0.146285
      8          8           0       -2.160517   -0.953050   -0.817335
      9          6           0       -2.858754    0.953615    0.497394
     10          1           0       -2.764317    0.885230    1.584314
     11          1           0       -3.875444    0.709223    0.197233
     12          1           0       -2.610887    1.977734    0.211727
 ---------------------------------------------------------------------

 SCF Done:  E(RHF) =  -565.902974138     A.U. after    2 cycles

 The electronic state is 1-A.
 Alpha  occ. eigenvalues --  -29.28911 -29.28450 -21.12616 -21.09906 -21.08412
 Alpha  occ. eigenvalues --  -11.55422 -11.51972 -11.41542  -7.74587  -1.89021
 Alpha  occ. eigenvalues --   -1.74375  -1.67888  -1.20021  -1.13369  -0.91359
 Alpha  occ. eigenvalues --   -0.79483  -0.75914  -0.67768  -0.65038  -0.63718
 Alpha  occ. eigenvalues --   -0.60143  -0.57041  -0.55588  -0.52081  -0.50630
 Alpha  occ. eigenvalues --   -0.49827  -0.47652  -0.45071  -0.36999  -0.36397
 Alpha  occ. eigenvalues --   -0.35951  -0.34882  -0.32164  -0.25556
 Alpha virt. eigenvalues --    0.02877   0.03527   0.04274   0.05409   0.05791
 Alpha virt. eigenvalues --    0.06105   0.07107   0.08244   0.09232   0.11889
 Alpha virt. eigenvalues --    0.12482   0.13152   0.13709   0.14694   0.14920

 Mulliken charges:
               1
     1  F   -0.541698
     2  B    1.791688
     3  F    0.171250
     4  C    1.546519
     5  O   -2.256191
     6  O   -2.511816
     7  C    5.138262
     8  O   -2.926307
     9  C   -4.249619
    10  H    1.322356
    11  H    1.207332
    12  H    1.308222
 Sum of Mulliken charges =   0.00000

 Dipole moment (field-independent basis, Debye):
    X=              1.7556    Y=              2.5958    Z=              0.2239  Tot=              3.1417

 Test job not archived.
 1\1\GINC-SE128\SP\RHF\Aug-CC-pVDZ\C3H3B1F2O3\OHZDE\09-Apr-2025\0\\#t h
 f aug-cc-pvdz iop(5/13=1,5/36=2,99/5=2) pseudo=read geom=check guess=(
 read,tcheck) scf=(maxcycle=1)\\title\\0,1\F,0,-1.952572,1.519051,0.409
 445\B,0,-1.882475,0.261445,0.032947\F,0,-2.993069,-0.402572,-0.185322\
 C,0,-0.478124,-0.488937,-0.154151\O,0,-0.366036,-1.662576,-0.349365\O,
 0,0.577532,0.406536,-0.112596\C,0,1.902103,-0.007179,0.146285\O,0,2.16
 0517,-0.95305,0.817335\C,0,2.858754,0.953615,-0.497394\H,0,2.764317,0.
 88523,-1.584314\H,0,3.875444,0.709223,-0.197233\H,0,2.610887,1.977734,

 Normal termination of Gaussian 16 at Wed Apr  9 00:34:11 2025.
