 Gaussian 16, Revision C.01,

 ----------------------------------------------------------------------
 #t hf aug-cc-pvdz symm=none int=(grid=ultrafine) guess=(read,tcheck) s
 table=opt
 ----------------------------------------------------------------------
 -----
 title
 -----
 Symbolic Z-matrix:
 Charge =  0 Multiplicity = 2

 SCF Done:  E(UHF) =  -458.969122858     A.U. after   18 cycles
 Normal termination of Gaussian 16 at Tue Apr  8 23:29:10 2025.
 Gaussian 16:  ES64L-G16RevC.01  3-Jul-2019

 ----------------------------------------------------------------------
 #t hf aug-cc-pvdz iop(5/13=1,5/36=2,99/5=2) pseudo=read geom=check gue
 ss=(read,tcheck) scf=(maxcycle=1)
 ----------------------------------------------------------------------
 -----
 title
 -----
 Structure from the checkpoint file:  "BDE49_nonexpt_1316_mol2.chk"
 Charge =  0 Multiplicity = 2

                         Standard orientation:
 ---------------------------------------------------------------------
 Center     Atomic      Atomic             Coordinates (Angstroms)
 Number     Number       Type             X           Y           Z
 ---------------------------------------------------------------------
      1          6           0        1.445511   -0.802199    0.240571
      2         15           0       -0.000000    0.082723   -0.512490
      3          1           0        1.368998   -0.858831    1.328952
      4          1           0        2.364101   -0.274538   -0.025584
      5          1           0        1.506036   -1.811160   -0.173677
      6          6           0       -1.445508   -0.802204    0.240571
      7          1           0       -1.506028   -1.811166   -0.173677
      8          1           0       -2.364100   -0.274548   -0.025585
      9          1           0       -1.368995   -0.858836    1.328952
     10          6           0       -0.000003    1.642043    0.300922
     11          1           0        0.921342    2.211200    0.367793
     12          1           0       -0.921352    2.211196    0.367794
 ---------------------------------------------------------------------

 SCF Done:  E(UHF) =  -459.772118829     A.U. after    2 cycles

 The electronic state is 2-A.
 Alpha  occ. eigenvalues -- -105.15075 -11.37439 -11.36925 -11.36744  -2.74615
 Alpha  occ. eigenvalues --   -1.49345  -1.47253  -1.43242  -1.06087  -0.96564
 Alpha  occ. eigenvalues --   -0.94111  -0.64094  -0.58689  -0.57181  -0.56643
 Alpha  occ. eigenvalues --   -0.55132  -0.54573  -0.37313  -0.21845  -0.20716
 Alpha  occ. eigenvalues --   -0.00891
 Alpha virt. eigenvalues --    0.05343   0.05792   0.05824   0.06607   0.06764
 Alpha virt. eigenvalues --    0.06984   0.07337   0.08258   0.10459   0.11800
 Alpha virt. eigenvalues --    0.11868   0.14024   0.14721   0.16984   0.17192

  Beta  occ. eigenvalues -- -105.15096 -11.36777 -11.36613 -11.35374  -2.74695
  Beta  occ. eigenvalues --   -1.49305  -1.47701  -1.42412  -1.04591  -0.96400
  Beta  occ. eigenvalues --   -0.88043  -0.62965  -0.57612  -0.57093  -0.56484
  Beta  occ. eigenvalues --   -0.55009  -0.54351  -0.19236  -0.18442  -0.02999
  Beta virt. eigenvalues --    0.03011   0.05812   0.05826   0.06563   0.06778
  Beta virt. eigenvalues --    0.07012   0.07354   0.08267   0.08683   0.11280
  Beta virt. eigenvalues --    0.11867   0.12481   0.14213   0.15840   0.17122

 Mulliken charges and spin densities:
               1          2
     1  C   -5.972574  -0.079598
     2  P    8.862530  -0.610204
     3  H    1.053700   0.188668
     4  H    1.134026   0.066714
     5  H    1.132131   0.080402
     6  C   -5.972575  -0.079597
     7  H    1.132131   0.080402
     8  H    1.134026   0.066714
     9  H    1.053700   0.188668
    10  C   -5.724662   1.076323
    11  H    1.083783   0.010754
    12  H    1.083784   0.010754
 Sum of Mulliken charges =  -0.00000   1.00000

 Dipole moment (field-independent basis, Debye):
    X=              0.0000    Y=             -1.5752    Z=             -2.8629  Tot=              3.2676
                          Isotropic Fermi Contact Couplings
        Atom                 a.u.       MegaHertz       Gauss      10(-4) cm-1
     1  C(13)              0.05936      66.73703      23.81343      22.26108
     2  P(31)             -0.10068    -182.34650     -65.06576     -60.82424
     3  H(1)              -0.00080      -3.56864      -1.27338      -1.19037
     4  H(1)              -0.00072      -3.23517      -1.15439      -1.07914
     5  H(1)              -0.00076      -3.38648      -1.20838      -1.12961
     6  C(13)              0.05936      66.73693      23.81340      22.26104
     7  H(1)              -0.00076      -3.38649      -1.20838      -1.12961
     8  H(1)              -0.00072      -3.23516      -1.15438      -1.07913

 Normal termination of Gaussian 16 at Tue Apr  8 23:29:14 2025.
