 Gaussian 16, Revision C.01,

 ----------------------------------------------------------------------
 #t hf aug-cc-pvdz symm=none int=(grid=ultrafine) guess=(read,tcheck) s
 table=opt
 ----------------------------------------------------------------------
 -----
 title
 -----
 Symbolic Z-matrix:
 Charge =  0 Multiplicity = 2

 SCF Done:  E(UHF) =  -433.683550555     A.U. after   27 cycles
 Normal termination of Gaussian 16 at Wed Apr  9 00:53:10 2025.
 Gaussian 16:  ES64L-G16RevC.01  3-Jul-2019

 ----------------------------------------------------------------------
 #t hf aug-cc-pvdz iop(5/13=1,5/36=2,99/5=2) pseudo=read geom=check gue
 ss=(read,tcheck) scf=(maxcycle=1)
 ----------------------------------------------------------------------
 -----
 title
 -----
 Structure from the checkpoint file:  "BDE49_nonexpt_958_mol2.chk"
 Charge =  0 Multiplicity = 2

                         Standard orientation:
 ---------------------------------------------------------------------
 Center     Atomic      Atomic             Coordinates (Angstroms)
 Number     Number       Type             X           Y           Z
 ---------------------------------------------------------------------
      1          7           0       -0.000129   -1.255560   -0.283018
      2          6           0        1.047077   -0.442811    0.040747
      3          8           0        2.220136   -0.412619    0.033542
      4          6           0       -1.047216   -0.442460    0.040253
      5          7           0        0.000011    0.642411    0.465587
      6          8           0       -2.220281   -0.412341    0.033688
      7          9           0        0.000314    1.800372   -0.255758
 ---------------------------------------------------------------------

 SCF Done:  E(UHF) =  -435.402460230     A.U. after    2 cycles

 The electronic state is 2-A.
 Alpha  occ. eigenvalues --  -29.37514 -21.13340 -21.13320 -15.93689 -15.85143
 Alpha  occ. eigenvalues --  -11.61027 -11.59247  -1.82229  -1.79003  -1.62448
 Alpha  occ. eigenvalues --   -1.38035  -0.93980  -0.90279  -0.77641  -0.76597
 Alpha  occ. eigenvalues --   -0.64065  -0.59993  -0.57634  -0.55216  -0.53395
 Alpha  occ. eigenvalues --   -0.47612  -0.41723  -0.40903  -0.38545  -0.29829
 Alpha  occ. eigenvalues --   -0.28872
 Alpha virt. eigenvalues --    0.06883   0.09013   0.09188   0.10504   0.10890
 Alpha virt. eigenvalues --    0.11702   0.12556   0.14033   0.14521   0.15874
 Alpha virt. eigenvalues --    0.16669   0.17847   0.18277   0.20405   0.20564

  Beta  occ. eigenvalues --  -29.37332 -21.13489 -21.13470 -15.91129 -15.83271
  Beta  occ. eigenvalues --  -11.61268 -11.59488  -1.81753  -1.79280  -1.58640
  Beta  occ. eigenvalues --   -1.31022  -0.93781  -0.86904  -0.76240  -0.68767
  Beta  occ. eigenvalues --   -0.64024  -0.57460  -0.53890  -0.53623  -0.46810
  Beta  occ. eigenvalues --   -0.44034  -0.40687  -0.39482  -0.32216  -0.29123
  Beta virt. eigenvalues --    0.02089   0.07039   0.09012   0.09312   0.10508
  Beta virt. eigenvalues --    0.11426   0.12190   0.12262   0.12980   0.14728
  Beta virt. eigenvalues --    0.16490   0.16649   0.18528   0.18718   0.20783

 Mulliken charges and spin densities:
               1          2
     1  N   -2.307405   0.523239
     2  C    4.371018  -0.113419
     3  O   -2.708069  -0.022892
     4  C    4.371019  -0.113408
     5  N   -1.157709   0.629242
     6  O   -2.708113  -0.022940
     7  F    0.139259   0.120177
 Sum of Mulliken charges =  -0.00000   1.00000

 Dipole moment (field-independent basis, Debye):
    X=              0.0009    Y=              3.8806    Z=             -0.3451  Tot=              3.8960
                          Isotropic Fermi Contact Couplings
        Atom                 a.u.       MegaHertz       Gauss      10(-4) cm-1
     1  N(14)              0.09964      32.19461      11.48784      10.73897
     2  C(13)             -0.04707     -52.91519     -18.88146     -17.65061
     3  O(17)             -0.01037       6.28731       2.24347       2.09722
     4  C(13)             -0.04709     -52.93336     -18.88794     -17.65667
     5  N(14)              0.13321      43.04054      15.35793      14.35678
     6  O(17)             -0.01038       6.29493       2.24619       2.09976
     7  F(19)              0.02434     102.41103      36.54280      34.16064
 --------------------------------------------------------

 Normal termination of Gaussian 16 at Wed Apr  9 00:53:13 2025.
