 Gaussian 16, Revision C.01,

 ----------------------------------------------------------------------
 #t hf aug-cc-pvdz symm=none int=(grid=ultrafine) guess=(read,tcheck) s
 table=(opt,rrhf)
 ----------------------------------------------------------------------
 -----
 title
 -----
 Symbolic Z-matrix:
 Charge =  0 Multiplicity = 1

 SCF Done:  E(RHF) =  -737.331694628     A.U. after   17 cycles
 Normal termination of Gaussian 16 at Wed Apr  9 00:01:10 2025.
 Gaussian 16:  ES64L-G16RevC.01  3-Jul-2019

 ----------------------------------------------------------------------
 #t hf aug-cc-pvdz iop(5/13=1,5/36=2,99/5=2) pseudo=read geom=check gue
 ss=(read,tcheck) scf=(maxcycle=1)
 ----------------------------------------------------------------------
 -----
 title
 -----
 Structure from the checkpoint file:  "BDE49_nonexpt_2113_mol1.chk"
 Charge =  0 Multiplicity = 1

                         Standard orientation:
 ---------------------------------------------------------------------
 Center     Atomic      Atomic             Coordinates (Angstroms)
 Number     Number       Type             X           Y           Z
 ---------------------------------------------------------------------
      1         14           0       -0.075649    0.550305    0.538142
      2          7           0       -1.387840   -0.584451   -0.120833
      3          7           0        1.516470   -0.286032    0.064456
      4          8           0       -1.162216   -1.532786   -0.851079
      5          8           0       -2.502758   -0.211801    0.254479
      6          8           0        2.168085    0.180261   -0.864833
      7          8           0        1.818685   -1.275766    0.722026
      8          6           0       -0.238825    2.180516   -0.301771
      9          1           0       -0.114526    2.069355   -1.380602
     10          1           0        0.529136    2.867685    0.062585
     11          1           0       -1.223206    2.605622   -0.092568
     12          1           0       -0.174155    0.484091    1.997106
 ---------------------------------------------------------------------

 SCF Done:  E(RHF) =  -739.377921492     A.U. after    2 cycles

 The electronic state is 1-A.
 Alpha  occ. eigenvalues --  -76.33736 -21.12811 -21.12061 -21.11927 -21.11841
 Alpha  occ. eigenvalues --  -15.99273 -15.98929 -11.41377  -5.67626  -2.32030
 Alpha  occ. eigenvalues --   -2.31796  -2.30267  -2.00156  -1.99662  -1.71179
 Alpha  occ. eigenvalues --   -1.70698  -1.12819  -1.04111  -0.98471  -0.77365
 Alpha  occ. eigenvalues --   -0.72149  -0.68805  -0.68149  -0.63972  -0.62836
 Alpha  occ. eigenvalues --   -0.62381  -0.61179  -0.60419  -0.50721  -0.36934
 Alpha  occ. eigenvalues --   -0.34956  -0.34578  -0.33668  -0.32740  -0.32500
 Alpha virt. eigenvalues --    0.02109   0.04829   0.05178   0.05800   0.07047
 Alpha virt. eigenvalues --    0.07329   0.08363   0.08605   0.10049   0.11545
 Alpha virt. eigenvalues --    0.13304   0.13539   0.14284   0.15588   0.15987

 Mulliken charges:
               1
     1  Si   5.638381
     2  N    3.120386
     3  N    3.461904
     4  O   -2.194071
     5  O   -2.243481
     6  O   -2.155875
     7  O   -2.410726
     8  C   -5.033822
     9  H    1.291871
    10  H    1.326598
    11  H    1.322042
    12  H   -2.123207
 Sum of Mulliken charges =   0.00000

 Dipole moment (field-independent basis, Debye):
    X=             -0.3193    Y=              3.0694    Z=              0.5483  Tot=              3.1343

 Test job not archived.
 1\1\GINC-SE252\SP\RHF\Aug-CC-pVDZ\C1H4N2O4Si1\OHZDE\09-Apr-2025\0\\#t
 hf aug-cc-pvdz iop(5/13=1,5/36=2,99/5=2) pseudo=read geom=check guess=
 (read,tcheck) scf=(maxcycle=1)\\title\\0,1\Si,0,-0.075649,0.550305,0.5
 38142\N,0,-1.38784,-0.584451,-0.120833\N,0,1.51647,-0.286032,0.064456\
 O,0,-1.162216,-1.532786,-0.851079\O,0,-2.502758,-0.211801,0.254479\O,0
 ,2.168085,0.180261,-0.864833\O,0,1.818685,-1.275766,0.722026\C,0,-0.23
 8825,2.180516,-0.301771\H,0,-0.114526,2.069355,-1.380602\H,0,0.529136,
 2.867685,0.062585\H,0,-1.223206,2.605622,-0.092568\H,0,-0.174155,0.484

 Normal termination of Gaussian 16 at Wed Apr  9 00:01:15 2025.
