 Gaussian 16, Revision C.01,

 ----------------------------------------------------------------------
 #t hf aug-cc-pvdz symm=none int=(grid=ultrafine) guess=(read,tcheck) s
 table=opt
 ----------------------------------------------------------------------
 -----
 title
 -----
 Symbolic Z-matrix:
 Charge =  0 Multiplicity = 2

 SCF Done:  E(UHF) =  -138.424552130     A.U. after   14 cycles
 Normal termination of Gaussian 16 at Tue Apr  8 22:30:16 2025.
 Gaussian 16:  ES64L-G16RevC.01  3-Jul-2019

 ----------------------------------------------------------------------
 #t hf aug-cc-pvdz iop(5/13=1,5/36=2,99/5=2) pseudo=read geom=check gue
 ss=(read,tcheck) scf=(maxcycle=1)
 ----------------------------------------------------------------------
 -----
 title
 -----
 Structure from the checkpoint file:  "BDE49_expt_1006_mol2.chk"
 Charge =  0 Multiplicity = 2

                         Standard orientation:
 ---------------------------------------------------------------------
 Center     Atomic      Atomic             Coordinates (Angstroms)
 Number     Number       Type             X           Y           Z
 ---------------------------------------------------------------------
      1          6           0       -0.024489    0.657344    0.000000
      2          1           0        0.183669    1.113696    0.958489
      3          1           0        0.183669    1.113696   -0.958489
      4          9           0       -0.024489   -0.685717   -0.000000
 ---------------------------------------------------------------------

 SCF Done:  E(UHF) =  -138.937702517     A.U. after    2 cycles

 The electronic state is 2-A'.
 Alpha  occ. eigenvalues --  -29.28506 -11.43752  -1.14786  -0.67932  -0.66505
 Alpha  occ. eigenvalues --   -0.51282  -0.39713  -0.26912  -0.18876
 Alpha virt. eigenvalues --    0.03951   0.05624   0.11556   0.12218   0.15898
 Alpha virt. eigenvalues --    0.16878   0.22989   0.26103   0.29554   0.30181
 Alpha virt. eigenvalues --    0.30613   0.37441   0.38558   0.42506   0.46229

  Beta  occ. eigenvalues --  -29.28077 -11.41303  -1.07169  -0.65797  -0.65011
  Beta  occ. eigenvalues --   -0.39167  -0.35384  -0.26914
  Beta virt. eigenvalues --    0.04122   0.05664   0.09782   0.12290   0.16001
  Beta virt. eigenvalues --    0.17183   0.19608   0.23428   0.27113   0.29740
  Beta virt. eigenvalues --    0.31761   0.32056   0.37748   0.39459   0.46422

 Mulliken charges and spin densities:
               1          2
     1  C   -3.014841   1.047679
     2  H    1.303380  -0.090141
     3  H    1.303380  -0.090141
     4  F    0.408080   0.132602
 Sum of Mulliken charges =   0.00000   1.00000

 Dipole moment (field-independent basis, Debye):
    X=              0.3225    Y=             -1.3321    Z=             -0.0000  Tot=              1.3706
                          Isotropic Fermi Contact Couplings
        Atom                 a.u.       MegaHertz       Gauss      10(-4) cm-1
     1  C(13)              0.13492     151.67878      54.12276      50.59459
     2  H(1)              -0.01645     -73.54076     -26.24117     -24.53056
     3  H(1)              -0.01645     -73.54076     -26.24117     -24.53056
     4  F(19)              0.02718     114.37688      40.81252      38.15202
 --------------------------------------------------------
       Center         ----  Spin Dipole Couplings  ----
                      3XX-RR        3YY-RR        3ZZ-RR
 --------------------------------------------------------

 Normal termination of Gaussian 16 at Tue Apr  8 22:30:17 2025.
