 Gaussian 16, Revision C.01,

 ----------------------------------------------------------------------
 #t hf aug-cc-pvdz symm=none int=(grid=ultrafine) guess=(read,tcheck) s
 table=(opt,rrhf)
 ----------------------------------------------------------------------
 -----
 title
 -----
 Symbolic Z-matrix:
 Charge =  0 Multiplicity = 1

 SCF Done:  E(RHF) =  -344.965041305     A.U. after   13 cycles

 1\1\GINC-SE460\Stability\RHF\Aug-CC-pVDZ\C5H10O2\OHZDE\08-Apr-2025\0\\
 #t hf aug-cc-pvdz symm=none int=(grid=ultrafine) guess=(read,tcheck) s
 table=(opt,rrhf)\\title\\0,1\C,0,-0.857681,-0.490735,0.08166\O,0,-1.92
 538,-0.545592,-0.754552\O,0,-0.7417,-1.235269,1.022314\H,0,-2.501802,-
 1.247874,-0.417487\C,0,0.096102,0.6276,-0.302362\C,0,1.509801,0.371941
 ,0.237478\C,0,2.213376,-0.83093,-0.397452\H,0,1.4488,0.232546,1.320846
 \H,0,2.103704,1.276081,0.065714\H,0,1.675238,-1.758234,-0.188458\H,0,3
 .226547,-0.941738,-0.002545\H,0,2.29203,-0.717873,-1.483572\C,0,-0.486

 Normal termination of Gaussian 16 at Tue Apr  8 22:44:01 2025.
 Gaussian 16:  ES64L-G16RevC.01  3-Jul-2019

 ----------------------------------------------------------------------
 #t hf aug-cc-pvdz iop(5/13=1,5/36=2,99/5=2) pseudo=read geom=check gue
 ss=(read,tcheck) scf=(maxcycle=1)
 ----------------------------------------------------------------------
 -----
 title
 -----
 Structure from the checkpoint file:  "BDE49_expt_1446_mol1.chk"
 Charge =  0 Multiplicity = 1

                         Standard orientation:
 ---------------------------------------------------------------------
 Center     Atomic      Atomic             Coordinates (Angstroms)
 Number     Number       Type             X           Y           Z
 ---------------------------------------------------------------------
      1          6           0       -0.857681   -0.490735    0.081660
      2          8           0       -1.925380   -0.545592   -0.754552
      3          8           0       -0.741700   -1.235269    1.022314
      4          1           0       -2.501802   -1.247874   -0.417487
      5          6           0        0.096102    0.627600   -0.302362
      6          6           0        1.509801    0.371941    0.237478
      7          6           0        2.213376   -0.830930   -0.397452
      8          1           0        1.448800    0.232546    1.320846
      9          1           0        2.103704    1.276081    0.065714
     10          1           0        1.675238   -1.758234   -0.188458
     11          1           0        3.226547   -0.941738   -0.002545
     12          1           0        2.292030   -0.717873   -1.483572
     13          6           0       -0.486568    1.962890    0.206817
     14          1           0        0.119512    0.663785   -1.396922
     15          1           0       -0.541862    1.968664    1.298908
     16          1           0       -1.488622    2.134848   -0.190604
     17          1           0        0.152913    2.792069   -0.104826
 ---------------------------------------------------------------------

 SCF Done:  E(RHF) =  -346.555563646     A.U. after    2 cycles

 The electronic state is 1-A.
 Alpha  occ. eigenvalues --  -21.12018 -21.05129 -11.52725 -11.43543 -11.40905
 Alpha  occ. eigenvalues --  -11.38271 -11.35685  -1.82642  -1.65150  -1.25907
 Alpha  occ. eigenvalues --   -1.09026  -0.95316  -0.88817  -0.75851  -0.67800
 Alpha  occ. eigenvalues --   -0.62023  -0.60890  -0.57780  -0.57570  -0.55153
 Alpha  occ. eigenvalues --   -0.53315  -0.49788  -0.48270  -0.45490  -0.43996
 Alpha  occ. eigenvalues --   -0.42922  -0.33785  -0.29320
 Alpha virt. eigenvalues --    0.04077   0.04995   0.05367   0.05657   0.05752
 Alpha virt. eigenvalues --    0.06113   0.06645   0.07466   0.08646   0.09196
 Alpha virt. eigenvalues --    0.10661   0.12400   0.12640   0.13448   0.14246

 Mulliken charges:
               1
     1  C    6.814561
     2  O   -3.154747
     3  O   -3.287067
     4  H    0.790134
     5  C   -2.628507
     6  C   -2.818137
     7  C   -3.869191
     8  H    1.458234
     9  H    1.428044
    10  H    1.377187
    11  H    1.053200
    12  H    1.261376
    13  C   -4.131821
    14  H    1.848857
    15  H    1.377635
    16  H    1.220615
    17  H    1.259628
 Sum of Mulliken charges =  -0.00000

 Dipole moment (field-independent basis, Debye):
    X=             -0.0894    Y=              0.8148    Z=             -0.7951  Tot=              1.1420

 Test job not archived.
 1\1\GINC-SE460\SP\RHF\Aug-CC-pVDZ\C5H10O2\OHZDE\08-Apr-2025\0\\#t hf a
 ug-cc-pvdz iop(5/13=1,5/36=2,99/5=2) pseudo=read geom=check guess=(rea
 d,tcheck) scf=(maxcycle=1)\\title\\0,1\C,0,-0.857681,-0.490735,0.08166
 \O,0,-1.92538,-0.545592,-0.754552\O,0,-0.7417,-1.235269,1.022314\H,0,-
 2.501802,-1.247874,-0.417487\C,0,0.096102,0.6276,-0.302362\C,0,1.50980
 1,0.371941,0.237478\C,0,2.213376,-0.83093,-0.397452\H,0,1.4488,0.23254
 6,1.320846\H,0,2.103704,1.276081,0.065714\H,0,1.675238,-1.758234,-0.18
 8458\H,0,3.226547,-0.941738,-0.002545\H,0,2.29203,-0.717873,-1.483572\

 Normal termination of Gaussian 16 at Tue Apr  8 22:44:06 2025.
