 Gaussian 16, Revision C.01,

 ----------------------------------------------------------------------
 #t hf aug-cc-pvdz symm=none int=(grid=ultrafine) guess=(read,tcheck) s
 table=(opt,rrhf)
 ----------------------------------------------------------------------
 -----
 title
 -----
 Symbolic Z-matrix:
 Charge =  0 Multiplicity = 1

 SCF Done:  E(RHF) =  -514.614760785     A.U. after   12 cycles
 Normal termination of Gaussian 16 at Tue Apr  8 23:38:24 2025.
 Gaussian 16:  ES64L-G16RevC.01  3-Jul-2019

 ----------------------------------------------------------------------
 #t hf aug-cc-pvdz iop(5/13=1,5/36=2,99/5=2) pseudo=read geom=check gue
 ss=(read,tcheck) scf=(maxcycle=1)
 ----------------------------------------------------------------------
 -----
 title
 -----
 Structure from the checkpoint file:  "BDE49_nonexpt_1541_mol1.chk"
 Charge =  0 Multiplicity = 1

                         Standard orientation:
 ---------------------------------------------------------------------
 Center     Atomic      Atomic             Coordinates (Angstroms)
 Number     Number       Type             X           Y           Z
 ---------------------------------------------------------------------
      1          7           0        0.687507    0.065901   -0.191286
      2          6           0        1.004993    1.431204    0.206789
      3          1           0        1.405314    1.487277    1.232560
      4          1           0        0.118954    2.064497    0.153626
      5          1           0        1.754808    1.854408   -0.470964
      6         15           0       -0.763294   -0.694953    0.321051
      7          6           0        1.870019   -0.785146   -0.297201
      8          1           0        2.551460   -0.381319   -1.054524
      9          1           0        1.577076   -1.790319   -0.603000
     10          1           0        2.428968   -0.863109    0.649473
     11          6           0       -2.074787    0.367748   -0.445482
     12          1           0       -1.952072    1.437021   -0.262088
     13          1           0       -3.038448    0.056283   -0.031132
     14          1           0       -2.092048    0.190230   -1.522525
     15          1           0       -0.918495   -0.174817    1.647167
 ---------------------------------------------------------------------

 SCF Done:  E(RHF) =  -515.704546166     A.U. after    2 cycles

 The electronic state is 1-A.
 Alpha  occ. eigenvalues -- -105.17726 -15.70539 -11.38793 -11.38053 -11.36337
 Alpha  occ. eigenvalues --   -2.75608  -1.56453  -1.46452  -1.43818  -1.29239
 Alpha  occ. eigenvalues --   -1.03133  -1.00176  -0.86355  -0.68803  -0.62392
 Alpha  occ. eigenvalues --   -0.59317  -0.57257  -0.55750  -0.54873  -0.54093
 Alpha  occ. eigenvalues --   -0.49378  -0.34315  -0.25948  -0.22001  -0.01297
 Alpha virt. eigenvalues --    0.04213   0.05247   0.06140   0.06278   0.06549
 Alpha virt. eigenvalues --    0.06959   0.07227   0.07691   0.07974   0.09097
 Alpha virt. eigenvalues --    0.11268   0.11566   0.12775   0.13538   0.14730

 Mulliken charges:
               1
     1  N   -2.103431
     2  C   -3.587272
     3  H    1.306135
     4  H    1.554614
     5  H    1.322934
     6  P    4.106683
     7  C   -3.569610
     8  H    1.479855
     9  H    1.316529
    10  H    1.308365
    11  C   -5.663208
    12  H    1.240118
    13  H    1.193106
    14  H    1.144956
    15  H   -1.049774
 Sum of Mulliken charges =   0.00000

 Dipole moment (field-independent basis, Debye):
    X=              1.8562    Y=              0.4829    Z=              0.1221  Tot=              1.9218

 Test job not archived.
 1\1\GINC-SE058\SP\RHF\Aug-CC-pVDZ\C3H10N1P1\OHZDE\08-Apr-2025\0\\#t hf
  aug-cc-pvdz iop(5/13=1,5/36=2,99/5=2) pseudo=read geom=check guess=(r
 ead,tcheck) scf=(maxcycle=1)\\title\\0,1\N,0,0.687507,0.065901,-0.1912
 86\C,0,1.004993,1.431204,0.206789\H,0,1.405314,1.487277,1.23256\H,0,0.
 118954,2.064497,0.153626\H,0,1.754808,1.854408,-0.470964\P,0,-0.763294
 ,-0.694953,0.321051\C,0,1.870019,-0.785146,-0.297201\H,0,2.55146,-0.38
 1319,-1.054524\H,0,1.577076,-1.790319,-0.603\H,0,2.428968,-0.863109,0.
 649473\C,0,-2.074787,0.367748,-0.445482\H,0,-1.952072,1.437021,-0.2620

 Normal termination of Gaussian 16 at Tue Apr  8 23:38:29 2025.
