 Gaussian 16, Revision C.01,

 ----------------------------------------------------------------------
 #t hf aug-cc-pvdz symm=none int=(grid=ultrafine) guess=(read,tcheck) s
 table=(opt,rrhf)
 ----------------------------------------------------------------------
 -----
 title
 -----
 Symbolic Z-matrix:
 Charge =  0 Multiplicity = 1

 SCF Done:  E(RHF) =  -1014.69959934     A.U. after   15 cycles
 Normal termination of Gaussian 16 at Tue Apr  8 23:51:09 2025.
 Gaussian 16:  ES64L-G16RevC.01  3-Jul-2019

 ----------------------------------------------------------------------
 #t hf aug-cc-pvdz iop(5/13=1,5/36=2,99/5=2) pseudo=read geom=check gue
 ss=(read,tcheck) scf=(maxcycle=1)
 ----------------------------------------------------------------------
 -----
 title
 -----
 Structure from the checkpoint file:  "BDE49_nonexpt_1873_mol1.chk"
 Charge =  0 Multiplicity = 1

                         Standard orientation:
 ---------------------------------------------------------------------
 Center     Atomic      Atomic             Coordinates (Angstroms)
 Number     Number       Type             X           Y           Z
 ---------------------------------------------------------------------
      1          6           0       -0.180766   -0.820878    0.813060
      2         14           0        1.156127   -0.992193   -0.534852
      3          6           0       -1.508731   -0.411136    0.278842
      4          8           0       -2.496383   -1.046535    0.171417
      5         17           0       -1.482568    1.344752   -0.314280
      6          6           0        2.414754    0.439724   -0.213856
      7          1           0        0.603098   -0.923216   -1.903425
      8          1           0        1.882023   -2.271649   -0.359081
      9          8           0        2.381054    1.060837    0.823949
     10          1           0        3.195241    0.677747   -0.974026
     11          1           0        0.214521   -0.051765    1.484263
     12          1           0       -0.305903   -1.761881    1.351747
 ---------------------------------------------------------------------

 SCF Done:  E(RHF) =  -1016.23952242     A.U. after    2 cycles

 The electronic state is 1-A.
 Alpha  occ. eigenvalues --  -99.89755 -76.25558 -21.10752 -21.09461 -11.56555
 Alpha  occ. eigenvalues --  -11.47123 -11.41581 -10.46994  -9.66877  -9.66326
 Alpha  occ. eigenvalues --   -9.66154  -5.59217  -2.22998  -2.22410  -2.21467
 Alpha  occ. eigenvalues --   -1.76782  -1.72630  -1.31719  -1.13946  -0.91149
 Alpha  occ. eigenvalues --   -0.82056  -0.75999  -0.68172  -0.63159  -0.61317
 Alpha  occ. eigenvalues --   -0.59071  -0.55068  -0.51630  -0.51289  -0.50642
 Alpha  occ. eigenvalues --   -0.49342  -0.46228  -0.42470  -0.35264  -0.29431
 Alpha virt. eigenvalues --    0.03209   0.04118   0.04887   0.05735   0.06506
 Alpha virt. eigenvalues --    0.07276   0.07612   0.08530   0.08961   0.09160
 Alpha virt. eigenvalues --    0.11295   0.11762   0.12277   0.12548   0.12655

 Mulliken charges:
               1
     1  C   -3.877965
     2  Si   6.098373
     3  C    2.545613
     4  O   -2.701829
     5  Cl  -0.083562
     6  C   -0.470010
     7  H   -1.817638
     8  H   -1.953709
     9  O   -2.094165
    10  H    1.429772
    11  H    1.679985
    12  H    1.245136
 Sum of Mulliken charges =  -0.00000

 Dipole moment (field-independent basis, Debye):
    X=              1.1408    Y=             -2.5186    Z=              0.7602  Tot=              2.8675

 Test job not archived.
 1\1\GINC-SE084\SP\RHF\Aug-CC-pVDZ\C3H5Cl1O2Si1\OHZDE\08-Apr-2025\0\\#t
  hf aug-cc-pvdz iop(5/13=1,5/36=2,99/5=2) pseudo=read geom=check guess
 =(read,tcheck) scf=(maxcycle=1)\\title\\0,1\C,0,-0.180766,-0.820878,0.
 81306\Si,0,1.156127,-0.992193,-0.534852\C,0,-1.508731,-0.411136,0.2788
 42\O,0,-2.496383,-1.046535,0.171417\Cl,0,-1.482568,1.344752,-0.31428\C
 ,0,2.414754,0.439724,-0.213856\H,0,0.603098,-0.923216,-1.903425\H,0,1.
 882023,-2.271649,-0.359081\O,0,2.381054,1.060837,0.823949\H,0,3.195241
 ,0.677747,-0.974026\H,0,0.214521,-0.051765,1.484263\H,0,-0.305903,-1.7

 Normal termination of Gaussian 16 at Tue Apr  8 23:51:16 2025.
