 Gaussian 16, Revision C.01,

 ----------------------------------------------------------------------
 #t hf aug-cc-pvdz symm=none int=(grid=ultrafine) guess=(read,tcheck) s
 table=(opt,rrhf)
 ----------------------------------------------------------------------
 -----
 title
 -----
 Symbolic Z-matrix:
 Charge =  0 Multiplicity = 1

 SCF Done:  E(RHF) =  -716.343853037     A.U. after   16 cycles
 Normal termination of Gaussian 16 at Wed Apr  9 00:42:57 2025.
 Gaussian 16:  ES64L-G16RevC.01  3-Jul-2019

 ----------------------------------------------------------------------
 #t hf aug-cc-pvdz iop(5/13=1,5/36=2,99/5=2) pseudo=read geom=check gue
 ss=(read,tcheck) scf=(maxcycle=1)
 ----------------------------------------------------------------------
 -----
 title
 -----
 Structure from the checkpoint file:  "BDE49_nonexpt_666_mol1.chk"
 Charge =  0 Multiplicity = 1

                         Standard orientation:
 ---------------------------------------------------------------------
 Center     Atomic      Atomic             Coordinates (Angstroms)
 Number     Number       Type             X           Y           Z
 ---------------------------------------------------------------------
      1          9           0        1.047900    2.027792    0.000002
      2          9           0       -1.609730    2.113271   -0.000003
      3          8           0        3.186012   -1.694059    0.000004
      4          8           0        3.474207    0.634268    0.000006
      5          8           0       -3.947833   -1.206318    0.000003
      6          6           0        1.065540   -0.359409    0.000001
      7          6           0        0.374398    0.845993   -0.000000
      8          6           0       -1.013513    0.908095   -0.000003
      9          6           0       -1.769786   -0.261256   -0.000005
     10          6           0       -1.094563   -1.490492   -0.000004
     11          6           0        0.288788   -1.535281   -0.000001
     12          6           0       -3.255780   -0.214906   -0.000008
     13          5           0        2.643306   -0.444685    0.000004
     14          1           0       -1.693278   -2.392980   -0.000005
     15          1           0        0.804796   -2.486923   -0.000000
     16          1           0       -3.702030    0.795594    0.000003
     17          1           0        4.148911   -1.667431    0.000006
     18          1           0        3.011947    1.478009    0.000005
 ---------------------------------------------------------------------

 SCF Done:  E(RHF) =  -719.256814368     A.U. after    2 cycles

 The electronic state is 1-A.
 Alpha  occ. eigenvalues --  -29.31986 -29.31882 -21.07850 -21.07129 -21.07011
 Alpha  occ. eigenvalues --  -11.58468 -11.51436 -11.50606 -11.49944 -11.45631
 Alpha  occ. eigenvalues --  -11.45413 -11.40343  -7.69060  -1.83695  -1.72522
 Alpha  occ. eigenvalues --   -1.67324  -1.42290  -1.20179  -1.19610  -0.99872
 Alpha  occ. eigenvalues --   -0.98822  -0.88099  -0.83013  -0.76001  -0.74516
 Alpha  occ. eigenvalues --   -0.70214  -0.66994  -0.65013  -0.62252  -0.59455
 Alpha  occ. eigenvalues --   -0.56292  -0.52978  -0.51793  -0.51395  -0.49083
 Alpha  occ. eigenvalues --   -0.45479  -0.44001  -0.43407  -0.42164  -0.41546
 Alpha  occ. eigenvalues --   -0.39348  -0.37816  -0.33310  -0.29782  -0.29376
 Alpha  occ. eigenvalues --   -0.28495  -0.23496
 Alpha virt. eigenvalues --    0.03419   0.04433   0.05138   0.05260   0.05885
 Alpha virt. eigenvalues --    0.06263   0.06565   0.07864   0.08667   0.09598
 Alpha virt. eigenvalues --    0.10392   0.10778   0.12043   0.12208   0.12255

 Mulliken charges:
               1
     1  F    1.007482
     2  F    1.246970
     3  O   -4.512857
     4  O   -4.876550
     5  O   -3.267499
     6  C   -5.386950
     7  C    3.819699
     8  C    3.175441
     9  C   -0.990667
    10  C   -3.660862
    11  C    1.368746
    12  C   -0.484770
    13  B    4.595917
    14  H    1.837042
    15  H    2.092088
    16  H    1.402715
    17  H    1.132434
    18  H    1.501621
 Sum of Mulliken charges =  -0.00000

 Dipole moment (field-independent basis, Debye):
    X=              0.9441    Y=              5.2345    Z=              0.0000  Tot=              5.3189

 Test job not archived.
 1\1\GINC-SE072\SP\RHF\Aug-CC-pVDZ\C7H5B1F2O3\OHZDE\09-Apr-2025\0\\#t h
 f aug-cc-pvdz iop(5/13=1,5/36=2,99/5=2) pseudo=read geom=check guess=(
 read,tcheck) scf=(maxcycle=1)\\title\\0,1\F,0,1.0479,2.027792,0.000002
 \F,0,-1.60973,2.113271,-0.000003\O,0,3.186012,-1.694059,0.000004\O,0,3
 .474207,0.634268,0.000006\O,0,-3.947833,-1.206318,0.000003\C,0,1.06554
 ,-0.359409,0.000001\C,0,0.374398,0.845993,0.\C,0,-1.013513,0.908095,-0
 .000003\C,0,-1.769786,-0.261256,-0.000005\C,0,-1.094563,-1.490492,-0.0
 00004\C,0,0.288788,-1.535281,-0.000001\C,0,-3.25578,-0.214906,-0.00000

 Normal termination of Gaussian 16 at Wed Apr  9 00:43:09 2025.
