 Gaussian 16, Revision C.01,

 ----------------------------------------------------------------------
 #t hf aug-cc-pvdz symm=none int=(grid=ultrafine) guess=(read,tcheck) s
 table=(opt,rrhf)
 ----------------------------------------------------------------------
 -----
 title
 -----
 Symbolic Z-matrix:
 Charge =  0 Multiplicity = 1

 SCF Done:  E(RHF) =  -403.036913967     A.U. after   13 cycles
 Normal termination of Gaussian 16 at Wed Apr  9 00:40:58 2025.
 Gaussian 16:  ES64L-G16RevC.01  3-Jul-2019

 ----------------------------------------------------------------------
 #t hf aug-cc-pvdz iop(5/13=1,5/36=2,99/5=2) pseudo=read geom=check gue
 ss=(read,tcheck) scf=(maxcycle=1)
 ----------------------------------------------------------------------
 -----
 title
 -----
 Structure from the checkpoint file:  "BDE49_nonexpt_662_mol1.chk"
 Charge =  0 Multiplicity = 1

                         Standard orientation:
 ---------------------------------------------------------------------
 Center     Atomic      Atomic             Coordinates (Angstroms)
 Number     Number       Type             X           Y           Z
 ---------------------------------------------------------------------
      1          6           0        2.422764   -0.761673    0.000004
      2          6           0        1.184957    0.089985    0.000010
      3          1           0        3.307549   -0.129301   -0.000018
      4          1           0        2.419640   -1.410375   -0.878923
      5          1           0        2.419664   -1.410348    0.878951
      6          8           0        0.062186   -0.660350    0.000009
      7          8           0        1.186840    1.301576   -0.000018
      8          5           0       -1.243335   -0.114147    0.000001
      9          8           0       -1.496829    1.213330    0.000004
     10          1           0       -0.663535    1.714541    0.000017
     11          8           0       -2.228996   -1.045715   -0.000007
     12          1           0       -3.098569   -0.634384   -0.000012
 ---------------------------------------------------------------------

 SCF Done:  E(RHF) =  -404.706896268     A.U. after    2 cycles

 The electronic state is 1-A.
 Alpha  occ. eigenvalues --  -21.08056 -21.06991 -21.06229 -21.05215 -11.54533
 Alpha  occ. eigenvalues --  -11.40817  -7.67682  -1.92609  -1.77229  -1.67995
 Alpha  occ. eigenvalues --   -1.66095  -1.12440  -0.85678  -0.74763  -0.65660
 Alpha  occ. eigenvalues --   -0.63690  -0.63048  -0.61469  -0.56080  -0.54602
 Alpha  occ. eigenvalues --   -0.50264  -0.47664  -0.45515  -0.37030  -0.35958
 Alpha  occ. eigenvalues --   -0.35818  -0.30208
 Alpha virt. eigenvalues --    0.02905   0.04268   0.05539   0.05797   0.06411
 Alpha virt. eigenvalues --    0.06452   0.06900   0.08253   0.09389   0.11862
 Alpha virt. eigenvalues --    0.13881   0.14248   0.14604   0.15327   0.16074

 Mulliken charges:
               1
     1  C   -4.180379
     2  C    6.106405
     3  H    1.271370
     4  H    1.248523
     5  H    1.248535
     6  O   -5.474999
     7  O   -3.115525
     8  B    7.830760
     9  O   -4.056606
    10  H    1.735046
    11  O   -3.435094
    12  H    0.821965
 Sum of Mulliken charges =   0.00000

 Dipole moment (field-independent basis, Debye):
    X=              1.0165    Y=             -0.3180    Z=              0.0000  Tot=              1.0651

 Test job not archived.
 1\1\GINC-SE462\SP\RHF\Aug-CC-pVDZ\C2H5B1O4\OHZDE\09-Apr-2025\0\\#t hf
 aug-cc-pvdz iop(5/13=1,5/36=2,99/5=2) pseudo=read geom=check guess=(re
 ad,tcheck) scf=(maxcycle=1)\\title\\0,1\C,0,2.422764,-0.761673,0.00000
 4\C,0,1.184957,0.089985,0.00001\H,0,3.307549,-0.129301,-0.000018\H,0,2
 .41964,-1.410375,-0.878923\H,0,2.419664,-1.410348,0.878951\O,0,0.06218
 6,-0.66035,0.000009\O,0,1.18684,1.301576,-0.000018\B,0,-1.243335,-0.11
 4147,0.000001\O,0,-1.496829,1.21333,0.000004\H,0,-0.663535,1.714541,0.
 000017\O,0,-2.228996,-1.045715,-0.000007\H,0,-3.098569,-0.634384,-0.00

 Normal termination of Gaussian 16 at Wed Apr  9 00:41:02 2025.
