 Gaussian 16, Revision C.01,

 ----------------------------------------------------------------------
 #t hf aug-cc-pvdz symm=none int=(grid=ultrafine) guess=(read,tcheck) s
 table=(opt,rrhf)
 ----------------------------------------------------------------------
 -----
 title
 -----
 Symbolic Z-matrix:
 Charge =  0 Multiplicity = 1

 SCF Done:  E(RHF) =  -634.973380272     A.U. after   14 cycles
 Normal termination of Gaussian 16 at Wed Apr  9 00:07:17 2025.
 Gaussian 16:  ES64L-G16RevC.01  3-Jul-2019

 ----------------------------------------------------------------------
 #t hf aug-cc-pvdz iop(5/13=1,5/36=2,99/5=2) pseudo=read geom=check gue
 ss=(read,tcheck) scf=(maxcycle=1)
 ----------------------------------------------------------------------
 -----
 title
 -----
 Structure from the checkpoint file:  "BDE49_nonexpt_2222_mol1.chk"
 Charge =  0 Multiplicity = 1

                         Standard orientation:
 ---------------------------------------------------------------------
 Center     Atomic      Atomic             Coordinates (Angstroms)
 Number     Number       Type             X           Y           Z
 ---------------------------------------------------------------------
      1         14           0       -0.682229   -0.351417    0.694448
      2          8           0       -1.673215   -0.535861   -0.668682
      3          8           0       -2.808327    0.382367   -0.510071
      4          1           0       -2.786027    0.814313   -1.374140
      5          6           0        0.714781   -1.560118    0.377815
      6          6           0        1.738359   -0.998687   -0.637251
      7          1           0        0.325732   -2.526941    0.043899
      8          1           0        1.211691   -1.744534    1.339903
      9          6           0        0.100057    1.350304    0.762874
     10          6           0        1.202754    1.513730   -0.309213
     11          1           0        0.536483    1.476332    1.763195
     12          1           0       -0.661182    2.130519    0.664197
     13          6           0        2.268156    0.402598   -0.282221
     14          1           0        1.695387    2.484142   -0.183027
     15          1           0        0.743516    1.535100   -1.305286
     16          1           0        3.066868    0.663910   -0.984484
     17          1           0        2.734480    0.373019    0.711977
     18          1           0        1.277819   -0.961230   -1.631425
     19          1           0        2.584883   -1.689169   -0.720146
     20          1           0       -1.470756   -0.654632    1.911065
 ---------------------------------------------------------------------

 SCF Done:  E(RHF) =  -636.746039504     A.U. after    2 cycles

 The electronic state is 1-A.
 Alpha  occ. eigenvalues --  -76.21101 -21.12058 -21.07631 -11.42921 -11.41355
 Alpha  occ. eigenvalues --  -11.37753 -11.35059 -11.33880  -5.55316  -2.21872
 Alpha  occ. eigenvalues --   -2.19245  -2.18357  -1.89306  -1.39731  -1.25924
 Alpha  occ. eigenvalues --   -1.11084  -1.00285  -0.87445  -0.81398  -0.69430
 Alpha  occ. eigenvalues --   -0.64139  -0.62455  -0.60776  -0.59906  -0.56182
 Alpha  occ. eigenvalues --   -0.53821  -0.50384  -0.48076  -0.47931  -0.46216
 Alpha  occ. eigenvalues --   -0.44834  -0.44116  -0.39843  -0.35492  -0.34925
 Alpha  occ. eigenvalues --   -0.29021
 Alpha virt. eigenvalues --    0.03806   0.05215   0.05400   0.05461   0.05628
 Alpha virt. eigenvalues --    0.05706   0.06008   0.06699   0.06816   0.08057
 Alpha virt. eigenvalues --    0.08201   0.08551   0.09374   0.10503   0.11204

 Mulliken charges:
               1
     1  Si   6.937836
     2  O   -1.730376
     3  O   -1.128622
     4  H    0.971185
     5  C   -3.763363
     6  C   -2.598783
     7  H    1.360213
     8  H    1.309928
     9  C   -3.941523
    10  C   -2.501246
    11  H    1.230989
    12  H    1.320447
    13  C   -3.080160
    14  H    1.234133
    15  H    1.431867
    16  H    1.281517
    17  H    1.506942
    18  H    1.391563
    19  H    1.249069
    20  H   -2.481617
 Sum of Mulliken charges =  -0.00000

 Dipole moment (field-independent basis, Debye):
    X=              0.8534    Y=              0.6594    Z=             -0.6653  Tot=              1.2672

 Test job not archived.
 1\1\GINC-SE250\SP\RHF\Aug-CC-pVDZ\C5H12O2Si1\OHZDE\09-Apr-2025\0\\#t h
 f aug-cc-pvdz iop(5/13=1,5/36=2,99/5=2) pseudo=read geom=check guess=(
 read,tcheck) scf=(maxcycle=1)\\title\\0,1\Si,0,-0.682229,-0.351417,0.6
 94448\O,0,-1.673215,-0.535861,-0.668682\O,0,-2.808327,0.382367,-0.5100
 71\H,0,-2.786027,0.814313,-1.37414\C,0,0.714781,-1.560118,0.377815\C,0
 ,1.738359,-0.998687,-0.637251\H,0,0.325732,-2.526941,0.043899\H,0,1.21
 1691,-1.744534,1.339903\C,0,0.100057,1.350304,0.762874\C,0,1.202754,1.
 51373,-0.309213\H,0,0.536483,1.476332,1.763195\H,0,-0.661182,2.130519,

 Normal termination of Gaussian 16 at Wed Apr  9 00:07:27 2025.
