 Gaussian 16, Revision C.01,

 ----------------------------------------------------------------------
 #t hf aug-cc-pvdz symm=none int=(grid=ultrafine) guess=(read,tcheck) s
 table=(opt,rrhf)
 ----------------------------------------------------------------------
 -----
 title
 -----
 Symbolic Z-matrix:
 Charge =  0 Multiplicity = 1

 SCF Done:  E(RHF) =  -906.421547876     A.U. after   12 cycles
 Normal termination of Gaussian 16 at Tue Apr  8 23:45:49 2025.
 Gaussian 16:  ES64L-G16RevC.01  3-Jul-2019

 ----------------------------------------------------------------------
 #t hf aug-cc-pvdz iop(5/13=1,5/36=2,99/5=2) pseudo=read geom=check gue
 ss=(read,tcheck) scf=(maxcycle=1)
 ----------------------------------------------------------------------
 -----
 title
 -----
 Structure from the checkpoint file:  "BDE49_nonexpt_1748_mol1.chk"
 Charge =  0 Multiplicity = 1

                         Standard orientation:
 ---------------------------------------------------------------------
 Center     Atomic      Atomic             Coordinates (Angstroms)
 Number     Number       Type             X           Y           Z
 ---------------------------------------------------------------------
      1         14           0        0.280054   -0.376056    0.000290
      2          6           0       -1.427000   -0.504206   -0.775385
      3          6           0       -2.559296    0.244385   -0.051610
      4          1           0       -1.665822   -1.574547   -0.841069
      5          1           0       -1.347655   -0.153578   -1.810967
      6          1           0       -2.700005   -0.125267    0.967950
      7          1           0       -3.511246    0.124013   -0.576171
      8          1           0       -2.349560    1.314936    0.011446
      9          6           0        1.550938   -1.296780   -1.019056
     10          1           0        1.320022   -2.367021   -1.042534
     11          1           0        2.552996   -1.176289   -0.599444
     12          1           0        1.570522   -0.931596   -2.049063
     13          6           0        0.295712   -0.935906    1.786301
     14          1           0        0.004345   -1.989158    1.858541
     15          1           0       -0.396579   -0.349476    2.395156
     16          1           0        1.294227   -0.830915    2.218421
     17         17           0        0.832110    1.663454   -0.010460
 ---------------------------------------------------------------------

 SCF Done:  E(RHF) =  -907.667442716     A.U. after    2 cycles

 The electronic state is 1-A.
 Alpha  occ. eigenvalues --  -99.86243 -76.22879 -11.39795 -11.35359 -11.35293
 Alpha  occ. eigenvalues --  -11.34906 -10.43600  -9.63557  -9.63077  -9.63061
 Alpha  occ. eigenvalues --   -5.56947  -2.20654  -2.20362  -2.19285  -1.26844
 Alpha  occ. eigenvalues --   -1.15398  -1.05825  -1.01873  -0.89382  -0.69129
 Alpha  occ. eigenvalues --   -0.61762  -0.58743  -0.57815  -0.56908  -0.56245
 Alpha  occ. eigenvalues --   -0.55007  -0.51457  -0.51300  -0.50148  -0.48991
 Alpha  occ. eigenvalues --   -0.48253  -0.39853  -0.37834
 Alpha virt. eigenvalues --    0.02813   0.04870   0.05594   0.05895   0.06284
 Alpha virt. eigenvalues --    0.06557   0.06728   0.06886   0.07221   0.07899
 Alpha virt. eigenvalues --    0.08688   0.09122   0.09788   0.10027   0.10750

 Mulliken charges:
               1
     1  Si   6.681952
     2  C   -4.179930
     3  C   -3.818955
     4  H    1.338489
     5  H    1.225965
     6  H    1.281743
     7  H    1.129427
     8  H    1.218311
     9  C   -5.564078
    10  H    1.288037
    11  H    1.169801
    12  H    1.198483
    13  C   -5.474916
    14  H    1.228043
    15  H    1.172672
    16  H    1.133776
    17  Cl  -1.028821
 Sum of Mulliken charges =  -0.00000

 Dipole moment (field-independent basis, Debye):
    X=             -0.7612    Y=             -2.3737    Z=             -0.0425  Tot=              2.4931

 Test job not archived.
 1\1\GINC-SE070\SP\RHF\Aug-CC-pVDZ\C4H11Cl1Si1\OHZDE\08-Apr-2025\0\\#t
 hf aug-cc-pvdz iop(5/13=1,5/36=2,99/5=2) pseudo=read geom=check guess=
 (read,tcheck) scf=(maxcycle=1)\\title\\0,1\Si,0,0.280054,-0.376056,0.0
 0029\C,0,-1.427,-0.504206,-0.775385\C,0,-2.559296,0.244385,-0.05161\H,
 0,-1.665822,-1.574547,-0.841069\H,0,-1.347655,-0.153578,-1.810967\H,0,
 -2.700005,-0.125267,0.96795\H,0,-3.511246,0.124013,-0.576171\H,0,-2.34
 956,1.314936,0.011446\C,0,1.550938,-1.29678,-1.019056\H,0,1.320022,-2.
 367021,-1.042534\H,0,2.552996,-1.176289,-0.599444\H,0,1.570522,-0.9315

 Normal termination of Gaussian 16 at Tue Apr  8 23:45:55 2025.
