 Gaussian 16, Revision C.01,

 ----------------------------------------------------------------------
 #t hf aug-cc-pvdz symm=none int=(grid=ultrafine) guess=(read,tcheck) s
 table=(opt,rrhf)
 ----------------------------------------------------------------------
 -----
 title
 -----
 Symbolic Z-matrix:
 Charge =  0 Multiplicity = 1

 SCF Done:  E(RHF) =  -646.603843805     A.U. after   14 cycles
 Normal termination of Gaussian 16 at Tue Apr  8 23:10:24 2025.
 Gaussian 16:  ES64L-G16RevC.01  3-Jul-2019

 ----------------------------------------------------------------------
 #t hf aug-cc-pvdz iop(5/13=1,5/36=2,99/5=2) pseudo=read geom=check gue
 ss=(read,tcheck) scf=(maxcycle=1)
 ----------------------------------------------------------------------
 -----
 title
 -----
 Structure from the checkpoint file:  "BDE49_expt_539_mol1.chk"
 Charge =  0 Multiplicity = 1

                         Standard orientation:
 ---------------------------------------------------------------------
 Center     Atomic      Atomic             Coordinates (Angstroms)
 Number     Number       Type             X           Y           Z
 ---------------------------------------------------------------------
      1          6           0        1.442727   -1.292992   -0.128740
      2          6           0        2.178676   -0.032458    0.312898
      3          7           0       -0.011068   -1.140503   -0.002202
      4          1           0        1.744701   -2.154607    0.472637
      5          1           0        1.690139   -1.521634   -1.174193
      6          6           0       -0.722462    0.000161    0.022479
      7          6           0        0.060543    1.296892    0.128978
      8          6           0        1.523476    1.196543   -0.319298
      9          1           0        0.015321    1.596849    1.182940
     10          1           0       -0.484183    2.060876   -0.425130
     11          1           0        1.574704    1.118838   -1.411660
     12          1           0        2.057811    2.108973   -0.042197
     13          1           0        3.230342   -0.117022    0.026991
     14          1           0        2.143943    0.051837    1.404644
     15         16           0       -2.388736   -0.011927   -0.002533
     16          1           0       -0.573290   -1.978633   -0.075998
 ---------------------------------------------------------------------

 SCF Done:  E(RHF) =  -648.052576593     A.U. after    2 cycles

 The electronic state is 1-A.
 Alpha  occ. eigenvalues --  -75.61965 -15.78393 -13.11613 -12.97593 -12.93494
 Alpha  occ. eigenvalues --  -11.49542 -11.46022 -11.44341 -11.40663 -11.37700
 Alpha  occ. eigenvalues --   -7.96108  -1.47695  -1.22553  -1.18440  -1.02884
 Alpha  occ. eigenvalues --   -0.95527  -0.88220  -0.78076  -0.69633  -0.65762
 Alpha  occ. eigenvalues --   -0.62769  -0.59021  -0.58348  -0.57162  -0.51290
 Alpha  occ. eigenvalues --   -0.48398  -0.44774  -0.44029  -0.39934  -0.23368
 Alpha  occ. eigenvalues --   -0.20247
 Alpha virt. eigenvalues --    0.02755   0.04763   0.04867   0.05239   0.05371
 Alpha virt. eigenvalues --    0.06032   0.06254   0.06871   0.07092   0.09615
 Alpha virt. eigenvalues --    0.11207   0.11687   0.12231   0.12991   0.12997

 Mulliken charges:
               1
     1  C   -2.170730
     2  C   -2.570734
     3  N   -3.173196
     4  H    1.438950
     5  H    1.473861
     6  C    0.515126
     7  C   -2.802133
     8  C   -2.841125
     9  H    1.469558
    10  H    1.472169
    11  H    1.434215
    12  H    1.291125
    13  H    1.327256
    14  H    1.386632
    15  S    0.992476
    16  H    0.756551
 Sum of Mulliken charges =   0.00000

 Dipole moment (field-independent basis, Debye):
    X=              2.9732    Y=             -0.6300    Z=             -0.0989  Tot=              3.0408

 Test job not archived.
 1\1\GINC-SE398\SP\RHF\Aug-CC-pVDZ\C5H9N1S1\OHZDE\08-Apr-2025\0\\#t hf
 aug-cc-pvdz iop(5/13=1,5/36=2,99/5=2) pseudo=read geom=check guess=(re
 ad,tcheck) scf=(maxcycle=1)\\title\\0,1\C,0,1.442727,-1.292992,-0.1287
 4\C,0,2.178676,-0.032458,0.312898\N,0,-0.011068,-1.140503,-0.002202\H,
 0,1.744701,-2.154607,0.472637\H,0,1.690139,-1.521634,-1.174193\C,0,-0.
 722462,0.000161,0.022479\C,0,0.060543,1.296892,0.128978\C,0,1.523476,1
 .196543,-0.319298\H,0,0.015321,1.596849,1.18294\H,0,-0.484183,2.060876
 ,-0.42513\H,0,1.574704,1.118838,-1.41166\H,0,2.057811,2.108973,-0.0421

 Normal termination of Gaussian 16 at Tue Apr  8 23:10:29 2025.
