 Gaussian 16, Revision C.01,

 ----------------------------------------------------------------------
 #t hf aug-cc-pvdz symm=none int=(grid=ultrafine) guess=(read,tcheck) s
 table=opt
 ----------------------------------------------------------------------
 -----
 title
 -----
 Symbolic Z-matrix:
 Charge =  0 Multiplicity = 2

 SCF Done:  E(UHF) =  -550.946470165     A.U. after   19 cycles
 Normal termination of Gaussian 16 at Tue Apr  8 23:55:23 2025.
 Gaussian 16:  ES64L-G16RevC.01  3-Jul-2019

 ----------------------------------------------------------------------
 #t hf aug-cc-pvdz iop(5/13=1,5/36=2,99/5=2) pseudo=read geom=check gue
 ss=(read,tcheck) scf=(maxcycle=1)
 ----------------------------------------------------------------------
 -----
 title
 -----
 Structure from the checkpoint file:  "BDE49_nonexpt_1964_mol2.chk"
 Charge =  0 Multiplicity = 2

                         Standard orientation:
 ---------------------------------------------------------------------
 Center     Atomic      Atomic             Coordinates (Angstroms)
 Number     Number       Type             X           Y           Z
 ---------------------------------------------------------------------
      1          6           0       -1.021015    1.202838    0.228158
      2         16           0       -0.122593   -0.145953   -0.387855
      3          8           0       -0.508190   -1.408446    0.299755
      4          6           0        1.558446    0.332693    0.189191
      5          1           0        1.799389    1.328525   -0.184895
      6          1           0        2.245677   -0.406905   -0.221326
      7          1           0        1.560844    0.302394    1.278117
      8          1           0       -0.791411    2.184183   -0.172162
      9          1           0       -2.012077    0.981435    0.603819
 ---------------------------------------------------------------------

 SCF Done:  E(UHF) =  -551.885863170     A.U. after    2 cycles

 The electronic state is 2-A.
 Alpha  occ. eigenvalues --  -75.78899 -21.00304 -13.34606 -13.22151 -13.16369
 Alpha  occ. eigenvalues --  -11.42164 -11.41239  -8.13420  -1.69171  -1.20760
 Alpha  occ. eigenvalues --   -1.05486  -0.87812  -0.64577  -0.62512  -0.61205
 Alpha  occ. eigenvalues --   -0.53095  -0.50997  -0.41315  -0.37724  -0.34303
 Alpha  occ. eigenvalues --   -0.24434
 Alpha virt. eigenvalues --    0.02831   0.04209   0.05274   0.06231   0.07201
 Alpha virt. eigenvalues --    0.08446   0.11883   0.12878   0.13157   0.13567
 Alpha virt. eigenvalues --    0.14448   0.15778   0.17296   0.18136   0.18609

  Beta  occ. eigenvalues --  -75.78944 -21.00346 -13.34730 -13.22435 -13.16308
  Beta  occ. eigenvalues --  -11.41104 -11.39803  -8.13460  -1.69131  -1.18585
  Beta  occ. eigenvalues --   -1.01529  -0.84753  -0.63354  -0.61915  -0.60787
  Beta  occ. eigenvalues --   -0.51136  -0.48047  -0.38727  -0.33659  -0.26495
  Beta virt. eigenvalues --    0.01577   0.03972   0.04899   0.06176   0.06966
  Beta virt. eigenvalues --    0.07292   0.08568   0.11910   0.13180   0.13438
  Beta virt. eigenvalues --    0.14049   0.15093   0.17189   0.17650   0.18286

 Mulliken charges and spin densities:
               1          2
     1  C   -3.563165   1.262071
     2  S    3.337805  -0.151940
     3  O   -2.375700  -0.019487
     4  C   -4.475619   0.081570
     5  H    1.382718  -0.007889
     6  H    1.382105  -0.004447
     7  H    1.404307  -0.007676
     8  H    1.491893  -0.083713
     9  H    1.415656  -0.068489
 Sum of Mulliken charges =   0.00000   1.00000

 Dipole moment (field-independent basis, Debye):
    X=              0.5740    Y=              1.4550    Z=             -0.8673  Tot=              1.7885
                          Isotropic Fermi Contact Couplings
        Atom                 a.u.       MegaHertz       Gauss      10(-4) cm-1
     1  C(13)              0.11889     133.65568      47.69167      44.58274
     2  S(33)              0.09638      33.10543      11.81284      11.04278
     3  O(17)              0.00226      -1.37143      -0.48936      -0.45746
     4  C(13)              0.06070      68.24315      24.35085      22.76346
     5  H(1)              -0.00114      -5.09497      -1.81801      -1.69950
     6  H(1)              -0.00079      -3.54509      -1.26498      -1.18251
     7  H(1)              -0.00117      -5.21691      -1.86152      -1.74018
     8  H(1)              -0.01510     -67.51707     -24.09177     -22.52127

 Normal termination of Gaussian 16 at Tue Apr  8 23:55:26 2025.
