 Gaussian 16, Revision C.01,

 ----------------------------------------------------------------------
 #t hf aug-cc-pvdz symm=none int=(grid=ultrafine) guess=(read,tcheck) s
 table=(opt,rrhf)
 ----------------------------------------------------------------------
 -----
 title
 -----
 Symbolic Z-matrix:
 Charge =  0 Multiplicity = 1

 SCF Done:  E(RHF) =  -666.811126814     A.U. after   15 cycles
 Normal termination of Gaussian 16 at Tue Apr  8 23:18:52 2025.
 Gaussian 16:  ES64L-G16RevC.01  3-Jul-2019

 ----------------------------------------------------------------------
 #t hf aug-cc-pvdz iop(5/13=1,5/36=2,99/5=2) pseudo=read geom=check gue
 ss=(read,tcheck) scf=(maxcycle=1)
 ----------------------------------------------------------------------
 -----
 title
 -----
 Structure from the checkpoint file:  "BDE49_nonexpt_1066_mol1.chk"
 Charge =  0 Multiplicity = 1

                         Standard orientation:
 ---------------------------------------------------------------------
 Center     Atomic      Atomic             Coordinates (Angstroms)
 Number     Number       Type             X           Y           Z
 ---------------------------------------------------------------------
      1         17           0       -1.771462   -0.474683    0.000005
      2          8           0       -0.797787    0.971860   -0.000008
      3          6           0        0.548144    0.759674   -0.000006
      4          7           0        1.123721   -0.345773    0.000003
      5          1           0        1.001358    1.758856   -0.000017
      6          6           0        2.575809   -0.387750    0.000001
      7          1           0        2.917333   -0.939181   -0.879610
      8          1           0        2.917336   -0.939165    0.879621
      9          1           0        3.051352    0.603089   -0.000009
 ---------------------------------------------------------------------

 SCF Done:  E(RHF) =  -667.991175674     A.U. after    2 cycles

 The electronic state is 1-A.
 Alpha  occ. eigenvalues --  -99.94501 -21.14096 -15.73687 -11.47350 -11.39769
 Alpha  occ. eigenvalues --  -10.51184  -9.71049  -9.70257  -9.70066  -1.82121
 Alpha  occ. eigenvalues --   -1.38201  -1.25831  -1.01551  -0.83873  -0.68804
 Alpha  occ. eigenvalues --   -0.64460  -0.62367  -0.58582  -0.55924  -0.55694
 Alpha  occ. eigenvalues --   -0.48706  -0.45689  -0.39205  -0.33507
 Alpha virt. eigenvalues --    0.02941   0.04381   0.05403   0.06425   0.06567
 Alpha virt. eigenvalues --    0.09329   0.10598   0.11376   0.13287   0.13684
 Alpha virt. eigenvalues --    0.14093   0.15560   0.16515   0.17331   0.17818

 Mulliken charges:
               1
     1  Cl   0.455735
     2  O   -2.345237
     3  C    1.614221
     4  N   -2.230775
     5  H    1.544776
     6  C   -2.970253
     7  H    1.325163
     8  H    1.325163
     9  H    1.281205
 Sum of Mulliken charges =  -0.00000

 Dipole moment (field-independent basis, Debye):
    X=              2.3230    Y=              2.1938    Z=             -0.0000  Tot=              3.1952

 Test job not archived.
 1\1\GINC-SE435\SP\RHF\Aug-CC-pVDZ\C2H4Cl1N1O1\OHZDE\08-Apr-2025\0\\#t
 hf aug-cc-pvdz iop(5/13=1,5/36=2,99/5=2) pseudo=read geom=check guess=
 (read,tcheck) scf=(maxcycle=1)\\title\\0,1\Cl,0,-1.771462,-0.474683,0.
 000005\O,0,-0.797787,0.97186,-0.000008\C,0,0.548144,0.759674,-0.000006
 \N,0,1.123721,-0.345773,0.000003\H,0,1.001358,1.758856,-0.000017\C,0,2
 .575809,-0.38775,0.000001\H,0,2.917333,-0.939181,-0.87961\H,0,2.917336
 ,-0.939165,0.879621\H,0,3.051352,0.603089,-0.000009\\Version=ES64L-G16
 RevC.01\State=1-A\HF=-667.9911757\RMSD=4.861e-02\Dipole=0.9139283,0.86

 Normal termination of Gaussian 16 at Tue Apr  8 23:18:55 2025.
