 Gaussian 16, Revision C.01,

 ----------------------------------------------------------------------
 #t hf aug-cc-pvdz symm=none int=(grid=ultrafine) guess=(read,tcheck) s
 table=(opt,rrhf)
 ----------------------------------------------------------------------
 -----
 title
 -----
 Symbolic Z-matrix:
 Charge =  0 Multiplicity = 1

 SCF Done:  E(RHF) =  -1028.56329142     A.U. after   15 cycles
 Normal termination of Gaussian 16 at Wed Apr  9 00:20:45 2025.
 Gaussian 16:  ES64L-G16RevC.01  3-Jul-2019

 ----------------------------------------------------------------------
 #t hf aug-cc-pvdz iop(5/13=1,5/36=2,99/5=2) pseudo=read geom=check gue
 ss=(read,tcheck) scf=(maxcycle=1)
 ----------------------------------------------------------------------
 -----
 title
 -----
 Structure from the checkpoint file:  "BDE49_nonexpt_2612_mol1.chk"
 Charge =  0 Multiplicity = 1

                         Standard orientation:
 ---------------------------------------------------------------------
 Center     Atomic      Atomic             Coordinates (Angstroms)
 Number     Number       Type             X           Y           Z
 ---------------------------------------------------------------------
      1         17           0        2.227133    0.624532    0.000063
      2          7           0       -0.636120   -0.802942   -0.000033
      3          6           0       -1.238483    1.587892   -0.000019
      4          6           0       -1.525030    0.109080   -0.000019
      5          6           0       -2.972224   -0.313743    0.000008
      6         16           0        0.912800   -1.123843   -0.000040
      7          1           0       -0.173620    1.804825   -0.000018
      8          1           0       -1.696540    2.052183    0.879802
      9          1           0       -1.696538    2.052185   -0.879841
     10          1           0       -3.061635   -1.399077    0.000002
     11          1           0       -3.485253    0.087783   -0.880448
     12          1           0       -3.485220    0.087769    0.880490
 ---------------------------------------------------------------------

 SCF Done:  E(RHF) =  -1029.87365832     A.U. after    2 cycles

 The electronic state is 1-A.
 Alpha  occ. eigenvalues --  -99.87851 -75.77073 -15.78404 -13.31309 -13.12070
 Alpha  occ. eigenvalues --  -13.08962 -11.48637 -11.40624 -11.38880 -10.44858
 Alpha  occ. eigenvalues --   -9.64640  -9.64329  -9.63995  -8.10793  -1.46032
 Alpha  occ. eigenvalues --   -1.27951  -1.19138  -1.04613  -1.01020  -0.75167
 Alpha  occ. eigenvalues --   -0.64930  -0.63335  -0.63258  -0.56135  -0.55623
 Alpha  occ. eigenvalues --   -0.53000  -0.52871  -0.52061  -0.48541  -0.45008
 Alpha  occ. eigenvalues --   -0.39355  -0.23887
 Alpha virt. eigenvalues --    0.02360   0.05069   0.05302   0.05554   0.06487
 Alpha virt. eigenvalues --    0.06954   0.07066   0.09564   0.09952   0.10423
 Alpha virt. eigenvalues --    0.12431   0.12887   0.14170   0.14525   0.14786

 Mulliken charges:
               1
     1  Cl  -0.499040
     2  N   -3.038612
     3  C   -3.512026
     4  C    1.759913
     5  C   -3.927633
     6  S    1.396258
     7  H    1.385715
     8  H    1.233422
     9  H    1.233409
    10  H    1.451615
    11  H    1.258493
    12  H    1.258486
 Sum of Mulliken charges =  -0.00000

 Dipole moment (field-independent basis, Debye):
    X=             -3.1965    Y=             -1.6696    Z=             -0.0001  Tot=              3.6063

 Test job not archived.
 1\1\GINC-SE419\SP\RHF\Aug-CC-pVDZ\C3H6Cl1N1S1\OHZDE\09-Apr-2025\0\\#t
 hf aug-cc-pvdz iop(5/13=1,5/36=2,99/5=2) pseudo=read geom=check guess=
 (read,tcheck) scf=(maxcycle=1)\\title\\0,1\Cl,0,2.227133,0.624532,0.00
 0063\N,0,-0.63612,-0.802942,-0.000033\C,0,-1.238483,1.587892,-0.000019
 \C,0,-1.52503,0.10908,-0.000019\C,0,-2.972224,-0.313743,0.000008\S,0,0
 .9128,-1.123843,-0.00004\H,0,-0.17362,1.804825,-0.000018\H,0,-1.69654,
 2.052183,0.879802\H,0,-1.696538,2.052185,-0.879841\H,0,-3.061635,-1.39
 9077,0.000002\H,0,-3.485253,0.087783,-0.880448\H,0,-3.48522,0.087769,0

 Normal termination of Gaussian 16 at Wed Apr  9 00:20:49 2025.
