 Gaussian 16, Revision C.01,

 ----------------------------------------------------------------------
 #t hf aug-cc-pvdz symm=none int=(grid=ultrafine) guess=(read,tcheck) s
 table=opt
 ----------------------------------------------------------------------
 -----
 title
 -----
 Symbolic Z-matrix:
 Charge =  0 Multiplicity = 2

 SCF Done:  E(UHF) =  -557.598692197     A.U. after   16 cycles
 Normal termination of Gaussian 16 at Wed Apr  9 00:04:04 2025.
 Gaussian 16:  ES64L-G16RevC.01  3-Jul-2019

 ----------------------------------------------------------------------
 #t hf aug-cc-pvdz iop(5/13=1,5/36=2,99/5=2) pseudo=read geom=check gue
 ss=(read,tcheck) scf=(maxcycle=1)
 ----------------------------------------------------------------------
 -----
 title
 -----
 Structure from the checkpoint file:  "BDE49_nonexpt_2175_mol2.chk"
 Charge =  0 Multiplicity = 2

                         Standard orientation:
 ---------------------------------------------------------------------
 Center     Atomic      Atomic             Coordinates (Angstroms)
 Number     Number       Type             X           Y           Z
 ---------------------------------------------------------------------
      1         14           0        0.765834   -0.017915    0.385813
      2          8           0        1.448437   -1.393687   -0.230565
      3          6           0       -0.998566    0.000261   -0.332599
      4          6           0       -1.728852    1.316415   -0.027312
      5          6           0       -1.807472   -1.230570    0.104728
      6          1           0       -0.821351   -0.062506   -1.416106
      7          1           0       -1.979183   -1.228908    1.186145
      8          1           0       -1.293046   -2.159838   -0.150365
      9          1           0       -2.788474   -1.243094   -0.383156
     10          1           0       -1.897543    1.439263    1.047850
     11          1           0       -2.708814    1.340076   -0.515904
     12          1           0       -1.164178    2.184154   -0.380200
     13          1           0        2.407117   -1.457355   -0.221273
     14          8           0        1.681760    1.251907   -0.190732
     15          1           0        1.691560    2.056620    0.333093
 ---------------------------------------------------------------------

 SCF Done:  E(UHF) =  -558.972112589     A.U. after    2 cycles

 The electronic state is 2-A.
 Alpha  occ. eigenvalues --  -76.24048 -21.07725 -21.07236 -11.40042 -11.38224
 Alpha  occ. eigenvalues --  -11.34293  -5.58190  -2.25408  -2.23221  -2.19562
 Alpha  occ. eigenvalues --   -1.68175  -1.63676  -1.20473  -0.99822  -0.84529
 Alpha  occ. eigenvalues --   -0.70565  -0.62377  -0.61134  -0.58736  -0.55258
 Alpha  occ. eigenvalues --   -0.53155  -0.51375  -0.46829  -0.45593  -0.43484
 Alpha  occ. eigenvalues --   -0.40306  -0.39726  -0.35929  -0.24042
 Alpha virt. eigenvalues --    0.04056   0.05308   0.05514   0.06058   0.06369
 Alpha virt. eigenvalues --    0.06520   0.06948   0.07014   0.07650   0.08731
 Alpha virt. eigenvalues --    0.09147   0.10359   0.13601   0.14389   0.14707

  Beta  occ. eigenvalues --  -76.23585 -21.07370 -21.06915 -11.39849 -11.38248
  Beta  occ. eigenvalues --  -11.34130  -5.57428  -2.24925  -2.22802  -2.16666
  Beta  occ. eigenvalues --   -1.67326  -1.62928  -1.19979  -0.99829  -0.83549
  Beta  occ. eigenvalues --   -0.68483  -0.61977  -0.60954  -0.58499  -0.55084
  Beta  occ. eigenvalues --   -0.53161  -0.47696  -0.46512  -0.45392  -0.42826
  Beta  occ. eigenvalues --   -0.38828  -0.38235  -0.34436
  Beta virt. eigenvalues --    0.02988   0.05423   0.05609   0.06010   0.06223
  Beta virt. eigenvalues --    0.06494   0.06799   0.07081   0.07648   0.08393
  Beta virt. eigenvalues --    0.08801   0.09823   0.10799   0.14199   0.14938

 Mulliken charges and spin densities:
               1          2
     1  Si   4.215566   1.294407
     2  O   -2.898981   0.032276
     3  C   -2.749098  -0.386501
     4  C   -3.506967   0.077806
     5  C   -3.799535   0.113598
     6  H    1.596441  -0.029277
     7  H    1.330858   0.000329
     8  H    1.241536   0.003890
     9  H    1.225733   0.004098
    10  H    1.321965  -0.021549
    11  H    1.232532   0.009986
    12  H    1.265510  -0.005524
    13  H    1.128234  -0.006421
    14  O   -2.614831  -0.053194
    15  H    1.011036  -0.033923
 Sum of Mulliken charges =  -0.00000   1.00000

 Dipole moment (field-independent basis, Debye):
    X=              0.4120    Y=              0.4377    Z=             -0.1398  Tot=              0.6172
                          Isotropic Fermi Contact Couplings
        Atom                 a.u.       MegaHertz       Gauss      10(-4) cm-1
     1  Si(29)             0.44690    -397.16847    -141.71958    -132.48114
     2  O(17)              0.02989     -18.11665      -6.46447      -6.04306
     3  C(13)              0.05854      65.81560      23.48464      21.95372
     4  C(13)             -0.00368      -4.13602      -1.47584      -1.37963
     5  C(13)             -0.00365      -4.09855      -1.46246      -1.36713
     6  H(1)               0.00158       7.08334       2.52751       2.36275
     7  H(1)              -0.00013      -0.59515      -0.21237      -0.19852
     8  H(1)               0.00013       0.58319       0.20810       0.19453

 Normal termination of Gaussian 16 at Wed Apr  9 00:04:10 2025.
