 Gaussian 16, Revision C.01,

 ----------------------------------------------------------------------
 #t hf aug-cc-pvdz symm=none int=(grid=ultrafine) guess=(read,tcheck) s
 table=(opt,rrhf)
 ----------------------------------------------------------------------
 -----
 title
 -----
 Symbolic Z-matrix:
 Charge =  0 Multiplicity = 1

 SCF Done:  E(RHF) =  -788.221230930     A.U. after   13 cycles
 Normal termination of Gaussian 16 at Wed Apr  9 00:11:59 2025.
 Gaussian 16:  ES64L-G16RevC.01  3-Jul-2019

 ----------------------------------------------------------------------
 #t hf aug-cc-pvdz iop(5/13=1,5/36=2,99/5=2) pseudo=read geom=check gue
 ss=(read,tcheck) scf=(maxcycle=1)
 ----------------------------------------------------------------------
 -----
 title
 -----
 Structure from the checkpoint file:  "BDE49_nonexpt_2388_mol1.chk"
 Charge =  0 Multiplicity = 1

                         Standard orientation:
 ---------------------------------------------------------------------
 Center     Atomic      Atomic             Coordinates (Angstroms)
 Number     Number       Type             X           Y           Z
 ---------------------------------------------------------------------
      1         14           0       -2.136438   -0.778166   -0.256061
      2         14           0       -0.849461    1.136853    0.221710
      3          1           0       -1.564533   -1.495642   -1.419898
      4          1           0       -3.515272   -0.352784   -0.615087
      5          1           0       -2.218151   -1.681573    0.910667
      6          7           0        0.845608    0.926744   -0.253239
      7          1           0       -0.940808    1.498023    1.656399
      8          1           0       -1.273783    2.315856   -0.573424
      9          6           0        1.507222   -0.220165    0.106184
     10          8           0        0.931022   -1.084260    0.751336
     11          1           0        1.349721    1.620387   -0.787121
     12          6           0        2.944376   -0.365135   -0.355373
     13          1           0        2.963978   -0.612828   -1.420980
     14          1           0        3.414718   -1.173537    0.200665
     15          1           0        3.509709    0.559146   -0.213184
 ---------------------------------------------------------------------

 SCF Done:  E(RHF) =  -789.480753187     A.U. after    2 cycles

 The electronic state is 1-A.
 Alpha  occ. eigenvalues --  -76.23182 -76.20844 -21.03246 -15.75322 -11.50506
 Alpha  occ. eigenvalues --  -11.39505  -5.56782  -5.54209  -2.21512  -2.18706
 Alpha  occ. eigenvalues --   -2.18060  -2.16328  -2.16232  -2.15436  -1.71360
 Alpha  occ. eigenvalues --   -1.33987  -1.09579  -0.82980  -0.78079  -0.72429
 Alpha  occ. eigenvalues --   -0.66110  -0.61748  -0.59753  -0.52103  -0.49926
 Alpha  occ. eigenvalues --   -0.47909  -0.47113  -0.46097  -0.45260  -0.36556
 Alpha  occ. eigenvalues --   -0.32929  -0.29545
 Alpha virt. eigenvalues --    0.03146   0.04725   0.05061   0.05618   0.05736
 Alpha virt. eigenvalues --    0.06639   0.07438   0.07543   0.08266   0.09039
 Alpha virt. eigenvalues --    0.09535   0.09719   0.10396   0.10561   0.11243

 Mulliken charges:
               1
     1  Si   4.620894
     2  Si   4.040236
     3  H   -1.510219
     4  H   -1.667010
     5  H   -1.524650
     6  N   -2.844945
     7  H   -1.837176
     8  H   -1.705772
     9  C    5.025619
    10  O   -3.000155
    11  H    0.864041
    12  C   -4.174313
    13  H    1.222461
    14  H    1.237825
    15  H    1.253167
 Sum of Mulliken charges =  -0.00000

 Dipole moment (field-independent basis, Debye):
    X=              1.9239    Y=              1.0115    Z=             -1.0120  Tot=              2.3976

 Test job not archived.
 1\1\GINC-SE345\SP\RHF\Aug-CC-pVDZ\C2H9N1O1Si2\OHZDE\09-Apr-2025\0\\#t
 hf aug-cc-pvdz iop(5/13=1,5/36=2,99/5=2) pseudo=read geom=check guess=
 (read,tcheck) scf=(maxcycle=1)\\title\\0,1\Si,0,-2.136438,-0.778166,-0
 .256061\Si,0,-0.849461,1.136853,0.22171\H,0,-1.564533,-1.495642,-1.419
 898\H,0,-3.515272,-0.352784,-0.615087\H,0,-2.218151,-1.681573,0.910667
 \N,0,0.845608,0.926744,-0.253239\H,0,-0.940808,1.498023,1.656399\H,0,-
 1.273783,2.315856,-0.573424\C,0,1.507222,-0.220165,0.106184\O,0,0.9310
 22,-1.08426,0.751336\H,0,1.349721,1.620387,-0.787121\C,0,2.944376,-0.3

 Normal termination of Gaussian 16 at Wed Apr  9 00:12:04 2025.
