 Gaussian 16, Revision C.01,

 ----------------------------------------------------------------------
 #t hf aug-cc-pvdz symm=none int=(grid=ultrafine) guess=(read,tcheck) s
 table=(opt,rrhf)
 ----------------------------------------------------------------------
 -----
 title
 -----
 Symbolic Z-matrix:
 Charge =  0 Multiplicity = 1

 SCF Done:  E(RHF) =  -1078.66917104     A.U. after   14 cycles
 Normal termination of Gaussian 16 at Tue Apr  8 23:48:10 2025.
 Gaussian 16:  ES64L-G16RevC.01  3-Jul-2019

 ----------------------------------------------------------------------
 #t hf aug-cc-pvdz iop(5/13=1,5/36=2,99/5=2) pseudo=read geom=check gue
 ss=(read,tcheck) scf=(maxcycle=1)
 ----------------------------------------------------------------------
 -----
 title
 -----
 Structure from the checkpoint file:  "BDE49_nonexpt_1770_mol1.chk"
 Charge =  0 Multiplicity = 1

                         Standard orientation:
 ---------------------------------------------------------------------
 Center     Atomic      Atomic             Coordinates (Angstroms)
 Number     Number       Type             X           Y           Z
 ---------------------------------------------------------------------
      1          6           0       -0.468139    1.555817    0.067657
      2          6           0       -1.802018    1.730820   -0.293663
      3          6           0       -2.663783    0.638460   -0.354109
      4          6           0       -2.163181   -0.618175   -0.046981
      5          6           0       -0.840971   -0.818434    0.314684
      6          6           0        0.030236    0.279807    0.374182
      7          1           0        0.186397    2.419443    0.112066
      8          1           0       -2.176193    2.720597   -0.528185
      9         14           0        1.816917    0.043522    0.849912
     10          9           0       -2.994401   -1.681705   -0.099110
     11          1           0       -3.705508    0.745154   -0.630000
     12          1           0       -0.511629   -1.825397    0.544908
     13         17           0        2.990905   -0.371422   -0.828223
     14          1           0        1.964377   -1.109446    1.758077
     15          1           0        2.357088    1.280099    1.445533
 ---------------------------------------------------------------------

 SCF Done:  E(RHF) =  -1080.50081550     A.U. after    2 cycles

 The electronic state is 1-A.
 Alpha  occ. eigenvalues --  -99.88156 -76.26613 -29.29139 -11.54375 -11.47619
 Alpha  occ. eigenvalues --  -11.44405 -11.43544 -11.42340 -11.38668 -10.45533
 Alpha  occ. eigenvalues --   -9.65450  -9.64839  -9.64806  -5.60189  -2.24640
 Alpha  occ. eigenvalues --   -2.23218  -2.22238  -1.38158  -1.28413  -1.16125
 Alpha  occ. eigenvalues --   -1.12161  -0.93086  -0.90257  -0.80702  -0.73277
 Alpha  occ. eigenvalues --   -0.69818  -0.62505  -0.61918  -0.57274  -0.56790
 Alpha  occ. eigenvalues --   -0.55143  -0.54793  -0.52009  -0.49221  -0.47468
 Alpha  occ. eigenvalues --   -0.43104  -0.42698  -0.38558  -0.36057  -0.27875
 Alpha  occ. eigenvalues --   -0.24183
 Alpha virt. eigenvalues --    0.03180   0.04863   0.05296   0.05522   0.05758
 Alpha virt. eigenvalues --    0.06397   0.08154   0.08299   0.09247   0.09563
 Alpha virt. eigenvalues --    0.09866   0.11392   0.11912   0.12595   0.12944

 Mulliken charges:
               1
     1  C   -2.947289
     2  C    0.509594
     3  C   -4.764988
     4  C    3.804050
     5  C   -4.173451
     6  C   -0.245858
     7  H    1.790509
     8  H    1.494658
     9  Si   4.616230
    10  F    0.641040
    11  H    1.707583
    12  H    1.874290
    13  Cl  -0.969932
    14  H   -1.664150
    15  H   -1.672287
 Sum of Mulliken charges =  -0.00000

 Dipole moment (field-independent basis, Debye):
    X=             -3.5633    Y=             -0.8575    Z=              0.6876  Tot=              3.7289

 Test job not archived.
 1\1\GINC-SE096\SP\RHF\Aug-CC-pVDZ\C6H6Cl1F1Si1\OHZDE\08-Apr-2025\0\\#t
  hf aug-cc-pvdz iop(5/13=1,5/36=2,99/5=2) pseudo=read geom=check guess
 =(read,tcheck) scf=(maxcycle=1)\\title\\0,1\C,0,-0.468139,1.555817,0.0
 67657\C,0,-1.802018,1.73082,-0.293663\C,0,-2.663783,0.63846,-0.354109\
 C,0,-2.163181,-0.618175,-0.046981\C,0,-0.840971,-0.818434,0.314684\C,0
 ,0.030236,0.279807,0.374182\H,0,0.186397,2.419443,0.112066\H,0,-2.1761
 93,2.720597,-0.528185\Si,0,1.816917,0.043522,0.849912\F,0,-2.994401,-1
 .681705,-0.09911\H,0,-3.705508,0.745154,-0.63\H,0,-0.511629,-1.825397,

 Normal termination of Gaussian 16 at Tue Apr  8 23:48:18 2025.
