 Gaussian 16, Revision C.01,

 ----------------------------------------------------------------------
 #t hf aug-cc-pvdz symm=none int=(grid=ultrafine) guess=(read,tcheck) s
 table=(opt,rrhf)
 ----------------------------------------------------------------------
 -----
 title
 -----
 Symbolic Z-matrix:
 Charge =  0 Multiplicity = 1

 SCF Done:  E(RHF) =  -482.095399960     A.U. after   13 cycles
 Normal termination of Gaussian 16 at Wed Apr  9 00:07:11 2025.
 Gaussian 16:  ES64L-G16RevC.01  3-Jul-2019

 ----------------------------------------------------------------------
 #t hf aug-cc-pvdz iop(5/13=1,5/36=2,99/5=2) pseudo=read geom=check gue
 ss=(read,tcheck) scf=(maxcycle=1)
 ----------------------------------------------------------------------
 -----
 title
 -----
 Structure from the checkpoint file:  "BDE49_nonexpt_2245_mol1.chk"
 Charge =  0 Multiplicity = 1

                         Standard orientation:
 ---------------------------------------------------------------------
 Center     Atomic      Atomic             Coordinates (Angstroms)
 Number     Number       Type             X           Y           Z
 ---------------------------------------------------------------------
      1          6           0        1.703778   -0.638532   -0.000000
      2          8           0        0.344493   -0.716654   -0.000001
      3         14           0       -0.786206    0.512325   -0.000000
      4          6           0       -2.453572   -0.316293    0.000001
      5          6           0        2.443936    0.467355   -0.000000
      6          1           0        2.152230   -1.627111    0.000001
      7          1           0        2.017021    1.463310   -0.000001
      8          1           0        3.522387    0.384781    0.000001
      9          1           0       -2.578157   -0.944407   -0.885643
     10          1           0       -3.249756    0.434400    0.000002
     11          1           0       -2.578155   -0.944408    0.885644
     12          1           0       -0.599745    1.359464   -1.202521
     13          1           0       -0.599743    1.359464    1.202521
 ---------------------------------------------------------------------

 SCF Done:  E(RHF) =  -483.155721017     A.U. after    2 cycles

 The electronic state is 1-A.
 Alpha  occ. eigenvalues --  -76.23170 -21.06308 -11.44992 -11.37004 -11.35271
 Alpha  occ. eigenvalues --   -5.56984  -2.23601  -2.20109  -2.18492  -1.72845
 Alpha  occ. eigenvalues --   -1.10290  -1.04113  -0.83515  -0.70350  -0.65347
 Alpha  occ. eigenvalues --   -0.58409  -0.57081  -0.55695  -0.51450  -0.49621
 Alpha  occ. eigenvalues --   -0.44903  -0.43229  -0.37604  -0.29913
 Alpha virt. eigenvalues --    0.03562   0.04698   0.05488   0.05960   0.06455
 Alpha virt. eigenvalues --    0.06505   0.07913   0.08508   0.08620   0.09725
 Alpha virt. eigenvalues --    0.10012   0.12303   0.13718   0.13773   0.15652

 Mulliken charges:
               1
     1  C    0.980428
     2  O   -3.811422
     3  Si   6.333753
     4  C   -4.976863
     5  C   -2.879696
     6  H    1.785872
     7  H    1.346845
     8  H    1.287654
     9  H    1.297941
    10  H    1.227181
    11  H    1.297942
    12  H   -1.944818
    13  H   -1.944817
 Sum of Mulliken charges =  -0.00000

 Dipole moment (field-independent basis, Debye):
    X=             -0.8252    Y=             -0.8273    Z=              0.0000  Tot=              1.1685

 Test job not archived.
 1\1\GINC-SE127\SP\RHF\Aug-CC-pVDZ\C3H8O1Si1\OHZDE\09-Apr-2025\0\\#t hf
  aug-cc-pvdz iop(5/13=1,5/36=2,99/5=2) pseudo=read geom=check guess=(r
 ead,tcheck) scf=(maxcycle=1)\\title\\0,1\C,0,-1.703778,0.638532,0.\O,0
 ,-0.344493,0.716654,-0.000001\Si,0,0.786206,-0.512325,0.\C,0,2.453572,
 0.316293,0.000001\C,0,-2.443936,-0.467355,0.\H,0,-2.15223,1.627111,0.0
 00001\H,0,-2.017021,-1.46331,-0.000001\H,0,-3.522387,-0.384781,0.00000
 1\H,0,2.578157,0.944407,-0.885643\H,0,3.249756,-0.4344,0.000002\H,0,2.
 578155,0.944408,0.885644\H,0,0.599745,-1.359464,-1.202521\H,0,0.599743

 Normal termination of Gaussian 16 at Wed Apr  9 00:07:14 2025.
