 Gaussian 16, Revision C.01,

 ----------------------------------------------------------------------
 #t hf aug-cc-pvdz symm=none int=(grid=ultrafine) guess=(read,tcheck) s
 table=(opt,rrhf)
 ----------------------------------------------------------------------
 -----
 title
 -----
 Symbolic Z-matrix:
 Charge =  0 Multiplicity = 1

 SCF Done:  E(RHF) =  -537.130398350     A.U. after   13 cycles
 Normal termination of Gaussian 16 at Tue Apr  8 23:52:38 2025.
 Gaussian 16:  ES64L-G16RevC.01  3-Jul-2019

 ----------------------------------------------------------------------
 #t hf aug-cc-pvdz iop(5/13=1,5/36=2,99/5=2) pseudo=read geom=check gue
 ss=(read,tcheck) scf=(maxcycle=1)
 ----------------------------------------------------------------------
 -----
 title
 -----
 Structure from the checkpoint file:  "BDE49_nonexpt_1906_mol1.chk"
 Charge =  0 Multiplicity = 1

                         Standard orientation:
 ---------------------------------------------------------------------
 Center     Atomic      Atomic             Coordinates (Angstroms)
 Number     Number       Type             X           Y           Z
 ---------------------------------------------------------------------
      1         14           0        2.374769   -0.191648   -0.299747
      2          6           0        0.881697    0.439557    0.684424
      3          1           0        2.629458   -1.611863    0.050957
      4          1           0        3.578191    0.605187    0.038612
      5          1           0        2.106456   -0.105432   -1.752579
      6          7           0       -0.311122   -0.375735    0.473046
      7          6           0       -1.477635    0.147121   -0.018288
      8          8           0       -1.598511    1.321702   -0.319190
      9          1           0       -0.283153   -1.351246    0.721652
     10          6           0       -2.619027   -0.843940   -0.174356
     11          1           0       -2.375064   -1.857915    0.149876
     12          1           0       -2.915752   -0.868594   -1.224832
     13          1           0       -3.474454   -0.480955    0.398405
     14          1           0        0.622591    1.447884    0.353194
     15          1           0        1.120683    0.506112    1.752693
 ---------------------------------------------------------------------

 SCF Done:  E(RHF) =  -538.432358903     A.U. after    2 cycles

 The electronic state is 1-A.
 Alpha  occ. eigenvalues --  -76.21753 -21.01668 -15.76645 -11.49810 -11.38905
 Alpha  occ. eigenvalues --  -11.38523  -5.55285  -2.19194  -2.17599  -2.17454
 Alpha  occ. eigenvalues --   -1.70003  -1.38900  -1.11027  -0.99081  -0.79547
 Alpha  occ. eigenvalues --   -0.76703  -0.67485  -0.62514  -0.60915  -0.57066
 Alpha  occ. eigenvalues --   -0.54581  -0.49848  -0.47529  -0.47222  -0.46911
 Alpha  occ. eigenvalues --   -0.42198  -0.29753  -0.28504
 Alpha virt. eigenvalues --    0.03305   0.04532   0.04787   0.05542   0.06194
 Alpha virt. eigenvalues --    0.06560   0.07010   0.07710   0.08305   0.09269
 Alpha virt. eigenvalues --    0.09796   0.10329   0.12340   0.12845   0.13680

 Mulliken charges:
               1
     1  Si   6.042965
     2  C   -3.530358
     3  H   -1.714795
     4  H   -1.674135
     5  H   -1.715251
     6  N   -2.591400
     7  C    5.224071
     8  O   -3.350147
     9  H    0.811289
    10  C   -4.413971
    11  H    1.352863
    12  H    1.243278
    13  H    1.223608
    14  H    1.719367
    15  H    1.372616
 Sum of Mulliken charges =  -0.00000

 Dipole moment (field-independent basis, Debye):
    X=              0.3613    Y=             -1.7046    Z=              1.0927  Tot=              2.0568

 Test job not archived.
 1\1\GINC-SE365\SP\RHF\Aug-CC-pVDZ\C3H9N1O1Si1\OHZDE\08-Apr-2025\0\\#t
 hf aug-cc-pvdz iop(5/13=1,5/36=2,99/5=2) pseudo=read geom=check guess=
 (read,tcheck) scf=(maxcycle=1)\\title\\0,1\Si,0,2.374769,-0.191648,-0.
 299747\C,0,0.881697,0.439557,0.684424\H,0,2.629458,-1.611863,0.050957\
 H,0,3.578191,0.605187,0.038612\H,0,2.106456,-0.105432,-1.752579\N,0,-0
 .311122,-0.375735,0.473046\C,0,-1.477635,0.147121,-0.018288\O,0,-1.598
 511,1.321702,-0.31919\H,0,-0.283153,-1.351246,0.721652\C,0,-2.619027,-
 0.84394,-0.174356\H,0,-2.375064,-1.857915,0.149876\H,0,-2.915752,-0.86

 Normal termination of Gaussian 16 at Tue Apr  8 23:52:42 2025.
