 Gaussian 16, Revision C.01,

 ----------------------------------------------------------------------
 #t hf aug-cc-pvdz symm=none int=(grid=ultrafine) guess=(read,tcheck) s
 table=opt
 ----------------------------------------------------------------------
 -----
 title
 -----
 Symbolic Z-matrix:
 Charge =  0 Multiplicity = 2

 SCF Done:  E(UHF) =  -645.085004868     A.U. after   24 cycles
 Normal termination of Gaussian 16 at Wed Apr  9 00:19:17 2025.
 Gaussian 16:  ES64L-G16RevC.01  3-Jul-2019

 ----------------------------------------------------------------------
 #t hf aug-cc-pvdz iop(5/13=1,5/36=2,99/5=2) pseudo=read geom=check gue
 ss=(read,tcheck) scf=(maxcycle=1)
 ----------------------------------------------------------------------
 -----
 title
 -----
 Structure from the checkpoint file:  "BDE49_nonexpt_2567_mol2.chk"
 Charge =  0 Multiplicity = 2

                         Standard orientation:
 ---------------------------------------------------------------------
 Center     Atomic      Atomic             Coordinates (Angstroms)
 Number     Number       Type             X           Y           Z
 ---------------------------------------------------------------------
      1         16           0        1.549988   -0.788595    0.388381
      2          6           0        0.423213    0.193174   -0.642321
      3          8           0        0.717202    1.559688   -0.715653
      4          7           0       -0.823312   -0.107999    0.038940
      5          6           0       -1.798485   -0.957365   -0.614720
      6          1           0       -1.293472   -1.656635   -1.280710
      7          1           0       -2.518271   -0.365408   -1.200689
      8          1           0       -2.352529   -1.534767    0.129244
      9          6           0       -1.295885    0.755450    1.103831
     10          1           0       -0.451988    1.216491    1.612002
     11          1           0       -1.858576    0.167504    1.832507
     12          1           0       -1.946291    1.549733    0.712132
     13          1           0        0.359544   -0.184933   -1.662831
     14          1           0        1.314277    1.756471    0.016153
 ---------------------------------------------------------------------

 SCF Done:  E(UHF) =  -646.446280705     A.U. after    2 cycles

 The electronic state is 2-A.
 Alpha  occ. eigenvalues --  -75.69551 -21.08716 -15.72203 -13.14577 -13.06838
 Alpha  occ. eigenvalues --  -13.04111 -11.46366 -11.39831 -11.39069  -8.03270
 Alpha  occ. eigenvalues --   -1.74775  -1.42696  -1.14401  -1.05021  -0.96700
 Alpha  occ. eigenvalues --   -0.82634  -0.67825  -0.65484  -0.63532  -0.58468
 Alpha  occ. eigenvalues --   -0.55674  -0.54367  -0.52243  -0.50634  -0.43606
 Alpha  occ. eigenvalues --   -0.33910  -0.31688  -0.25234  -0.24462
 Alpha virt. eigenvalues --    0.03390   0.05178   0.05579   0.06026   0.06345
 Alpha virt. eigenvalues --    0.06880   0.07036   0.07179   0.08936   0.11473
 Alpha virt. eigenvalues --    0.12388   0.13619   0.14337   0.15386   0.15787

  Beta  occ. eigenvalues --  -75.68597 -21.08726 -15.71486 -13.13531 -13.03587
  Beta  occ. eigenvalues --  -13.01515 -11.46463 -11.39864 -11.39101  -8.02202
  Beta  occ. eigenvalues --   -1.74768  -1.41572  -1.09848  -1.04931  -0.93089
  Beta  occ. eigenvalues --   -0.81900  -0.67117  -0.64668  -0.63137  -0.57779
  Beta  occ. eigenvalues --   -0.55565  -0.54290  -0.51861  -0.50387  -0.42213
  Beta  occ. eigenvalues --   -0.33556  -0.27303  -0.23726
  Beta virt. eigenvalues --    0.03419   0.04515   0.05218   0.06026   0.06316
  Beta virt. eigenvalues --    0.06457   0.06924   0.07126   0.08307   0.08972
  Beta virt. eigenvalues --    0.11992   0.12776   0.13751   0.14468   0.15469

 Mulliken charges and spin densities:
               1          2
     1  S    0.417081   1.104866
     2  C    0.331824  -0.062316
     3  O   -3.028533   0.010034
     4  N   -1.764460   0.047908
     5  C   -3.366927  -0.046990
     6  H    1.392978  -0.001747
     7  H    1.462643   0.009336
     8  H    1.429353  -0.000769
     9  C   -3.696303  -0.036299
    10  H    1.498372  -0.009116
    11  H    1.348523  -0.000926
    12  H    1.374422   0.005364
    13  H    1.724283  -0.000745
    14  H    0.876745  -0.018600
 Sum of Mulliken charges =   0.00000   1.00000

 Dipole moment (field-independent basis, Debye):
    X=             -1.0234    Y=             -0.3260    Z=              0.2977  Tot=              1.1146
                          Isotropic Fermi Contact Couplings
        Atom                 a.u.       MegaHertz       Gauss      10(-4) cm-1
     1  S(33)              0.29123     100.02936      35.69296      33.36620
     2  C(13)             -0.01027     -11.54911      -4.12101      -3.85237
     3  O(17)             -0.00461       2.79527       0.99742       0.93240
     4  N(14)              0.12494      40.36735      14.40407      13.46510
     5  C(13)             -0.00403      -4.52718      -1.61541      -1.51010
     6  H(1)               0.00045       2.03147       0.72488       0.67763
     7  H(1)               0.00231      10.31387       3.68025       3.44034
     8  H(1)               0.00007       0.31646       0.11292       0.10556

 Normal termination of Gaussian 16 at Wed Apr  9 00:19:22 2025.
