 Gaussian 16, Revision C.01,

 ----------------------------------------------------------------------
 #t hf aug-cc-pvdz symm=none int=(grid=ultrafine) guess=(read,tcheck) s
 table=(opt,rrhf)
 ----------------------------------------------------------------------
 -----
 title
 -----
 Symbolic Z-matrix:
 Charge =  0 Multiplicity = 1

 SCF Done:  E(RHF) =  -950.687452849     A.U. after   16 cycles
 Normal termination of Gaussian 16 at Wed Apr  9 00:47:27 2025.
 Gaussian 16:  ES64L-G16RevC.01  3-Jul-2019

 ----------------------------------------------------------------------
 #t hf aug-cc-pvdz iop(5/13=1,5/36=2,99/5=2) pseudo=read geom=check gue
 ss=(read,tcheck) scf=(maxcycle=1)
 ----------------------------------------------------------------------
 -----
 title
 -----
 Structure from the checkpoint file:  "BDE49_nonexpt_743_mol1.chk"
 Charge =  0 Multiplicity = 1

                         Standard orientation:
 ---------------------------------------------------------------------
 Center     Atomic      Atomic             Coordinates (Angstroms)
 Number     Number       Type             X           Y           Z
 ---------------------------------------------------------------------
      1          6           0       -1.180137    2.283039   -0.613165
      2          6           0        0.112647    2.038453   -0.157128
      3          6           0       -2.158081    1.295783   -0.533729
      4          6           0       -1.804378    0.072873    0.020527
      5          6           0       -0.525140   -0.187101    0.500880
      6          6           0        0.464262    0.800227    0.404645
      7          1           0       -0.329858   -1.147906    0.961084
      8          1           0       -1.426650    3.247865   -1.040497
      9          1           0        0.859647    2.819420   -0.239571
     10          5           0        2.882640   -0.667155   -0.349340
     11          8           0        2.134513   -1.391627   -1.226205
     12          8           0        4.237311   -0.748443   -0.390576
     13          1           0       -3.168456    1.454183   -0.882596
     14          7           0       -2.831535   -0.992382    0.120637
     15          8           0       -3.963688   -0.722138   -0.253299
     16          8           0       -2.480712   -2.076039    0.566899
     17          1           0        4.547876   -1.337291   -1.089304
     18          1           0        1.187592   -1.226769   -1.172194
     19         15           0        2.139152    0.434824    1.090371
     20          1           0        2.775688    1.636924    0.703015
 ---------------------------------------------------------------------

 SCF Done:  E(RHF) =  -953.527975603     A.U. after    2 cycles

 The electronic state is 1-A.
 Alpha  occ. eigenvalues -- -105.18668 -21.10204 -21.10075 -21.07844 -21.07124
 Alpha  occ. eigenvalues --  -16.00751 -11.56042 -11.49254 -11.47763 -11.46303
 Alpha  occ. eigenvalues --  -11.45384 -11.41015  -7.66646  -2.76195  -2.00537
 Alpha  occ. eigenvalues --   -1.83143  -1.69831  -1.67475  -1.52227  -1.47882
 Alpha  occ. eigenvalues --   -1.45721  -1.37454  -1.18449  -1.12579  -1.00894
 Alpha  occ. eigenvalues --   -0.90269  -0.84405  -0.78721  -0.75597  -0.70892
 Alpha  occ. eigenvalues --   -0.69625  -0.68372  -0.64768  -0.64099  -0.63390
 Alpha  occ. eigenvalues --   -0.58355  -0.54680  -0.53764  -0.51182  -0.50277
 Alpha  occ. eigenvalues --   -0.50252  -0.43991  -0.38413  -0.37649  -0.37260
 Alpha  occ. eigenvalues --   -0.36802  -0.32032  -0.32012  -0.26713  -0.17521
 Alpha  occ. eigenvalues --   -0.03712
 Alpha virt. eigenvalues --    0.02652   0.04168   0.04805   0.05415   0.05594
 Alpha virt. eigenvalues --    0.05997   0.06525   0.07601   0.08469   0.08675
 Alpha virt. eigenvalues --    0.08959   0.09410   0.10321   0.10770   0.11356

 Mulliken charges:
               1
     1  C    0.632122
     2  C   -5.452097
     3  C   -3.566477
     4  C    3.072858
     5  C   -3.415930
     6  C    4.261618
     7  H    2.223000
     8  H    1.532367
     9  H    1.999565
    10  B    5.765146
    11  O   -3.897270
    12  O   -3.826737
    13  H    1.843881
    14  N    3.375154
    15  O   -3.062648
    16  O   -2.966914
    17  H    1.168228
    18  H    1.863406
    19  P    0.112283
    20  H   -1.661557
 Sum of Mulliken charges =   0.00000

 Dipole moment (field-independent basis, Debye):
    X=              1.1680    Y=              1.6299    Z=              2.9530  Tot=              3.5694

 Test job not archived.
 1\1\GINC-SE455\SP\RHF\Aug-CC-pVDZ\C6H7B1N1O4P1\OHZDE\09-Apr-2025\0\\#t
  hf aug-cc-pvdz iop(5/13=1,5/36=2,99/5=2) pseudo=read geom=check guess
 =(read,tcheck) scf=(maxcycle=1)\\title\\0,1\C,0,-1.180137,2.283039,-0.
 613165\C,0,0.112647,2.038453,-0.157128\C,0,-2.158081,1.295783,-0.53372
 9\C,0,-1.804378,0.072873,0.020527\C,0,-0.52514,-0.187101,0.50088\C,0,0
 .464262,0.800227,0.404645\H,0,-0.329858,-1.147906,0.961084\H,0,-1.4266
 5,3.247865,-1.040497\H,0,0.859647,2.81942,-0.239571\B,0,2.88264,-0.667
 155,-0.34934\O,0,2.134513,-1.391627,-1.226205\O,0,4.237311,-0.748443,-

 Normal termination of Gaussian 16 at Wed Apr  9 00:47:42 2025.
