 Gaussian 16, Revision C.01,

 ----------------------------------------------------------------------
 #t hf aug-cc-pvdz symm=none int=(grid=ultrafine) guess=(read,tcheck) s
 table=opt
 ----------------------------------------------------------------------
 -----
 title
 -----
 Symbolic Z-matrix:
 Charge =  0 Multiplicity = 2

 SCF Done:  E(UHF) =  -870.471008135     A.U. after   25 cycles
 Normal termination of Gaussian 16 at Tue Apr  8 23:18:49 2025.
 Gaussian 16:  ES64L-G16RevC.01  3-Jul-2019

 ----------------------------------------------------------------------
 #t hf aug-cc-pvdz iop(5/13=1,5/36=2,99/5=2) pseudo=read geom=check gue
 ss=(read,tcheck) scf=(maxcycle=1)
 ----------------------------------------------------------------------
 -----
 title
 -----
 Structure from the checkpoint file:  "BDE49_nonexpt_1056_mol2.chk"
 Charge =  0 Multiplicity = 2

                         Standard orientation:
 ---------------------------------------------------------------------
 Center     Atomic      Atomic             Coordinates (Angstroms)
 Number     Number       Type             X           Y           Z
 ---------------------------------------------------------------------
      1          8           0       -1.573341    0.691489   -0.070160
      2         16           0       -0.678249   -0.497200    0.048947
      3         16           0        1.381379    0.096262   -0.077323
      4          1           0        1.336655    0.883099    1.015283
 ---------------------------------------------------------------------

 SCF Done:  E(UHF) =  -871.200177043     A.U. after    2 cycles

 The electronic state is 2-A.
 Alpha  occ. eigenvalues --  -75.80354 -75.73147 -21.13402 -13.32584 -13.15257
 Alpha  occ. eigenvalues --  -13.13499 -13.11961 -13.08278 -13.04477  -8.14562
 Alpha  occ. eigenvalues --   -8.06937  -1.78317  -1.18307  -0.97265  -0.57076
 Alpha  occ. eigenvalues --   -0.53996  -0.51220  -0.46035  -0.31695  -0.30833
 Alpha  occ. eigenvalues --   -0.23857
 Alpha virt. eigenvalues --    0.02678   0.04949   0.08457   0.09674   0.11680
 Alpha virt. eigenvalues --    0.12992   0.15011   0.15376   0.17974   0.20157
 Alpha virt. eigenvalues --    0.21308   0.23113   0.23831   0.25277   0.27267

  Beta  occ. eigenvalues --  -75.79903 -75.73202 -21.10454 -13.32593 -13.15086
  Beta  occ. eigenvalues --  -13.13392 -13.09186 -13.08593 -13.04460  -8.14061
  Beta  occ. eigenvalues --   -8.06994  -1.71383  -1.16792  -0.92387  -0.54588
  Beta  occ. eigenvalues --   -0.50585  -0.44450  -0.39364  -0.30194  -0.28035
  Beta virt. eigenvalues --    0.02731   0.05149   0.07098   0.09192   0.10218
  Beta virt. eigenvalues --    0.11833   0.13354   0.15261   0.16039   0.18412
  Beta virt. eigenvalues --    0.20852   0.22463   0.23546   0.25178   0.25769

 Mulliken charges and spin densities:
               1          2
     1  O   -1.710143   0.602801
     2  S    1.645673   0.457968
     3  S   -1.078590  -0.075920
     4  H    1.143060   0.015151
 Sum of Mulliken charges =   0.00000   1.00000

 Dipole moment (field-independent basis, Debye):
    X=              1.1326    Y=             -1.5530    Z=             -0.5810  Tot=              2.0081
                          Isotropic Fermi Contact Couplings
        Atom                 a.u.       MegaHertz       Gauss      10(-4) cm-1
     1  O(17)              0.14689     -89.04241     -31.77255     -29.70135
     2  S(33)              0.16283      55.92804      19.95652      18.65559
     3  S(33)              0.01747       5.99878       2.14051       2.00098
     4  H(1)               0.00863      38.56645      13.76147      12.86438
 --------------------------------------------------------
       Center         ----  Spin Dipole Couplings  ----
                      3XX-RR        3YY-RR        3ZZ-RR
 --------------------------------------------------------

 Normal termination of Gaussian 16 at Tue Apr  8 23:18:51 2025.
