 Gaussian 16, Revision C.01,

 ----------------------------------------------------------------------
 #t hf aug-cc-pvdz symm=none int=(grid=ultrafine) guess=(read,tcheck) s
 table=(opt,rrhf)
 ----------------------------------------------------------------------
 -----
 title
 -----
 Symbolic Z-matrix:
 Charge =  0 Multiplicity = 1

 SCF Done:  E(RHF) =  -518.446694593     A.U. after   12 cycles
 Normal termination of Gaussian 16 at Tue Apr  8 23:52:51 2025.
 Gaussian 16:  ES64L-G16RevC.01  3-Jul-2019

 ----------------------------------------------------------------------
 #t hf aug-cc-pvdz iop(5/13=1,5/36=2,99/5=2) pseudo=read geom=check gue
 ss=(read,tcheck) scf=(maxcycle=1)
 ----------------------------------------------------------------------
 -----
 title
 -----
 Structure from the checkpoint file:  "BDE49_nonexpt_1901_mol1.chk"
 Charge =  0 Multiplicity = 1

                         Standard orientation:
 ---------------------------------------------------------------------
 Center     Atomic      Atomic             Coordinates (Angstroms)
 Number     Number       Type             X           Y           Z
 ---------------------------------------------------------------------
      1          6           0        0.918467   -0.603378    0.567848
      2         14           0       -0.801554   -1.083149   -0.039881
      3          7           0       -1.661343    0.330341   -0.544768
      4          1           0       -1.475175   -1.813221    1.072739
      5          1           0       -0.728894   -1.957632   -1.231852
      6          7           0        1.616398    0.177842   -0.449576
      7          6           0       -2.206848    1.335263    0.364901
      8          1           0       -2.164936    0.270755   -1.417965
      9          1           0       -1.546596    1.450665    1.228935
     10          1           0       -3.205819    1.084353    0.747845
     11          1           0       -2.266747    2.313149   -0.123444
     12          6           0        2.914482    0.685519   -0.024999
     13          1           0        1.021452    0.943492   -0.747919
     14          1           0        3.600149   -0.151293    0.140518
     15          1           0        2.881501    1.276447    0.908318
     16          1           0        3.340963    1.311046   -0.813615
     17          1           0        1.473768   -1.532103    0.758487
     18          1           0        0.850102   -0.093273    1.550198
 ---------------------------------------------------------------------

 SCF Done:  E(RHF) =  -519.751119639     A.U. after    2 cycles

 The electronic state is 1-A.
 Alpha  occ. eigenvalues --  -76.20439 -15.70931 -15.70721 -11.38979 -11.37326
 Alpha  occ. eigenvalues --  -11.35634  -5.54405  -2.19891  -2.17665  -2.16505
 Alpha  occ. eigenvalues --   -1.36422  -1.31265  -1.01804  -0.95906  -0.89189
 Alpha  occ. eigenvalues --   -0.73536  -0.64277  -0.63050  -0.59535  -0.58624
 Alpha  occ. eigenvalues --   -0.56412  -0.54361  -0.53588  -0.49150  -0.46371
 Alpha  occ. eigenvalues --   -0.45405  -0.39851  -0.34253  -0.31902
 Alpha virt. eigenvalues --    0.03621   0.04783   0.05219   0.05590   0.06214
 Alpha virt. eigenvalues --    0.06345   0.06672   0.06874   0.07467   0.08367
 Alpha virt. eigenvalues --    0.08916   0.09189   0.09419   0.10868   0.11591

 Mulliken charges:
               1
     1  C   -3.239803
     2  Si   5.457020
     3  N   -2.283034
     4  H   -1.853386
     5  H   -1.872880
     6  N   -2.278057
     7  C   -3.239109
     8  H    0.736085
     9  H    1.413954
    10  H    1.318926
    11  H    1.363240
    12  C   -3.280299
    13  H    0.712526
    14  H    1.354930
    15  H    1.356972
    16  H    1.322613
    17  H    1.520207
    18  H    1.490096
 Sum of Mulliken charges =  -0.00000

 Dipole moment (field-independent basis, Debye):
    X=             -0.6498    Y=              1.3751    Z=              0.1329  Tot=              1.5267

 Test job not archived.
 1\1\GINC-SE249\SP\RHF\Aug-CC-pVDZ\C3H12N2Si1\OHZDE\08-Apr-2025\0\\#t h
 f aug-cc-pvdz iop(5/13=1,5/36=2,99/5=2) pseudo=read geom=check guess=(
 read,tcheck) scf=(maxcycle=1)\\title\\0,1\C,0,0.918467,-0.603378,0.567
 848\Si,0,-0.801554,-1.083149,-0.039881\N,0,-1.661343,0.330341,-0.54476
 8\H,0,-1.475175,-1.813221,1.072739\H,0,-0.728894,-1.957632,-1.231852\N
 ,0,1.616398,0.177842,-0.449576\C,0,-2.206848,1.335263,0.364901\H,0,-2.
 164936,0.270755,-1.417965\H,0,-1.546596,1.450665,1.228935\H,0,-3.20581
 9,1.084353,0.747845\H,0,-2.266747,2.313149,-0.123444\C,0,2.914482,0.68

 Normal termination of Gaussian 16 at Tue Apr  8 23:52:58 2025.
