 Gaussian 16, Revision C.01,

 ----------------------------------------------------------------------
 #t hf aug-cc-pvdz symm=none int=(grid=ultrafine) guess=(read,tcheck) s
 table=(opt,rrhf)
 ----------------------------------------------------------------------
 -----
 title
 -----
 Symbolic Z-matrix:
 Charge =  0 Multiplicity = 1

 SCF Done:  E(RHF) =  -360.824403949     A.U. after   15 cycles
 Normal termination of Gaussian 16 at Tue Apr  8 22:39:12 2025.
 Gaussian 16:  ES64L-G16RevC.01  3-Jul-2019

 ----------------------------------------------------------------------
 #t hf aug-cc-pvdz iop(5/13=1,5/36=2,99/5=2) pseudo=read geom=check gue
 ss=(read,tcheck) scf=(maxcycle=1)
 ----------------------------------------------------------------------
 -----
 title
 -----
 Structure from the checkpoint file:  "BDE49_expt_1208_mol1.chk"
 Charge =  0 Multiplicity = 1

                         Standard orientation:
 ---------------------------------------------------------------------
 Center     Atomic      Atomic             Coordinates (Angstroms)
 Number     Number       Type             X           Y           Z
 ---------------------------------------------------------------------
      1          6           0       -1.544578   -0.068168    0.541536
      2          6           0       -0.790838    0.655098   -0.580802
      3          6           0        0.630254    1.055404   -0.215123
      4          1           0       -1.322531    1.574760   -0.851287
      5          1           0       -0.759836    0.030116   -1.476591
      6          7           0        1.541643   -0.144167   -0.009075
      7          1           0        0.697438    1.622604    0.711703
      8          1           0        1.109340    1.623082   -1.016082
      9          8           0        2.388908   -0.048899    0.863252
     10          8           0        1.389621   -1.104067   -0.748198
     11          6           0       -2.982541   -0.419292    0.151169
     12          1           0       -1.549711    0.560612    1.439832
     13          1           0       -1.007227   -0.985002    0.805076
     14          1           0       -3.559608    0.478779   -0.090308
     15          1           0       -3.497259   -0.936041    0.964826
     16          1           0       -3.004116   -1.074265   -0.724752
 ---------------------------------------------------------------------

 SCF Done:  E(RHF) =  -362.484491304     A.U. after    2 cycles

 The electronic state is 1-A.
 Alpha  occ. eigenvalues --  -21.09438 -21.09135 -15.98818 -11.47661 -11.43235
 Alpha  occ. eigenvalues --  -11.39939 -11.36493  -1.99242  -1.68813  -1.28175
 Alpha  occ. eigenvalues --   -1.15157  -1.00580  -0.88244  -0.82116  -0.70907
 Alpha  occ. eigenvalues --   -0.70256  -0.65053  -0.62931  -0.58805  -0.57935
 Alpha  occ. eigenvalues --   -0.55231  -0.52727  -0.48131  -0.47713  -0.45170
 Alpha  occ. eigenvalues --   -0.34833  -0.31279  -0.30859
 Alpha virt. eigenvalues --    0.03640   0.04392   0.05129   0.05235   0.05866
 Alpha virt. eigenvalues --    0.06297   0.06905   0.07791   0.08938   0.10691
 Alpha virt. eigenvalues --    0.12365   0.12856   0.13440   0.14315   0.15053

 Mulliken charges:
               1
     1  C   -2.832530
     2  C   -1.911043
     3  C   -3.477755
     4  H    1.349902
     5  H    1.637287
     6  N    4.652957
     7  H    1.833464
     8  H    1.409177
     9  O   -2.725759
    10  O   -2.836561
    11  C   -3.736298
    12  H    1.400489
    13  H    1.541479
    14  H    1.292332
    15  H    1.103377
    16  H    1.299482
 Sum of Mulliken charges =  -0.00000

 Dipole moment (field-independent basis, Debye):
    X=             -1.9698    Y=              1.5925    Z=             -0.3474  Tot=              2.5567

 Test job not archived.
 1\1\GINC-SE090\SP\RHF\Aug-CC-pVDZ\C4H9N1O2\OHZDE\08-Apr-2025\0\\#t hf
 aug-cc-pvdz iop(5/13=1,5/36=2,99/5=2) pseudo=read geom=check guess=(re
 ad,tcheck) scf=(maxcycle=1)\\title\\0,1\C,0,1.544578,-0.068168,-0.5415
 36\C,0,0.790838,0.655098,0.580802\C,0,-0.630254,1.055404,0.215123\H,0,
 1.322531,1.57476,0.851287\H,0,0.759836,0.030116,1.476591\N,0,-1.541643
 ,-0.144167,0.009075\H,0,-0.697438,1.622604,-0.711703\H,0,-1.10934,1.62
 3082,1.016082\O,0,-2.388908,-0.048899,-0.863252\O,0,-1.389621,-1.10406
 7,0.748198\C,0,2.982541,-0.419292,-0.151169\H,0,1.549711,0.560612,-1.4

 Normal termination of Gaussian 16 at Tue Apr  8 22:39:18 2025.
