 Gaussian 16, Revision C.01,

 ----------------------------------------------------------------------
 #t hf aug-cc-pvdz symm=none int=(grid=ultrafine) guess=(read,tcheck) s
 table=(opt,rrhf)
 ----------------------------------------------------------------------
 -----
 title
 -----
 Symbolic Z-matrix:
 Charge =  0 Multiplicity = 1

 SCF Done:  E(RHF) =  -870.737741443     A.U. after   11 cycles
 Normal termination of Gaussian 16 at Tue Apr  8 23:12:20 2025.
 Gaussian 16:  ES64L-G16RevC.01  3-Jul-2019

 ----------------------------------------------------------------------
 #t hf aug-cc-pvdz iop(5/13=1,5/36=2,99/5=2) pseudo=read geom=check gue
 ss=(read,tcheck) scf=(maxcycle=1)
 ----------------------------------------------------------------------
 -----
 title
 -----
 Structure from the checkpoint file:  "BDE49_expt_455_mol1.chk"
 Charge =  0 Multiplicity = 1

                         Standard orientation:
 ---------------------------------------------------------------------
 Center     Atomic      Atomic             Coordinates (Angstroms)
 Number     Number       Type             X           Y           Z
 ---------------------------------------------------------------------
      1          7           0       -0.000001   -0.000001    0.758081
      2         14           0        1.605305    0.008752    0.076777
      3          6           0        1.675345    1.151490   -1.417172
      4          1           0        0.993321    0.833200   -2.211495
      5          1           0        2.683623    1.163722   -1.843714
      6          1           0        1.414149    2.177622   -1.143279
      7          6           0        2.151955   -1.712091   -0.461191
      8          1           0        1.491922   -2.116938   -1.234267
      9          1           0        2.139106   -2.409758    0.381936
     10          1           0        3.168901   -1.697572   -0.867565
     11          6           0        2.775758    0.627991    1.414757
     12          1           0        2.525910    1.647546    1.723042
     13          1           0        3.810844    0.631010    1.059186
     14          1           0        2.740298   -0.010311    2.303939
     15         14           0       -1.605306   -0.008752    0.076776
     16          6           0       -2.151973    1.712099   -0.461150
     17          1           0       -2.139132    2.409745    0.381993
     18          1           0       -3.168918    1.697580   -0.867526
     19          1           0       -1.491941    2.116972   -1.234215
     20          6           0       -2.775755   -0.628035    1.414738
     21          1           0       -2.740302    0.010244    2.303936
     22          1           0       -2.525899   -1.647596    1.722998
     23          1           0       -3.810841   -0.631054    1.059166
     24          6           0       -1.675329   -1.151454   -1.417202
     25          1           0       -0.993306   -0.833137   -2.211514
     26          1           0       -2.683606   -1.163684   -1.843746
     27          1           0       -1.414124   -2.177590   -1.143333
     28          1           0        0.000000    0.000005    1.771476
 ---------------------------------------------------------------------

 SCF Done:  E(RHF) =  -872.598035361     A.U. after    2 cycles

 The electronic state is 1-A.
 Alpha  occ. eigenvalues --  -76.18921 -76.18900 -15.68496 -11.34214 -11.33931
 Alpha  occ. eigenvalues --  -11.33883 -11.33590 -11.33529 -11.33421  -5.53223
 Alpha  occ. eigenvalues --   -5.53115  -2.18630  -2.18384  -2.16607  -2.16596
 Alpha  occ. eigenvalues --   -2.16402  -2.16303  -1.24064  -1.06767  -1.04717
 Alpha  occ. eigenvalues --   -1.00633  -1.00308  -1.00134  -0.99897  -0.68095
 Alpha  occ. eigenvalues --   -0.65921  -0.57797  -0.56738  -0.56069  -0.56042
 Alpha  occ. eigenvalues --   -0.55651  -0.55547  -0.54225  -0.54215  -0.53353
 Alpha  occ. eigenvalues --   -0.53162  -0.52746  -0.52256  -0.50819  -0.43555
 Alpha  occ. eigenvalues --   -0.41978  -0.38408  -0.38254  -0.38045  -0.33922
 Alpha virt. eigenvalues --    0.02924   0.04374   0.05393   0.05540   0.05789
 Alpha virt. eigenvalues --    0.06004   0.06249   0.06281   0.06494   0.06930
 Alpha virt. eigenvalues --    0.07314   0.07407   0.07577   0.08010   0.08070

 Mulliken charges:
               1
     1  N   -4.839247
     2  Si  11.136059
     3  C   -6.498968
     4  H    1.215776
     5  H    1.086560
     6  H    1.142237
     7  C   -6.266715
     8  H    1.084063
     9  H    1.078704
    10  H    1.073344
    11  C   -6.259332
    12  H    1.049450
    13  H    1.161017
    14  H    1.119383
    15  Si  11.136009
    16  C   -6.266703
    17  H    1.078717
    18  H    1.073344
    19  H    1.084056
    20  C   -6.259334
    21  H    1.119392
    22  H    1.049452
    23  H    1.161017
    24  C   -6.498977
    25  H    1.215786
    26  H    1.086560
    27  H    1.142258
    28  H    0.596092
 Sum of Mulliken charges =  -0.00000

 Dipole moment (field-independent basis, Debye):
    X=             -0.0000    Y=              0.0000    Z=              0.4731  Tot=              0.4731

 Test job not archived.
 1\1\GINC-SE092\SP\RHF\Aug-CC-pVDZ\C6H19N1Si2\OHZDE\08-Apr-2025\0\\#t h
 f aug-cc-pvdz iop(5/13=1,5/36=2,99/5=2) pseudo=read geom=check guess=(
 read,tcheck) scf=(maxcycle=1)\\title\\0,1\N,0,-0.000001,-0.000001,0.75
 8081\Si,0,1.605305,0.008752,0.076777\C,0,1.675345,1.15149,-1.417172\H,
 0,0.993321,0.8332,-2.211495\H,0,2.683623,1.163722,-1.843714\H,0,1.4141
 49,2.177622,-1.143279\C,0,2.151955,-1.712091,-0.461191\H,0,1.491922,-2
 .116938,-1.234267\H,0,2.139106,-2.409758,0.381936\H,0,3.168901,-1.6975
 72,-0.867565\C,0,2.775758,0.627991,1.414757\H,0,2.52591,1.647546,1.723

 Normal termination of Gaussian 16 at Tue Apr  8 23:12:41 2025.
