 Gaussian 16, Revision C.01,

 ----------------------------------------------------------------------
 #t hf aug-cc-pvdz symm=none int=(grid=ultrafine) guess=(read,tcheck) s
 table=(opt,rrhf)
 ----------------------------------------------------------------------
 -----
 title
 -----
 Symbolic Z-matrix:
 Charge =  0 Multiplicity = 1

 SCF Done:  E(RHF) =  -984.411943690     A.U. after   14 cycles
 Normal termination of Gaussian 16 at Tue Apr  8 23:10:56 2025.
 Gaussian 16:  ES64L-G16RevC.01  3-Jul-2019

 ----------------------------------------------------------------------
 #t hf aug-cc-pvdz iop(5/13=1,5/36=2,99/5=2) pseudo=read geom=check gue
 ss=(read,tcheck) scf=(maxcycle=1)
 ----------------------------------------------------------------------
 -----
 title
 -----
 Structure from the checkpoint file:  "BDE49_expt_625_mol1.chk"
 Charge =  0 Multiplicity = 1

                         Standard orientation:
 ---------------------------------------------------------------------
 Center     Atomic      Atomic             Coordinates (Angstroms)
 Number     Number       Type             X           Y           Z
 ---------------------------------------------------------------------
      1          6           0        0.381296   -0.076901   -0.352263
      2          8           0        1.009544   -1.052579    0.391264
      3          8           0        2.276440   -1.341813   -0.239109
      4          1           0        2.882299   -0.864728    0.349403
      5          6           0       -1.118640   -0.162129   -0.020178
      6         17           0        1.021748    1.591131    0.021771
      7          1           0        0.531271   -0.223215   -1.420272
      8          9           0       -1.796379    0.781787   -0.687328
      9          9           0       -1.585823   -1.359908   -0.408145
     10          9           0       -1.356364   -0.018762    1.286380
 ---------------------------------------------------------------------

 SCF Done:  E(RHF) =  -986.601023340     A.U. after    2 cycles

 The electronic state is 1-A.
 Alpha  occ. eigenvalues --  -99.91242 -29.32818 -29.32740 -29.32669 -21.16449
 Alpha  occ. eigenvalues --  -21.15128 -11.63033 -11.52017 -10.48525  -9.68431
 Alpha  occ. eigenvalues --   -9.67700  -9.67601  -2.00541  -1.53312  -1.42341
 Alpha  occ. eigenvalues --   -1.32371  -1.01559  -0.91575  -0.90527  -0.78832
 Alpha  occ. eigenvalues --   -0.71275  -0.63756  -0.61304  -0.54736  -0.52845
 Alpha  occ. eigenvalues --   -0.50304  -0.48802  -0.45375  -0.44841  -0.39865
 Alpha  occ. eigenvalues --   -0.38894  -0.37525  -0.35939  -0.30503  -0.27541
 Alpha  occ. eigenvalues --   -0.26956  -0.22977
 Alpha virt. eigenvalues --    0.04160   0.05750   0.06555   0.10026   0.11460
 Alpha virt. eigenvalues --    0.11917   0.12575   0.13076   0.14271   0.14945
 Alpha virt. eigenvalues --    0.15378   0.16518   0.17132   0.19734   0.20513

 Mulliken charges:
               1
     1  C   -2.218245
     2  O   -1.624813
     3  O   -0.792523
     4  H    0.874313
     5  C    0.553310
     6  Cl   0.088410
     7  H    1.832561
     8  F    0.423668
     9  F    0.467775
    10  F    0.395544
 Sum of Mulliken charges =  -0.00000

 Dipole moment (field-independent basis, Debye):
    X=             -1.5629    Y=             -1.9591    Z=              0.2222  Tot=              2.5160

 Test job not archived.
 1\1\GINC-SE366\SP\RHF\Aug-CC-pVDZ\C2H2Cl1F3O2\OHZDE\08-Apr-2025\0\\#t
 hf aug-cc-pvdz iop(5/13=1,5/36=2,99/5=2) pseudo=read geom=check guess=
 (read,tcheck) scf=(maxcycle=1)\\title\\0,1\C,0,0.381296,-0.076901,-0.3
 52263\O,0,1.009545,-1.052579,0.391264\O,0,2.276441,-1.341812,-0.239109
 \H,0,2.882299,-0.864727,0.349403\C,0,-1.11864,-0.162129,-0.020178\Cl,0
 ,1.021747,1.591131,0.021771\H,0,0.531271,-0.223215,-1.420272\F,0,-1.79
 6379,0.781786,-0.687328\F,0,-1.585822,-1.359909,-0.408145\F,0,-1.35636
 4,-0.018763,1.28638\\Version=ES64L-G16RevC.01\State=1-A\HF=-986.601023

 Normal termination of Gaussian 16 at Tue Apr  8 23:11:00 2025.
