 Gaussian 16, Revision C.01,

 ----------------------------------------------------------------------
 #t hf aug-cc-pvdz symm=none int=(grid=ultrafine) guess=(read,tcheck) s
 table=opt
 ----------------------------------------------------------------------
 -----
 title
 -----
 Symbolic Z-matrix:
 Charge =  0 Multiplicity = 2

 SCF Done:  E(UHF) =  -517.349705849     A.U. after   17 cycles
 Normal termination of Gaussian 16 at Wed Apr  9 00:11:07 2025.
 Gaussian 16:  ES64L-G16RevC.01  3-Jul-2019

 ----------------------------------------------------------------------
 #t hf aug-cc-pvdz iop(5/13=1,5/36=2,99/5=2) pseudo=read geom=check gue
 ss=(read,tcheck) scf=(maxcycle=1)
 ----------------------------------------------------------------------
 -----
 title
 -----
 Structure from the checkpoint file:  "BDE49_nonexpt_2362_mol2.chk"
 Charge =  0 Multiplicity = 2

                         Standard orientation:
 ---------------------------------------------------------------------
 Center     Atomic      Atomic             Coordinates (Angstroms)
 Number     Number       Type             X           Y           Z
 ---------------------------------------------------------------------
      1         14           0       -1.815464   -0.176871    0.000071
      2          8           0       -0.198722   -0.683119   -0.000068
      3          1           0       -2.113104    0.596055    1.230482
      4          1           0       -2.113330    0.595993   -1.230324
      5          6           0        0.853965    0.185706   -0.000195
      6          8           0        0.699125    1.377836    0.000024
      7          6           0        2.174385   -0.535642    0.000026
      8          1           0        2.240495   -1.180019    0.879517
      9          1           0        2.988346    0.186039    0.000166
     10          1           0        2.240770   -1.179999   -0.879456
 ---------------------------------------------------------------------

 SCF Done:  E(UHF) =  -518.459857274     A.U. after    2 cycles

 The electronic state is 2-A.
 Alpha  occ. eigenvalues --  -76.26509 -21.08585 -21.05841 -11.52839 -11.39944
 Alpha  occ. eigenvalues --   -5.59757  -2.25449  -2.21174  -2.20559  -1.81379
 Alpha  occ. eigenvalues --   -1.64972  -1.11505  -0.82821  -0.70619  -0.63885
 Alpha  occ. eigenvalues --   -0.62543  -0.59969  -0.52920  -0.51762  -0.47616
 Alpha  occ. eigenvalues --   -0.40575  -0.35470  -0.31456  -0.28902
 Alpha virt. eigenvalues --    0.03404   0.04787   0.05996   0.06040   0.06432
 Alpha virt. eigenvalues --    0.06651   0.08122   0.10062   0.11449   0.12875
 Alpha virt. eigenvalues --    0.13468   0.14533   0.15406   0.15480   0.16559

  Beta  occ. eigenvalues --  -76.25938 -21.08473 -21.05867 -11.52759 -11.39942
  Beta  occ. eigenvalues --   -5.58840  -2.24775  -2.20558  -2.16986  -1.81180
  Beta  occ. eigenvalues --   -1.64846  -1.11429  -0.80919  -0.67889  -0.63357
  Beta  occ. eigenvalues --   -0.62479  -0.59583  -0.52445  -0.51485  -0.46717
  Beta  occ. eigenvalues --   -0.40293  -0.35350  -0.30500
  Beta virt. eigenvalues --    0.02858   0.03731   0.05390   0.06061   0.06205
  Beta virt. eigenvalues --    0.06592   0.07214   0.09774   0.10249   0.11639
  Beta virt. eigenvalues --    0.12941   0.13871   0.14552   0.16046   0.16176

 Mulliken charges and spin densities:
               1          2
     1  Si   4.094302   1.188680
     2  O   -3.134613  -0.239485
     3  H   -1.471451   0.021423
     4  H   -1.471432   0.021413
     5  C    5.274394   0.017905
     6  O   -2.886754  -0.015496
     7  C   -4.187682   0.002268
     8  H    1.261507   0.000221
     9  H    1.260108   0.002855
    10  H    1.261622   0.000217
 Sum of Mulliken charges =  -0.00000   1.00000

 Dipole moment (field-independent basis, Debye):
    X=              0.4800    Y=             -1.4973    Z=              0.0002  Tot=              1.5723
                          Isotropic Fermi Contact Couplings
        Atom                 a.u.       MegaHertz       Gauss      10(-4) cm-1
     1  Si(29)             0.57580    -511.72707    -182.59694    -170.69378
     2  O(17)              0.06928     -41.99630     -14.98532     -14.00846
     3  H(1)               0.01274      56.94210      20.31836      18.99384
     4  H(1)               0.01274      56.93452      20.31565      18.99131
     5  C(13)              0.02343      26.33488       9.39694       8.78437
     6  O(17)             -0.00028       0.16884       0.06025       0.05632
     7  C(13)              0.00044       0.49831       0.17781       0.16622
     8  H(1)               0.00003       0.12919       0.04610       0.04309

 Normal termination of Gaussian 16 at Wed Apr  9 00:11:11 2025.
