 Gaussian 16, Revision C.01,

 ----------------------------------------------------------------------
 #t hf aug-cc-pvdz symm=none int=(grid=ultrafine) guess=(read,tcheck) s
 table=(opt,rrhf)
 ----------------------------------------------------------------------
 -----
 title
 -----
 Symbolic Z-matrix:
 Charge =  0 Multiplicity = 1

 SCF Done:  E(RHF) =  -1100.52882699     A.U. after   12 cycles
 Normal termination of Gaussian 16 at Tue Apr  8 23:49:59 2025.
 Gaussian 16:  ES64L-G16RevC.01  3-Jul-2019

 ----------------------------------------------------------------------
 #t hf aug-cc-pvdz iop(5/13=1,5/36=2,99/5=2) pseudo=read geom=check gue
 ss=(read,tcheck) scf=(maxcycle=1)
 ----------------------------------------------------------------------
 -----
 title
 -----
 Structure from the checkpoint file:  "BDE49_nonexpt_182_mol1.chk"
 Charge =  0 Multiplicity = 1

                         Standard orientation:
 ---------------------------------------------------------------------
 Center     Atomic      Atomic             Coordinates (Angstroms)
 Number     Number       Type             X           Y           Z
 ---------------------------------------------------------------------
      1         17           0       -0.926119    1.683439    0.095284
      2         17           0       -2.513821   -0.825929   -0.435603
      3          5           0       -1.031303   -0.080205    0.180304
      4          6           0        0.083241   -0.954802    0.835903
      5          6           0        1.526781   -0.419733    0.840797
      6          1           0       -0.259802   -1.084736    1.876582
      7          6           0        2.178427   -0.415441   -0.547688
      8          1           0        2.131301   -1.037451    1.514467
      9          1           0        1.544818    0.593780    1.255006
     10          6           0        3.620254    0.098622   -0.530733
     11          1           0        1.581956    0.201315   -1.230399
     12          1           0        2.156824   -1.432860   -0.956884
     13          1           0        3.668194    1.127763   -0.162168
     14          1           0        4.060051    0.083441   -1.531384
     15          1           0        4.251572   -0.515677    0.118868
     16          1           0        0.048368   -1.964088    0.410142
 ---------------------------------------------------------------------

 SCF Done:  E(RHF) =  -1101.94997117     A.U. after    2 cycles

 The electronic state is 1-A.
 Alpha  occ. eigenvalues --  -99.89669 -99.89579 -11.42543 -11.39901 -11.36897
 Alpha  occ. eigenvalues --  -11.34696 -10.47065 -10.46795  -9.67027  -9.66807
 Alpha  occ. eigenvalues --   -9.66602  -9.66413  -9.66362  -9.66213  -7.70714
 Alpha  occ. eigenvalues --   -1.40017  -1.29290  -1.24270  -1.09379  -0.94721
 Alpha  occ. eigenvalues --   -0.84431  -0.77296  -0.66674  -0.63140  -0.61347
 Alpha  occ. eigenvalues --   -0.60587  -0.57643  -0.55931  -0.54191  -0.52287
 Alpha  occ. eigenvalues --   -0.50421  -0.49704  -0.47587  -0.45902  -0.43018
 Alpha  occ. eigenvalues --   -0.42769
 Alpha virt. eigenvalues --    0.03413   0.03989   0.04268   0.04367   0.05748
 Alpha virt. eigenvalues --    0.05883   0.06186   0.06655   0.07093   0.08401
 Alpha virt. eigenvalues --    0.09170   0.09529   0.10439   0.10829   0.11666

 Mulliken charges:
               1
     1  Cl  -1.272712
     2  Cl  -1.481090
     3  B    3.628285
     4  C   -4.129039
     5  C   -2.402352
     6  H    1.434936
     7  C   -2.742253
     8  H    1.330687
     9  H    1.404898
    10  C   -3.966945
    11  H    1.402638
    12  H    1.466128
    13  H    1.318644
    14  H    1.099024
    15  H    1.291544
    16  H    1.617606
 Sum of Mulliken charges =   0.00000

 Dipole moment (field-independent basis, Debye):
    X=              1.4500    Y=             -0.8025    Z=              0.6634  Tot=              1.7851

 Test job not archived.
 1\1\GINC-SE080\SP\RHF\Aug-CC-pVDZ\C4H9B1Cl2\OHZDE\08-Apr-2025\0\\#t hf
  aug-cc-pvdz iop(5/13=1,5/36=2,99/5=2) pseudo=read geom=check guess=(r
 ead,tcheck) scf=(maxcycle=1)\\title\\0,1\Cl,0,-0.926119,1.683439,0.095
 284\Cl,0,-2.513821,-0.825929,-0.435603\B,0,-1.031303,-0.080205,0.18030
 4\C,0,0.083241,-0.954802,0.835903\C,0,1.526781,-0.419733,0.840797\H,0,
 -0.259802,-1.084736,1.876582\C,0,2.178427,-0.415441,-0.547688\H,0,2.13
 1301,-1.037451,1.514467\H,0,1.544818,0.59378,1.255006\C,0,3.620254,0.0
 98622,-0.530733\H,0,1.581956,0.201315,-1.230399\H,0,2.156824,-1.43286,

 Normal termination of Gaussian 16 at Tue Apr  8 23:50:05 2025.
