 Gaussian 16, Revision C.01,

 ----------------------------------------------------------------------
 #t hf aug-cc-pvdz symm=none int=(grid=ultrafine) guess=(read,tcheck) s
 table=(opt,rrhf)
 ----------------------------------------------------------------------
 -----
 title
 -----
 Symbolic Z-matrix:
 Charge =  0 Multiplicity = 1

 SCF Done:  E(RHF) =  -686.760295231     A.U. after   13 cycles
 Normal termination of Gaussian 16 at Tue Apr  8 23:09:45 2025.
 Gaussian 16:  ES64L-G16RevC.01  3-Jul-2019

 ----------------------------------------------------------------------
 #t hf aug-cc-pvdz iop(5/13=1,5/36=2,99/5=2) pseudo=read geom=check gue
 ss=(read,tcheck) scf=(maxcycle=1)
 ----------------------------------------------------------------------
 -----
 title
 -----
 Structure from the checkpoint file:  "BDE49_expt_593_mol1.chk"
 Charge =  0 Multiplicity = 1

                         Standard orientation:
 ---------------------------------------------------------------------
 Center     Atomic      Atomic             Coordinates (Angstroms)
 Number     Number       Type             X           Y           Z
 ---------------------------------------------------------------------
      1          6           0        1.080454   -0.020838    0.000061
      2          8           0        2.145475   -0.568748   -0.000041
      3          8           0        0.946849    1.310473   -0.000011
      4          1           0        0.004623    1.542046   -0.000001
      5          6           0       -0.190301   -0.876199    0.000017
      6         17           0       -1.747624    0.053880   -0.000004
      7          1           0       -0.187278   -1.504802    0.887816
      8          1           0       -0.187241   -1.504779   -0.887799
 ---------------------------------------------------------------------

 SCF Done:  E(RHF) =  -687.962661788     A.U. after    2 cycles

 The electronic state is 1-A.
 Alpha  occ. eigenvalues --  -99.92118 -21.14072 -21.06773 -11.54874 -11.47393
 Alpha  occ. eigenvalues --  -10.49382  -9.69239  -9.68732  -9.68452  -1.84407
 Alpha  occ. eigenvalues --   -1.67654  -1.36297  -1.09148  -0.82180  -0.73245
 Alpha  occ. eigenvalues --   -0.69702  -0.65384  -0.55397  -0.53992  -0.52825
 Alpha  occ. eigenvalues --   -0.50946  -0.47975  -0.35062  -0.32195
 Alpha virt. eigenvalues --    0.02648   0.04805   0.05804   0.06527   0.09996
 Alpha virt. eigenvalues --    0.10785   0.12108   0.12158   0.13285   0.13614
 Alpha virt. eigenvalues --    0.14809   0.16257   0.16352   0.17537   0.19016

 Mulliken charges:
               1
     1  C    5.506997
     2  O   -3.009618
     3  O   -2.807685
     4  H    0.994881
     5  C   -3.950378
     6  Cl   0.085575
     7  H    1.590137
     8  H    1.590090
 Sum of Mulliken charges =   0.00000

 Dipole moment (field-independent basis, Debye):
    X=             -0.4801    Y=             -0.4090    Z=              0.0000  Tot=              0.6307

 Test job not archived.
 1\1\GINC-SE073\SP\RHF\Aug-CC-pVDZ\C2H3Cl1O2\OHZDE\08-Apr-2025\0\\#t hf
  aug-cc-pvdz iop(5/13=1,5/36=2,99/5=2) pseudo=read geom=check guess=(r
 ead,tcheck) scf=(maxcycle=1)\\title\\0,1\C,0,1.080454,-0.020838,0.0000
 61\O,0,2.145475,-0.568748,-0.000041\O,0,0.946849,1.310473,-0.000011\H,
 0,0.004623,1.542046,-0.000001\C,0,-0.190301,-0.876199,0.000017\Cl,0,-1
 .747624,0.05388,-0.000004\H,0,-0.187278,-1.504802,0.887816\H,0,-0.1872
 41,-1.504779,-0.887799\\Version=ES64L-G16RevC.01\State=1-A\HF=-687.962
 6618\RMSD=1.354e-01\Dipole=-0.1888697,-0.1609151,0.0000011\Quadrupole=

 Normal termination of Gaussian 16 at Tue Apr  8 23:09:48 2025.
