 Gaussian 16, Revision C.01,

 ----------------------------------------------------------------------
 #t hf aug-cc-pvdz symm=none int=(grid=ultrafine) guess=(read,tcheck) s
 table=(opt,rrhf)
 ----------------------------------------------------------------------
 -----
 title
 -----
 Symbolic Z-matrix:
 Charge =  0 Multiplicity = 1

 SCF Done:  E(RHF) =  -666.131846352     A.U. after   15 cycles
 Normal termination of Gaussian 16 at Tue Apr  8 23:38:25 2025.
 Gaussian 16:  ES64L-G16RevC.01  3-Jul-2019

 ----------------------------------------------------------------------
 #t hf aug-cc-pvdz iop(5/13=1,5/36=2,99/5=2) pseudo=read geom=check gue
 ss=(read,tcheck) scf=(maxcycle=1)
 ----------------------------------------------------------------------
 -----
 title
 -----
 Structure from the checkpoint file:  "BDE49_nonexpt_1524_mol1.chk"
 Charge =  0 Multiplicity = 1

                         Standard orientation:
 ---------------------------------------------------------------------
 Center     Atomic      Atomic             Coordinates (Angstroms)
 Number     Number       Type             X           Y           Z
 ---------------------------------------------------------------------
      1          6           0        0.292999   -0.337410    0.567357
      2          6           0        1.051149   -1.290127   -0.127514
      3          6           0        2.317014   -0.982517   -0.615645
      4          6           0        2.854362    0.290158   -0.424836
      5          6           0        2.114233    1.248293    0.262405
      6          6           0        0.846672    0.936915    0.752864
      7          7           0       -2.138048    1.207124   -0.875110
      8          1           0        2.888085   -1.738920   -1.142802
      9          1           0        3.841778    0.529044   -0.802943
     10          1           0        2.525096    2.238840    0.424782
     11          1           0        0.285698    1.685120    1.303599
     12          1           0        0.644130   -2.284564   -0.281229
     13          6           0       -1.092034   -0.652666    1.055210
     14         15           0       -2.482617   -0.311632   -0.179859
     15          1           0       -1.328218   -0.084230    1.959233
     16          1           0       -1.190652   -1.713528    1.309685
     17          1           0       -1.931209   -1.123294   -1.203757
     18          1           0       -1.176014    1.458918   -1.070916
     19          1           0       -2.659477    1.981348   -0.491046
 ---------------------------------------------------------------------

 SCF Done:  E(RHF) =  -667.910210541     A.U. after    2 cycles

 The electronic state is 1-A.
 Alpha  occ. eigenvalues -- -105.18538 -15.73732 -11.51771 -11.43834 -11.43243
 Alpha  occ. eigenvalues --  -11.40802 -11.40533 -11.38924 -11.36091  -2.76229
 Alpha  occ. eigenvalues --   -1.55178  -1.46274  -1.44281  -1.34442  -1.17405
 Alpha  occ. eigenvalues --   -1.12858  -1.09206  -0.97629  -0.86452  -0.83196
 Alpha  occ. eigenvalues --   -0.71263  -0.68896  -0.64688  -0.64472  -0.61174
 Alpha  occ. eigenvalues --   -0.57885  -0.56090  -0.52270  -0.50708  -0.44637
 Alpha  occ. eigenvalues --   -0.44064  -0.40755  -0.34709  -0.33261  -0.27467
 Alpha  occ. eigenvalues --   -0.21573  -0.01578
 Alpha virt. eigenvalues --    0.03524   0.04913   0.04984   0.05957   0.06189
 Alpha virt. eigenvalues --    0.06592   0.06996   0.07812   0.08071   0.08261
 Alpha virt. eigenvalues --    0.10315   0.10954   0.11688   0.12215   0.12564

 Mulliken charges:
               1
     1  C    4.389694
     2  C   -2.355781
     3  C   -1.309715
     4  C   -2.858153
     5  C   -1.626084
     6  C   -2.590834
     7  N   -2.380027
     8  H    1.502133
     9  H    1.518609
    10  H    1.503715
    11  H    1.833700
    12  H    1.832455
    13  C   -5.730920
    14  P    4.096124
    15  H    1.149110
    16  H    1.042968
    17  H   -1.213489
    18  H    0.697406
    19  H    0.499090
 Sum of Mulliken charges =  -0.00000

 Dipole moment (field-independent basis, Debye):
    X=             -0.0289    Y=              0.3502    Z=              0.4142  Tot=              0.5432

 Test job not archived.
 1\1\GINC-SE334\SP\RHF\Aug-CC-pVDZ\C7H10N1P1\OHZDE\08-Apr-2025\0\\#t hf
  aug-cc-pvdz iop(5/13=1,5/36=2,99/5=2) pseudo=read geom=check guess=(r
 ead,tcheck) scf=(maxcycle=1)\\title\\0,1\C,0,0.292999,-0.33741,0.56735
 7\C,0,1.051149,-1.290127,-0.127514\C,0,2.317014,-0.982517,-0.615645\C,
 0,2.854362,0.290158,-0.424836\C,0,2.114233,1.248293,0.262405\C,0,0.846
 672,0.936915,0.752864\N,0,-2.138048,1.207124,-0.87511\H,0,2.888085,-1.
 73892,-1.142802\H,0,3.841778,0.529044,-0.802943\H,0,2.525096,2.23884,0
 .424782\H,0,0.285698,1.68512,1.303599\H,0,0.64413,-2.284564,-0.281229\

 Normal termination of Gaussian 16 at Tue Apr  8 23:38:34 2025.
