 Gaussian 16, Revision C.01,

 ----------------------------------------------------------------------
 #t hf aug-cc-pvdz symm=none int=(grid=ultrafine) guess=(read,tcheck) s
 table=opt
 ----------------------------------------------------------------------
 -----
 title
 -----
 Symbolic Z-matrix:
 Charge =  0 Multiplicity = 2

 SCF Done:  E(UHF) =  -1228.02020250     A.U. after   17 cycles
 Normal termination of Gaussian 16 at Wed Apr  9 00:53:19 2025.
 Gaussian 16:  ES64L-G16RevC.01  3-Jul-2019

 ----------------------------------------------------------------------
 #t hf aug-cc-pvdz iop(5/13=1,5/36=2,99/5=2) pseudo=read geom=check gue
 ss=(read,tcheck) scf=(maxcycle=1)
 ----------------------------------------------------------------------
 -----
 title
 -----
 Structure from the checkpoint file:  "BDE49_nonexpt_930_mol2.chk"
 Charge =  0 Multiplicity = 2

                         Standard orientation:
 ---------------------------------------------------------------------
 Center     Atomic      Atomic             Coordinates (Angstroms)
 Number     Number       Type             X           Y           Z
 ---------------------------------------------------------------------
      1          7           0       -0.049933   -0.839916   -0.000007
      2         16           0        1.520743   -0.228515   -0.000006
      3         16           0       -1.405311    0.141307    0.000005
      4          8           0        2.066618   -0.679066    1.255654
      5          8           0        2.066611   -0.679041   -1.255678
      6          8           0       -1.444986    0.862564    1.252653
      7          8           0       -1.444991    0.862589   -1.252629
      8          6           0        1.477712    1.557179    0.000012
      9          1           0        2.524392    1.863113    0.000013
     10          1           0        0.970893    1.895799    0.901291
     11          1           0        0.970889    1.895818   -0.901257
     12          6           0       -2.671892   -1.110022   -0.000005
     13          1           0       -2.560729   -1.711211    0.900278
     14          1           0       -2.560732   -1.711193   -0.900300
     15          1           0       -3.623026   -0.576901    0.000002
 ---------------------------------------------------------------------

 SCF Done:  E(UHF) =  -1230.42412565     A.U. after    2 cycles

 The electronic state is 2-A.
 Alpha  occ. eigenvalues --  -75.94150 -75.92911 -21.08897 -21.08883 -21.07275
 Alpha  occ. eigenvalues --  -21.07250 -15.84588 -13.56554 -13.55637 -13.49562
 Alpha  occ. eigenvalues --  -13.46155 -13.38094 -13.36851 -11.45554 -11.44225
 Alpha  occ. eigenvalues --   -8.29474  -8.28199  -1.88720  -1.86487  -1.69467
 Alpha  occ. eigenvalues --   -1.67722  -1.44596  -1.18919  -1.15160  -0.98562
 Alpha  occ. eigenvalues --   -0.85666  -0.71153  -0.68951  -0.68843  -0.65617
 Alpha  occ. eigenvalues --   -0.64354  -0.63488  -0.60748  -0.57886  -0.54288
 Alpha  occ. eigenvalues --   -0.47602  -0.45538  -0.45096  -0.42635  -0.42517
 Alpha  occ. eigenvalues --   -0.40991  -0.39941  -0.39547  -0.38274  -0.37217
 Alpha virt. eigenvalues --    0.02159   0.03644   0.05039   0.05147   0.06572
 Alpha virt. eigenvalues --    0.07099   0.08897   0.10222   0.11929   0.12259
 Alpha virt. eigenvalues --    0.12863   0.12961   0.13183   0.13356   0.14850

  Beta  occ. eigenvalues --  -75.94219 -75.92976 -21.08691 -21.08677 -21.07065
  Beta  occ. eigenvalues --  -21.07041 -15.81488 -13.56677 -13.55746 -13.49748
  Beta  occ. eigenvalues --  -13.46218 -13.38243 -13.37083 -11.45578 -11.44251
  Beta  occ. eigenvalues --   -8.29562  -8.28285  -1.88206  -1.86211  -1.68948
  Beta  occ. eigenvalues --   -1.67205  -1.35494  -1.18803  -1.14142  -0.98015
  Beta  occ. eigenvalues --   -0.84065  -0.70400  -0.68168  -0.66149  -0.64849
  Beta  occ. eigenvalues --   -0.64116  -0.60562  -0.57523  -0.52674  -0.50396
  Beta  occ. eigenvalues --   -0.46465  -0.44151  -0.43484  -0.41760  -0.41610
  Beta  occ. eigenvalues --   -0.39887  -0.38992  -0.38938  -0.37326
  Beta virt. eigenvalues --    0.00081   0.02207   0.03671   0.05042   0.05175
  Beta virt. eigenvalues --    0.06571   0.07099   0.08907   0.10230   0.11976
  Beta virt. eigenvalues --    0.12268   0.12895   0.13170   0.13267   0.13411

 Mulliken charges and spin densities:
               1          2
     1  N   -3.182736   1.040943
     2  S    7.281533  -0.136463
     3  S    7.447347  -0.143831
     4  O   -2.496621   0.058591
     5  O   -2.496621   0.058591
     6  O   -2.591027   0.062288
     7  O   -2.591024   0.062288
     8  C   -4.855485  -0.004594
     9  H    1.301175  -0.001204
    10  H    1.376204   0.002757
    11  H    1.376205   0.002757
    12  C   -4.567211  -0.005672
    13  H    1.344318   0.002465
    14  H    1.344318   0.002465
    15  H    1.309626  -0.001381
 Sum of Mulliken charges =  -0.00000   1.00000

 Dipole moment (field-independent basis, Debye):
    X=             -1.8801    Y=              0.8386    Z=              0.0000  Tot=              2.0586
                          Isotropic Fermi Contact Couplings
        Atom                 a.u.       MegaHertz       Gauss      10(-4) cm-1
     1  N(14)              0.19479      62.93900      22.45820      20.99419
     2  S(33)             -0.05782     -19.86090      -7.08686      -6.62488
     3  S(33)             -0.07452     -25.59456      -9.13278      -8.53743
     4  O(17)              0.01070      -6.48559      -2.31422      -2.16336
     5  O(17)              0.01070      -6.48559      -2.31422      -2.16336
     6  O(17)              0.00915      -5.54708      -1.97934      -1.85031
     7  O(17)              0.00915      -5.54706      -1.97933      -1.85030
     8  C(13)             -0.00433      -4.87335      -1.73893      -1.62558

 Normal termination of Gaussian 16 at Wed Apr  9 00:53:28 2025.
