 Gaussian 16, Revision C.01,

 ----------------------------------------------------------------------
 #t hf aug-cc-pvdz symm=none int=(grid=ultrafine) guess=(read,tcheck) s
 table=(opt,rrhf)
 ----------------------------------------------------------------------
 -----
 title
 -----
 Symbolic Z-matrix:
 Charge =  0 Multiplicity = 1

 SCF Done:  E(RHF) =  -633.160019891     A.U. after   13 cycles
 Normal termination of Gaussian 16 at Wed Apr  9 00:04:05 2025.
 Gaussian 16:  ES64L-G16RevC.01  3-Jul-2019

 ----------------------------------------------------------------------
 #t hf aug-cc-pvdz iop(5/13=1,5/36=2,99/5=2) pseudo=read geom=check gue
 ss=(read,tcheck) scf=(maxcycle=1)
 ----------------------------------------------------------------------
 -----
 title
 -----
 Structure from the checkpoint file:  "BDE49_nonexpt_2175_mol1.chk"
 Charge =  0 Multiplicity = 1

                         Standard orientation:
 ---------------------------------------------------------------------
 Center     Atomic      Atomic             Coordinates (Angstroms)
 Number     Number       Type             X           Y           Z
 ---------------------------------------------------------------------
      1         14           0        0.651270   -0.001579    0.004239
      2          8           0        0.661894   -0.000821    1.648232
      3          8           0        1.458961   -1.318430   -0.558646
      4          1           0        1.474455   -0.258797    2.090182
      5          6           0       -1.147569   -0.005247   -0.500163
      6          6           0       -1.891063    1.254616   -0.014131
      7          6           0       -1.858346   -1.292406   -0.038058
      8          1           0       -1.142925    0.005620   -1.598852
      9          1           0       -1.880288   -1.355716    1.053463
     10          1           0       -1.352384   -2.185660   -0.413047
     11          1           0       -2.893520   -1.315898   -0.395769
     12          1           0       -1.894908    1.312748    1.078119
     13          1           0       -2.933630    1.246230   -0.349579
     14          1           0       -1.434448    2.172583   -0.397972
     15          1           0        2.138605   -1.154832   -1.216499
     16          8           0        1.491332    1.276252   -0.625472
     17          1           0        1.285645    2.158038   -0.308204
 ---------------------------------------------------------------------

 SCF Done:  E(RHF) =  -634.862771498     A.U. after    2 cycles

 The electronic state is 1-A.
 Alpha  occ. eigenvalues --  -76.23311 -21.07305 -21.06972 -21.06862 -11.39757
 Alpha  occ. eigenvalues --  -11.38122 -11.33831  -5.58443  -2.26410  -2.25310
 Alpha  occ. eigenvalues --   -2.22785  -1.70075  -1.63899  -1.63429  -1.19979
 Alpha  occ. eigenvalues --   -0.99565  -0.84150  -0.71266  -0.63252  -0.61975
 Alpha  occ. eigenvalues --   -0.59476  -0.58417  -0.55185  -0.53009  -0.48203
 Alpha  occ. eigenvalues --   -0.47239  -0.45345  -0.44714  -0.42501  -0.40350
 Alpha  occ. eigenvalues --   -0.37137  -0.35231  -0.33616
 Alpha virt. eigenvalues --    0.03675   0.05456   0.05732   0.05982   0.06170
 Alpha virt. eigenvalues --    0.06456   0.07015   0.07119   0.07180   0.08782
 Alpha virt. eigenvalues --    0.08935   0.09719   0.10187   0.12428   0.14417

 Mulliken charges:
               1
     1  Si   8.230181
     2  O   -3.129975
     3  O   -3.182244
     4  H    1.049385
     5  C   -3.700987
     6  C   -3.547535
     7  C   -3.756930
     8  H    1.581008
     9  H    1.346608
    10  H    1.275815
    11  H    1.193272
    12  H    1.297022
    13  H    1.208613
    14  H    1.283471
    15  H    1.015844
    16  O   -3.121253
    17  H    0.957705
 Sum of Mulliken charges =  -0.00000

 Dipole moment (field-independent basis, Debye):
    X=              0.4248    Y=              0.4450    Z=             -0.1266  Tot=              0.6281

 Test job not archived.
 1\1\GINC-SE252\SP\RHF\Aug-CC-pVDZ\C3H10O3Si1\OHZDE\09-Apr-2025\0\\#t h
 f aug-cc-pvdz iop(5/13=1,5/36=2,99/5=2) pseudo=read geom=check guess=(
 read,tcheck) scf=(maxcycle=1)\\title\\0,1\Si,0,0.65127,-0.001579,0.004
 239\O,0,0.661894,-0.000821,1.648232\O,0,1.45896,-1.318431,-0.558646\H,
 0,1.474455,-0.258798,2.090182\C,0,-1.147569,-0.005247,-0.500163\C,0,-1
 .891063,1.254617,-0.014131\C,0,-1.858347,-1.292405,-0.038058\H,0,-1.14
 2925,0.00562,-1.598852\H,0,-1.880289,-1.355715,1.053463\H,0,-1.352385,
 -2.18566,-0.413047\H,0,-2.893521,-1.315897,-0.395769\H,0,-1.894908,1.3

 Normal termination of Gaussian 16 at Wed Apr  9 00:04:11 2025.
