 Gaussian 16, Revision C.01,

 ----------------------------------------------------------------------
 #t hf aug-cc-pvdz symm=none int=(grid=ultrafine) guess=(read,tcheck) s
 table=(opt,rrhf)
 ----------------------------------------------------------------------
 -----
 title
 -----
 Symbolic Z-matrix:
 Charge =  0 Multiplicity = 1

 SCF Done:  E(RHF) =  -102.134349610     A.U. after   12 cycles
 Normal termination of Gaussian 16 at Tue Apr  8 23:34:03 2025.
 Gaussian 16:  ES64L-G16RevC.01  3-Jul-2019

 ----------------------------------------------------------------------
 #t hf aug-cc-pvdz iop(5/13=1,5/36=2,99/5=2) pseudo=read geom=check gue
 ss=(read,tcheck) scf=(maxcycle=1)
 ----------------------------------------------------------------------
 -----
 title
 -----
 Structure from the checkpoint file:  "BDE49_nonexpt_143_mol1.chk"
 Charge =  0 Multiplicity = 1

                         Standard orientation:
 ---------------------------------------------------------------------
 Center     Atomic      Atomic             Coordinates (Angstroms)
 Number     Number       Type             X           Y           Z
 ---------------------------------------------------------------------
      1          5           0       -0.534492   -0.614268   -0.474794
      2          5           0        0.534492    0.614268   -0.474794
      3          5           0        0.534492    1.974741    0.420708
      4          1           0       -0.011741    2.974106    0.058513
      5          1           0        1.100116    2.022763    1.473470
      6          5           0       -0.534492   -1.974741    0.420708
      7          1           0        0.011741   -2.974106    0.058513
      8          1           0       -1.100116   -2.022763    1.473470
      9          1           0        1.438394    0.488788   -1.261552
     10          1           0       -1.438394   -0.488788   -1.261552
 ---------------------------------------------------------------------

 SCF Done:  E(RHF) =  -102.600516143     A.U. after    2 cycles

 The electronic state is 1-A.
 Alpha  occ. eigenvalues --   -7.59568  -7.59453  -7.57306  -7.56685  -0.99729
 Alpha  occ. eigenvalues --   -0.89218  -0.75307  -0.63274  -0.48316  -0.48181
 Alpha  occ. eigenvalues --   -0.43733  -0.40669  -0.35052
 Alpha virt. eigenvalues --   -0.00002   0.00851   0.01596   0.04111   0.05658
 Alpha virt. eigenvalues --    0.06061   0.07391   0.07952   0.08535   0.09120
 Alpha virt. eigenvalues --    0.09593   0.09957   0.10778   0.11161   0.11345

 Mulliken charges:
               1
     1  B    1.585321
     2  B    1.585321
     3  B    5.226575
     4  H   -2.501027
     5  H   -2.477104
     6  B    5.226575
     7  H   -2.501027
     8  H   -2.477104
     9  H   -1.833764
    10  H   -1.833764
 Sum of Mulliken charges =   0.00000

 Dipole moment (field-independent basis, Debye):
    X=              0.0000    Y=             -0.0000    Z=             -0.1462  Tot=              0.1462

 Test job not archived.
 1\1\GINC-SE029\SP\RHF\Aug-CC-pVDZ\B4H6\OHZDE\08-Apr-2025\0\\#t hf aug-
 cc-pvdz iop(5/13=1,5/36=2,99/5=2) pseudo=read geom=check guess=(read,t
 check) scf=(maxcycle=1)\\title\\0,1\B,0,-0.534492,-0.614268,-0.474794\
 B,0,0.534492,0.614268,-0.474794\B,0,0.534492,1.974741,0.420708\H,0,-0.
 011741,2.974106,0.058513\H,0,1.100116,2.022763,1.47347\B,0,-0.534492,-
 1.974741,0.420708\H,0,0.011741,-2.974106,0.058513\H,0,-1.100116,-2.022
 763,1.47347\H,0,1.438394,0.488788,-1.261552\H,0,-1.438394,-0.488788,-1
 .261552\\Version=ES64L-G16RevC.01\State=1-A\HF=-102.6005161\RMSD=1.919

 Normal termination of Gaussian 16 at Tue Apr  8 23:34:05 2025.
