 Gaussian 16, Revision C.01,

 ----------------------------------------------------------------------
 #t hf aug-cc-pvdz symm=none int=(grid=ultrafine) guess=(read,tcheck) s
 table=(opt,rrhf)
 ----------------------------------------------------------------------
 -----
 title
 -----
 Symbolic Z-matrix:
 Charge =  0 Multiplicity = 1

 SCF Done:  E(RHF) =  -152.938821506     A.U. after   12 cycles
 Normal termination of Gaussian 16 at Tue Apr  8 23:02:39 2025.
 Gaussian 16:  ES64L-G16RevC.01  3-Jul-2019

 ----------------------------------------------------------------------
 #t hf aug-cc-pvdz iop(5/13=1,5/36=2,99/5=2) pseudo=read geom=check gue
 ss=(read,tcheck) scf=(maxcycle=1)
 ----------------------------------------------------------------------
 -----
 title
 -----
 Structure from the checkpoint file:  "BDE49_expt_203_mol1.chk"
 Charge =  0 Multiplicity = 1

                         Standard orientation:
 ---------------------------------------------------------------------
 Center     Atomic      Atomic             Coordinates (Angstroms)
 Number     Number       Type             X           Y           Z
 ---------------------------------------------------------------------
      1          6           0       -0.235515    0.397239   -0.000006
      2          8           0       -1.233093   -0.276593   -0.000000
      3          6           0        1.168546   -0.147779    0.000002
      4          1           0       -0.304875    1.508935    0.000015
      5          1           0        1.155793   -1.237611   -0.000008
      6          1           0        1.707815    0.222321    0.878897
      7          1           0        1.707831    0.222337   -0.878877
 ---------------------------------------------------------------------

 SCF Done:  E(RHF) =  -153.625402441     A.U. after    2 cycles

 The electronic state is 1-A.
 Alpha  occ. eigenvalues --  -21.06480 -11.48187 -11.39144  -1.70944  -1.11603
 Alpha  occ. eigenvalues --   -0.81900  -0.64281  -0.59539  -0.56055  -0.50103
 Alpha  occ. eigenvalues --   -0.42741  -0.29695
 Alpha virt. eigenvalues --    0.03295   0.05387   0.05846   0.06650   0.11102
 Alpha virt. eigenvalues --    0.11261   0.12051   0.14007   0.14641   0.16321
 Alpha virt. eigenvalues --    0.16422   0.17076   0.19566   0.25549   0.26267

 Mulliken charges:
               1
     1  C    1.305320
     2  O   -2.573751
     3  C   -3.774087
     4  H    1.370148
     5  H    1.154583
     6  H    1.258891
     7  H    1.258896
 Sum of Mulliken charges =  -0.00000

 Dipole moment (field-independent basis, Debye):
    X=              1.3043    Y=              0.5080    Z=              0.0000  Tot=              1.3998

 Test job not archived.
 1\1\GINC-SE083\SP\RHF\Aug-CC-pVDZ\C2H4O1\OHZDE\08-Apr-2025\0\\#t hf au
 g-cc-pvdz iop(5/13=1,5/36=2,99/5=2) pseudo=read geom=check guess=(read
 ,tcheck) scf=(maxcycle=1)\\title\\0,1\C,0,-0.235515,0.397239,-0.000006
 \O,0,-1.233093,-0.276593,0.\C,0,1.168546,-0.147779,0.000002\H,0,-0.304
 875,1.508935,0.000015\H,0,1.155793,-1.237611,-0.000008\H,0,1.707815,0.
 222321,0.878897\H,0,1.707831,0.222337,-0.878877\\Version=ES64L-G16RevC
 .01\State=1-A\HF=-153.6254024\RMSD=1.509e-01\Dipole=0.5131657,0.199880
 8,0.0000062\Quadrupole=-0.951403,0.22029,0.731113,-0.2763565,-0.000001

 Normal termination of Gaussian 16 at Tue Apr  8 23:02:42 2025.
