 Gaussian 16, Revision C.01,

 ----------------------------------------------------------------------
 #t hf aug-cc-pvdz symm=none int=(grid=ultrafine) guess=(read,tcheck) s
 table=(opt,rrhf)
 ----------------------------------------------------------------------
 -----
 title
 -----
 Symbolic Z-matrix:
 Charge =  0 Multiplicity = 1

 SCF Done:  E(RHF) =  -1283.74671684     A.U. after   11 cycles
 Normal termination of Gaussian 16 at Tue Apr  8 23:48:22 2025.
 Gaussian 16:  ES64L-G16RevC.01  3-Jul-2019

 ----------------------------------------------------------------------
 #t hf aug-cc-pvdz iop(5/13=1,5/36=2,99/5=2) pseudo=read geom=check gue
 ss=(read,tcheck) scf=(maxcycle=1)
 ----------------------------------------------------------------------
 -----
 title
 -----
 Structure from the checkpoint file:  "BDE49_nonexpt_1800_mol1.chk"
 Charge =  0 Multiplicity = 1

                         Standard orientation:
 ---------------------------------------------------------------------
 Center     Atomic      Atomic             Coordinates (Angstroms)
 Number     Number       Type             X           Y           Z
 ---------------------------------------------------------------------
      1         14           0        0.549270    0.441138    0.000001
      2          6           0       -1.238155   -0.234964    0.000001
      3         17           0        1.902572   -1.062441   -0.000008
      4          9           0        0.731745    1.344430    1.283688
      5          9           0        0.731741    1.344441   -1.283679
      6          9           0       -1.476722   -0.994098   -1.090275
      7          9           0       -2.132777    0.776597    0.000008
      8          9           0       -1.476718   -0.994110    1.090269
 ---------------------------------------------------------------------

 SCF Done:  E(RHF) =  -1285.98597941     A.U. after    2 cycles

 The electronic state is 1-A.
 Alpha  occ. eigenvalues --  -99.93779 -76.36333 -29.33275 -29.33248 -29.33173
 Alpha  occ. eigenvalues --  -29.32824 -29.32821 -11.58225 -10.51325  -9.71166
 Alpha  occ. eigenvalues --   -9.70535  -9.70468  -5.72439  -2.37200  -2.35588
 Alpha  occ. eigenvalues --   -2.33673  -1.41390  -1.35063  -0.99324  -0.90160
 Alpha  occ. eigenvalues --   -0.90084  -0.75815  -0.74971  -0.66288  -0.58819
 Alpha  occ. eigenvalues --   -0.58721  -0.50152  -0.46601  -0.45561  -0.44622
 Alpha  occ. eigenvalues --   -0.43254  -0.41179  -0.40676  -0.38427  -0.38099
 Alpha  occ. eigenvalues --   -0.37276  -0.32933  -0.28269  -0.27793  -0.25436
 Alpha  occ. eigenvalues --   -0.23561
 Alpha virt. eigenvalues --    0.05382   0.06872   0.07302   0.08902   0.10468
 Alpha virt. eigenvalues --    0.13192   0.13427   0.14226   0.15310   0.15364
 Alpha virt. eigenvalues --    0.17812   0.18771   0.19032   0.21231   0.21914

 Mulliken charges:
               1
     1  Si   2.948076
     2  C   -1.192513
     3  Cl  -0.835778
     4  F   -0.794739
     5  F   -0.794739
     6  F    0.201943
     7  F    0.265807
     8  F    0.201943
 Sum of Mulliken charges =   0.00000

 Dipole moment (field-independent basis, Debye):
    X=             -1.5443    Y=              2.7636    Z=              0.0000  Tot=              3.1658

 Test job not archived.
 1\1\GINC-SE402\SP\RHF\Aug-CC-pVDZ\C1Cl1F5Si1\OHZDE\08-Apr-2025\0\\#t h
 f aug-cc-pvdz iop(5/13=1,5/36=2,99/5=2) pseudo=read geom=check guess=(
 read,tcheck) scf=(maxcycle=1)\\title\\0,1\Si,0,0.54927,0.441138,0.0000
 01\C,0,-1.238155,-0.234964,0.000001\Cl,0,1.902572,-1.062441,-0.000008\
 F,0,0.731745,1.34443,1.283688\F,0,0.731741,1.344441,-1.283679\F,0,-1.4
 76722,-0.994098,-1.090275\F,0,-2.132777,0.776597,0.000008\F,0,-1.47671
 8,-0.99411,1.090269\\Version=ES64L-G16RevC.01\State=1-A\HF=-1285.98597
 94\RMSD=4.828e-02\Dipole=-0.6075635,1.0872696,0.0000057\Quadrupole=-1.

 Normal termination of Gaussian 16 at Tue Apr  8 23:48:26 2025.
