 Gaussian 16, Revision C.01,

 ----------------------------------------------------------------------
 #t hf aug-cc-pvdz symm=none int=(grid=ultrafine) guess=(read,tcheck) s
 table=opt
 ----------------------------------------------------------------------
 -----
 title
 -----
 Symbolic Z-matrix:
 Charge =  0 Multiplicity = 2

 SCF Done:  E(UHF) =  -156.687826687     A.U. after   16 cycles
 Normal termination of Gaussian 16 at Tue Apr  8 22:37:37 2025.
 Gaussian 16:  ES64L-G16RevC.01  3-Jul-2019

 ----------------------------------------------------------------------
 #t hf aug-cc-pvdz iop(5/13=1,5/36=2,99/5=2) pseudo=read geom=check gue
 ss=(read,tcheck) scf=(maxcycle=1)
 ----------------------------------------------------------------------
 -----
 title
 -----
 Structure from the checkpoint file:  "BDE49_expt_1117_mol2.chk"
 Charge =  0 Multiplicity = 2

                         Standard orientation:
 ---------------------------------------------------------------------
 Center     Atomic      Atomic             Coordinates (Angstroms)
 Number     Number       Type             X           Y           Z
 ---------------------------------------------------------------------
      1          6           0       -0.581232    0.443427    0.048816
      2          6           0        0.570771   -0.504954    0.091211
      3          6           0        1.937412    0.168348   -0.081221
      4          1           0        0.437254   -1.278054   -0.679058
      5          1           0        0.565214   -1.060555    1.046986
      6          1           0        2.002541    0.679817   -1.045482
      7          1           0        2.749829   -0.561219   -0.029964
      8          1           0        2.108321    0.912729    0.702277
      9          6           0       -1.985278   -0.043001   -0.067308
     10          1           0       -0.407669    1.476882    0.335014
     11          1           0       -2.083069   -0.812838   -0.842775
     12          1           0       -2.680180    0.766587   -0.304578
     13          1           0       -2.342278   -0.506273    0.868596
 ---------------------------------------------------------------------

 SCF Done:  E(UHF) =  -157.490957012     A.U. after    2 cycles

 The electronic state is 2-A.
 Alpha  occ. eigenvalues --  -11.40947 -11.38560 -11.36426 -11.34140  -1.23152
 Alpha  occ. eigenvalues --   -1.07173  -0.91441  -0.80708  -0.62526  -0.59017
 Alpha  occ. eigenvalues --   -0.58059  -0.55820  -0.50982  -0.48285  -0.46015
 Alpha  occ. eigenvalues --   -0.43809  -0.29034
 Alpha virt. eigenvalues --    0.03999   0.05107   0.05969   0.06138   0.06321
 Alpha virt. eigenvalues --    0.06576   0.06679   0.07529   0.09171   0.11029
 Alpha virt. eigenvalues --    0.13054   0.14082   0.14950   0.15418   0.16314

  Beta  occ. eigenvalues --  -11.40577 -11.38272 -11.36239 -11.33262  -1.20453
  Beta  occ. eigenvalues --   -1.06129  -0.90313  -0.76682  -0.60581  -0.58258
  Beta  occ. eigenvalues --   -0.57303  -0.53696  -0.50500  -0.47325  -0.45462
  Beta  occ. eigenvalues --   -0.43103
  Beta virt. eigenvalues --    0.03965   0.05116   0.05878   0.06144   0.06235
  Beta virt. eigenvalues --    0.06604   0.06692   0.07469   0.09134   0.10465
  Beta virt. eigenvalues --    0.11735   0.13249   0.14204   0.15534   0.15989

 Mulliken charges and spin densities:
               1          2
     1  C   -0.445103   1.764959
     2  C   -3.304440  -0.455853
     3  C   -3.787422   0.020001
     4  H    1.386788   0.009460
     5  H    1.346070   0.026058
     6  H    1.302573   0.000256
     7  H    1.145924  -0.002322
     8  H    1.309261  -0.003679
     9  C   -4.054503  -0.389512
    10  H    1.401604  -0.015058
    11  H    1.252211   0.013639
    12  H    1.203727  -0.001592
    13  H    1.243309   0.033643
 Sum of Mulliken charges =   0.00000   1.00000

 Dipole moment (field-independent basis, Debye):
    X=             -0.0343    Y=             -0.0891    Z=              0.1509  Tot=              0.1785
                          Isotropic Fermi Contact Couplings
        Atom                 a.u.       MegaHertz       Gauss      10(-4) cm-1
     1  C(13)              0.14248     160.16959      57.15249      53.42682
     2  C(13)             -0.03633     -40.84604     -14.57488     -13.62477
     3  C(13)              0.00803       9.03075       3.22240       3.01233
     4  H(1)               0.00851      38.03577      13.57211      12.68737
     5  H(1)               0.01862      83.24342      29.70332      27.76702
     6  H(1)              -0.00062      -2.77198      -0.98911      -0.92463
     7  H(1)              -0.00070      -3.13175      -1.11748      -1.04464
     8  H(1)              -0.00056      -2.51151      -0.89617      -0.83775

 Normal termination of Gaussian 16 at Tue Apr  8 22:37:40 2025.
