 Gaussian 16, Revision C.01,

 ----------------------------------------------------------------------
 #t hf aug-cc-pvdz symm=none int=(grid=ultrafine) guess=(read,tcheck) s
 table=(opt,rrhf)
 ----------------------------------------------------------------------
 -----
 title
 -----
 Symbolic Z-matrix:
 Charge =  0 Multiplicity = 1

 SCF Done:  E(RHF) =  -361.509668279     A.U. after   16 cycles
 Normal termination of Gaussian 16 at Tue Apr  8 22:39:22 2025.
 Gaussian 16:  ES64L-G16RevC.01  3-Jul-2019

 ----------------------------------------------------------------------
 #t hf aug-cc-pvdz iop(5/13=1,5/36=2,99/5=2) pseudo=read geom=check gue
 ss=(read,tcheck) scf=(maxcycle=1)
 ----------------------------------------------------------------------
 -----
 title
 -----
 Structure from the checkpoint file:  "BDE49_expt_1169_mol1.chk"
 Charge =  0 Multiplicity = 1

                         Standard orientation:
 ---------------------------------------------------------------------
 Center     Atomic      Atomic             Coordinates (Angstroms)
 Number     Number       Type             X           Y           Z
 ---------------------------------------------------------------------
      1          6           0       -0.102712   -0.410702    0.000001
      2          6           0       -2.589992   -0.022545   -0.000001
      3          7           0       -3.443406    0.751815   -0.000005
      4          6           0        0.134385    0.962947    0.000003
      5          6           0        0.985347   -1.289500   -0.000001
      6          6           0        2.287835   -0.802200   -0.000002
      7          6           0        2.519780    0.572874   -0.000001
      8          6           0        1.441103    1.451172    0.000001
      9          1           0       -0.699389    1.655503    0.000004
     10          1           0        1.610907    2.521824    0.000002
     11          1           0        3.121573   -1.495166   -0.000004
     12          1           0        3.534448    0.954088   -0.000002
     13          1           0        0.812651   -2.361412   -0.000002
     14          6           0       -1.508174   -1.002825    0.000003
     15          1           0       -1.640891   -1.646434    0.876577
     16          1           0       -1.640890   -1.646441   -0.876565
 ---------------------------------------------------------------------

 SCF Done:  E(RHF) =  -363.215880370     A.U. after    2 cycles

 The electronic state is 1-A.
 Alpha  occ. eigenvalues --  -15.76151 -11.53067 -11.48749 -11.44829 -11.44345
 Alpha  occ. eigenvalues --  -11.43324 -11.42089 -11.41635 -11.37526  -1.38104
 Alpha  occ. eigenvalues --   -1.30409  -1.17480  -1.10360  -1.04505  -0.87897
 Alpha  occ. eigenvalues --   -0.85760  -0.72883  -0.69920  -0.66113  -0.64576
 Alpha  occ. eigenvalues --   -0.59689  -0.58966  -0.56657  -0.51498  -0.50809
 Alpha  occ. eigenvalues --   -0.46862  -0.45579  -0.43716  -0.42612  -0.34137
 Alpha  occ. eigenvalues --   -0.33559
 Alpha virt. eigenvalues --    0.02830   0.04509   0.04837   0.05552   0.06052
 Alpha virt. eigenvalues --    0.06426   0.07811   0.09201   0.10149   0.10393
 Alpha virt. eigenvalues --    0.11300   0.11963   0.12118   0.12719   0.13083

 Mulliken charges:
               1
     1  C    5.342505
     2  C    2.054178
     3  N   -2.460894
     4  C   -0.830447
     5  C   -2.649996
     6  C   -1.491635
     7  C   -3.217639
     8  C   -2.006974
     9  H    1.884148
    10  H    1.481364
    11  H    1.487655
    12  H    1.532201
    13  H    1.713445
    14  C   -5.362747
    15  H    1.262418
    16  H    1.262418
 Sum of Mulliken charges =   0.00000

 Dipole moment (field-independent basis, Debye):
    X=              3.0012    Y=             -2.0063    Z=              0.0000  Tot=              3.6101

 Test job not archived.
 1\1\GINC-SE126\SP\RHF\Aug-CC-pVDZ\C8H7N1\OHZDE\08-Apr-2025\0\\#t hf au
 g-cc-pvdz iop(5/13=1,5/36=2,99/5=2) pseudo=read geom=check guess=(read
 ,tcheck) scf=(maxcycle=1)\\title\\0,1\C,0,-0.102712,-0.410702,0.000001
 \C,0,-2.589992,-0.022545,-0.000001\N,0,-3.443406,0.751815,-0.000005\C,
 0,0.134385,0.962947,0.000003\C,0,0.985347,-1.2895,-0.000001\C,0,2.2878
 35,-0.8022,-0.000002\C,0,2.51978,0.572874,-0.000001\C,0,1.441103,1.451
 172,0.000001\H,0,-0.699389,1.655503,0.000004\H,0,1.610907,2.521824,0.0
 00002\H,0,3.121573,-1.495166,-0.000004\H,0,3.534448,0.954088,-0.000002

 Normal termination of Gaussian 16 at Tue Apr  8 22:39:29 2025.
