 Gaussian 16, Revision C.01,

 ----------------------------------------------------------------------
 #t hf aug-cc-pvdz symm=none int=(grid=ultrafine) guess=(read,tcheck) s
 table=(opt,rrhf)
 ----------------------------------------------------------------------
 -----
 title
 -----
 Symbolic Z-matrix:
 Charge =  0 Multiplicity = 1

 SCF Done:  E(RHF) =  -750.996462333     A.U. after   15 cycles
 Normal termination of Gaussian 16 at Wed Apr  9 00:49:41 2025.
 Gaussian 16:  ES64L-G16RevC.01  3-Jul-2019

 ----------------------------------------------------------------------
 #t hf aug-cc-pvdz iop(5/13=1,5/36=2,99/5=2) pseudo=read geom=check gue
 ss=(read,tcheck) scf=(maxcycle=1)
 ----------------------------------------------------------------------
 -----
 title
 -----
 Structure from the checkpoint file:  "BDE49_nonexpt_829_mol1.chk"
 Charge =  0 Multiplicity = 1

                         Standard orientation:
 ---------------------------------------------------------------------
 Center     Atomic      Atomic             Coordinates (Angstroms)
 Number     Number       Type             X           Y           Z
 ---------------------------------------------------------------------
      1          6           0        1.716164    1.747658    0.525614
      2          6           0        0.474007    1.157570    0.754272
      3          6           0        2.771150    1.005970    0.008646
      4          6           0        2.600985   -0.355289   -0.286919
      5          6           0        1.345404   -0.940709   -0.053430
      6          6           0        0.275780   -0.205710    0.467393
      7          1           0        1.212474   -1.993295   -0.288009
      8          1           0        3.732271    1.477447   -0.170983
      9          1           0        1.867595    2.796940    0.756030
     10          1           0       -0.327774    1.754022    1.179176
     11          5           0       -2.782793    0.086118   -0.350447
     12          8           0       -2.417090    1.171845   -1.098106
     13          8           0       -4.094820   -0.275133   -0.331062
     14          7           0        3.634297   -1.094807   -0.856903
     15          1           0        4.566366   -0.748308   -0.685150
     16          1           0        3.569455   -2.095089   -0.740282
     17          1           0       -1.470974    1.352799   -1.063953
     18          1           0       -4.638896    0.304744   -0.880012
     19         14           0       -1.422994   -0.989247    0.723928
     20          1           0       -1.352396   -2.405095    0.278793
     21          1           0       -1.767986   -0.992280    2.169831
 ---------------------------------------------------------------------

 SCF Done:  E(RHF) =  -753.237747702     A.U. after    2 cycles

 The electronic state is 1-A.
 Alpha  occ. eigenvalues --  -76.19693 -21.05953 -21.05470 -15.76350 -11.51618
 Alpha  occ. eigenvalues --  -11.45208 -11.43072 -11.41031 -11.40565 -11.36030
 Alpha  occ. eigenvalues --   -7.63379  -5.53445  -2.18412  -2.17114  -2.15908
 Alpha  occ. eigenvalues --   -1.80497  -1.65108  -1.41345  -1.26677  -1.09410
 Alpha  occ. eigenvalues --   -1.05500  -0.87703  -0.85515  -0.79102  -0.72472
 Alpha  occ. eigenvalues --   -0.69074  -0.67671  -0.64573  -0.62105  -0.58587
 Alpha  occ. eigenvalues --   -0.55717  -0.54375  -0.52960  -0.52643  -0.48839
 Alpha  occ. eigenvalues --   -0.46193  -0.45651  -0.43245  -0.42828  -0.38911
 Alpha  occ. eigenvalues --   -0.36172  -0.34749  -0.32388  -0.27937
 Alpha virt. eigenvalues --    0.03119   0.04354   0.04826   0.04894   0.05476
 Alpha virt. eigenvalues --    0.05689   0.06315   0.07395   0.07639   0.08373
 Alpha virt. eigenvalues --    0.08974   0.09221   0.09948   0.10234   0.10641

 Mulliken charges:
               1
     1  C    0.019473
     2  C   -3.186281
     3  C   -2.588600
     4  C    2.951235
     5  C   -2.354446
     6  C    0.210160
     7  H    2.015749
     8  H    1.724551
     9  H    1.523992
    10  H    2.126044
    11  B    5.866670
    12  O   -4.530170
    13  O   -4.171373
    14  N   -4.054301
    15  H    0.650982
    16  H    0.640781
    17  H    1.715200
    18  H    1.371540
    19  Si   3.998951
    20  H   -1.833364
    21  H   -2.096793
 Sum of Mulliken charges =  -0.00000

 Dipole moment (field-independent basis, Debye):
    X=              2.7282    Y=              0.3682    Z=             -0.4807  Tot=              2.7945

 Test job not archived.
 1\1\GINC-SE026\SP\RHF\Aug-CC-pVDZ\C6H10B1N1O2Si1\OHZDE\09-Apr-2025\0\\
 #t hf aug-cc-pvdz iop(5/13=1,5/36=2,99/5=2) pseudo=read geom=check gue
 ss=(read,tcheck) scf=(maxcycle=1)\\title\\0,1\C,0,1.716164,1.747658,0.
 525614\C,0,0.474007,1.15757,0.754272\C,0,2.77115,1.00597,0.008646\C,0,
 2.600985,-0.355289,-0.286919\C,0,1.345404,-0.940709,-0.05343\C,0,0.275
 78,-0.20571,0.467393\H,0,1.212474,-1.993295,-0.288009\H,0,3.732271,1.4
 77447,-0.170983\H,0,1.867595,2.79694,0.75603\H,0,-0.327774,1.754022,1.
 179176\B,0,-2.782793,0.086118,-0.350447\O,0,-2.41709,1.171845,-1.09810

 Normal termination of Gaussian 16 at Wed Apr  9 00:49:55 2025.
