 Gaussian 16, Revision C.01,

 ----------------------------------------------------------------------
 #t hf aug-cc-pvdz symm=none int=(grid=ultrafine) guess=(read,tcheck) s
 table=(opt,rrhf)
 ----------------------------------------------------------------------
 -----
 title
 -----
 Symbolic Z-matrix:
 Charge =  0 Multiplicity = 1

 SCF Done:  E(RHF) =  -314.572103181     A.U. after   12 cycles
 Normal termination of Gaussian 16 at Wed Apr  9 00:39:46 2025.
 Gaussian 16:  ES64L-G16RevC.01  3-Jul-2019

 ----------------------------------------------------------------------
 #t hf aug-cc-pvdz iop(5/13=1,5/36=2,99/5=2) pseudo=read geom=check gue
 ss=(read,tcheck) scf=(maxcycle=1)
 ----------------------------------------------------------------------
 -----
 title
 -----
 Structure from the checkpoint file:  "BDE49_nonexpt_577_mol1.chk"
 Charge =  0 Multiplicity = 1

                         Standard orientation:
 ---------------------------------------------------------------------
 Center     Atomic      Atomic             Coordinates (Angstroms)
 Number     Number       Type             X           Y           Z
 ---------------------------------------------------------------------
      1          6           0        0.684424   -0.000000    0.173482
      2          6           0       -0.079095    1.266250   -0.251585
      3          6           0       -1.524212    1.266625    0.267945
      4          6           0       -2.279165   -0.000000   -0.157879
      5          6           0       -1.524212   -1.266625    0.267945
      6          6           0       -0.079095   -1.266250   -0.251585
      7          5           0        3.236613   -0.000001    0.369216
      8          1           0       -0.086197    1.320840   -1.349218
      9          1           0        0.461445    2.148821    0.103175
     10          1           0       -2.047125    2.160243   -0.086748
     11          1           0       -1.513215    1.329188    1.363676
     12          1           0       -2.399069   -0.000000   -1.249082
     13          1           0       -3.288250   -0.000000    0.266126
     14          1           0       -2.047125   -2.160242   -0.086747
     15          1           0       -1.513215   -1.329187    1.363676
     16          1           0        0.461445   -2.148821    0.103175
     17          1           0       -0.086197   -1.320840   -1.349218
     18          7           0        2.050413    0.000000   -0.350781
     19          1           0        0.776968   -0.000000    1.264689
     20          1           0        4.272222    0.000002   -0.223635
     21          1           0        3.193535    0.000002    1.562590
     22          1           0        2.086949    0.000001   -1.363002
 ---------------------------------------------------------------------

 SCF Done:  E(RHF) =  -316.164623638     A.U. after    2 cycles

 The electronic state is 1-A.
 Alpha  occ. eigenvalues --  -15.70578 -11.45343 -11.43716 -11.42335 -11.38104
 Alpha  occ. eigenvalues --  -11.38038 -11.34149  -7.59006  -1.40984  -1.26376
 Alpha  occ. eigenvalues --   -1.10385  -1.07953  -0.88730  -0.88682  -0.80838
 Alpha  occ. eigenvalues --   -0.78650  -0.67175  -0.62392  -0.61218  -0.60112
 Alpha  occ. eigenvalues --   -0.57283  -0.52941  -0.51725  -0.50665  -0.47098
 Alpha  occ. eigenvalues --   -0.46568  -0.44886  -0.44530  -0.41283  -0.39109
 Alpha  occ. eigenvalues --   -0.34501
 Alpha virt. eigenvalues --    0.03391   0.04039   0.04359   0.04425   0.05378
 Alpha virt. eigenvalues --    0.05533   0.05561   0.05791   0.06141   0.07963
 Alpha virt. eigenvalues --    0.08517   0.08774   0.08810   0.09445   0.09835

 Mulliken charges:
               1
     1  C    1.905975
     2  C   -3.452385
     3  C   -2.838826
     4  C   -2.682628
     5  C   -2.838827
     6  C   -3.452387
     7  B    7.312094
     8  H    1.434039
     9  H    1.391617
    10  H    1.284176
    11  H    1.337129
    12  H    1.326141
    13  H    1.355522
    14  H    1.284177
    15  H    1.337130
    16  H    1.391617
    17  H    1.434040
    18  N   -3.458566
    19  H    2.096838
    20  H   -3.961564
    21  H   -3.273880
    22  H    1.068570
 Sum of Mulliken charges =   0.00000

 Dipole moment (field-independent basis, Debye):
    X=             -1.8491    Y=             -0.0000    Z=             -0.8289  Tot=              2.0264

 Test job not archived.
 1\1\GINC-SE084\SP\RHF\Aug-CC-pVDZ\C6H14B1N1\OHZDE\09-Apr-2025\0\\#t hf
  aug-cc-pvdz iop(5/13=1,5/36=2,99/5=2) pseudo=read geom=check guess=(r
 ead,tcheck) scf=(maxcycle=1)\\title\\0,1\C,0,-0.684424,0.,0.173482\C,0
 ,0.079095,-1.26625,-0.251585\C,0,1.524212,-1.266625,0.267945\C,0,2.279
 165,0.,-0.157879\C,0,1.524212,1.266625,0.267945\C,0,0.079095,1.26625,-
 0.251585\B,0,-3.236613,0.000001,0.369216\H,0,0.086197,-1.32084,-1.3492
 18\H,0,-0.461445,-2.148821,0.103175\H,0,2.047125,-2.160243,-0.086748\H
 ,0,1.513215,-1.329188,1.363676\H,0,2.399069,0.,-1.249082\H,0,3.28825,0

 Normal termination of Gaussian 16 at Wed Apr  9 00:39:59 2025.
