 Gaussian 16, Revision C.01,

 ----------------------------------------------------------------------
 #t hf aug-cc-pvdz symm=none int=(grid=ultrafine) guess=(read,tcheck) s
 table=(opt,rrhf)
 ----------------------------------------------------------------------
 -----
 title
 -----
 Symbolic Z-matrix:
 Charge =  0 Multiplicity = 1

 SCF Done:  E(RHF) =  -267.658458690     A.U. after   14 cycles
 Normal termination of Gaussian 16 at Tue Apr  8 23:21:52 2025.
 Gaussian 16:  ES64L-G16RevC.01  3-Jul-2019

 ----------------------------------------------------------------------
 #t hf aug-cc-pvdz iop(5/13=1,5/36=2,99/5=2) pseudo=read geom=check gue
 ss=(read,tcheck) scf=(maxcycle=1)
 ----------------------------------------------------------------------
 -----
 title
 -----
 Structure from the checkpoint file:  "BDE49_nonexpt_1154_mol1.chk"
 Charge =  0 Multiplicity = 1

                         Standard orientation:
 ---------------------------------------------------------------------
 Center     Atomic      Atomic             Coordinates (Angstroms)
 Number     Number       Type             X           Y           Z
 ---------------------------------------------------------------------
      1          9           0       -0.251479   -1.375258    0.000000
      2          8           0       -0.934705   -0.114543    0.000000
      3          6           0        0.000000    0.903887    0.000000
      4          7           0        1.247245    0.875871    0.000000
      5          1           0        1.609089   -0.078046    0.000000
      6          1           0       -0.598853    1.817295    0.000000
 ---------------------------------------------------------------------

 SCF Done:  E(RHF) =  -268.712733608     A.U. after    2 cycles

 The electronic state is 1-A'.
 Alpha  occ. eigenvalues --  -29.32707 -21.19988 -15.76757 -11.49582  -1.85988
 Alpha  occ. eigenvalues --   -1.34174  -0.93400  -0.72063  -0.67863  -0.60575
 Alpha  occ. eigenvalues --   -0.59648  -0.42572  -0.41675  -0.38386  -0.29876
 Alpha  occ. eigenvalues --   -0.25581
 Alpha virt. eigenvalues --    0.04150   0.05996   0.10294   0.10576   0.11830
 Alpha virt. eigenvalues --    0.15609   0.15767   0.17479   0.18598   0.21537
 Alpha virt. eigenvalues --    0.21992   0.23078   0.26723   0.26792   0.29213

 Mulliken charges:
               1
     1  F   -0.000244
     2  O   -1.388032
     3  C    1.788145
     4  N   -2.492757
     5  H    0.580205
     6  H    1.512684
 Sum of Mulliken charges =  -0.00000

 Dipole moment (field-independent basis, Debye):
    X=             -0.8908    Y=             -2.0726    Z=              0.0000  Tot=              2.2559

 Test job not archived.
 1\1\GINC-SE116\SP\RHF\Aug-CC-pVDZ\C1H2F1N1O1\OHZDE\08-Apr-2025\0\\#t h
 f aug-cc-pvdz iop(5/13=1,5/36=2,99/5=2) pseudo=read geom=check guess=(
 read,tcheck) scf=(maxcycle=1)\\title\\0,1\F,0,-1.290885,-0.536836,0.\O
 ,0,-0.604427,0.722123,0.\C,0,0.75855,0.491543,0.\N,0,1.413302,-0.57039
 1,0.\H,0,0.809542,-1.392803,0.\H,0,1.199427,1.490825,0.\\Version=ES64L
 -G16RevC.01\State=1-A'\HF=-268.7127336\RMSD=5.444e-02\Dipole=-0.874903
 3,-0.1493183,0.\Quadrupole=-2.1062302,2.2550675,-0.1488373,2.1906552,0
 .,0.\PG=CS [SG(C1H2F1N1O1)]\\@

 Normal termination of Gaussian 16 at Tue Apr  8 23:21:55 2025.
