 Gaussian 16, Revision C.01,

 ----------------------------------------------------------------------
 #t hf aug-cc-pvdz symm=none int=(grid=ultrafine) guess=(read,tcheck) s
 table=(opt,rrhf)
 ----------------------------------------------------------------------
 -----
 title
 -----
 Symbolic Z-matrix:
 Charge =  0 Multiplicity = 1

 SCF Done:  E(RHF) =  -1084.44653822     A.U. after   13 cycles

 1\1\GINC-SE165\Stability\RHF\Aug-CC-pVDZ\F4S1Si1\OHZDE\09-Apr-2025\0\\
 #t hf aug-cc-pvdz symm=none int=(grid=ultrafine) guess=(read,tcheck) s
 table=(opt,rrhf)\\title\\0,1\F,0,-2.107364,-0.748005,0.000078\S,0,-1.3
 42601,0.745778,-0.000004\Si,0,0.641547,-0.020933,-0.000013\F,0,0.96708
 1,-0.904351,1.264856\F,0,0.967026,-0.904463,-1.264817\F,0,1.562143,1.2
 63552,-0.00009\\Version=ES64L-G16RevC.01\HF=-1084.4465382\RMSD=3.481e-
 09\Dipole=-0.0173095,0.5259547,-0.0000238\Quadrupole=-0.3507956,0.6278
 793,-0.2770838,-1.5006209,0.000065,-0.000005\PG=Unknown\\@

 Normal termination of Gaussian 16 at Wed Apr  9 00:21:10 2025.
 Gaussian 16:  ES64L-G16RevC.01  3-Jul-2019

 ----------------------------------------------------------------------
 #t hf aug-cc-pvdz iop(5/13=1,5/36=2,99/5=2) pseudo=read geom=check gue
 ss=(read,tcheck) scf=(maxcycle=1)
 ----------------------------------------------------------------------
 -----
 title
 -----
 Structure from the checkpoint file:  "BDE49_nonexpt_2624_mol1.chk"
 Charge =  0 Multiplicity = 1

                         Standard orientation:
 ---------------------------------------------------------------------
 Center     Atomic      Atomic             Coordinates (Angstroms)
 Number     Number       Type             X           Y           Z
 ---------------------------------------------------------------------
      1          9           0       -2.107364   -0.748005    0.000078
      2         16           0       -1.342601    0.745778   -0.000004
      3         14           0        0.641547   -0.020933   -0.000013
      4          9           0        0.967081   -0.904351    1.264856
      5          9           0        0.967026   -0.904463   -1.264817
      6          9           0        1.562143    1.263552   -0.000090
 ---------------------------------------------------------------------

 SCF Done:  E(RHF) =  -1086.16608329     A.U. after    2 cycles

 The electronic state is 1-A.
 Alpha  occ. eigenvalues --  -76.36332 -75.79148 -29.32865 -29.32257 -29.32256
 Alpha  occ. eigenvalues --  -29.30608 -13.22735 -13.16642 -13.12023  -8.13207
 Alpha  occ. eigenvalues --   -5.73266  -2.37568  -2.36956  -2.33487  -1.23988
 Alpha  occ. eigenvalues --   -1.02158  -0.76042  -0.74684  -0.69341  -0.56195
 Alpha  occ. eigenvalues --   -0.46630  -0.45590  -0.45183  -0.44967  -0.42104
 Alpha  occ. eigenvalues --   -0.39101  -0.37482  -0.35283  -0.33374  -0.32826
 Alpha  occ. eigenvalues --   -0.31343  -0.25664  -0.22290
 Alpha virt. eigenvalues --    0.05228   0.07145   0.07522   0.08787   0.11358
 Alpha virt. eigenvalues --    0.13050   0.13833   0.16882   0.19993   0.21642
 Alpha virt. eigenvalues --    0.22467   0.23609   0.24225   0.24700   0.25684

 Mulliken charges:
               1
     1  F   -0.277582
     2  S   -1.082706
     3  Si   3.747362
     4  F   -0.789031
     5  F   -0.789031
     6  F   -0.809013
 Sum of Mulliken charges =  -0.00000

 Dipole moment (field-independent basis, Debye):
    X=              0.3560    Y=             -2.4565    Z=              0.0001  Tot=              2.4822

 Test job not archived.
 1\1\GINC-SE165\SP\RHF\Aug-CC-pVDZ\F4S1Si1\OHZDE\09-Apr-2025\0\\#t hf a
 ug-cc-pvdz iop(5/13=1,5/36=2,99/5=2) pseudo=read geom=check guess=(rea
 d,tcheck) scf=(maxcycle=1)\\title\\0,1\F,0,-2.107364,-0.748005,0.00007
 8\S,0,-1.342601,0.745778,-0.000004\Si,0,0.641547,-0.020933,-0.000013\F
 ,0,0.967081,-0.904351,1.264856\F,0,0.967026,-0.904463,-1.264817\F,0,1.
 562143,1.263552,-0.00009\\Version=ES64L-G16RevC.01\State=1-A\HF=-1086.
 1660833\RMSD=5.447e-02\Dipole=0.1400625,-0.9664657,0.0000388\Quadrupol
 e=3.1001347,-0.8935897,-2.206545,2.1479211,-0.0002096,-0.0001028\PG=C0

 Normal termination of Gaussian 16 at Wed Apr  9 00:21:13 2025.
