 Gaussian 16, Revision C.01,

 ----------------------------------------------------------------------
 #t hf aug-cc-pvdz symm=none int=(grid=ultrafine) guess=(read,tcheck) s
 table=(opt,rrhf)
 ----------------------------------------------------------------------
 -----
 title
 -----
 Symbolic Z-matrix:
 Charge =  0 Multiplicity = 1

 SCF Done:  E(RHF) =  -262.725972574     A.U. after   13 cycles
 Normal termination of Gaussian 16 at Tue Apr  8 23:04:45 2025.
 Gaussian 16:  ES64L-G16RevC.01  3-Jul-2019

 ----------------------------------------------------------------------
 #t hf aug-cc-pvdz iop(5/13=1,5/36=2,99/5=2) pseudo=read geom=check gue
 ss=(read,tcheck) scf=(maxcycle=1)
 ----------------------------------------------------------------------
 -----
 title
 -----
 Structure from the checkpoint file:  "BDE49_expt_343_mol1.chk"
 Charge =  0 Multiplicity = 1

                         Standard orientation:
 ---------------------------------------------------------------------
 Center     Atomic      Atomic             Coordinates (Angstroms)
 Number     Number       Type             X           Y           Z
 ---------------------------------------------------------------------
      1          7           0        0.714395    1.195891   -0.000004
      2          6           0       -0.621370    1.183032    0.000003
      3          6           0       -1.353082    0.000003    0.000006
      4          7           0        0.714391   -1.195893   -0.000003
      5          6           0        1.307860   -0.000003   -0.000006
      6          6           0       -0.621374   -1.183030    0.000003
      7          1           0       -1.115813   -2.150716    0.000006
      8          1           0       -1.115804    2.150720    0.000004
      9          1           0       -2.436058    0.000005    0.000011
     10          1           0        2.393972   -0.000005   -0.000012
 ---------------------------------------------------------------------

 SCF Done:  E(RHF) =  -263.929343826     A.U. after    2 cycles

 The electronic state is 1-A.
 Alpha  occ. eigenvalues --  -15.74800 -15.74764 -11.47978 -11.46145 -11.43696
 Alpha  occ. eigenvalues --  -11.39858  -1.51323  -1.30478  -1.16569  -0.92266
 Alpha  occ. eigenvalues --   -0.92224  -0.75414  -0.64618  -0.63810  -0.57765
 Alpha  occ. eigenvalues --   -0.57283  -0.56878  -0.42492  -0.40426  -0.36817
 Alpha  occ. eigenvalues --   -0.35021
 Alpha virt. eigenvalues --    0.03083   0.05269   0.05333   0.06073   0.09359
 Alpha virt. eigenvalues --    0.10441   0.10584   0.10955   0.11087   0.12508
 Alpha virt. eigenvalues --    0.12981   0.14109   0.14517   0.14655   0.15537

 Mulliken charges:
               1
     1  N   -3.148772
     2  C   -0.127829
     3  C   -0.498554
     4  N   -3.148772
     5  C    0.956515
     6  C   -0.127828
     7  H    1.531053
     8  H    1.531053
     9  H    1.412885
    10  H    1.620247
 Sum of Mulliken charges =  -0.00000

 Dipole moment (field-independent basis, Debye):
    X=             -1.9768    Y=              0.0000    Z=              0.0000  Tot=              1.9768

 Test job not archived.
 1\1\GINC-SE329\SP\RHF\Aug-CC-pVDZ\C4H4N2\OHZDE\08-Apr-2025\0\\#t hf au
 g-cc-pvdz iop(5/13=1,5/36=2,99/5=2) pseudo=read geom=check guess=(read
 ,tcheck) scf=(maxcycle=1)\\title\\0,1\N,0,0.714393,1.195892,-0.000004\
 C,0,-0.621372,1.183031,0.000003\C,0,-1.353082,0.,0.000006\N,0,0.714393
 ,-1.195892,-0.000003\C,0,1.30786,0.,-0.000006\C,0,-0.621372,-1.183031,
 0.000003\H,0,-1.115809,-2.150718,0.000006\H,0,-1.115808,2.150718,0.000
 004\H,0,-2.436058,0.,0.000011\H,0,2.393972,0.,-0.000012\\Version=ES64L
 -G16RevC.01\State=1-A\HF=-263.9293438\RMSD=7.913e-01\Dipole=-0.7777252

 Normal termination of Gaussian 16 at Tue Apr  8 23:04:48 2025.
