 Gaussian 16, Revision C.01,

 ----------------------------------------------------------------------
 #t hf aug-cc-pvdz symm=none int=(grid=ultrafine) guess=(read,tcheck) s
 table=(opt,rrhf)
 ----------------------------------------------------------------------
 -----
 title
 -----
 Symbolic Z-matrix:
 Charge =  0 Multiplicity = 1

 SCF Done:  E(RHF) =  -1264.00575941     A.U. after   11 cycles

 1\1\GINC-SE404\Stability\RHF\Aug-CC-pVDZ\H8P2Si2\OHZDE\09-Apr-2025\0\\
 #t hf aug-cc-pvdz symm=none int=(grid=ultrafine) guess=(read,tcheck) s
 table=(opt,rrhf)\\title\\0,1\Si,0,-0.971172,-0.670134,0.913699\Si,0,0.
 971172,0.670134,0.913699\P,0,0.971172,2.079821,-0.887826\H,0,2.176252,
 -0.194861,0.965832\H,0,0.963186,1.528703,2.124773\H,0,1.263231,1.05765
 9,-1.829255\H,0,2.332886,2.452382,-0.735748\P,0,-0.971172,-2.079821,-0
 .887826\H,0,-2.176252,0.194861,0.965832\H,0,-0.963186,-1.528703,2.1247
 73\H,0,-1.263231,-1.057659,-1.829255\H,0,-2.332886,-2.452382,-0.735748

 Normal termination of Gaussian 16 at Wed Apr  9 00:13:39 2025.
 Gaussian 16:  ES64L-G16RevC.01  3-Jul-2019

 ----------------------------------------------------------------------
 #t hf aug-cc-pvdz iop(5/13=1,5/36=2,99/5=2) pseudo=read geom=check gue
 ss=(read,tcheck) scf=(maxcycle=1)
 ----------------------------------------------------------------------
 -----
 title
 -----
 Structure from the checkpoint file:  "BDE49_nonexpt_2444_mol1.chk"
 Charge =  0 Multiplicity = 1

                         Standard orientation:
 ---------------------------------------------------------------------
 Center     Atomic      Atomic             Coordinates (Angstroms)
 Number     Number       Type             X           Y           Z
 ---------------------------------------------------------------------
      1         14           0       -0.971172   -0.670134    0.913699
      2         14           0        0.971172    0.670134    0.913699
      3         15           0        0.971172    2.079821   -0.887826
      4          1           0        2.176252   -0.194861    0.965832
      5          1           0        0.963186    1.528703    2.124773
      6          1           0        1.263231    1.057659   -1.829255
      7          1           0        2.332886    2.452382   -0.735748
      8         15           0       -0.971172   -2.079821   -0.887826
      9          1           0       -2.176252    0.194861    0.965832
     10          1           0       -0.963186   -1.528703    2.124773
     11          1           0       -1.263231   -1.057659   -1.829255
     12          1           0       -2.332886   -2.452382   -0.735748
 ---------------------------------------------------------------------

 SCF Done:  E(RHF) =  -1264.72468300     A.U. after    2 cycles

 The electronic state is 1-A.
 Alpha  occ. eigenvalues -- -105.17954-105.17901 -76.23012 -76.22976  -5.56465
 Alpha  occ. eigenvalues --   -5.56454  -2.74741  -2.74718  -2.18366  -2.18301
 Alpha  occ. eigenvalues --   -2.18164  -2.18027  -2.18007  -2.16910  -1.44334
 Alpha  occ. eigenvalues --   -1.44062  -1.43799  -1.43651  -1.41808  -1.41792
 Alpha  occ. eigenvalues --   -0.82371  -0.76231  -0.68952  -0.64521  -0.48968
 Alpha  occ. eigenvalues --   -0.47698  -0.38858  -0.26761  -0.25730  -0.17581
 Alpha  occ. eigenvalues --   -0.15390  -0.05048  -0.04396
 Alpha virt. eigenvalues --    0.04708   0.05311   0.05592   0.06297   0.07569
 Alpha virt. eigenvalues --    0.07941   0.08191   0.08982   0.09063   0.09536
 Alpha virt. eigenvalues --    0.09852   0.10343   0.10389   0.10842   0.11386

 Mulliken charges:
               1
     1  Si   3.468835
     2  Si   3.468835
     3  P    1.239550
     4  H   -1.644357
     5  H   -1.701307
     6  H   -0.655444
     7  H   -0.707276
     8  P    1.239550
     9  H   -1.644357
    10  H   -1.701307
    11  H   -0.655444
    12  H   -0.707276
 Sum of Mulliken charges =   0.00000

 Dipole moment (field-independent basis, Debye):
    X=              0.0000    Y=              0.0000    Z=             -6.9073  Tot=              6.9073

 Test job not archived.
 1\1\GINC-SE404\SP\RHF\Aug-CC-pVDZ\H8P2Si2\OHZDE\09-Apr-2025\0\\#t hf a
 ug-cc-pvdz iop(5/13=1,5/36=2,99/5=2) pseudo=read geom=check guess=(rea
 d,tcheck) scf=(maxcycle=1)\\title\\0,1\Si,0,-0.971172,-0.670134,0.9136
 99\Si,0,0.971172,0.670134,0.913699\P,0,0.971172,2.079821,-0.887826\H,0
 ,2.176252,-0.194861,0.965832\H,0,0.963186,1.528703,2.124773\H,0,1.2632
 31,1.057659,-1.829255\H,0,2.332886,2.452382,-0.735748\P,0,-0.971172,-2
 .079821,-0.887826\H,0,-2.176252,0.194861,0.965832\H,0,-0.963186,-1.528
 703,2.124773\H,0,-1.263231,-1.057659,-1.829255\H,0,-2.332886,-2.452382

 Normal termination of Gaussian 16 at Wed Apr  9 00:13:42 2025.
