 Gaussian 16, Revision C.01,

 ----------------------------------------------------------------------
 #t hf aug-cc-pvdz symm=none int=(grid=ultrafine) guess=(read,tcheck) s
 table=(opt,rrhf)
 ----------------------------------------------------------------------
 -----
 title
 -----
 Symbolic Z-matrix:
 Charge =  0 Multiplicity = 1

 SCF Done:  E(RHF) =  -698.269649555     A.U. after   17 cycles
 Normal termination of Gaussian 16 at Wed Apr  9 00:01:31 2025.
 Gaussian 16:  ES64L-G16RevC.01  3-Jul-2019

 ----------------------------------------------------------------------
 #t hf aug-cc-pvdz iop(5/13=1,5/36=2,99/5=2) pseudo=read geom=check gue
 ss=(read,tcheck) scf=(maxcycle=1)
 ----------------------------------------------------------------------
 -----
 title
 -----
 Structure from the checkpoint file:  "BDE49_nonexpt_2133_mol1.chk"
 Charge =  0 Multiplicity = 1

                         Standard orientation:
 ---------------------------------------------------------------------
 Center     Atomic      Atomic             Coordinates (Angstroms)
 Number     Number       Type             X           Y           Z
 ---------------------------------------------------------------------
      1         14           0       -0.063088   -0.947526    0.146003
      2          7           0       -1.444266    0.260602   -0.088663
      3          7           0        1.498236    0.044136    0.032368
      4          8           0       -1.301025    1.431546   -0.380885
      5          8           0       -2.517643   -0.326435    0.070146
      6          8           0        2.230372   -0.098050   -0.938691
      7          8           0        1.690670    0.804856    0.975746
      8          1           0       -0.147844   -1.892426   -0.967987
      9          1           0       -0.165696   -1.470719    1.507481
 ---------------------------------------------------------------------

 SCF Done:  E(RHF) =  -700.106161954     A.U. after    2 cycles

 The electronic state is 1-A.
 Alpha  occ. eigenvalues --  -76.35828 -21.13773 -21.13070 -21.12785 -21.12731
 Alpha  occ. eigenvalues --  -16.00388 -16.00027  -5.69380  -2.34079  -2.32629
 Alpha  occ. eigenvalues --   -2.31571  -2.01171  -2.00520  -1.72204  -1.71670
 Alpha  occ. eigenvalues --   -1.08507  -0.99347  -0.79892  -0.72791  -0.69629
 Alpha  occ. eigenvalues --   -0.69502  -0.65546  -0.63524  -0.63130  -0.56352
 Alpha  occ. eigenvalues --   -0.37928  -0.36141  -0.35688  -0.34314  -0.33519
 Alpha  occ. eigenvalues --   -0.33249
 Alpha virt. eigenvalues --    0.03104   0.04685   0.05426   0.05644   0.07679
 Alpha virt. eigenvalues --    0.08307   0.09247   0.11151   0.12268   0.14161
 Alpha virt. eigenvalues --    0.14981   0.15637   0.16801   0.17153   0.18330

 Mulliken charges:
               1
     1  Si   5.297436
     2  N    3.467693
     3  N    3.599368
     4  O   -2.253440
     5  O   -2.264060
     6  O   -2.263940
     7  O   -2.287284
     8  H   -1.657262
     9  H   -1.638510
 Sum of Mulliken charges =  -0.00000

 Dipole moment (field-independent basis, Debye):
    X=             -0.1179    Y=             -1.9258    Z=              0.3457  Tot=              1.9602

 Test job not archived.
 1\1\GINC-SE343\SP\RHF\Aug-CC-pVDZ\H2N2O4Si1\OHZDE\09-Apr-2025\0\\#t hf
  aug-cc-pvdz iop(5/13=1,5/36=2,99/5=2) pseudo=read geom=check guess=(r
 ead,tcheck) scf=(maxcycle=1)\\title\\0,1\Si,0,-0.063088,-0.947526,0.14
 6003\N,0,-1.444266,0.260602,-0.088663\N,0,1.498236,0.044136,0.032368\O
 ,0,-1.301025,1.431546,-0.380885\O,0,-2.517643,-0.326435,0.070146\O,0,2
 .230372,-0.09805,-0.938691\O,0,1.69067,0.804856,0.975746\H,0,-0.147844
 ,-1.892426,-0.967987\H,0,-0.165696,-1.470719,1.507481\\Version=ES64L-G
 16RevC.01\State=1-A\HF=-700.106162\RMSD=8.281e-02\Dipole=-0.046372,-0.

 Normal termination of Gaussian 16 at Wed Apr  9 00:01:34 2025.
