 Gaussian 16, Revision C.01,

 ----------------------------------------------------------------------
 #t hf aug-cc-pvdz symm=none int=(grid=ultrafine) guess=(read,tcheck) s
 table=(opt,rrhf)
 ----------------------------------------------------------------------
 -----
 title
 -----
 Symbolic Z-matrix:
 Charge =  0 Multiplicity = 1

 SCF Done:  E(RHF) =  -951.210196654     A.U. after   14 cycles
 Normal termination of Gaussian 16 at Tue Apr  8 23:06:10 2025.
 Gaussian 16:  ES64L-G16RevC.01  3-Jul-2019

 ----------------------------------------------------------------------
 #t hf aug-cc-pvdz iop(5/13=1,5/36=2,99/5=2) pseudo=read geom=check gue
 ss=(read,tcheck) scf=(maxcycle=1)
 ----------------------------------------------------------------------
 -----
 title
 -----
 Structure from the checkpoint file:  "BDE49_expt_378_mol1.chk"
 Charge =  0 Multiplicity = 1

                         Standard orientation:
 ---------------------------------------------------------------------
 Center     Atomic      Atomic             Coordinates (Angstroms)
 Number     Number       Type             X           Y           Z
 ---------------------------------------------------------------------
      1         16           0       -0.123349   -1.509447   -0.156367
      2          6           0       -1.690007   -0.578474    0.035410
      3          6           0       -1.359893    0.777594    0.641302
      4          1           0       -2.330378   -1.169239    0.695535
      5          1           0       -2.178542   -0.465847   -0.933134
      6         16           0        0.011555    1.487833   -0.336109
      7          1           0       -1.074225    0.685871    1.690545
      8          1           0       -2.198848    1.472898    0.561095
      9          6           0        1.007264   -0.060350   -0.422578
     10          6           0        2.173585   -0.096456    0.561830
     11          1           0        1.374423   -0.110530   -1.448171
     12          1           0        1.821655    0.007595    1.589459
     13          1           0        2.874137    0.715428    0.348565
     14          1           0        2.714789   -1.044230    0.479923
 ---------------------------------------------------------------------

 SCF Done:  E(RHF) =  -952.469511454     A.U. after    2 cycles

 The electronic state is 1-A.
 Alpha  occ. eigenvalues --  -75.67976 -75.67702 -13.13297 -13.11971 -13.10813
 Alpha  occ. eigenvalues --  -13.08580 -13.04336 -13.01645 -11.44579 -11.43828
 Alpha  occ. eigenvalues --  -11.39537 -11.37505  -8.02111  -8.01649  -1.33425
 Alpha  occ. eigenvalues --   -1.15019  -1.10125  -0.99691  -0.85344  -0.81952
 Alpha  occ. eigenvalues --   -0.65793  -0.63368  -0.60652  -0.57755  -0.53947
 Alpha  occ. eigenvalues --   -0.52887  -0.44183  -0.41728  -0.41529  -0.32212
 Alpha  occ. eigenvalues --   -0.23059  -0.22774
 Alpha virt. eigenvalues --    0.03298   0.03731   0.04727   0.05590   0.06591
 Alpha virt. eigenvalues --    0.06630   0.07200   0.08249   0.08718   0.09789
 Alpha virt. eigenvalues --    0.11482   0.12700   0.13860   0.14069   0.14691

 Mulliken charges:
               1
     1  S    0.975568
     2  C   -3.443233
     3  C   -3.655333
     4  H    1.407310
     5  H    1.550900
     6  S    0.979107
     7  H    1.443145
     8  H    1.377315
     9  C   -2.612816
    10  C   -3.661828
    11  H    1.786471
    12  H    1.395582
    13  H    1.224864
    14  H    1.232949
 Sum of Mulliken charges =   0.00000

 Dipole moment (field-independent basis, Debye):
    X=             -0.3016    Y=              0.1625    Z=             -0.2363  Tot=              0.4162

 Test job not archived.
 1\1\GINC-SE219\SP\RHF\Aug-CC-pVDZ\C4H8S2\OHZDE\08-Apr-2025\0\\#t hf au
 g-cc-pvdz iop(5/13=1,5/36=2,99/5=2) pseudo=read geom=check guess=(read
 ,tcheck) scf=(maxcycle=1)\\title\\0,1\S,0,-0.123351,-1.509447,-0.15636
 7\C,0,-1.690008,-0.578472,0.03541\C,0,-1.359892,0.777596,0.641302\H,0,
 -2.330379,-1.169236,0.695535\H,0,-2.178542,-0.465844,-0.933134\S,0,0.0
 11557,1.487833,-0.336109\H,0,-1.074224,0.685872,1.690545\H,0,-2.198846
 ,1.472901,0.561095\C,0,1.007264,-0.060351,-0.422578\C,0,2.173585,-0.09
 6458,0.56183\H,0,1.374423,-0.110531,-1.448171\H,0,1.821655,0.007593,1.

 Normal termination of Gaussian 16 at Tue Apr  8 23:06:15 2025.
