 Gaussian 16, Revision C.01,

 ----------------------------------------------------------------------
 #t hf aug-cc-pvdz symm=none int=(grid=ultrafine) guess=(read,tcheck) s
 table=(opt,rrhf)
 ----------------------------------------------------------------------
 -----
 title
 -----
 Symbolic Z-matrix:
 Charge =  0 Multiplicity = 1

 SCF Done:  E(RHF) =  -1283.99325188     A.U. after   14 cycles
 Normal termination of Gaussian 16 at Tue Apr  8 23:17:50 2025.
 Gaussian 16:  ES64L-G16RevC.01  3-Jul-2019

 ----------------------------------------------------------------------
 #t hf aug-cc-pvdz iop(5/13=1,5/36=2,99/5=2) pseudo=read geom=check gue
 ss=(read,tcheck) scf=(maxcycle=1)
 ----------------------------------------------------------------------
 -----
 title
 -----
 Structure from the checkpoint file:  "BDE49_nonexpt_1026_mol1.chk"
 Charge =  0 Multiplicity = 1

                         Standard orientation:
 ---------------------------------------------------------------------
 Center     Atomic      Atomic             Coordinates (Angstroms)
 Number     Number       Type             X           Y           Z
 ---------------------------------------------------------------------
      1         17           0        1.942223   -0.526771    0.107138
      2          8           0        0.908707    0.682260   -0.561947
      3         14           0       -0.564311    0.899645    0.196525
      4         17           0       -1.816969   -0.719968   -0.070010
      5          1           0       -0.394248    1.085927    1.643395
      6          1           0       -1.104376    2.055526   -0.530350
 ---------------------------------------------------------------------

 SCF Done:  E(RHF) =  -1284.94248403     A.U. after    2 cycles

 The electronic state is 1-A.
 Alpha  occ. eigenvalues --  -99.95757 -99.89714 -76.30063 -21.12152 -10.52441
 Alpha  occ. eigenvalues --  -10.47185  -9.72291  -9.71519  -9.71367  -9.67038
 Alpha  occ. eigenvalues --   -9.66378  -9.66345  -5.63740  -2.29423  -2.25429
 Alpha  occ. eigenvalues --   -2.25158  -1.75544  -1.30386  -1.25143  -0.79323
 Alpha  occ. eigenvalues --   -0.62838  -0.61917  -0.61699  -0.56572  -0.55939
 Alpha  occ. eigenvalues --   -0.53560  -0.49440  -0.42862  -0.40948
 Alpha virt. eigenvalues --    0.01598   0.04593   0.05551   0.05725   0.06537
 Alpha virt. eigenvalues --    0.09769   0.10323   0.12221   0.13044   0.13605
 Alpha virt. eigenvalues --    0.14762   0.15174   0.15446   0.15921   0.17320

 Mulliken charges:
               1
     1  Cl   0.534342
     2  O   -1.847949
     3  Si   5.592980
     4  Cl  -0.843509
     5  H   -1.735099
     6  H   -1.700765
 Sum of Mulliken charges =   0.00000

 Dipole moment (field-independent basis, Debye):
    X=             -0.4469    Y=              2.1551    Z=             -0.2842  Tot=              2.2192

 Test job not archived.
 1\1\GINC-SE043\SP\RHF\Aug-CC-pVDZ\Cl2H2O1Si1\OHZDE\08-Apr-2025\0\\#t h
 f aug-cc-pvdz iop(5/13=1,5/36=2,99/5=2) pseudo=read geom=check guess=(
 read,tcheck) scf=(maxcycle=1)\\title\\0,1\Cl,0,1.942223,-0.526771,0.10
 7138\O,0,0.908707,0.68226,-0.561947\Si,0,-0.564311,0.899645,0.196525\C
 l,0,-1.816969,-0.719968,-0.07001\H,0,-0.394248,1.085927,1.643395\H,0,-
 1.104376,2.055526,-0.53035\\Version=ES64L-G16RevC.01\State=1-A\HF=-128
 4.942484\RMSD=6.567e-02\Dipole=-0.1758099,0.8478716,-0.1118166\Quadrup
 ole=-1.6033885,2.062558,-0.4591696,-0.8990642,-0.0270132,-0.2420782\PG

 Normal termination of Gaussian 16 at Tue Apr  8 23:17:53 2025.
