 Gaussian 16, Revision C.01,

 ----------------------------------------------------------------------
 #t hf aug-cc-pvdz symm=none int=(grid=ultrafine) guess=(read,tcheck) s
 table=(opt,rrhf)
 ----------------------------------------------------------------------
 -----
 title
 -----
 Symbolic Z-matrix:
 Charge =  0 Multiplicity = 1

 SCF Done:  E(RHF) =  -1814.28541051     A.U. after   13 cycles
 Normal termination of Gaussian 16 at Tue Apr  8 23:41:47 2025.
 Gaussian 16:  ES64L-G16RevC.01  3-Jul-2019

 ----------------------------------------------------------------------
 #t hf aug-cc-pvdz iop(5/13=1,5/36=2,99/5=2) pseudo=read geom=check gue
 ss=(read,tcheck) scf=(maxcycle=1)
 ----------------------------------------------------------------------
 -----
 title
 -----
 Structure from the checkpoint file:  "BDE49_nonexpt_1641_mol1.chk"
 Charge =  0 Multiplicity = 1

                         Standard orientation:
 ---------------------------------------------------------------------
 Center     Atomic      Atomic             Coordinates (Angstroms)
 Number     Number       Type             X           Y           Z
 ---------------------------------------------------------------------
      1         14           0       -0.767048    0.012717    0.323167
      2         15           0        1.490156   -0.061978    0.051715
      3          8           0        2.131748   -1.089197    0.889163
      4          8           0        1.883278    1.469901    0.307948
      5          6           0       -1.233841    0.039585    2.115525
      6          1           0       -0.773881   -0.808649    2.628095
      7          1           0       -2.319054   -0.019733    2.226347
      8          1           0       -0.881572    0.964803    2.578495
      9         17           0       -1.577303    1.633400   -0.672921
     10         17           0       -1.460529   -1.722968   -0.580159
     11          8           0        1.811800   -0.207955   -1.525090
     12          1           0        1.959270   -1.130026   -1.772148
     13          1           0        2.833143    1.648394    0.272192
 ---------------------------------------------------------------------

 SCF Done:  E(RHF) =  -1816.26053156     A.U. after    2 cycles

 The electronic state is 1-A.
 Alpha  occ. eigenvalues -- -105.31040 -99.90373 -99.90364 -76.31505 -21.12786
 Alpha  occ. eigenvalues --  -21.12357 -21.03156 -11.38253 -10.47808 -10.47739
 Alpha  occ. eigenvalues --   -9.67697  -9.67667  -9.67177  -9.67152  -9.67114
 Alpha  occ. eigenvalues --   -9.66968  -5.65365  -2.93042  -2.28123  -2.27376
 Alpha  occ. eigenvalues --   -2.26459  -1.98196  -1.90047  -1.79546  -1.51458
 Alpha  occ. eigenvalues --   -1.40818  -1.32187  -1.29575  -1.26415  -1.07048
 Alpha  occ. eigenvalues --   -0.77005  -0.69848  -0.62278  -0.61431  -0.59842
 Alpha  occ. eigenvalues --   -0.58321  -0.57733  -0.56524  -0.54905  -0.53322
 Alpha  occ. eigenvalues --   -0.52198  -0.47669  -0.45668  -0.42383  -0.35330
 Alpha  occ. eigenvalues --   -0.35064  -0.30306  -0.23758  -0.16089
 Alpha virt. eigenvalues --    0.03308   0.04781   0.05645   0.06194   0.06469
 Alpha virt. eigenvalues --    0.07442   0.07760   0.08744   0.09441   0.10735
 Alpha virt. eigenvalues --    0.11010   0.11401   0.12459   0.12859   0.13871

 Mulliken charges:
               1
     1  Si   2.395219
     2  P    7.305866
     3  O   -2.930821
     4  O   -2.859578
     5  C   -4.848643
     6  H    1.346505
     7  H    1.188983
     8  H    1.381740
     9  Cl  -0.936528
    10  Cl  -0.887347
    11  O   -2.827795
    12  H    0.783205
    13  H    0.889197
 Sum of Mulliken charges =  -0.00000

 Dipole moment (field-independent basis, Debye):
    X=              2.2232    Y=              1.8604    Z=              0.0952  Tot=              2.9005

 Test job not archived.
 1\1\GINC-SE398\SP\RHF\Aug-CC-pVDZ\C1H5Cl2O3P1Si1\OHZDE\08-Apr-2025\0\\
 #t hf aug-cc-pvdz iop(5/13=1,5/36=2,99/5=2) pseudo=read geom=check gue
 ss=(read,tcheck) scf=(maxcycle=1)\\title\\0,1\Si,0,-0.767048,0.012717,
 0.323167\P,0,1.490156,-0.061978,0.051715\O,0,2.131748,-1.089197,0.8891
 63\O,0,1.883278,1.469901,0.307948\C,0,-1.233841,0.039585,2.115525\H,0,
 -0.773881,-0.808649,2.628095\H,0,-2.319054,-0.019733,2.226347\H,0,-0.8
 81572,0.964803,2.578495\Cl,0,-1.577303,1.6334,-0.672921\Cl,0,-1.460529
 ,-1.722968,-0.580159\O,0,1.8118,-0.207955,-1.52509\H,0,1.95927,-1.1300

 Normal termination of Gaussian 16 at Tue Apr  8 23:41:53 2025.
