 Gaussian 16, Revision C.01,

 ----------------------------------------------------------------------
 #t hf aug-cc-pvdz symm=none int=(grid=ultrafine) guess=(read,tcheck) s
 table=opt
 ----------------------------------------------------------------------
 -----
 title
 -----
 Symbolic Z-matrix:
 Charge =  0 Multiplicity = 2

 SCF Done:  E(UHF) =  -632.699543558     A.U. after   20 cycles
 Normal termination of Gaussian 16 at Wed Apr  9 00:10:36 2025.
 Gaussian 16:  ES64L-G16RevC.01  3-Jul-2019

 ----------------------------------------------------------------------
 #t hf aug-cc-pvdz iop(5/13=1,5/36=2,99/5=2) pseudo=read geom=check gue
 ss=(read,tcheck) scf=(maxcycle=1)
 ----------------------------------------------------------------------
 -----
 title
 -----
 Structure from the checkpoint file:  "BDE49_nonexpt_234_mol2.chk"
 Charge =  0 Multiplicity = 2

                         Standard orientation:
 ---------------------------------------------------------------------
 Center     Atomic      Atomic             Coordinates (Angstroms)
 Number     Number       Type             X           Y           Z
 ---------------------------------------------------------------------
      1         17           0       -2.316876    0.125426   -0.000100
      2          5           0       -0.634514   -0.129409    0.000525
      3          7           0        0.605362   -0.314123   -0.000012
      4          7           0        1.848094   -0.660925   -0.000189
      5          6           0        2.744034    0.495145    0.000039
      6          1           0        3.770881    0.131749    0.000176
      7          1           0        2.574941    1.118731    0.887316
      8          1           0        2.575248    1.118802   -0.887247
 ---------------------------------------------------------------------

 SCF Done:  E(UHF) =  -633.712923313     A.U. after    2 cycles

 The electronic state is 2-A.
 Alpha  occ. eigenvalues --  -99.93489 -15.78555 -15.70986 -11.38713 -10.50697
 Alpha  occ. eigenvalues --   -9.70719  -9.70067  -9.70038  -7.72362  -1.51741
 Alpha  occ. eigenvalues --   -1.38219  -1.16318  -0.95722  -0.75122  -0.67471
 Alpha  occ. eigenvalues --   -0.65953  -0.63245  -0.60132  -0.58285  -0.50089
 Alpha  occ. eigenvalues --   -0.49526  -0.34553  -0.31510
 Alpha virt. eigenvalues --    0.03437   0.03702   0.04129   0.04471   0.06948
 Alpha virt. eigenvalues --    0.07816   0.09096   0.10855   0.12048   0.14535
 Alpha virt. eigenvalues --    0.15416   0.15631   0.16062   0.16619   0.17320

  Beta  occ. eigenvalues --  -99.93477 -15.75595 -15.71887 -11.39002 -10.50685
  Beta  occ. eigenvalues --   -9.70813  -9.70013  -9.69935  -7.71771  -1.48105
  Beta  occ. eigenvalues --   -1.38076  -1.14468  -0.93226  -0.74604  -0.65565
  Beta  occ. eigenvalues --   -0.63199  -0.61751  -0.57987  -0.57712  -0.48968
  Beta  occ. eigenvalues --   -0.46758  -0.33314
  Beta virt. eigenvalues --    0.03486   0.03748   0.04108   0.04496   0.06955
  Beta virt. eigenvalues --    0.07398   0.08500   0.09165   0.11041   0.12228
  Beta virt. eigenvalues --    0.14639   0.15554   0.15865   0.16237   0.16707

 Mulliken charges and spin densities:
               1          2
     1  Cl  -1.086226   0.034981
     2  B    1.374925   0.333794
     3  N   -2.068984  -0.340130
     4  N    0.696196   1.062308
     5  C   -2.955105  -0.162240
     6  H    1.324187   0.005233
     7  H    1.357509   0.033012
     8  H    1.357498   0.033042
 Sum of Mulliken charges =   0.00000   1.00000

 Dipole moment (field-independent basis, Debye):
    X=              0.0320    Y=              1.1118    Z=              0.0006  Tot=              1.1123
                          Isotropic Fermi Contact Couplings
        Atom                 a.u.       MegaHertz       Gauss      10(-4) cm-1
     1  Cl(35)             0.01354       5.93794       2.11880       1.98068
     2  B(11)              0.03473      49.81724      17.77603      16.61724
     3  N(14)             -0.12240     -39.54841     -14.11185     -13.19193
     4  N(14)              0.21903      70.77042      25.25265      23.60647
     5  C(13)             -0.03155     -35.46747     -12.65568     -11.83067
     6  H(1)               0.00062       2.78020       0.99204       0.92737
     7  H(1)               0.01330      59.44293      21.21072      19.82803
     8  H(1)               0.01331      59.48862      21.22702      19.84327

 1\1\GINC-SE340\SP\UHF\Aug-CC-pVDZ\C1H3B1Cl1N2(2)\OHZDE\09-Apr-2025\0\\
 #t hf aug-cc-pvdz iop(5/13=1,5/36=2,99/5=2) pseudo=read geom=check gue
 ss=(read,tcheck) scf=(maxcycle=1)\\title\\0,2\Cl,0,-2.316876,0.125426,
 -0.0001\B,0,-0.634514,-0.129409,0.000525\N,0,0.605362,-0.314123,-0.000
 012\N,0,1.848094,-0.660925,-0.000189\C,0,2.744034,0.495145,0.000039\H,
 0,3.770881,0.131749,0.000176\H,0,2.574941,1.118731,0.887316\H,0,2.5752
 48,1.118802,-0.887247\\Version=ES64L-G16RevC.01\State=2-A\HF=-633.7129
 233\S2=0.79479\S2-1=0.\S2A=0.751117\RMSD=1.946e-01\Dipole=0.0125809,0.

 Normal termination of Gaussian 16 at Wed Apr  9 00:10:44 2025.
