 Gaussian 16, Revision C.01,

 ----------------------------------------------------------------------
 #t hf aug-cc-pvdz symm=none int=(grid=ultrafine) guess=(read,tcheck) s
 table=(opt,rrhf)
 ----------------------------------------------------------------------
 -----
 title
 -----
 Symbolic Z-matrix:
 Charge =  0 Multiplicity = 1

 SCF Done:  E(RHF) =  -609.649661306     A.U. after   15 cycles

 1\1\GINC-SE362\Stability\RHF\Aug-CC-pVDZ\Cl1H1O2\OHZDE\08-Apr-2025\0\\
 #t hf aug-cc-pvdz symm=none int=(grid=ultrafine) guess=(read,tcheck) s
 table=(opt,rrhf)\\title\\0,1\O,0,-1.539502,-0.31872,-0.123923\O,0,-0.5
 42198,0.646129,0.031523\H,0,-1.693656,-0.61456,0.788804\Cl,0,1.079251,
 -0.117924,-0.002918\\Version=ES64L-G16RevC.01\HF=-609.6496613\RMSD=6.6
 81e-09\Dipole=-0.1419494,-0.3844984,0.6110589\Quadrupole=1.1023211,-0.
 8537583,-0.2485628,0.7179839,-2.2824827,-0.9018216\PG=Unknown\\@
 The archive entry for this job was punched.

 Normal termination of Gaussian 16 at Tue Apr  8 22:56:33 2025.
 Gaussian 16:  ES64L-G16RevC.01  3-Jul-2019

 ----------------------------------------------------------------------
 #t hf aug-cc-pvdz iop(5/13=1,5/36=2,99/5=2) pseudo=read geom=check gue
 ss=(read,tcheck) scf=(maxcycle=1)
 ----------------------------------------------------------------------
 -----
 title
 -----
 Structure from the checkpoint file:  "BDE49_expt_1842_mol1.chk"
 Charge =  0 Multiplicity = 1

                         Standard orientation:
 ---------------------------------------------------------------------
 Center     Atomic      Atomic             Coordinates (Angstroms)
 Number     Number       Type             X           Y           Z
 ---------------------------------------------------------------------
      1          8           0       -1.539502   -0.318720   -0.123923
      2          8           0       -0.542198    0.646129    0.031523
      3          1           0       -1.693656   -0.614560    0.788804
      4         17           0        1.079251   -0.117924   -0.002918
 ---------------------------------------------------------------------

 SCF Done:  E(RHF) =  -610.501222403     A.U. after    2 cycles

 The electronic state is 1-A.
 Alpha  occ. eigenvalues --  -99.95127 -21.17743 -21.15940 -10.51772  -9.71515
 Alpha  occ. eigenvalues --   -9.70809  -9.70734  -2.00075  -1.47135  -1.22219
 Alpha  occ. eigenvalues --   -0.67936  -0.63018  -0.60588  -0.55862  -0.47108
 Alpha  occ. eigenvalues --   -0.39413  -0.36071
 Alpha virt. eigenvalues --    0.03189   0.04201   0.10817   0.12768   0.12869
 Alpha virt. eigenvalues --    0.16413   0.17837   0.19813   0.21348   0.22034
 Alpha virt. eigenvalues --    0.24037   0.26498   0.28446   0.30491   0.32340

 Mulliken charges:
               1
     1  O   -0.725758
     2  O   -0.441808
     3  H    0.871595
     4  Cl   0.295971
 Sum of Mulliken charges =  -0.00000

 Dipole moment (field-independent basis, Debye):
    X=             -2.9402    Y=             -0.0718    Z=              0.7401  Tot=              3.0328

 Test job not archived.
 1\1\GINC-SE362\SP\RHF\Aug-CC-pVDZ\Cl1H1O2\OHZDE\08-Apr-2025\0\\#t hf a
 ug-cc-pvdz iop(5/13=1,5/36=2,99/5=2) pseudo=read geom=check guess=(rea
 d,tcheck) scf=(maxcycle=1)\\title\\0,1\O,0,-1.539502,-0.31872,-0.12392
 3\O,0,-0.542198,0.646129,0.031523\H,0,-1.693656,-0.61456,0.788804\Cl,0
 ,1.079251,-0.117924,-0.002918\\Version=ES64L-G16RevC.01\State=1-A\HF=-
 610.5012224\RMSD=3.899e-02\Dipole=-1.1567739,-0.0282586,0.2911624\Quad
 rupole=1.2125329,-0.473004,-0.739529,0.3971874,-1.3305393,-0.6457233\P
 G=C01 [X(Cl1H1O2)]\\@

 Normal termination of Gaussian 16 at Tue Apr  8 22:56:34 2025.
