 Gaussian 16, Revision C.01,

 ----------------------------------------------------------------------
 #t hf aug-cc-pvdz symm=none int=(grid=ultrafine) guess=(read,tcheck) s
 table=(opt,rrhf)
 ----------------------------------------------------------------------
 -----
 title
 -----
 Symbolic Z-matrix:
 Charge =  0 Multiplicity = 1

 SCF Done:  E(RHF) =  -1177.91460722     A.U. after   15 cycles
 Normal termination of Gaussian 16 at Tue Apr  8 23:43:17 2025.
 Gaussian 16:  ES64L-G16RevC.01  3-Jul-2019

 ----------------------------------------------------------------------
 #t hf aug-cc-pvdz iop(5/13=1,5/36=2,99/5=2) pseudo=read geom=check gue
 ss=(read,tcheck) scf=(maxcycle=1)
 ----------------------------------------------------------------------
 -----
 title
 -----
 Structure from the checkpoint file:  "BDE49_nonexpt_1643_mol1.chk"
 Charge =  0 Multiplicity = 1

                         Standard orientation:
 ---------------------------------------------------------------------
 Center     Atomic      Atomic             Coordinates (Angstroms)
 Number     Number       Type             X           Y           Z
 ---------------------------------------------------------------------
      1         14           0        0.267573    0.212996    1.007701
      2          7           0        1.010710    1.658385    0.021435
      3         15           0       -1.619407   -0.285331   -0.168849
      4          8           0        0.331584    2.249886   -0.827403
      5          8           0        2.158152    1.967695    0.302920
      6          8           0       -1.380217   -1.247731   -1.258221
      7          8           0       -2.248768    1.137082   -0.523438
      8          6           0        1.551893   -1.133607    1.153614
      9          6           0        1.799920   -2.034790   -0.075667
     10          1           0        1.241094   -1.741625    2.013319
     11          1           0        2.476964   -0.630257    1.460549
     12          6           0        2.327214   -1.289111   -1.304285
     13          1           0        0.875310   -2.551935   -0.343876
     14          1           0        2.519747   -2.805741    0.218517
     15          1           0        1.572838   -0.614061   -1.718367
     16          1           0        2.585437   -1.994566   -2.097389
     17          1           0        3.220481   -0.703178   -1.069776
     18          1           0       -1.564332    1.725386   -0.897436
     19          8           0       -2.668436   -0.792762    0.941165
     20          1           0       -3.042564   -1.649967    0.700111
     21          1           0       -0.027556    0.886964    2.287061
 ---------------------------------------------------------------------

 SCF Done:  E(RHF) =  -1180.65480433     A.U. after    2 cycles

 The electronic state is 1-A.
 Alpha  occ. eigenvalues -- -105.31685 -76.29212 -21.12971 -21.11948 -21.11485
 Alpha  occ. eigenvalues --  -21.10945 -21.03406 -15.98098 -11.44135 -11.40041
 Alpha  occ. eigenvalues --  -11.36636  -5.63041  -2.93616  -2.27597  -2.25980
 Alpha  occ. eigenvalues --   -2.25175  -1.99430  -1.98868  -1.90913  -1.79537
 Alpha  occ. eigenvalues --   -1.70101  -1.52023  -1.40657  -1.26622  -1.22580
 Alpha  occ. eigenvalues --   -1.04304  -1.00363  -0.86386  -0.76290  -0.71906
 Alpha  occ. eigenvalues --   -0.67570  -0.65672  -0.62987  -0.62440  -0.61961
 Alpha  occ. eigenvalues --   -0.58925  -0.57794  -0.56362  -0.52251  -0.48393
 Alpha  occ. eigenvalues --   -0.47636  -0.45575  -0.44612  -0.42648  -0.35721
 Alpha  occ. eigenvalues --   -0.35092  -0.34837  -0.33579  -0.33117  -0.29277
 Alpha  occ. eigenvalues --   -0.23331  -0.16467
 Alpha virt. eigenvalues --    0.03098   0.04705   0.04822   0.05016   0.05985
 Alpha virt. eigenvalues --    0.06232   0.06842   0.07391   0.07722   0.08211
 Alpha virt. eigenvalues --    0.08779   0.09164   0.09953   0.10487   0.11055

 Mulliken charges:
               1
     1  Si   4.809165
     2  N    3.809177
     3  P    7.491637
     4  O   -2.393222
     5  O   -2.524446
     6  O   -3.169458
     7  O   -3.553646
     8  C   -4.006838
     9  C   -2.959989
    10  H    1.389204
    11  H    1.481583
    12  C   -3.874308
    13  H    1.628518
    14  H    1.282313
    15  H    1.397386
    16  H    1.146528
    17  H    1.381573
    18  H    1.385060
    19  O   -2.891686
    20  H    0.861244
    21  H   -2.689796
 Sum of Mulliken charges =  -0.00000

 Dipole moment (field-independent basis, Debye):
    X=             -1.2580    Y=             -1.4889    Z=              1.8689  Tot=              2.7004

 Test job not archived.
 1\1\GINC-SE335\SP\RHF\Aug-CC-pVDZ\C3H10N1O5P1Si1\OHZDE\08-Apr-2025\0\\
 #t hf aug-cc-pvdz iop(5/13=1,5/36=2,99/5=2) pseudo=read geom=check gue
 ss=(read,tcheck) scf=(maxcycle=1)\\title\\0,1\Si,0,0.267573,0.212996,1
 .007701\N,0,1.01071,1.658385,0.021435\P,0,-1.619407,-0.285331,-0.16884
 9\O,0,0.331584,2.249886,-0.827403\O,0,2.158152,1.967695,0.30292\O,0,-1
 .380217,-1.247731,-1.258221\O,0,-2.248768,1.137082,-0.523438\C,0,1.551
 893,-1.133607,1.153614\C,0,1.79992,-2.03479,-0.075667\H,0,1.241094,-1.
 741625,2.013319\H,0,2.476964,-0.630257,1.460549\C,0,2.327214,-1.289111

 Normal termination of Gaussian 16 at Tue Apr  8 23:43:31 2025.
