 Gaussian 16, Revision C.01,

 ----------------------------------------------------------------------
 #t hf aug-cc-pvdz symm=none int=(grid=ultrafine) guess=(read,tcheck) s
 table=(opt,rrhf)
 ----------------------------------------------------------------------
 -----
 title
 -----
 Symbolic Z-matrix:
 Charge =  0 Multiplicity = 1

 SCF Done:  E(RHF) =  -931.384923246     A.U. after   15 cycles
 Normal termination of Gaussian 16 at Wed Apr  9 00:07:26 2025.
 Gaussian 16:  ES64L-G16RevC.01  3-Jul-2019

 ----------------------------------------------------------------------
 #t hf aug-cc-pvdz iop(5/13=1,5/36=2,99/5=2) pseudo=read geom=check gue
 ss=(read,tcheck) scf=(maxcycle=1)
 ----------------------------------------------------------------------
 -----
 title
 -----
 Structure from the checkpoint file:  "BDE49_nonexpt_2209_mol1.chk"
 Charge =  0 Multiplicity = 1

                         Standard orientation:
 ---------------------------------------------------------------------
 Center     Atomic      Atomic             Coordinates (Angstroms)
 Number     Number       Type             X           Y           Z
 ---------------------------------------------------------------------
      1          6           0       -1.209817    0.041626   -0.035645
      2          6           0       -0.666193    1.328984   -0.022392
      3          6           0        0.708218    1.507511   -0.008639
      4          6           0       -0.363340   -1.064286   -0.033361
      5          6           0        1.016926   -0.892086   -0.019946
      6          6           0        1.557385    0.396289   -0.005802
      7          1           0       -0.780404   -2.063011   -0.050441
      8          1           0        1.665914   -1.760342   -0.023188
      9          8           0        2.897553    0.636354    0.007001
     10         14           0        4.200429   -0.402545    0.012597
     11          1           0       -1.321855    2.190783   -0.032374
     12          1           0        1.147528    2.496937   -0.002968
     13          6           0       -2.698462   -0.139586    0.002381
     14          9           0       -3.343477    0.812338   -0.709818
     15          9           0       -3.187135   -0.068245    1.265136
     16          9           0       -3.081052   -1.338019   -0.491527
     17          1           0        5.380530    0.477033    0.028660
     18          1           0        4.190242   -1.253605   -1.198068
     19          1           0        4.168289   -1.268382    1.212317
 ---------------------------------------------------------------------

 SCF Done:  E(RHF) =  -934.118162272     A.U. after    2 cycles

 The electronic state is 1-A.
 Alpha  occ. eigenvalues --  -76.25949 -29.30310 -29.30143 -29.29707 -21.08553
 Alpha  occ. eigenvalues --  -11.61318 -11.55051 -11.48451 -11.45947 -11.44736
 Alpha  occ. eigenvalues --  -11.42639 -11.38977  -5.59434  -2.26051  -2.21464
 Alpha  occ. eigenvalues --   -2.20959  -1.75834  -1.44726  -1.30494  -1.12383
 Alpha  occ. eigenvalues --   -1.09217  -0.92969  -0.89838  -0.86939  -0.84769
 Alpha  occ. eigenvalues --   -0.77798  -0.77000  -0.67255  -0.62634  -0.61869
 Alpha  occ. eigenvalues --   -0.60555  -0.57160  -0.51743  -0.50912  -0.50220
 Alpha  occ. eigenvalues --   -0.48465  -0.46521  -0.45230  -0.43031  -0.42664
 Alpha  occ. eigenvalues --   -0.39165  -0.36426  -0.35926  -0.34680  -0.29914
 Alpha  occ. eigenvalues --   -0.29678  -0.24773  -0.23396  -0.20614
 Alpha virt. eigenvalues --    0.03195   0.04399   0.05312   0.05978   0.06436
 Alpha virt. eigenvalues --    0.06752   0.07040   0.08337   0.08809   0.09890
 Alpha virt. eigenvalues --    0.10480   0.10943   0.11342   0.11653   0.12562

 Mulliken charges:
               1
     1  C    1.802563
     2  C   -1.459729
     3  C   -3.397470
     4  C   -1.500579
     5  C   -3.119276
     6  C    4.112774
     7  H    1.831467
     8  H    1.987267
     9  O   -4.940792
    10  Si   6.345504
    11  H    1.836768
    12  H    1.834581
    13  C   -0.766333
    14  F    0.223375
    15  F    0.155015
    16  F    0.350717
    17  H   -1.843842
    18  H   -1.725225
    19  H   -1.726785
 Sum of Mulliken charges =  -0.00000

 Dipole moment (field-independent basis, Debye):
    X=             -0.5505    Y=              0.0723    Z=              0.0845  Tot=              0.5616

 Test job not archived.
 1\1\GINC-SE423\SP\RHF\Aug-CC-pVDZ\C7H7F3O1Si1\OHZDE\09-Apr-2025\0\\#t
 hf aug-cc-pvdz iop(5/13=1,5/36=2,99/5=2) pseudo=read geom=check guess=
 (read,tcheck) scf=(maxcycle=1)\\title\\0,1\C,0,-1.209817,0.041626,-0.0
 35645\C,0,-0.666193,1.328984,-0.022392\C,0,0.708218,1.507511,-0.008639
 \C,0,-0.36334,-1.064286,-0.033361\C,0,1.016926,-0.892086,-0.019946\C,0
 ,1.557385,0.396289,-0.005802\H,0,-0.780404,-2.063011,-0.050441\H,0,1.6
 65914,-1.760342,-0.023188\O,0,2.897553,0.636354,0.007001\Si,0,4.200429
 ,-0.402545,0.012597\H,0,-1.321855,2.190783,-0.032374\H,0,1.147528,2.49

 Normal termination of Gaussian 16 at Wed Apr  9 00:07:38 2025.
