 Gaussian 16, Revision C.01,

 ----------------------------------------------------------------------
 #t hf aug-cc-pvdz symm=none int=(grid=ultrafine) guess=(read,tcheck) s
 table=opt
 ----------------------------------------------------------------------
 -----
 title
 -----
 Symbolic Z-matrix:
 Charge =  0 Multiplicity = 2

 SCF Done:  E(UHF) =  -634.978957273     A.U. after   23 cycles
 Normal termination of Gaussian 16 at Wed Apr  9 00:32:59 2025.
 Gaussian 16:  ES64L-G16RevC.01  3-Jul-2019

 ----------------------------------------------------------------------
 #t hf aug-cc-pvdz iop(5/13=1,5/36=2,99/5=2) pseudo=read geom=check gue
 ss=(read,tcheck) scf=(maxcycle=1)
 ----------------------------------------------------------------------
 -----
 title
 -----
 Structure from the checkpoint file:  "BDE49_nonexpt_396_mol2.chk"
 Charge =  0 Multiplicity = 2

                         Standard orientation:
 ---------------------------------------------------------------------
 Center     Atomic      Atomic             Coordinates (Angstroms)
 Number     Number       Type             X           Y           Z
 ---------------------------------------------------------------------
      1          9           0       -2.246582   -0.585590   -0.229226
      2          5           0       -1.294744   -0.155010    0.544886
      3          6           0        0.059638    0.517664    0.091638
      4          8           0        0.155019    1.708225   -0.079590
      5         16           0        1.513779   -0.563830   -0.052699
      6          1           0        0.874512   -1.705147    0.268692
 ---------------------------------------------------------------------

 SCF Done:  E(UHF) =  -636.082606058     A.U. after    2 cycles

 The electronic state is 2-A.
 Alpha  occ. eigenvalues --  -75.72982 -29.30280 -21.09817 -13.15848 -13.12998
 Alpha  occ. eigenvalues --  -13.04638 -11.49587  -8.06952  -7.72925  -1.74942
 Alpha  occ. eigenvalues --   -1.19371  -1.05368  -0.81196  -0.65642  -0.56013
 Alpha  occ. eigenvalues --   -0.54967  -0.50132  -0.49069  -0.45130  -0.42360
 Alpha  occ. eigenvalues --   -0.32260  -0.28147  -0.22228
 Alpha virt. eigenvalues --    0.02684   0.03801   0.04436   0.05694   0.08205
 Alpha virt. eigenvalues --    0.10054   0.11573   0.12130   0.12891   0.14639
 Alpha virt. eigenvalues --    0.15892   0.16476   0.16750   0.17898   0.18786

  Beta  occ. eigenvalues --  -75.72970 -29.29987 -21.09257 -13.15788 -13.12947
  Beta  occ. eigenvalues --  -13.04662 -11.49525  -8.06939  -7.71015  -1.73855
  Beta  occ. eigenvalues --   -1.18761  -1.02024  -0.80187  -0.65395  -0.54420
  Beta  occ. eigenvalues --   -0.51643  -0.49535  -0.45095  -0.44568  -0.41297
  Beta  occ. eigenvalues --   -0.27805  -0.27146
  Beta virt. eigenvalues --    0.02610   0.03471   0.04087   0.05652   0.06380
  Beta virt. eigenvalues --    0.09842   0.10504   0.12253   0.13250   0.15014
  Beta virt. eigenvalues --    0.15334   0.16174   0.16688   0.16873   0.19188

 Mulliken charges and spin densities:
               1          2
     1  F   -0.295692  -0.073650
     2  B    1.169126   0.999684
     3  C    1.078604  -0.182105
     4  O   -2.472649   0.200142
     5  S   -0.453889   0.060210
     6  H    0.974500  -0.004280
 Sum of Mulliken charges =  -0.00000   1.00000

 Dipole moment (field-independent basis, Debye):
    X=             -1.4983    Y=             -1.6900    Z=             -2.3838  Tot=              3.2838
                          Isotropic Fermi Contact Couplings
        Atom                 a.u.       MegaHertz       Gauss      10(-4) cm-1
     1  F(19)              0.04984     209.69314      74.82373      69.94610
     2  B(11)              0.18141     260.20531      92.84773      86.79515
     3  C(13)              0.05561      62.51614      22.30731      20.85314
     4  O(17)              0.03047     -18.46965      -6.59043      -6.16081
     5  S(33)             -0.00813      -2.79110      -0.99593      -0.93101
     6  H(1)              -0.00050      -2.21955      -0.79199      -0.74036
 --------------------------------------------------------
       Center         ----  Spin Dipole Couplings  ----

 Normal termination of Gaussian 16 at Wed Apr  9 00:33:01 2025.
