 Gaussian 16, Revision C.01,

 ----------------------------------------------------------------------
 #t hf aug-cc-pvdz symm=none int=(grid=ultrafine) guess=(read,tcheck) s
 table=(opt,rrhf)
 ----------------------------------------------------------------------
 -----
 title
 -----
 Symbolic Z-matrix:
 Charge =  0 Multiplicity = 1

 SCF Done:  E(RHF) =  -687.469145345     A.U. after   17 cycles
 Normal termination of Gaussian 16 at Wed Apr  9 00:07:00 2025.
 Gaussian 16:  ES64L-G16RevC.01  3-Jul-2019

 ----------------------------------------------------------------------
 #t hf aug-cc-pvdz iop(5/13=1,5/36=2,99/5=2) pseudo=read geom=check gue
 ss=(read,tcheck) scf=(maxcycle=1)
 ----------------------------------------------------------------------
 -----
 title
 -----
 Structure from the checkpoint file:  "BDE49_nonexpt_2205_mol1.chk"
 Charge =  0 Multiplicity = 1

                         Standard orientation:
 ---------------------------------------------------------------------
 Center     Atomic      Atomic             Coordinates (Angstroms)
 Number     Number       Type             X           Y           Z
 ---------------------------------------------------------------------
      1          6           0       -1.990076   -0.044218   -0.000002
      2          6           0       -1.467135    1.259262    0.000001
      3          6           0       -0.097905    1.463506    0.000000
      4          6           0       -1.111376   -1.135254   -0.000007
      5          6           0        0.261890   -0.931350   -0.000008
      6          6           0        0.775089    0.369957   -0.000004
      7          1           0       -1.508499   -2.142643   -0.000010
      8          1           0        0.929882   -1.784971   -0.000012
      9          8           0        2.107149    0.638138   -0.000006
     10         14           0        3.436116   -0.371169    0.000010
     11          1           0       -2.142414    2.105777    0.000005
     12          1           0        0.321070    2.461679    0.000003
     13          6           0       -3.403087   -0.255855   -0.000001
     14          7           0       -4.546104   -0.426503    0.000000
     15          1           0        4.593722    0.537237    0.000018
     16          1           0        3.430884   -1.228295   -1.205889
     17          1           0        3.430860   -1.228287    1.205913
 ---------------------------------------------------------------------

 SCF Done:  E(RHF) =  -689.425338496     A.U. after    2 cycles

 The electronic state is 1-A.
 Alpha  occ. eigenvalues --  -76.26454 -21.09218 -15.75706 -11.56617 -11.49644
 Alpha  occ. eigenvalues --  -11.47021 -11.46745 -11.43485 -11.43194 -11.39894
 Alpha  occ. eigenvalues --   -5.59931  -2.26502  -2.21972  -2.21469  -1.76592
 Alpha  occ. eigenvalues --   -1.37733  -1.28168  -1.12908  -1.11839  -0.91805
 Alpha  occ. eigenvalues --   -0.90789  -0.78481  -0.77646  -0.67683  -0.63949
 Alpha  occ. eigenvalues --   -0.62689  -0.61167  -0.58149  -0.53592  -0.52916
 Alpha  occ. eigenvalues --   -0.51940  -0.49938  -0.48553  -0.48129  -0.42888
 Alpha  occ. eigenvalues --   -0.42103  -0.39765  -0.36337  -0.30300
 Alpha virt. eigenvalues --    0.02677   0.04018   0.04971   0.05641   0.06116
 Alpha virt. eigenvalues --    0.06366   0.06641   0.07964   0.08381   0.09406
 Alpha virt. eigenvalues --    0.09603   0.09768   0.10379   0.11358   0.12141

 Mulliken charges:
               1
     1  C    4.779836
     2  C   -1.196479
     3  C   -3.237564
     4  C   -1.699586
     5  C   -3.206756
     6  C    4.161062
     7  H    1.738058
     8  H    1.954024
     9  O   -4.859045
    10  Si   6.342999
    11  H    1.791448
    12  H    1.833403
    13  C   -0.935044
    14  N   -2.181324
    15  H   -1.831941
    16  H   -1.726544
    17  H   -1.726545
 Sum of Mulliken charges =   0.00000

 Dipole moment (field-independent basis, Debye):
    X=              4.5808    Y=              0.7234    Z=              0.0000  Tot=              4.6376

 Test job not archived.
 1\1\GINC-SE187\SP\RHF\Aug-CC-pVDZ\C7H7N1O1Si1\OHZDE\09-Apr-2025\0\\#t
 hf aug-cc-pvdz iop(5/13=1,5/36=2,99/5=2) pseudo=read geom=check guess=
 (read,tcheck) scf=(maxcycle=1)\\title\\0,1\C,0,-1.990076,-0.044218,-0.
 000002\C,0,-1.467135,1.259262,0.000001\C,0,-0.097905,1.463506,0.\C,0,-
 1.111376,-1.135254,-0.000007\C,0,0.26189,-0.93135,-0.000008\C,0,0.7750
 89,0.369957,-0.000004\H,0,-1.508499,-2.142643,-0.00001\H,0,0.929882,-1
 .784971,-0.000012\O,0,2.107149,0.638138,-0.000006\Si,0,3.436116,-0.371
 169,0.00001\H,0,-2.142414,2.105777,0.000005\H,0,0.32107,2.461679,0.000

 Normal termination of Gaussian 16 at Wed Apr  9 00:07:09 2025.
