 Gaussian 16, Revision C.01,

 ----------------------------------------------------------------------
 #t hf aug-cc-pvdz symm=none int=(grid=ultrafine) guess=(read,tcheck) s
 table=(opt,rrhf)
 ----------------------------------------------------------------------
 -----
 title
 -----
 Symbolic Z-matrix:
 Charge =  0 Multiplicity = 1

 SCF Done:  E(RHF) =  -1484.48731614     A.U. after   16 cycles
 Normal termination of Gaussian 16 at Wed Apr  9 00:50:54 2025.
 Gaussian 16:  ES64L-G16RevC.01  3-Jul-2019

 ----------------------------------------------------------------------
 #t hf aug-cc-pvdz iop(5/13=1,5/36=2,99/5=2) pseudo=read geom=check gue
 ss=(read,tcheck) scf=(maxcycle=1)
 ----------------------------------------------------------------------
 -----
 title
 -----
 Structure from the checkpoint file:  "BDE49_nonexpt_881_mol1.chk"
 Charge =  0 Multiplicity = 1

                         Standard orientation:
 ---------------------------------------------------------------------
 Center     Atomic      Atomic             Coordinates (Angstroms)
 Number     Number       Type             X           Y           Z
 ---------------------------------------------------------------------
      1         16           0       -0.532576   -1.972010   -0.395391
      2          8           0       -2.522336    2.393383    0.636936
      3         16           0        1.786569    1.668045   -0.863637
      4         16           0        2.627577   -0.844061    0.783160
      5          6           0       -2.235020   -1.706237   -0.324475
      6          1           0       -2.916810   -2.521993   -0.512284
      7          6           0       -2.525361   -0.407908   -0.032894
      8          1           0       -3.522807   -0.005973    0.077071
      9          6           0       -1.358183    0.395991    0.126279
     10          6           0       -0.167888   -0.309180   -0.041006
     11          6           0       -1.462462    1.820779    0.508088
     12          1           0       -0.507168    2.346839    0.685764
     13          5           0        1.318007    0.138435   -0.004673
     14          1           0        1.843051   -1.763232    1.372492
     15          1           0        3.080750    1.712870   -0.497222
 ---------------------------------------------------------------------

 SCF Done:  E(RHF) =  -1486.46472178     A.U. after    2 cycles

 The electronic state is 1-A.
 Alpha  occ. eigenvalues --  -75.73734 -75.71126 -75.71072 -21.06644 -13.19172
 Alpha  occ. eigenvalues --  -13.18868 -13.18418 -13.18051 -13.13015 -13.11150
 Alpha  occ. eigenvalues --  -13.08076 -13.06332 -13.05849 -11.49761 -11.48321
 Alpha  occ. eigenvalues --  -11.45725 -11.44218 -11.39951  -8.08199  -8.05269
 Alpha  occ. eigenvalues --   -8.04787  -7.70631  -1.71344  -1.40134  -1.22846
 Alpha  occ. eigenvalues --   -1.12779  -1.11040  -1.08189  -0.91207  -0.85370
 Alpha  occ. eigenvalues --   -0.78207  -0.72287  -0.64547  -0.58443  -0.57393
 Alpha  occ. eigenvalues --   -0.55278  -0.53458  -0.50506  -0.46638  -0.45229
 Alpha  occ. eigenvalues --   -0.42132  -0.39777  -0.38236  -0.35966  -0.31041
 Alpha  occ. eigenvalues --   -0.29706  -0.28251  -0.26275
 Alpha virt. eigenvalues --    0.01915   0.02292   0.03072   0.03209   0.05088
 Alpha virt. eigenvalues --    0.06644   0.07273   0.07968   0.08563   0.09329
 Alpha virt. eigenvalues --    0.10098   0.10321   0.11033   0.11984   0.12231

 Mulliken charges:
               1
     1  S    1.192818
     2  O   -3.152883
     3  S   -3.014279
     4  S   -3.240535
     5  C   -3.751630
     6  H    1.299938
     7  C   -2.925820
     8  H    1.632304
     9  C    6.392606
    10  C   -2.888142
    11  C    0.472595
    12  H    1.407300
    13  B    4.791394
    14  H    0.890739
    15  H    0.893595
 Sum of Mulliken charges =   0.00000

 Dipole moment (field-independent basis, Debye):
    X=              2.3763    Y=             -2.0339    Z=             -1.5439  Tot=              3.4882

 Test job not archived.
 1\1\GINC-SE219\SP\RHF\Aug-CC-pVDZ\C5H5B1O1S3\OHZDE\09-Apr-2025\0\\#t h
 f aug-cc-pvdz iop(5/13=1,5/36=2,99/5=2) pseudo=read geom=check guess=(
 read,tcheck) scf=(maxcycle=1)\\title\\0,1\S,0,-0.532576,-1.97201,-0.39
 5391\O,0,-2.522336,2.393383,0.636936\S,0,1.786569,1.668045,-0.863637\S
 ,0,2.627577,-0.844062,0.78316\C,0,-2.23502,-1.706237,-0.324475\H,0,-2.
 916811,-2.521993,-0.512284\C,0,-2.525361,-0.407908,-0.032894\H,0,-3.52
 2807,-0.005972,0.077071\C,0,-1.358183,0.395991,0.126279\C,0,-0.167888,
 -0.30918,-0.041006\C,0,-1.462462,1.820779,0.508088\H,0,-0.507168,2.346

 Normal termination of Gaussian 16 at Wed Apr  9 00:51:02 2025.
