 Gaussian 16, Revision C.01,

 ----------------------------------------------------------------------
 #t hf aug-cc-pvdz symm=none int=(grid=ultrafine) guess=(read,tcheck) s
 table=opt
 ----------------------------------------------------------------------
 -----
 title
 -----
 Symbolic Z-matrix:
 Charge =  0 Multiplicity = 2

 SCF Done:  E(UHF) =  -640.908108680     A.U. after   18 cycles
 Normal termination of Gaussian 16 at Tue Apr  8 23:49:56 2025.
 Gaussian 16:  ES64L-G16RevC.01  3-Jul-2019

 ----------------------------------------------------------------------
 #t hf aug-cc-pvdz iop(5/13=1,5/36=2,99/5=2) pseudo=read geom=check gue
 ss=(read,tcheck) scf=(maxcycle=1)
 ----------------------------------------------------------------------
 -----
 title
 -----
 Structure from the checkpoint file:  "BDE49_nonexpt_181_mol2.chk"
 Charge =  0 Multiplicity = 2

                         Standard orientation:
 ---------------------------------------------------------------------
 Center     Atomic      Atomic             Coordinates (Angstroms)
 Number     Number       Type             X           Y           Z
 ---------------------------------------------------------------------
      1         17           0        2.282352   -0.526174    0.038816
      2          5           0        0.635449   -0.315827   -0.507442
      3          6           0       -0.484460    0.478737    0.236124
      4          6           0       -1.914673    0.097144   -0.197051
      5          6           0       -0.215607    1.993941    0.025360
      6          1           0       -0.272302    2.264284   -1.032906
      7          1           0        0.766920    2.290472    0.398966
      8          1           0       -0.970476    2.579285    0.557998
      9          1           0       -0.379051    0.273322    1.313258
     10          6           0       -2.278336   -1.357952    0.108834
     11          1           0       -2.024583    0.285671   -1.270900
     12          1           0       -2.623589    0.764236    0.308057
     13          1           0       -1.612300   -2.051099   -0.415400
     14          1           0       -3.301541   -1.584792   -0.201654
     15          1           0       -2.201855   -1.568513    1.180311
 ---------------------------------------------------------------------

 SCF Done:  E(UHF) =  -642.062624054     A.U. after    2 cycles

 The electronic state is 2-A.
 Alpha  occ. eigenvalues --  -99.89519 -11.41805 -11.40049 -11.37451 -11.34514
 Alpha  occ. eigenvalues --  -10.46781  -9.66799  -9.66402  -9.66149  -7.67234
 Alpha  occ. eigenvalues --   -1.35216  -1.24899  -1.08491  -0.93229  -0.86476
 Alpha  occ. eigenvalues --   -0.73919  -0.65202  -0.60387  -0.58565  -0.57745
 Alpha  occ. eigenvalues --   -0.55267  -0.53945  -0.50940  -0.50192  -0.46778
 Alpha  occ. eigenvalues --   -0.45077  -0.42283  -0.30801
 Alpha virt. eigenvalues --    0.03487   0.03983   0.04337   0.04616   0.05902
 Alpha virt. eigenvalues --    0.06203   0.06910   0.06992   0.07569   0.07934
 Alpha virt. eigenvalues --    0.08927   0.10079   0.10337   0.12737   0.13354

  Beta  occ. eigenvalues --  -99.89442 -11.41759 -11.40019 -11.37423 -11.34450
  Beta  occ. eigenvalues --  -10.46689  -9.66698  -9.66170  -9.66102  -7.65338
  Beta  occ. eigenvalues --   -1.34154  -1.24591  -1.08350  -0.92841  -0.85493
  Beta  occ. eigenvalues --   -0.71076  -0.64739  -0.59283  -0.58485  -0.57551
  Beta  occ. eigenvalues --   -0.54589  -0.53219  -0.50918  -0.49599  -0.46079
  Beta  occ. eigenvalues --   -0.43895  -0.41674
  Beta virt. eigenvalues --    0.02896   0.03931   0.04403   0.04638   0.05947
  Beta virt. eigenvalues --    0.06220   0.06592   0.06951   0.07174   0.08314
  Beta virt. eigenvalues --    0.08631   0.09263   0.10224   0.11175   0.13370

 Mulliken charges and spin densities:
               1          2
     1  Cl  -1.210096   0.031869
     2  B    0.935260   1.014276
     3  C   -0.544145  -0.084640
     4  C   -3.252367  -0.001128
     5  C   -4.108665   0.043926
     6  H    1.346921  -0.004657
     7  H    1.137225   0.002487
     8  H    1.268510   0.003282
     9  H    1.627279  -0.048187
    10  C   -3.908522   0.020105
    11  H    1.495915   0.009017
    12  H    1.385254  -0.006762
    13  H    1.470631   0.011474
    14  H    1.067028  -0.001093
    15  H    1.289771   0.010031
 Sum of Mulliken charges =  -0.00000   1.00000

 Dipole moment (field-independent basis, Debye):
    X=             -1.4414    Y=              0.8424    Z=              0.5076  Tot=              1.7450
                          Isotropic Fermi Contact Couplings
        Atom                 a.u.       MegaHertz       Gauss      10(-4) cm-1
     1  Cl(35)             0.11685      51.23484      18.28186      17.09010
     2  B(11)              0.22027     315.94089     112.73557     105.38654
     3  C(13)              0.03319      37.31371      13.31446      12.44651
     4  C(13)              0.00696       7.82368       2.79168       2.60970
     5  C(13)             -0.00129      -1.44559      -0.51582      -0.48220
     6  H(1)              -0.00032      -1.42199      -0.50740      -0.47433
     7  H(1)              -0.00005      -0.21390      -0.07632      -0.07135
     8  H(1)               0.00011       0.50482       0.18013       0.16839

 Normal termination of Gaussian 16 at Tue Apr  8 23:50:01 2025.
