 Gaussian 16, Revision C.01,

 ----------------------------------------------------------------------
 #t hf aug-cc-pvdz symm=none int=(grid=ultrafine) guess=(read,tcheck) s
 table=(opt,rrhf)
 ----------------------------------------------------------------------
 -----
 title
 -----
 Symbolic Z-matrix:
 Charge =  0 Multiplicity = 1

 SCF Done:  E(RHF) =  -773.460419895     A.U. after   15 cycles
 Normal termination of Gaussian 16 at Wed Apr  9 00:03:09 2025.
 Gaussian 16:  ES64L-G16RevC.01  3-Jul-2019

 ----------------------------------------------------------------------
 #t hf aug-cc-pvdz iop(5/13=1,5/36=2,99/5=2) pseudo=read geom=check gue
 ss=(read,tcheck) scf=(maxcycle=1)
 ----------------------------------------------------------------------
 -----
 title
 -----
 Structure from the checkpoint file:  "BDE49_nonexpt_2140_mol1.chk"
 Charge =  0 Multiplicity = 1

                         Standard orientation:
 ---------------------------------------------------------------------
 Center     Atomic      Atomic             Coordinates (Angstroms)
 Number     Number       Type             X           Y           Z
 ---------------------------------------------------------------------
      1          6           0       -0.505766   -0.000003    0.507068
      2          7           0        2.509663   -0.000000   -0.178696
      3          9           0        2.177059   -1.111179   -0.998348
      4          9           0        2.177061    1.111190   -0.998334
      5          6           0       -1.177816   -1.207153    0.253768
      6          6           0       -1.177813    1.207151    0.253774
      7          6           0       -2.479817   -1.207453   -0.238128
      8          6           0       -3.130733    0.000004   -0.484666
      9          6           0       -2.479813    1.207457   -0.238121
     10          1           0       -2.986020    2.146913   -0.429050
     11          1           0       -0.682085    2.153583    0.442583
     12          1           0       -2.986026   -2.146907   -0.429061
     13          1           0       -4.145328    0.000006   -0.867149
     14          1           0       -0.682092   -2.153588    0.442572
     15         14           0        1.236216   -0.000007    1.140289
     16          1           0        1.565180   -1.227961    1.887445
     17          1           0        1.565182    1.227938    1.887459
 ---------------------------------------------------------------------

 SCF Done:  E(RHF) =  -775.632852771     A.U. after    2 cycles

 The electronic state is 1-A.
 Alpha  occ. eigenvalues --  -76.25416 -29.28533 -29.28510 -15.85451 -11.52728
 Alpha  occ. eigenvalues --  -11.44396 -11.43975 -11.41907 -11.41742 -11.37525
 Alpha  occ. eigenvalues --   -5.59362  -2.24815  -2.22692  -2.22690  -1.45038
 Alpha  occ. eigenvalues --   -1.34962  -1.10516  -1.10480  -0.88069  -0.87638
 Alpha  occ. eigenvalues --   -0.80442  -0.80404  -0.72147  -0.65878  -0.63248
 Alpha  occ. eigenvalues --   -0.59885  -0.59786  -0.58309  -0.53955  -0.51340
 Alpha  occ. eigenvalues --   -0.50280  -0.46020  -0.43195  -0.41064  -0.38920
 Alpha  occ. eigenvalues --   -0.35195  -0.34320  -0.29636  -0.29132  -0.20756
 Alpha  occ. eigenvalues --   -0.19418
 Alpha virt. eigenvalues --    0.03083   0.04853   0.05041   0.05230   0.06236
 Alpha virt. eigenvalues --    0.06417   0.07511   0.08429   0.08451   0.10270
 Alpha virt. eigenvalues --    0.10628   0.11002   0.11375   0.13072   0.13308

 Mulliken charges:
               1
     1  C   -0.984106
     2  N   -0.054642
     3  F   -0.317541
     4  F   -0.317541
     5  C   -2.197914
     6  C   -2.197893
     7  C   -0.495529
     8  C   -2.041411
     9  C   -0.495446
    10  H    1.541376
    11  H    1.871418
    12  H    1.541376
    13  H    1.528604
    14  H    1.871418
    15  Si   4.172399
    16  H   -1.712285
    17  H   -1.712283
 Sum of Mulliken charges =   0.00000

 Dipole moment (field-independent basis, Debye):
    X=             -3.0167    Y=              0.0000    Z=             -1.8664  Tot=              3.5474

 Test job not archived.
 1\1\GINC-SE250\SP\RHF\Aug-CC-pVDZ\C6H7F2N1Si1\OHZDE\09-Apr-2025\0\\#t
 hf aug-cc-pvdz iop(5/13=1,5/36=2,99/5=2) pseudo=read geom=check guess=
 (read,tcheck) scf=(maxcycle=1)\\title\\0,1\C,0,-0.505766,-0.000003,0.5
 07068\N,0,2.509663,0.,-0.178696\F,0,2.177059,-1.111179,-0.998348\F,0,2
 .177061,1.11119,-0.998334\C,0,-1.177816,-1.207153,0.253768\C,0,-1.1778
 13,1.207151,0.253774\C,0,-2.479817,-1.207453,-0.238128\C,0,-3.130733,0
 .000004,-0.484666\C,0,-2.479813,1.207457,-0.238121\H,0,-2.98602,2.1469
 13,-0.42905\H,0,-0.682085,2.153583,0.442583\H,0,-2.986026,-2.146907,-0

 Normal termination of Gaussian 16 at Wed Apr  9 00:03:17 2025.
