 Gaussian 16, Revision C.01,

 ----------------------------------------------------------------------
 #t hf aug-cc-pvdz symm=none int=(grid=ultrafine) guess=(read,tcheck) s
 table=(opt,rrhf)
 ----------------------------------------------------------------------
 -----
 title
 -----
 Symbolic Z-matrix:
 Charge =  0 Multiplicity = 1

 SCF Done:  E(RHF) =  -849.547084426     A.U. after   16 cycles
 Normal termination of Gaussian 16 at Tue Apr  8 23:37:16 2025.
 Gaussian 16:  ES64L-G16RevC.01  3-Jul-2019

 ----------------------------------------------------------------------
 #t hf aug-cc-pvdz iop(5/13=1,5/36=2,99/5=2) pseudo=read geom=check gue
 ss=(read,tcheck) scf=(maxcycle=1)
 ----------------------------------------------------------------------
 -----
 title
 -----
 Structure from the checkpoint file:  "BDE49_nonexpt_1520_mol1.chk"
 Charge =  0 Multiplicity = 1

                         Standard orientation:
 ---------------------------------------------------------------------
 Center     Atomic      Atomic             Coordinates (Angstroms)
 Number     Number       Type             X           Y           Z
 ---------------------------------------------------------------------
      1         15           0        0.041196    0.657726   -0.834551
      2          7           0       -1.372253    0.228759    0.046557
      3          7           0        1.211770   -0.608355   -0.007626
      4          9           0        0.486118    1.911558    0.045777
      5          8           0        0.791885   -1.754883   -0.193022
      6          8           0        2.224910   -0.299292    0.566591
      7          8           0       -1.963173   -0.918589   -0.505387
      8          8           0       -1.139938    0.058395    1.427621
      9          1           0       -1.868987    0.536610    1.843897
     10          1           0       -1.310109   -1.634407   -0.376571
 ---------------------------------------------------------------------

 SCF Done:  E(RHF) =  -851.769719555     A.U. after    2 cycles

 The electronic state is 1-A.
 Alpha  occ. eigenvalues -- -105.34467 -29.33499 -21.14551 -21.13768 -21.13002
 Alpha  occ. eigenvalues --  -21.10959 -15.99507 -15.84672  -2.93198  -2.00734
 Alpha  occ. eigenvalues --   -1.91671  -1.73579  -1.71683  -1.67408  -1.64284
 Alpha  occ. eigenvalues --   -1.57953  -1.10034  -0.95156  -0.81986  -0.73404
 Alpha  occ. eigenvalues --   -0.66573  -0.65811  -0.62883  -0.60886  -0.57748
 Alpha  occ. eigenvalues --   -0.55926  -0.45032  -0.40609  -0.39349  -0.39011
 Alpha  occ. eigenvalues --   -0.34895  -0.33660  -0.32804  -0.26475  -0.25378
 Alpha  occ. eigenvalues --   -0.04979
 Alpha virt. eigenvalues --    0.04407   0.06750   0.07394   0.08191   0.10282
 Alpha virt. eigenvalues --    0.12250   0.14217   0.14928   0.15349   0.16707
 Alpha virt. eigenvalues --    0.17937   0.19062   0.19436   0.20570   0.21010

 Mulliken charges:
               1
     1  P    2.547065
     2  N    2.038412
     3  N    3.700092
     4  F   -0.328821
     5  O   -2.380232
     6  O   -2.541075
     7  O   -2.213804
     8  O   -2.506009
     9  H    0.812332
    10  H    0.872040
 Sum of Mulliken charges =   0.00000

 Dipole moment (field-independent basis, Debye):
    X=             -0.7890    Y=              3.6184    Z=              2.1133  Tot=              4.2640

 Test job not archived.
 1\1\GINC-SE365\SP\RHF\Aug-CC-pVDZ\F1H2N2O4P1\OHZDE\08-Apr-2025\0\\#t h
 f aug-cc-pvdz iop(5/13=1,5/36=2,99/5=2) pseudo=read geom=check guess=(
 read,tcheck) scf=(maxcycle=1)\\title\\0,1\P,0,0.041196,0.657726,-0.834
 551\N,0,-1.372253,0.228759,0.046557\N,0,1.21177,-0.608355,-0.007626\F,
 0,0.486118,1.911558,0.045777\O,0,0.791885,-1.754883,-0.193022\O,0,2.22
 491,-0.299292,0.566591\O,0,-1.963173,-0.918589,-0.505387\O,0,-1.139938
 ,0.058395,1.427621\H,0,-1.868987,0.53661,1.843897\H,0,-1.310109,-1.634
 407,-0.376571\\Version=ES64L-G16RevC.01\State=1-A\HF=-851.7697196\RMSD

 Normal termination of Gaussian 16 at Tue Apr  8 23:37:20 2025.
