 Gaussian 16, Revision C.01,

 ----------------------------------------------------------------------
 #t hf aug-cc-pvdz symm=none int=(grid=ultrafine) guess=(read,tcheck) s
 table=(opt,rrhf)
 ----------------------------------------------------------------------
 -----
 title
 -----
 Symbolic Z-matrix:
 Charge =  0 Multiplicity = 1

 SCF Done:  E(RHF) =  -677.023548090     A.U. after   15 cycles
 Normal termination of Gaussian 16 at Tue Apr  8 23:16:48 2025.
 Gaussian 16:  ES64L-G16RevC.01  3-Jul-2019

 ----------------------------------------------------------------------
 #t hf aug-cc-pvdz iop(5/13=1,5/36=2,99/5=2) pseudo=read geom=check gue
 ss=(read,tcheck) scf=(maxcycle=1)
 ----------------------------------------------------------------------
 -----
 title
 -----
 Structure from the checkpoint file:  "BDE49_nonexpt_1001_mol1.chk"
 Charge =  0 Multiplicity = 1

                         Standard orientation:
 ---------------------------------------------------------------------
 Center     Atomic      Atomic             Coordinates (Angstroms)
 Number     Number       Type             X           Y           Z
 ---------------------------------------------------------------------
      1         16           0        0.747246   -0.727508    0.020891
      2          7           0       -0.888869    0.124757   -0.006195
      3          8           0       -0.903521    1.329731    0.004583
      4          8           0       -1.817998   -0.653172   -0.008100
      5          8           0        1.768345    0.549831   -0.125849
      6          1           0        1.891540    0.955708    0.744029
 ---------------------------------------------------------------------

 SCF Done:  E(RHF) =  -678.404521021     A.U. after    2 cycles

 The electronic state is 1-A.
 Alpha  occ. eigenvalues --  -75.81219 -21.16042 -21.12716 -21.12182 -16.02557
 Alpha  occ. eigenvalues --  -13.27619 -13.22091 -13.13031  -8.14758  -2.02060
 Alpha  occ. eigenvalues --   -1.79578  -1.72645  -1.17310  -0.89804  -0.73093
 Alpha  occ. eigenvalues --   -0.69549  -0.64815  -0.62795  -0.49853  -0.45629
 Alpha  occ. eigenvalues --   -0.34295  -0.34061  -0.32774  -0.28950
 Alpha virt. eigenvalues --    0.02971   0.06465   0.08600   0.09548   0.11057
 Alpha virt. eigenvalues --    0.14438   0.15218   0.16088   0.18672   0.19526
 Alpha virt. eigenvalues --    0.19746   0.20791   0.23234   0.23655   0.25550

 Mulliken charges:
               1
     1  S    1.964492
     2  N    4.235866
     3  O   -2.562246
     4  O   -2.547584
     5  O   -2.012195
     6  H    0.921667
 Sum of Mulliken charges =  -0.00000

 Dipole moment (field-independent basis, Debye):
    X=              2.7017    Y=             -0.9172    Z=              0.6020  Tot=              2.9160

 Test job not archived.
 1\1\GINC-SE106\SP\RHF\Aug-CC-pVDZ\H1N1O3S1\OHZDE\08-Apr-2025\0\\#t hf
 aug-cc-pvdz iop(5/13=1,5/36=2,99/5=2) pseudo=read geom=check guess=(re
 ad,tcheck) scf=(maxcycle=1)\\title\\0,1\S,0,0.747246,-0.727508,0.02089
 1\N,0,-0.888869,0.124757,-0.006195\O,0,-0.903521,1.329731,0.004583\O,0
 ,-1.817998,-0.653172,-0.0081\O,0,1.768345,0.54983,-0.125849\H,0,1.8915
 4,0.955707,0.744029\\Version=ES64L-G16RevC.01\State=1-A\HF=-678.404521
 \RMSD=8.243e-02\Dipole=1.0629394,-0.3608668,0.2368609\Quadrupole=-0.33
 89835,0.4928106,-0.1538271,0.1271395,1.3719279,1.0108852\PG=C01 [X(H1N

 Normal termination of Gaussian 16 at Tue Apr  8 23:16:50 2025.
