 Gaussian 16, Revision C.01,

 ----------------------------------------------------------------------
 #t hf aug-cc-pvdz symm=none int=(grid=ultrafine) guess=(read,tcheck) s
 table=opt
 ----------------------------------------------------------------------
 -----
 title
 -----
 Symbolic Z-matrix:
 Charge =  0 Multiplicity = 2

 SCF Done:  E(UHF) =  -197.974412763     A.U. after   16 cycles
 Normal termination of Gaussian 16 at Wed Apr  9 00:43:10 2025.
 Gaussian 16:  ES64L-G16RevC.01  3-Jul-2019

 ----------------------------------------------------------------------
 #t hf aug-cc-pvdz iop(5/13=1,5/36=2,99/5=2) pseudo=read geom=check gue
 ss=(read,tcheck) scf=(maxcycle=1)
 ----------------------------------------------------------------------
 -----
 title
 -----
 Structure from the checkpoint file:  "BDE49_nonexpt_715_mol2.chk"
 Charge =  0 Multiplicity = 2

                         Standard orientation:
 ---------------------------------------------------------------------
 Center     Atomic      Atomic             Coordinates (Angstroms)
 Number     Number       Type             X           Y           Z
 ---------------------------------------------------------------------
      1          6           0        2.242065   -0.156584   -0.000002
      2          5           0        0.786082   -0.730594   -0.000001
      3          1           0        2.792462   -0.521773   -0.873953
      4          1           0        2.792458   -0.521762    0.873956
      5          1           0        2.310859    0.940661   -0.000008
      6          7           0       -0.442305   -0.091275   -0.000000
      7          6           0       -0.634660    1.361287    0.000001
      8          1           0        0.326901    1.871643   -0.000000
      9          1           0       -1.197408    1.678491    0.886283
     10          1           0       -1.197410    1.678492   -0.886280
     11          6           0       -1.702422   -0.831588    0.000002
     12          1           0       -2.299400   -0.586041   -0.887248
     13          1           0       -1.493240   -1.900468   -0.000001
     14          1           0       -2.299397   -0.586044    0.887255
 ---------------------------------------------------------------------

 SCF Done:  E(UHF) =  -198.948402879     A.U. after    2 cycles

 The electronic state is 2-A.
 Alpha  occ. eigenvalues --  -15.69652 -11.39599 -11.38629 -11.32829  -7.60233
 Alpha  occ. eigenvalues --   -1.41483  -1.07012  -1.03620  -0.92916  -0.69604
 Alpha  occ. eigenvalues --   -0.63002  -0.61322  -0.58557  -0.54426  -0.54049
 Alpha  occ. eigenvalues --   -0.53821  -0.50306  -0.44522  -0.34859  -0.26809
 Alpha virt. eigenvalues --    0.03455   0.04006   0.04663   0.04998   0.06994
 Alpha virt. eigenvalues --    0.07003   0.07760   0.07761   0.08348   0.09037
 Alpha virt. eigenvalues --    0.09258   0.09486   0.12055   0.13875   0.14463

  Beta  occ. eigenvalues --  -15.69900 -11.39473 -11.38517 -11.32752  -7.58453
  Beta  occ. eigenvalues --   -1.41188  -1.05960  -1.03052  -0.92399  -0.68228
  Beta  occ. eigenvalues --   -0.63262  -0.60489  -0.56049  -0.54408  -0.53590
  Beta  occ. eigenvalues --   -0.53547  -0.49835  -0.43514  -0.35403
  Beta virt. eigenvalues --    0.03154   0.03978   0.04479   0.04752   0.06943
  Beta virt. eigenvalues --    0.07021   0.07693   0.07764   0.08348   0.08804
  Beta virt. eigenvalues --    0.09323   0.09475   0.10162   0.13559   0.14397

 Mulliken charges and spin densities:
               1          2
     1  C   -5.246341  -0.081274
     2  B    1.469597   1.100278
     3  H    1.466415  -0.019107
     4  H    1.466413  -0.019107
     5  H    1.187662   0.041972
     6  N   -3.325142  -0.152543
     7  C   -2.383360  -0.000609
     8  H    1.523516  -0.005649
     9  H    1.413285  -0.006379
    10  H    1.413283  -0.006379
    11  C   -3.373572   0.075216
    12  H    1.437398   0.008029
    13  H    1.513449   0.057524
    14  H    1.437398   0.008029
 Sum of Mulliken charges =  -0.00000   1.00000

 Dipole moment (field-independent basis, Debye):
    X=             -0.8984    Y=              1.3550    Z=              0.0000  Tot=              1.6257
                          Isotropic Fermi Contact Couplings
        Atom                 a.u.       MegaHertz       Gauss      10(-4) cm-1
     1  C(13)              0.03862      43.42142      15.49384      14.48383
     2  B(11)              0.21176     303.74460     108.38363     101.31829
     3  H(1)               0.00145       6.46648       2.30740       2.15699
     4  H(1)               0.00145       6.46615       2.30728       2.15688
     5  H(1)               0.01066      47.65875      17.00583      15.89725
     6  N(14)              0.01520       4.91157       1.75257       1.63832
     7  C(13)              0.02497      28.07488      10.01781       9.36477
     8  H(1)              -0.00031      -1.38697      -0.49490      -0.46264

 Normal termination of Gaussian 16 at Wed Apr  9 00:43:14 2025.
