 Gaussian 16, Revision C.01,

 ----------------------------------------------------------------------
 #t hf aug-cc-pvdz symm=none int=(grid=ultrafine) guess=(read,tcheck) s
 table=(opt,rrhf)
 ----------------------------------------------------------------------
 -----
 title
 -----
 Symbolic Z-matrix:
 Charge =  0 Multiplicity = 1

 SCF Done:  E(RHF) =  -634.732362930     A.U. after   13 cycles
 Normal termination of Gaussian 16 at Wed Apr  9 00:42:22 2025.
 Gaussian 16:  ES64L-G16RevC.01  3-Jul-2019

 ----------------------------------------------------------------------
 #t hf aug-cc-pvdz iop(5/13=1,5/36=2,99/5=2) pseudo=read geom=check gue
 ss=(read,tcheck) scf=(maxcycle=1)
 ----------------------------------------------------------------------
 -----
 title
 -----
 Structure from the checkpoint file:  "BDE49_nonexpt_684_mol1.chk"
 Charge =  0 Multiplicity = 1

                         Standard orientation:
 ---------------------------------------------------------------------
 Center     Atomic      Atomic             Coordinates (Angstroms)
 Number     Number       Type             X           Y           Z
 ---------------------------------------------------------------------
      1         15           0       -0.570472    1.313413   -0.218215
      2          5           0       -1.589084   -0.331762   -0.032391
      3          8           0       -1.231092   -1.398966   -0.800640
      4          8           0       -2.712210   -0.445233    0.744169
      5          6           0        1.167855    0.680766   -0.502864
      6          6           0        1.763636   -0.254914    0.555052
      7          1           0        1.804316    1.562545   -0.631903
      8          1           0        1.136532    0.178711   -1.475576
      9          6           0        3.197878   -0.684945    0.225879
     10          1           0        1.128534   -1.140962    0.645474
     11          1           0        1.746066    0.244355    1.530321
     12          1           0        3.240660   -1.217653   -0.728976
     13          1           0        3.597572   -1.350558    0.996125
     14          1           0        3.865625    0.179285    0.154044
     15          1           0       -1.849016   -2.134244   -0.705024
     16          1           0       -2.911633    0.336956    1.264735
     17          1           0       -0.485948    1.607321    1.169327
 ---------------------------------------------------------------------

 SCF Done:  E(RHF) =  -636.268999360     A.U. after    2 cycles

 The electronic state is 1-A.
 Alpha  occ. eigenvalues -- -105.15412 -21.06870 -21.05947 -11.41116 -11.38028
 Alpha  occ. eigenvalues --  -11.34875  -7.64757  -2.73061  -1.81991  -1.66024
 Alpha  occ. eigenvalues --   -1.47073  -1.44536  -1.41730  -1.19137  -0.97731
 Alpha  occ. eigenvalues --   -0.84421  -0.75876  -0.69020  -0.63996  -0.61781
 Alpha  occ. eigenvalues --   -0.56757  -0.53758  -0.51294  -0.49519  -0.48168
 Alpha  occ. eigenvalues --   -0.46263  -0.45993  -0.42734  -0.37004  -0.23026
 Alpha  occ. eigenvalues --   -0.14892  -0.01539
 Alpha virt. eigenvalues --    0.04011   0.04234   0.05098   0.05996   0.06282
 Alpha virt. eigenvalues --    0.06689   0.06780   0.07176   0.08109   0.08766
 Alpha virt. eigenvalues --    0.09192   0.09542   0.10431   0.11611   0.12467

 Mulliken charges:
               1
     1  P    2.012062
     2  B    5.614850
     3  O   -3.513841
     4  O   -3.633110
     5  C   -4.282186
     6  C   -3.161963
     7  H    1.218967
     8  H    1.562105
     9  C   -4.121753
    10  H    1.679691
    11  H    1.551317
    12  H    1.272810
    13  H    1.147982
    14  H    1.280332
    15  H    1.334896
    16  H    1.255184
    17  H   -1.217342
 Sum of Mulliken charges =  -0.00000

 Dipole moment (field-independent basis, Debye):
    X=              0.5479    Y=              1.7533    Z=             -0.8081  Tot=              2.0068

 Test job not archived.
 1\1\GINC-SE366\SP\RHF\Aug-CC-pVDZ\C3H10B1O2P1\OHZDE\09-Apr-2025\0\\#t
 hf aug-cc-pvdz iop(5/13=1,5/36=2,99/5=2) pseudo=read geom=check guess=
 (read,tcheck) scf=(maxcycle=1)\\title\\0,1\P,0,-0.570472,1.313413,-0.2
 18215\B,0,-1.589084,-0.331762,-0.032391\O,0,-1.231092,-1.398966,-0.800
 64\O,0,-2.71221,-0.445233,0.744169\C,0,1.167855,0.680766,-0.502864\C,0
 ,1.763636,-0.254914,0.555052\H,0,1.804316,1.562545,-0.631903\H,0,1.136
 532,0.178711,-1.475576\C,0,3.197878,-0.684945,0.225879\H,0,1.128534,-1
 .140962,0.645474\H,0,1.746066,0.244355,1.530321\H,0,3.24066,-1.217653,

 Normal termination of Gaussian 16 at Wed Apr  9 00:42:28 2025.
