 Gaussian 16, Revision C.01,

 ----------------------------------------------------------------------
 #t hf aug-cc-pvdz symm=none int=(grid=ultrafine) guess=(read,tcheck) s
 table=(opt,rrhf)
 ----------------------------------------------------------------------
 -----
 title
 -----
 Symbolic Z-matrix:
 Charge =  0 Multiplicity = 1

 SCF Done:  E(RHF) =  -852.335347964     A.U. after   18 cycles
 Normal termination of Gaussian 16 at Wed Apr  9 00:53:01 2025.
 Gaussian 16:  ES64L-G16RevC.01  3-Jul-2019

 ----------------------------------------------------------------------
 #t hf aug-cc-pvdz iop(5/13=1,5/36=2,99/5=2) pseudo=read geom=check gue
 ss=(read,tcheck) scf=(maxcycle=1)
 ----------------------------------------------------------------------
 -----
 title
 -----
 Structure from the checkpoint file:  "BDE49_nonexpt_934_mol1.chk"
 Charge =  0 Multiplicity = 1

                         Standard orientation:
 ---------------------------------------------------------------------
 Center     Atomic      Atomic             Coordinates (Angstroms)
 Number     Number       Type             X           Y           Z
 ---------------------------------------------------------------------
      1         17           0        2.614013   -0.744630   -0.000014
      2          7           0        1.199518    0.192674   -0.000002
      3          7           0        1.265115    1.561039    0.000039
      4          7           0        0.060884    2.009275   -0.000023
      5          6           0       -0.094179   -0.253975    0.000003
      6          6           0       -0.822848    0.947629    0.000002
      7          6           0       -2.224162    0.925850    0.000004
      8          1           0       -2.785656    1.851633   -0.000003
      9          6           0       -2.840778   -0.311353    0.000005
     10          1           0       -3.922431   -0.371952    0.000001
     11          6           0       -2.089777   -1.510147    0.000005
     12          1           0       -2.616516   -2.457311    0.000003
     13          6           0       -0.705195   -1.510785    0.000004
     14          1           0       -0.130589   -2.427885    0.000002
 ---------------------------------------------------------------------

 SCF Done:  E(RHF) =  -854.383315152     A.U. after    2 cycles

 The electronic state is 1-A.
 Alpha  occ. eigenvalues --  -99.96132 -15.84351 -15.82821 -15.78413 -11.54366
 Alpha  occ. eigenvalues --  -11.47167 -11.45836 -11.44004 -11.43162 -11.39383
 Alpha  occ. eigenvalues --  -10.53233  -9.73534  -9.72293  -9.71967  -1.71493
 Alpha  occ. eigenvalues --   -1.44608  -1.34409  -1.23929  -1.14849  -1.10605
 Alpha  occ. eigenvalues --   -0.93558  -0.87973  -0.86736  -0.74613  -0.71951
 Alpha  occ. eigenvalues --   -0.69756  -0.64545  -0.63224  -0.59685  -0.57730
 Alpha  occ. eigenvalues --   -0.56352  -0.50764  -0.50064  -0.49636  -0.46471
 Alpha  occ. eigenvalues --   -0.43234  -0.39653  -0.33619  -0.31690
 Alpha virt. eigenvalues --    0.02843   0.03644   0.04983   0.05091   0.06409
 Alpha virt. eigenvalues --    0.08229   0.09223   0.10463   0.11324   0.12014
 Alpha virt. eigenvalues --    0.12103   0.12742   0.13253   0.13440   0.13531

 Mulliken charges:
               1
     1  Cl   0.613122
     2  N   -1.906516
     3  N   -0.611506
     4  N   -2.258398
     5  C    3.440953
     6  C    2.068352
     7  C   -1.767856
     8  H    1.654982
     9  C   -1.641245
    10  H    1.516718
    11  C   -1.007417
    12  H    1.462800
    13  C   -3.170106
    14  H    1.606117
 Sum of Mulliken charges =   0.00000

 Dipole moment (field-independent basis, Debye):
    X=             -1.8338    Y=             -2.4447    Z=             -0.0000  Tot=              3.0560

 Test job not archived.
 1\1\GINC-SE396\SP\RHF\Aug-CC-pVDZ\C6H4Cl1N3\OHZDE\09-Apr-2025\0\\#t hf
  aug-cc-pvdz iop(5/13=1,5/36=2,99/5=2) pseudo=read geom=check guess=(r
 ead,tcheck) scf=(maxcycle=1)\\title\\0,1\Cl,0,-2.614013,-0.744631,0.00
 0014\N,0,-1.199518,0.192674,0.000002\N,0,-1.265115,1.561039,-0.000039\
 N,0,-0.060884,2.009275,0.000023\C,0,0.094179,-0.253975,-0.000003\C,0,0
 .822848,0.947629,-0.000002\C,0,2.224162,0.92585,-0.000004\H,0,2.785656
 ,1.851633,0.000003\C,0,2.840778,-0.311353,-0.000005\H,0,3.922431,-0.37
 1952,-0.000001\C,0,2.089777,-1.510147,-0.000005\H,0,2.616516,-2.457311

 Normal termination of Gaussian 16 at Wed Apr  9 00:53:08 2025.
