 Gaussian 16, Revision C.01,

 ----------------------------------------------------------------------
 #t hf aug-cc-pvdz symm=none int=(grid=ultrafine) guess=(read,tcheck) s
 table=(opt,rrhf)
 ----------------------------------------------------------------------
 -----
 title
 -----
 Symbolic Z-matrix:
 Charge =  0 Multiplicity = 1

 SCF Done:  E(RHF) =  -311.092897346     A.U. after   15 cycles
 Normal termination of Gaussian 16 at Wed Apr  9 00:30:42 2025.
 Gaussian 16:  ES64L-G16RevC.01  3-Jul-2019

 ----------------------------------------------------------------------
 #t hf aug-cc-pvdz iop(5/13=1,5/36=2,99/5=2) pseudo=read geom=check gue
 ss=(read,tcheck) scf=(maxcycle=1)
 ----------------------------------------------------------------------
 -----
 title
 -----
 Structure from the checkpoint file:  "BDE49_nonexpt_338_mol1.chk"
 Charge =  0 Multiplicity = 1

                         Standard orientation:
 ---------------------------------------------------------------------
 Center     Atomic      Atomic             Coordinates (Angstroms)
 Number     Number       Type             X           Y           Z
 ---------------------------------------------------------------------
      1          6           0        0.473836    0.264081   -0.000014
      2          5           0        1.994133    0.634164   -0.000023
      3          7           0        3.014429   -0.317661    0.000026
      4          1           0        2.859504   -1.314343    0.000076
      5          1           0        3.989216   -0.064405    0.000020
      6          6           0       -0.483780    1.292515    0.000001
      7          6           0       -1.850112    1.020617    0.000015
      8          6           0       -2.294124   -0.299355    0.000010
      9          6           0       -1.366647   -1.341819   -0.000008
     10          6           0       -0.005235   -1.058372   -0.000019
     11          1           0        0.694377   -1.889744   -0.000037
     12          1           0       -0.145757    2.323854    0.000003
     13          1           0       -2.566958    1.834613    0.000027
     14          1           0       -3.356627   -0.517365    0.000019
     15          1           0       -1.708600   -2.371223   -0.000014
     16          1           0        2.319554    1.785424   -0.000068
 ---------------------------------------------------------------------

 SCF Done:  E(RHF) =  -312.582836247     A.U. after    2 cycles

 The electronic state is 1-A.
 Alpha  occ. eigenvalues --  -15.72420 -11.50681 -11.42622 -11.41886 -11.39983
 Alpha  occ. eigenvalues --  -11.39658 -11.34980  -7.61668  -1.35908  -1.29716
 Alpha  occ. eigenvalues --   -1.09158  -1.08371  -0.88271  -0.85556  -0.78202
 Alpha  occ. eigenvalues --   -0.70586  -0.67198  -0.62962  -0.58002  -0.57104
 Alpha  occ. eigenvalues --   -0.52956  -0.49839  -0.47885  -0.42852  -0.41790
 Alpha  occ. eigenvalues --   -0.39496  -0.32361  -0.32195
 Alpha virt. eigenvalues --    0.03304   0.03903   0.04218   0.05509   0.05600
 Alpha virt. eigenvalues --    0.05828   0.07242   0.07953   0.08724   0.09640
 Alpha virt. eigenvalues --    0.09675   0.10650   0.12095   0.12143   0.14462

 Mulliken charges:
               1
     1  C   -1.211052
     2  B    4.954433
     3  N   -3.451564
     4  H    0.846088
     5  H    0.906364
     6  C   -1.603716
     7  C   -1.227455
     8  C   -2.413283
     9  C   -1.694842
    10  C    0.628275
    11  H    1.825491
    12  H    1.879272
    13  H    1.568957
    14  H    1.514487
    15  H    1.537162
    16  H   -4.058619
 Sum of Mulliken charges =  -0.00000

 Dipole moment (field-independent basis, Debye):
    X=              0.4560    Y=             -1.2049    Z=              0.0001  Tot=              1.2883

 Test job not archived.
 1\1\GINC-SE054\SP\RHF\Aug-CC-pVDZ\C6H8B1N1\OHZDE\09-Apr-2025\0\\#t hf
 aug-cc-pvdz iop(5/13=1,5/36=2,99/5=2) pseudo=read geom=check guess=(re
 ad,tcheck) scf=(maxcycle=1)\\title\\0,1\C,0,0.473836,0.264081,-0.00001
 4\B,0,1.994133,0.634164,-0.000023\N,0,3.014429,-0.317661,0.000026\H,0,
 2.859504,-1.314343,0.000076\H,0,3.989216,-0.064405,0.00002\C,0,-0.4837
 8,1.292515,0.000001\C,0,-1.850112,1.020617,0.000015\C,0,-2.294124,-0.2
 99355,0.00001\C,0,-1.366647,-1.341819,-0.000008\C,0,-0.005235,-1.05837
 2,-0.000019\H,0,0.694377,-1.889744,-0.000037\H,0,-0.145757,2.323854,0.

 Normal termination of Gaussian 16 at Wed Apr  9 00:30:48 2025.
