 Gaussian 16, Revision C.01,

 ----------------------------------------------------------------------
 #t hf aug-cc-pvdz symm=none int=(grid=ultrafine) guess=(read,tcheck) s
 table=(opt,rrhf)
 ----------------------------------------------------------------------
 -----
 title
 -----
 Symbolic Z-matrix:
 Charge =  0 Multiplicity = 1

 SCF Done:  E(RHF) =  -704.773722542     A.U. after   12 cycles
 Normal termination of Gaussian 16 at Tue Apr  8 23:50:38 2025.
 Gaussian 16:  ES64L-G16RevC.01  3-Jul-2019

 ----------------------------------------------------------------------
 #t hf aug-cc-pvdz iop(5/13=1,5/36=2,99/5=2) pseudo=read geom=check gue
 ss=(read,tcheck) scf=(maxcycle=1)
 ----------------------------------------------------------------------
 -----
 title
 -----
 Structure from the checkpoint file:  "BDE49_nonexpt_1862_mol1.chk"
 Charge =  0 Multiplicity = 1

                         Standard orientation:
 ---------------------------------------------------------------------
 Center     Atomic      Atomic             Coordinates (Angstroms)
 Number     Number       Type             X           Y           Z
 ---------------------------------------------------------------------
      1          6           0        0.905504   -0.017545   -0.011441
      2         14           0       -0.952438   -0.005126    0.449066
      3          8           0        1.427262    1.282387   -0.184464
      4          1           0        0.734787    1.823884   -0.586324
      5          8           0       -1.696678   -1.353734   -0.105442
      6          1           0       -1.280116   -1.754601   -0.876402
      7          8           0        0.981297   -0.783424   -1.184196
      8          1           0        1.921531   -0.907660   -1.382324
      9          8           0       -1.435516    1.395009   -0.292717
     10          1           0       -2.355286    1.668424   -0.268272
     11          8           0        1.724596   -0.637688    0.953274
     12          1           0        2.082148    0.066523    1.506150
     13          1           0       -1.209646    0.060057    1.897257
 ---------------------------------------------------------------------

 SCF Done:  E(RHF) =  -706.641495760     A.U. after    2 cycles

 The electronic state is 1-A.
 Alpha  occ. eigenvalues --  -76.24914 -21.08945 -21.08726 -21.08578 -21.08501
 Alpha  occ. eigenvalues --  -21.08039 -11.46545  -5.59393  -2.27715  -2.24210
 Alpha  occ. eigenvalues --   -2.21984  -1.85305  -1.69341  -1.67566  -1.65698
 Alpha  occ. eigenvalues --   -1.64739  -0.90744  -0.76098  -0.68998  -0.65692
 Alpha  occ. eigenvalues --   -0.62025  -0.60145  -0.54461  -0.52102  -0.47680
 Alpha  occ. eigenvalues --   -0.44217  -0.43953  -0.40455  -0.39918  -0.37793
 Alpha  occ. eigenvalues --   -0.36675  -0.31712  -0.29486
 Alpha virt. eigenvalues --    0.03716   0.05297   0.05937   0.06496   0.06684
 Alpha virt. eigenvalues --    0.06903   0.07423   0.08613   0.08752   0.13101
 Alpha virt. eigenvalues --    0.14422   0.15030   0.15421   0.17932   0.18735

 Mulliken charges:
               1
     1  C    5.413804
     2  Si   6.571976
     3  O   -3.019339
     4  H    0.867555
     5  O   -3.047199
     6  H    1.206850
     7  O   -2.732950
     8  H    0.608712
     9  O   -2.783787
    10  H    1.113350
    11  O   -2.896174
    12  H    0.660526
    13  H   -1.963324
 Sum of Mulliken charges =  -0.00000

 Dipole moment (field-independent basis, Debye):
    X=             -0.4799    Y=              0.6586    Z=             -0.5013  Tot=              0.9567

 Test job not archived.
 1\1\GINC-SE402\SP\RHF\Aug-CC-pVDZ\C1H6O5Si1\OHZDE\08-Apr-2025\0\\#t hf
  aug-cc-pvdz iop(5/13=1,5/36=2,99/5=2) pseudo=read geom=check guess=(r
 ead,tcheck) scf=(maxcycle=1)\\title\\0,1\C,0,0.905504,-0.017545,-0.011
 441\Si,0,-0.952438,-0.005126,0.449066\O,0,1.427262,1.282388,-0.184464\
 H,0,0.734786,1.823884,-0.586324\O,0,-1.696677,-1.353735,-0.105442\H,0,
 -1.280115,-1.754601,-0.876402\O,0,0.981297,-0.783424,-1.184196\H,0,1.9
 21531,-0.907659,-1.382324\O,0,-1.435516,1.395009,-0.292717\H,0,-2.3552
 87,1.668423,-0.268272\O,0,1.724596,-0.637687,0.953274\H,0,2.082148,0.0

 Normal termination of Gaussian 16 at Tue Apr  8 23:50:43 2025.
