 Gaussian 16, Revision C.01,

 ----------------------------------------------------------------------
 #t hf aug-cc-pvdz symm=none int=(grid=ultrafine) guess=(read,tcheck) s
 table=(opt,rrhf)
 ----------------------------------------------------------------------
 -----
 title
 -----
 Symbolic Z-matrix:
 Charge =  0 Multiplicity = 1

 SCF Done:  E(RHF) =  -443.488559957     A.U. after   15 cycles
 Normal termination of Gaussian 16 at Tue Apr  8 22:43:12 2025.
 Gaussian 16:  ES64L-G16RevC.01  3-Jul-2019

 ----------------------------------------------------------------------
 #t hf aug-cc-pvdz iop(5/13=1,5/36=2,99/5=2) pseudo=read geom=check gue
 ss=(read,tcheck) scf=(maxcycle=1)
 ----------------------------------------------------------------------
 -----
 title
 -----
 Structure from the checkpoint file:  "BDE49_expt_1398_mol1.chk"
 Charge =  0 Multiplicity = 1

                         Standard orientation:
 ---------------------------------------------------------------------
 Center     Atomic      Atomic             Coordinates (Angstroms)
 Number     Number       Type             X           Y           Z
 ---------------------------------------------------------------------
      1          6           0       -1.975058   -0.649765    0.000000
      2          6           0       -1.377669    0.596898    0.000000
      3          6           0        0.000000    0.779352    0.000000
      4          6           0       -1.137536   -1.768155    0.000000
      5          6           0        0.242359   -1.631982    0.000000
      6          6           0        0.817980   -0.353619    0.000000
      7          1           0       -3.053593   -0.734657    0.000000
      8          9           0       -2.158717    1.701883    0.000000
      9          1           0        0.390838    1.786622    0.000000
     10          1           0       -1.574692   -2.759854    0.000000
     11          1           0        0.898285   -2.493074    0.000000
     12          8           0        2.177408   -0.312547    0.000000
     13          6           0        2.819005    0.955301    0.000000
     14          1           0        3.887549    0.747351    0.000000
     15          1           0        2.563160    1.534437    0.894234
     16          1           0        2.563160    1.534437   -0.894234
 ---------------------------------------------------------------------

 SCF Done:  E(RHF) =  -445.425088038     A.U. after    2 cycles

 The electronic state is 1-A'.
 Alpha  occ. eigenvalues --  -29.28317 -21.08321 -11.54504 -11.49246 -11.45185
 Alpha  occ. eigenvalues --  -11.42305 -11.41218 -11.40894 -11.37980  -1.79748
 Alpha  occ. eigenvalues --   -1.35416  -1.14895  -1.10252  -1.00518  -0.92438
 Alpha  occ. eigenvalues --   -0.86125  -0.75077  -0.69161  -0.64836  -0.63167
 Alpha  occ. eigenvalues --   -0.62074  -0.61023  -0.55939  -0.55530  -0.49890
 Alpha  occ. eigenvalues --   -0.47276  -0.45618  -0.41883  -0.38254  -0.37520
 Alpha  occ. eigenvalues --   -0.28548  -0.26981  -0.22969
 Alpha virt. eigenvalues --    0.03261   0.04975   0.05805   0.05830   0.06214
 Alpha virt. eigenvalues --    0.06433   0.08302   0.09409   0.11374   0.11389
 Alpha virt. eigenvalues --    0.12508   0.12689   0.13843   0.13941   0.14338

 Mulliken charges:
               1
     1  C   -5.032655
     2  C    4.526330
     3  C   -5.755270
     4  C    0.845477
     5  C   -3.780701
     6  C    5.854356
     7  H    1.695766
     8  F    0.620816
     9  H    1.934368
    10  H    1.444187
    11  H    1.755662
    12  O   -4.664588
    13  C   -3.558722
    14  H    1.421510
    15  H    1.346732
    16  H    1.346732
 Sum of Mulliken charges =   0.00000

 Dipole moment (field-independent basis, Debye):
    X=             -0.0351    Y=              2.0331    Z=              0.0000  Tot=              2.0334

 Test job not archived.
 1\1\GINC-SE453\SP\RHF\Aug-CC-pVDZ\C7H7F1O1\OHZDE\08-Apr-2025\0\\#t hf
 aug-cc-pvdz iop(5/13=1,5/36=2,99/5=2) pseudo=read geom=check guess=(re
 ad,tcheck) scf=(maxcycle=1)\\title\\0,1\C,0,-1.975058,-0.649765,0.\C,0
 ,-1.377669,0.596898,0.\C,0,0.,0.779352,0.\C,0,-1.137536,-1.768155,0.\C
 ,0,0.242359,-1.631982,0.\C,0,0.81798,-0.353619,0.\H,0,-3.053593,-0.734
 657,0.\F,0,-2.158717,1.701883,0.\H,0,0.390838,1.786622,0.\H,0,-1.57469
 2,-2.759854,0.\H,0,0.898285,-2.493074,0.\O,0,2.177408,-0.312547,0.\C,0
 ,2.819005,0.955301,0.\H,0,3.887549,0.747352,0.\H,0,2.56316,1.534437,0.

 Normal termination of Gaussian 16 at Tue Apr  8 22:43:17 2025.
