 Gaussian 16, Revision C.01,

 ----------------------------------------------------------------------
 #t hf aug-cc-pvdz symm=none int=(grid=ultrafine) guess=(read,tcheck) s
 table=(opt,rrhf)
 ----------------------------------------------------------------------
 -----
 title
 -----
 Symbolic Z-matrix:
 Charge =  0 Multiplicity = 1

 SCF Done:  E(RHF) =  -1290.66269549     A.U. after   17 cycles
 Normal termination of Gaussian 16 at Wed Apr  9 00:22:10 2025.
 Gaussian 16:  ES64L-G16RevC.01  3-Jul-2019

 ----------------------------------------------------------------------
 #t hf aug-cc-pvdz iop(5/13=1,5/36=2,99/5=2) pseudo=read geom=check gue
 ss=(read,tcheck) scf=(maxcycle=1)
 ----------------------------------------------------------------------
 -----
 title
 -----
 Structure from the checkpoint file:  "BDE49_nonexpt_2603_mol1.chk"
 Charge =  0 Multiplicity = 1

                         Standard orientation:
 ---------------------------------------------------------------------
 Center     Atomic      Atomic             Coordinates (Angstroms)
 Number     Number       Type             X           Y           Z
 ---------------------------------------------------------------------
      1         17           0        3.151561    0.099617    0.000810
      2         16           0        1.334976   -1.007827   -0.000593
      3          6           0        0.143207    0.304712   -0.000282
      4          6           0       -1.227381   -0.022439   -0.000080
      5          6           0       -2.237253    0.940938    0.000043
      6          6           0       -1.891781    2.278486    0.000036
      7          6           0        0.463313    1.671156   -0.000234
      8          1           0        1.499635    1.973416   -0.000360
      9          6           0       -0.537240    2.631455   -0.000083
     10          1           0       -0.254116    3.677775   -0.000075
     11          1           0       -2.660083    3.041006    0.000151
     12          7           0       -1.599012   -1.414489    0.000075
     13          8           0       -0.647663   -2.223692    0.000067
     14          8           0       -2.769853   -1.750152   -0.000206
     15          1           0       -3.265567    0.605878    0.000184
 ---------------------------------------------------------------------

 SCF Done:  E(RHF) =  -1293.07433370     A.U. after    2 cycles

 The electronic state is 1-A.
 Alpha  occ. eigenvalues --  -99.90006 -75.77651 -21.12153 -21.11076 -16.02014
 Alpha  occ. eigenvalues --  -13.26018 -13.16097 -13.08543 -11.56386 -11.50517
 Alpha  occ. eigenvalues --  -11.49458 -11.47031 -11.45393 -11.41689 -10.47107
 Alpha  occ. eigenvalues --   -9.66944  -9.66547  -9.66177  -8.11129  -2.02072
 Alpha  occ. eigenvalues --   -1.71733  -1.41579  -1.31892  -1.21204  -1.18183
 Alpha  occ. eigenvalues --   -1.08565  -1.00032  -0.90561  -0.85542  -0.76094
 Alpha  occ. eigenvalues --   -0.70637  -0.70214  -0.66700  -0.65540  -0.61960
 Alpha  occ. eigenvalues --   -0.61185  -0.55769  -0.53864  -0.53641  -0.52779
 Alpha  occ. eigenvalues --   -0.49736  -0.44584  -0.41464  -0.37985  -0.37747
 Alpha  occ. eigenvalues --   -0.34314  -0.33957  -0.25649
 Alpha virt. eigenvalues --    0.02389   0.04420   0.04822   0.06076   0.06112
 Alpha virt. eigenvalues --    0.07129   0.07873   0.08369   0.10703   0.11573
 Alpha virt. eigenvalues --    0.12187   0.12275   0.12535   0.12949   0.13171

 Mulliken charges:
               1
     1  Cl  -0.647984
     2  S    1.141318
     3  C    1.341163
     4  C    1.748993
     5  C   -3.370064
     6  C   -1.201417
     7  C   -0.562262
     8  H    1.920583
     9  C   -2.369780
    10  H    1.539240
    11  H    1.526624
    12  N    2.953759
    13  O   -2.746577
    14  O   -3.126058
    15  H    1.852460
 Sum of Mulliken charges =  -0.00000

 Dipole moment (field-independent basis, Debye):
    X=             -2.9972    Y=             -0.1341    Z=             -0.0020  Tot=              3.0002

 Test job not archived.
 1\1\GINC-SE049\SP\RHF\Aug-CC-pVDZ\C6H4Cl1N1O2S1\OHZDE\09-Apr-2025\0\\#
 t hf aug-cc-pvdz iop(5/13=1,5/36=2,99/5=2) pseudo=read geom=check gues
 s=(read,tcheck) scf=(maxcycle=1)\\title\\0,1\Cl,0,3.151561,0.099617,0.
 00081\S,0,1.334976,-1.007827,-0.000593\C,0,0.143207,0.304712,-0.000282
 \C,0,-1.227381,-0.022439,-0.00008\C,0,-2.237253,0.940938,0.000043\C,0,
 -1.891781,2.278486,0.000036\C,0,0.463313,1.671156,-0.000234\H,0,1.4996
 35,1.973416,-0.00036\C,0,-0.53724,2.631455,-0.000083\H,0,-0.254116,3.6
 77775,-0.000075\H,0,-2.660083,3.041006,0.000151\N,0,-1.599012,-1.41448

 Normal termination of Gaussian 16 at Wed Apr  9 00:22:19 2025.
