 Gaussian 16, Revision C.01,

 ----------------------------------------------------------------------
 #t hf aug-cc-pvdz symm=none int=(grid=ultrafine) guess=(read,tcheck) s
 table=opt
 ----------------------------------------------------------------------
 -----
 title
 -----
 Symbolic Z-matrix:
 Charge =  0 Multiplicity = 2

 SCF Done:  E(UHF) =  -1692.79791931     A.U. after   18 cycles
 Normal termination of Gaussian 16 at Tue Apr  8 23:44:18 2025.
 Gaussian 16:  ES64L-G16RevC.01  3-Jul-2019

 ----------------------------------------------------------------------
 #t hf aug-cc-pvdz iop(5/13=1,5/36=2,99/5=2) pseudo=read geom=check gue
 ss=(read,tcheck) scf=(maxcycle=1)
 ----------------------------------------------------------------------
 -----
 title
 -----
 Structure from the checkpoint file:  "BDE49_nonexpt_170_mol2.chk"
 Charge =  0 Multiplicity = 2

                         Standard orientation:
 ---------------------------------------------------------------------
 Center     Atomic      Atomic             Coordinates (Angstroms)
 Number     Number       Type             X           Y           Z
 ---------------------------------------------------------------------
      1         17           0       -2.681021   -0.123473   -0.239478
      2          5           0       -1.325692   -0.512266    0.730116
      3         14           0        0.598677    0.003389    0.668349
      4         17           0        1.512588   -1.548064   -0.367550
      5         17           0        0.993752    1.814497   -0.275695
      6          1           0        1.216568    0.083571    1.998820
 ---------------------------------------------------------------------

 SCF Done:  E(UHF) =  -1693.75064711     A.U. after    2 cycles

 The electronic state is 2-A.
 Alpha  occ. eigenvalues --  -99.92988 -99.90260 -99.90046 -76.31154 -10.50236
 Alpha  occ. eigenvalues --  -10.47675 -10.47451  -9.70115  -9.69785  -9.69520
 Alpha  occ. eigenvalues --   -9.67530  -9.67367  -9.66904  -9.66895  -9.66704
 Alpha  occ. eigenvalues --   -9.66636  -7.70641  -5.64712  -2.26839  -2.26426
 Alpha  occ. eigenvalues --   -2.26038  -1.37742  -1.32051  -1.29225  -0.86888
 Alpha  occ. eigenvalues --   -0.75272  -0.60706  -0.60089  -0.59543  -0.57451
 Alpha  occ. eigenvalues --   -0.57091  -0.54462  -0.53204  -0.52504  -0.48468
 Alpha  occ. eigenvalues --   -0.33136
 Alpha virt. eigenvalues --   -0.00233   0.03569   0.04009   0.04382   0.05271
 Alpha virt. eigenvalues --    0.07942   0.08322   0.08500   0.10475   0.11571
 Alpha virt. eigenvalues --    0.12004   0.13033   0.13108   0.14095   0.14139

  Beta  occ. eigenvalues --  -99.92928 -99.90259 -99.89997 -76.31092 -10.50168
  Beta  occ. eigenvalues --  -10.47673 -10.47397  -9.70126  -9.69569  -9.69416
  Beta  occ. eigenvalues --   -9.67520  -9.67209  -9.66912  -9.66883  -9.66643
  Beta  occ. eigenvalues --   -9.66605  -7.68859  -5.64598  -2.26855  -2.26257
  Beta  occ. eigenvalues --   -2.25746  -1.36950  -1.31852  -1.28990  -0.84108
  Beta  occ. eigenvalues --   -0.73365  -0.59880  -0.59315  -0.58656  -0.57384
  Beta  occ. eigenvalues --   -0.56064  -0.54216  -0.52442  -0.52281  -0.46121
  Beta virt. eigenvalues --    0.01166   0.01447   0.03816   0.04051   0.05293
  Beta virt. eigenvalues --    0.05787   0.08266   0.08450   0.08826   0.10944
  Beta virt. eigenvalues --    0.11725   0.12970   0.13198   0.13310   0.14484

 Mulliken charges and spin densities:
               1          2
     1  Cl  -1.004190   0.039669
     2  B   -0.665102   1.009227
     3  Si   5.179012  -0.075543
     4  Cl  -0.777926   0.004318
     5  Cl  -0.765288   0.019851
     6  H   -1.966506   0.002478
 Sum of Mulliken charges =  -0.00000   1.00000

 Dipole moment (field-independent basis, Debye):
    X=             -0.8733    Y=              0.0893    Z=              0.8683  Tot=              1.2347
                          Isotropic Fermi Contact Couplings
        Atom                 a.u.       MegaHertz       Gauss      10(-4) cm-1
     1  Cl(35)             0.05854      25.66636       9.15840       8.56138
     2  B(11)              0.17001     243.86289      87.01634      81.34390
     3  Si(29)             0.14799    -131.51877     -46.92917     -43.86994
     4  Cl(35)             0.00184       0.80825       0.28840       0.26960
     5  Cl(35)             0.03869      16.96473       6.05344       5.65882
     6  H(1)              -0.00215      -9.60648      -3.42783      -3.20438
 --------------------------------------------------------
       Center         ----  Spin Dipole Couplings  ----

 Normal termination of Gaussian 16 at Tue Apr  8 23:44:21 2025.
