 Gaussian 16, Revision C.01,

 ----------------------------------------------------------------------
 #t hf aug-cc-pvdz symm=none int=(grid=ultrafine) guess=(read,tcheck) s
 table=(opt,rrhf)
 ----------------------------------------------------------------------
 -----
 title
 -----
 Symbolic Z-matrix:
 Charge =  0 Multiplicity = 1

 SCF Done:  E(RHF) =  -1094.74018252     A.U. after   13 cycles
 Normal termination of Gaussian 16 at Tue Apr  8 22:43:28 2025.
 Gaussian 16:  ES64L-G16RevC.01  3-Jul-2019

 ----------------------------------------------------------------------
 #t hf aug-cc-pvdz iop(5/13=1,5/36=2,99/5=2) pseudo=read geom=check gue
 ss=(read,tcheck) scf=(maxcycle=1)
 ----------------------------------------------------------------------
 -----
 title
 -----
 Structure from the checkpoint file:  "BDE49_expt_140_mol1.chk"
 Charge =  0 Multiplicity = 1

                         Standard orientation:
 ---------------------------------------------------------------------
 Center     Atomic      Atomic             Coordinates (Angstroms)
 Number     Number       Type             X           Y           Z
 ---------------------------------------------------------------------
      1          6           0       -1.087694    0.029844    0.000000
      2          6           0        0.000000    0.791917   -0.000000
      3          9           0       -0.113234    2.122400   -0.000000
      4         17           0       -1.065249   -1.695713    0.000000
      5          1           0       -2.066441    0.486553    0.000000
      6         17           0        1.630644    0.253436   -0.000000
 ---------------------------------------------------------------------

 SCF Done:  E(RHF) =  -1095.91824654     A.U. after    2 cycles

 The electronic state is 1-A'.
 Alpha  occ. eigenvalues --  -99.93066 -99.91875 -29.32684 -11.53786 -11.45778
 Alpha  occ. eigenvalues --  -10.50557 -10.49249  -9.70431  -9.69474  -9.69371
 Alpha  occ. eigenvalues --   -9.69069  -9.68232  -9.68142  -1.43747  -1.34842
 Alpha  occ. eigenvalues --   -1.17512  -0.94571  -0.78477  -0.70055  -0.63711
 Alpha  occ. eigenvalues --   -0.62203  -0.56327  -0.54323  -0.52242  -0.46906
 Alpha  occ. eigenvalues --   -0.42867  -0.32475  -0.27912
 Alpha virt. eigenvalues --    0.03700   0.06767   0.07264   0.08540   0.09800
 Alpha virt. eigenvalues --    0.10375   0.12530   0.12788   0.13447   0.13600
 Alpha virt. eigenvalues --    0.14889   0.15631   0.16974   0.18689   0.18955

 Mulliken charges:
               1
     1  C   -2.109935
     2  C   -0.113670
     3  F    0.869201
     4  Cl  -0.193189
     5  H    1.607885
     6  Cl  -0.060292
 Sum of Mulliken charges =   0.00000

 Dipole moment (field-independent basis, Debye):
    X=             -0.9494    Y=              4.5473    Z=              0.0000  Tot=              4.6454

 Test job not archived.
 1\1\GINC-SE088\SP\RHF\Aug-CC-pVDZ\C2H1Cl2F1\OHZDE\08-Apr-2025\0\\#t hf
  aug-cc-pvdz iop(5/13=1,5/36=2,99/5=2) pseudo=read geom=check guess=(r
 ead,tcheck) scf=(maxcycle=1)\\title\\0,1\C,0,-1.087694,0.029844,0.\C,0
 ,0.,0.791917,0.\F,0,-0.113234,2.1224,0.\Cl,0,-1.065249,-1.695713,0.\H,
 0,-2.066441,0.486553,0.\Cl,0,1.630644,0.253436,0.\\Version=ES64L-G16Re
 vC.01\State=1-A'\HF=-1095.9182465\RMSD=3.505e-01\Dipole=-0.3735275,1.7
 890601,0.\Quadrupole=-0.717555,4.0026652,-3.2851102,-2.2531477,0.,0.\P
 G=CS [SG(C2H1Cl2F1)]\\@

 Normal termination of Gaussian 16 at Tue Apr  8 22:43:31 2025.
