 Gaussian 16, Revision C.01,

 ----------------------------------------------------------------------
 #t hf aug-cc-pvdz symm=none int=(grid=ultrafine) guess=(read,tcheck) s
 table=(opt,rrhf)
 ----------------------------------------------------------------------
 -----
 title
 -----
 Symbolic Z-matrix:
 Charge =  0 Multiplicity = 1

 SCF Done:  E(RHF) =  -610.673292892     A.U. after   14 cycles

 1\1\GINC-SE423\Stability\RHF\Aug-CC-pVDZ\C8H14O4\OHZDE\08-Apr-2025\0\\
 #t hf aug-cc-pvdz symm=none int=(grid=ultrafine) guess=(read,tcheck) s
 table=(opt,rrhf)\\title\\0,1\C,0,3.313016,1.637459,0.120924\C,0,2.7583
 86,0.22577,0.046245\H,0,2.835254,2.198218,0.928013\H,0,3.147219,2.1698
 91,-0.817658\H,0,4.388079,1.603361,0.313435\C,0,2.910249,-0.570555,1.3
 33939\H,0,3.969951,-0.676966,1.580776\H,0,2.482571,-1.568063,1.225547\
 H,0,2.40707,-0.062384,2.159711\O,0,1.326448,0.37828,-0.251491\H,0,3.19
 7847,-0.321461,-0.789595\C,0,0.73324,-0.63016,-0.872067\O,0,1.226479,-

 Normal termination of Gaussian 16 at Tue Apr  8 23:07:38 2025.
 Gaussian 16:  ES64L-G16RevC.01  3-Jul-2019

 ----------------------------------------------------------------------
 #t hf aug-cc-pvdz iop(5/13=1,5/36=2,99/5=2) pseudo=read geom=check gue
 ss=(read,tcheck) scf=(maxcycle=1)
 ----------------------------------------------------------------------
 -----
 title
 -----
 Structure from the checkpoint file:  "BDE49_expt_275_mol1.chk"
 Charge =  0 Multiplicity = 1

                         Standard orientation:
 ---------------------------------------------------------------------
 Center     Atomic      Atomic             Coordinates (Angstroms)
 Number     Number       Type             X           Y           Z
 ---------------------------------------------------------------------
      1          6           0        3.313016    1.637459    0.120924
      2          6           0        2.758386    0.225770    0.046245
      3          1           0        2.835254    2.198218    0.928013
      4          1           0        3.147219    2.169891   -0.817658
      5          1           0        4.388079    1.603361    0.313435
      6          6           0        2.910249   -0.570555    1.333939
      7          1           0        3.969951   -0.676966    1.580776
      8          1           0        2.482571   -1.568063    1.225547
      9          1           0        2.407070   -0.062384    2.159711
     10          8           0        1.326448    0.378280   -0.251491
     11          1           0        3.197847   -0.321461   -0.789595
     12          6           0        0.733240   -0.630160   -0.872067
     13          8           0        1.226479   -1.617274   -1.324820
     14          8           0       -0.620285   -0.344915   -1.016719
     15          6           0       -1.409067   -0.371220    0.119086
     16          8           0       -0.996315   -0.738557    1.181077
     17          6           0       -2.808596    0.111910   -0.204833
     18          6           0       -3.782762   -0.257510    0.915403
     19          1           0       -3.808448   -1.336238    1.081817
     20          1           0       -4.791582    0.074846    0.659042
     21          1           0       -3.490864    0.215320    1.855469
     22          6           0       -2.779409    1.629324   -0.480335
     23          1           0       -3.099303   -0.392184   -1.132720
     24          1           0       -2.467345    2.178765    0.412225
     25          1           0       -3.778138    1.974237   -0.757670
     26          1           0       -2.093258    1.872273   -1.292945
 ---------------------------------------------------------------------

 SCF Done:  E(RHF) =  -613.412149847     A.U. after    2 cycles

 The electronic state is 1-A.
 Alpha  occ. eigenvalues --  -21.11186 -21.09961 -21.06764 -21.06417 -11.56127
 Alpha  occ. eigenvalues --  -11.55265 -11.46591 -11.44143 -11.40293 -11.39852
 Alpha  occ. eigenvalues --  -11.37478 -11.36769  -1.92832  -1.79426  -1.70007
 Alpha  occ. eigenvalues --   -1.66438  -1.24519  -1.19381  -1.02173  -1.01661
 Alpha  occ. eigenvalues --   -0.96193  -0.87994  -0.80908  -0.74169  -0.69863
 Alpha  occ. eigenvalues --   -0.67077  -0.63587  -0.62431  -0.61409  -0.58962
 Alpha  occ. eigenvalues --   -0.58480  -0.56668  -0.55285  -0.54845  -0.54518
 Alpha  occ. eigenvalues --   -0.51579  -0.50684  -0.49449  -0.47921  -0.47208
 Alpha  occ. eigenvalues --   -0.45687  -0.44762  -0.40493  -0.35447  -0.33570
 Alpha  occ. eigenvalues --   -0.31122  -0.29518
 Alpha virt. eigenvalues --    0.03498   0.04355   0.04511   0.04928   0.05239
 Alpha virt. eigenvalues --    0.05734   0.06004   0.06553   0.06744   0.07183
 Alpha virt. eigenvalues --    0.07713   0.08300   0.08581   0.09454   0.10469

 Mulliken charges:
               1
     1  C   -3.793405
     2  C   -0.437888
     3  H    1.321872
     4  H    1.369247
     5  H    1.183010
     6  C   -3.941867
     7  H    1.203962
     8  H    1.322320
     9  H    1.394193
    10  O   -3.882697
    11  H    1.948495
    12  C    7.979963
    13  O   -3.172475
    14  O   -3.895646
    15  C    6.439776
    16  O   -3.481194
    17  C   -3.678330
    18  C   -3.495750
    19  H    1.255708
    20  H    1.181180
    21  H    1.400861
    22  C   -4.033136
    23  H    1.806931
    24  H    1.381102
    25  H    1.283335
    26  H    1.340432
 Sum of Mulliken charges =  -0.00000

 Dipole moment (field-independent basis, Debye):
    X=             -0.0170    Y=              1.8153    Z=              0.3718  Tot=              1.8531

 Test job not archived.
 1\1\GINC-SE423\SP\RHF\Aug-CC-pVDZ\C8H14O4\OHZDE\08-Apr-2025\0\\#t hf a
 ug-cc-pvdz iop(5/13=1,5/36=2,99/5=2) pseudo=read geom=check guess=(rea
 d,tcheck) scf=(maxcycle=1)\\title\\0,1\C,0,3.313016,1.637459,0.120924\
 C,0,2.758386,0.22577,0.046245\H,0,2.835254,2.198218,0.928013\H,0,3.147
 219,2.169891,-0.817658\H,0,4.388079,1.603361,0.313435\C,0,2.910249,-0.
 570555,1.333939\H,0,3.969951,-0.676966,1.580776\H,0,2.482571,-1.568063
 ,1.225547\H,0,2.40707,-0.062384,2.159711\O,0,1.326448,0.37828,-0.25149
 1\H,0,3.197847,-0.321461,-0.789595\C,0,0.73324,-0.63016,-0.872067\O,0,

 Normal termination of Gaussian 16 at Tue Apr  8 23:07:57 2025.
