 Gaussian 16, Revision C.01,

 ----------------------------------------------------------------------
 #t hf aug-cc-pvdz symm=none int=(grid=ultrafine) guess=(read,tcheck) s
 table=(opt,rrhf)
 ----------------------------------------------------------------------
 -----
 title
 -----
 Symbolic Z-matrix:
 Charge =  0 Multiplicity = 1

 SCF Done:  E(RHF) =  -1053.23747508     A.U. after   13 cycles
 Normal termination of Gaussian 16 at Wed Apr  9 00:10:20 2025.
 Gaussian 16:  ES64L-G16RevC.01  3-Jul-2019

 ----------------------------------------------------------------------
 #t hf aug-cc-pvdz iop(5/13=1,5/36=2,99/5=2) pseudo=read geom=check gue
 ss=(read,tcheck) scf=(maxcycle=1)
 ----------------------------------------------------------------------
 -----
 title
 -----
 Structure from the checkpoint file:  "BDE49_nonexpt_233_mol1.chk"
 Charge =  0 Multiplicity = 1

                         Standard orientation:
 ---------------------------------------------------------------------
 Center     Atomic      Atomic             Coordinates (Angstroms)
 Number     Number       Type             X           Y           Z
 ---------------------------------------------------------------------
      1         17           0        0.874498   -1.543703   -0.018843
      2          5           0        0.018900   -0.000016    0.029063
      3         17           0        0.873479    1.544220   -0.018813
      4          7           0       -1.354355   -0.000463    0.275289
      5          7           0       -2.449379   -0.000544   -0.270983
      6          1           0       -3.183973   -0.001668    0.464693
 ---------------------------------------------------------------------

 SCF Done:  E(RHF) =  -1054.29362192     A.U. after    2 cycles

 The electronic state is 1-A.
 Alpha  occ. eigenvalues --  -99.90663 -99.90651 -15.85369 -15.79907 -10.48061
 Alpha  occ. eigenvalues --  -10.47836  -9.67972  -9.67819  -9.67414  -9.67317
 Alpha  occ. eigenvalues --   -9.67227  -9.67170  -7.74410  -1.56771  -1.39678
 Alpha  occ. eigenvalues --   -1.30665  -1.07113  -0.78416  -0.70192  -0.66585
 Alpha  occ. eigenvalues --   -0.64716  -0.57508  -0.53406  -0.52515  -0.51818
 Alpha  occ. eigenvalues --   -0.50933  -0.36245
 Alpha virt. eigenvalues --    0.03381   0.04117   0.04418   0.04474   0.07329
 Alpha virt. eigenvalues --    0.07872   0.09335   0.11017   0.14323   0.14465
 Alpha virt. eigenvalues --    0.15975   0.16543   0.16858   0.17842   0.17885

 Mulliken charges:
               1
     1  Cl  -1.090682
     2  B    2.921028
     3  Cl  -1.090690
     4  N   -1.084166
     5  N   -0.429584
     6  H    0.774094
 Sum of Mulliken charges =  -0.00000

 Dipole moment (field-independent basis, Debye):
    X=             -1.7393    Y=             -0.0013    Z=              0.5750  Tot=              1.8319

 Test job not archived.
 1\1\GINC-SE102\SP\RHF\Aug-CC-pVDZ\B1Cl2H1N2\OHZDE\09-Apr-2025\0\\#t hf
  aug-cc-pvdz iop(5/13=1,5/36=2,99/5=2) pseudo=read geom=check guess=(r
 ead,tcheck) scf=(maxcycle=1)\\title\\0,1\Cl,0,0.874495,-1.543704,-0.01
 8843\B,0,0.0189,-0.000016,0.029063\Cl,0,0.873482,1.544219,-0.018813\N,
 0,-1.354355,-0.000461,0.275289\N,0,-2.449379,-0.00054,-0.270983\H,0,-3
 .183973,-0.001662,0.464693\\Version=ES64L-G16RevC.01\State=1-A\HF=-105
 4.2936219\RMSD=1.053e-01\Dipole=-0.6842959,-0.0004962,0.2262402\Quadru
 pole=2.5287279,-0.703916,-1.824812,0.0029995,-2.0325262,-0.0001819\PG=

 Normal termination of Gaussian 16 at Wed Apr  9 00:10:23 2025.
