 Gaussian 16, Revision C.01,

 ----------------------------------------------------------------------
 #t hf aug-cc-pvdz symm=none int=(grid=ultrafine) guess=(read,tcheck) s
 table=(opt,rrhf)
 ----------------------------------------------------------------------
 -----
 title
 -----
 Symbolic Z-matrix:
 Charge =  0 Multiplicity = 1

 SCF Done:  E(RHF) =  -664.079622782     A.U. after   14 cycles
 Normal termination of Gaussian 16 at Wed Apr  9 00:23:08 2025.
 Gaussian 16:  ES64L-G16RevC.01  3-Jul-2019

 ----------------------------------------------------------------------
 #t hf aug-cc-pvdz iop(5/13=1,5/36=2,99/5=2) pseudo=read geom=check gue
 ss=(read,tcheck) scf=(maxcycle=1)
 ----------------------------------------------------------------------
 -----
 title
 -----
 Structure from the checkpoint file:  "BDE49_nonexpt_2674_mol1.chk"
 Charge =  0 Multiplicity = 1

                         Standard orientation:
 ---------------------------------------------------------------------
 Center     Atomic      Atomic             Coordinates (Angstroms)
 Number     Number       Type             X           Y           Z
 ---------------------------------------------------------------------
      1          9           0       -1.547676    0.995048    0.164712
      2         16           0       -1.003420   -0.482355   -0.292400
      3          6           0        1.505540   -0.003400    0.088169
      4          7           0        2.481969    0.469740   -0.308124
      5          8           0        0.447097   -0.563192    0.602980
 ---------------------------------------------------------------------

 SCF Done:  E(RHF) =  -665.325547728     A.U. after    2 cycles

 The electronic state is 1-A.
 Alpha  occ. eigenvalues --  -75.86460 -29.33383 -21.20486 -15.78163 -13.31997
 Alpha  occ. eigenvalues --  -13.26214 -13.18521 -11.49959  -8.19910  -1.89412
 Alpha  occ. eigenvalues --   -1.31578  -1.22520  -0.81010  -0.69890  -0.63718
 Alpha  occ. eigenvalues --   -0.58416  -0.54729  -0.46648  -0.45309  -0.41360
 Alpha  occ. eigenvalues --   -0.36218  -0.35203  -0.22396
 Alpha virt. eigenvalues --    0.04423   0.05727   0.09098   0.09770   0.11985
 Alpha virt. eigenvalues --    0.12474   0.12848   0.14315   0.18053   0.18609
 Alpha virt. eigenvalues --    0.19345   0.19948   0.21846   0.22825   0.24071

 Mulliken charges:
               1
     1  F   -0.134695
     2  S    1.100585
     3  C    3.657636
     4  N   -2.329489
     5  O   -2.294037
 Sum of Mulliken charges =  -0.00000

 Dipole moment (field-independent basis, Debye):
    X=             -5.0126    Y=              0.9733    Z=              0.7228  Tot=              5.1571

 Test job not archived.
 1\1\GINC-SE179\SP\RHF\Aug-CC-pVDZ\C1F1N1O1S1\OHZDE\09-Apr-2025\0\\#t h
 f aug-cc-pvdz iop(5/13=1,5/36=2,99/5=2) pseudo=read geom=check guess=(
 read,tcheck) scf=(maxcycle=1)\\title\\0,1\F,0,-1.547676,0.995048,0.164
 712\S,0,-1.00342,-0.482355,-0.2924\C,0,1.50554,-0.0034,0.088169\N,0,2.
 481969,0.46974,-0.308124\O,0,0.447097,-0.563192,0.60298\\Version=ES64L
 -G16RevC.01\State=1-A\HF=-665.3255477\RMSD=4.455e-02\Dipole=-1.9721153
 ,0.3829326,0.2843791\Quadrupole=-1.7816213,1.8408343,-0.0592131,-3.569
 9507,1.952039,1.1996393\PG=C01 [X(C1F1N1O1S1)]\\@

 Normal termination of Gaussian 16 at Wed Apr  9 00:23:10 2025.
