 Gaussian 16, Revision C.01,

 ----------------------------------------------------------------------
 #t hf aug-cc-pvdz symm=none int=(grid=ultrafine) guess=(read,tcheck) s
 table=(opt,rrhf)
 ----------------------------------------------------------------------
 -----
 title
 -----
 Symbolic Z-matrix:
 Charge =  0 Multiplicity = 1

 SCF Done:  E(RHF) =  -764.320630008     A.U. after   14 cycles
 Normal termination of Gaussian 16 at Tue Apr  8 23:12:32 2025.
 Gaussian 16:  ES64L-G16RevC.01  3-Jul-2019

 ----------------------------------------------------------------------
 #t hf aug-cc-pvdz iop(5/13=1,5/36=2,99/5=2) pseudo=read geom=check gue
 ss=(read,tcheck) scf=(maxcycle=1)
 ----------------------------------------------------------------------
 -----
 title
 -----
 Structure from the checkpoint file:  "BDE49_expt_1882_mol1.chk"
 Charge =  0 Multiplicity = 1

                         Standard orientation:
 ---------------------------------------------------------------------
 Center     Atomic      Atomic             Coordinates (Angstroms)
 Number     Number       Type             X           Y           Z
 ---------------------------------------------------------------------
      1          8           0        0.713441   -0.106929    1.618598
      2          8           0       -0.713368    0.105862    1.618633
      3          6           0       -1.095848    1.027651    0.659695
      4          6           0        1.095950   -1.028221    0.659194
      5          8           0        0.344055   -1.573431   -0.090441
      6          8           0       -0.343921    1.573304   -0.089587
      7          6           0        2.600234   -1.165630    0.713658
      8          6           0        3.244025   -0.476382   -0.494284
      9          1           0        2.820143   -2.237278    0.696967
     10          1           0        2.986896   -0.744607    1.644239
     11          6           0        3.248611    1.075942   -0.571019
     12          6           0        4.794560   -0.445927   -0.586888
     13          1           0        2.819112   -0.897672   -1.409595
     14          6           0        4.686344    0.996860   -1.151831
     15          1           0        5.278960   -1.207284   -1.201693
     16          1           0        5.253445   -0.453327    0.406318
     17          1           0        5.414348    1.730222   -0.801352
     18          1           0        4.683285    1.003198   -2.244237
     19          1           0        3.241427    1.520322    0.428210
     20          1           0        2.467760    1.553304   -1.162698
     21          6           0       -2.600115    1.165182    0.714314
     22          6           0       -3.244035    0.476706   -0.494000
     23          1           0       -2.819918    2.236862    0.698259
     24          1           0       -2.986776    0.743655    1.644667
     25          6           0       -3.248791   -1.075572   -0.571641
     26          6           0       -4.794578    0.446469   -0.586545
     27          1           0       -2.819122    0.898486   -1.409085
     28          6           0       -4.686543   -0.995997   -1.152339
     29          1           0       -5.278927    1.208239   -1.200880
     30          1           0       -5.253413    0.453336    0.406688
     31          1           0       -5.414608   -1.729486   -0.802255
     32          1           0       -4.683536   -1.001696   -2.244749
     33          1           0       -3.241606   -1.520537    0.427328
     34          1           0       -2.468018   -1.552671   -1.163635
 ---------------------------------------------------------------------

 SCF Done:  E(RHF) =  -767.836695131     A.U. after    2 cycles

 The electronic state is 1-A.
 Alpha  occ. eigenvalues --  -21.14637 -21.14411 -21.06601 -21.06585 -11.55309
 Alpha  occ. eigenvalues --  -11.54939 -11.49594 -11.49503 -11.44046 -11.43656
 Alpha  occ. eigenvalues --  -11.39686 -11.39576 -11.39302 -11.39236 -11.34411
 Alpha  occ. eigenvalues --  -11.34328  -2.02275  -1.75186  -1.70659  -1.51212
 Alpha  occ. eigenvalues --   -1.33967  -1.33500  -1.13104  -1.11333  -0.95488
 Alpha  occ. eigenvalues --   -0.95261  -0.92779  -0.91576  -0.81893  -0.78699
 Alpha  occ. eigenvalues --   -0.78261  -0.73538  -0.68795  -0.68112  -0.65953
 Alpha  occ. eigenvalues --   -0.65757  -0.63705  -0.63600  -0.62209  -0.61217
 Alpha  occ. eigenvalues --   -0.56609  -0.54434  -0.53869  -0.53721  -0.53476
 Alpha  occ. eigenvalues --   -0.50198  -0.49861  -0.48495  -0.46518  -0.45843
 Alpha  occ. eigenvalues --   -0.44123  -0.43888  -0.42300  -0.40757  -0.39980
 Alpha  occ. eigenvalues --   -0.39723  -0.38918  -0.34759  -0.34434  -0.30026
 Alpha  occ. eigenvalues --   -0.29724
 Alpha virt. eigenvalues --    0.04136   0.04332   0.04868   0.04872   0.05057
 Alpha virt. eigenvalues --    0.05641   0.06068   0.06074   0.06276   0.06471
 Alpha virt. eigenvalues --    0.06668   0.06971   0.07707   0.07914   0.08038

 Mulliken charges:
               1
     1  O   -2.279691
     2  O   -2.279651
     3  C    7.344203
     4  C    7.343773
     5  O   -3.758642
     6  O   -3.758792
     7  C   -5.462184
     8  C    0.891288
     9  H    1.265626
    10  H    1.619040
    11  C   -2.798429
    12  C   -3.091166
    13  H    1.471039
    14  C   -3.186837
    15  H    1.170784
    16  H    1.372726
    17  H    1.256295
    18  H    1.370938
    19  H    1.468483
    20  H    1.346863
    21  C   -5.462485
    22  C    0.891417
    23  H    1.265637
    24  H    1.619089
    25  C   -2.798381
    26  C   -3.091167
    27  H    1.471002
    28  C   -3.186769
    29  H    1.170772
    30  H    1.372724
    31  H    1.256300
    32  H    1.370941
    33  H    1.468479
    34  H    1.346775
 Sum of Mulliken charges =  -0.00000

 Dipole moment (field-independent basis, Debye):
    X=             -0.0001    Y=              0.0001    Z=              0.2159  Tot=              0.2159

 Test job not archived.
 1\1\GINC-SE173\SP\RHF\Aug-CC-pVDZ\C12H18O4\OHZDE\08-Apr-2025\0\\#t hf
 aug-cc-pvdz iop(5/13=1,5/36=2,99/5=2) pseudo=read geom=check guess=(re
 ad,tcheck) scf=(maxcycle=1)\\title\\0,1\O,0,-0.713441,0.106929,1.61859
 8\O,0,0.713368,-0.105862,1.618633\C,0,1.095848,-1.027651,0.659695\C,0,
 -1.09595,1.028221,0.659194\O,0,-0.344055,1.573431,-0.090441\O,0,0.3439
 21,-1.573304,-0.089587\C,0,-2.600234,1.16563,0.713658\C,0,-3.244025,0.
 476382,-0.494284\H,0,-2.820143,2.237278,0.696967\H,0,-2.986896,0.74460
 7,1.644239\C,0,-3.248611,-1.075942,-0.571019\C,0,-4.79456,0.445927,-0.

 Normal termination of Gaussian 16 at Tue Apr  8 23:13:14 2025.
