 Gaussian 16, Revision C.01,

 ----------------------------------------------------------------------
 #t hf aug-cc-pvdz symm=none int=(grid=ultrafine) guess=(read,tcheck) s
 table=(opt,rrhf)
 ----------------------------------------------------------------------
 -----
 title
 -----
 Symbolic Z-matrix:
 Charge =  0 Multiplicity = 1

 SCF Done:  E(RHF) =  -781.650584967     A.U. after   15 cycles
 Normal termination of Gaussian 16 at Wed Apr  9 00:04:32 2025.
 Gaussian 16:  ES64L-G16RevC.01  3-Jul-2019

 ----------------------------------------------------------------------
 #t hf aug-cc-pvdz iop(5/13=1,5/36=2,99/5=2) pseudo=read geom=check gue
 ss=(read,tcheck) scf=(maxcycle=1)
 ----------------------------------------------------------------------
 -----
 title
 -----
 Structure from the checkpoint file:  "BDE49_nonexpt_2180_mol1.chk"
 Charge =  0 Multiplicity = 1

                         Standard orientation:
 ---------------------------------------------------------------------
 Center     Atomic      Atomic             Coordinates (Angstroms)
 Number     Number       Type             X           Y           Z
 ---------------------------------------------------------------------
      1          8           0       -0.099857    0.078264   -1.071621
      2          8           0        1.132240    0.701727   -0.634082
      3          6           0        2.015334   -0.189333   -0.097766
      4          8           0        1.756700   -1.323532    0.202812
      5          6           0        3.353188    0.488710    0.054302
      6          1           0        3.277486    1.570448   -0.043134
      7          1           0        4.016274    0.108439   -0.726981
      8          1           0        3.775717    0.217760    1.021741
      9         14           0       -1.328854    0.053416    0.105571
     10          8           0       -1.781320    1.545127    0.591648
     11          6           0       -2.709112   -0.731128   -0.837458
     12          1           0       -2.386861   -1.662664   -1.307434
     13          1           0       -3.075104   -0.057915   -1.615796
     14          1           0       -3.536389   -0.954161   -0.158517
     15          1           0       -1.366987    1.905915    1.378803
     16          8           0       -0.762992   -0.745750    1.414496
     17          1           0       -0.014809   -1.331834    1.232828
 ---------------------------------------------------------------------

 SCF Done:  E(RHF) =  -783.901691800     A.U. after    2 cycles

 The electronic state is 1-A.
 Alpha  occ. eigenvalues --  -76.25264 -21.14612 -21.09960 -21.08048 -21.07283
 Alpha  occ. eigenvalues --  -21.06993 -11.54642 -11.41349 -11.35261  -5.60261
 Alpha  occ. eigenvalues --   -2.27883  -2.27262  -2.23869  -1.97957  -1.73054
 Alpha  occ. eigenvalues --   -1.68822  -1.63986  -1.46374  -1.11879  -1.04037
 Alpha  occ. eigenvalues --   -0.79152  -0.70399  -0.66739  -0.64896  -0.63168
 Alpha  occ. eigenvalues --   -0.61394  -0.58350  -0.56352  -0.56103  -0.54204
 Alpha  occ. eigenvalues --   -0.49310  -0.47824  -0.46459  -0.43750  -0.40859
 Alpha  occ. eigenvalues --   -0.39850  -0.37024  -0.35866  -0.31733  -0.30794
 Alpha virt. eigenvalues --    0.03009   0.04823   0.05303   0.05561   0.05966
 Alpha virt. eigenvalues --    0.06832   0.07059   0.07745   0.08631   0.09320
 Alpha virt. eigenvalues --    0.10836   0.11844   0.12461   0.13579   0.13896

 Mulliken charges:
               1
     1  O   -1.901749
     2  O   -2.132218
     3  C    5.344851
     4  O   -3.052767
     5  C   -4.260000
     6  H    1.424076
     7  H    1.212197
     8  H    1.194596
     9  Si   7.881303
    10  O   -3.085524
    11  C   -5.258099
    12  H    1.128938
    13  H    1.225641
    14  H    1.231746
    15  H    1.101986
    16  O   -3.259823
    17  H    1.204844
 Sum of Mulliken charges =   0.00000

 Dipole moment (field-independent basis, Debye):
    X=              0.5692    Y=              0.8651    Z=              0.1037  Tot=              1.0407

 Test job not archived.
 1\1\GINC-SE070\SP\RHF\Aug-CC-pVDZ\C3H8O5Si1\OHZDE\09-Apr-2025\0\\#t hf
  aug-cc-pvdz iop(5/13=1,5/36=2,99/5=2) pseudo=read geom=check guess=(r
 ead,tcheck) scf=(maxcycle=1)\\title\\0,1\O,0,-0.099857,0.078264,-1.071
 621\O,0,1.13224,0.701727,-0.634082\C,0,2.015334,-0.189333,-0.097766\O,
 0,1.7567,-1.323532,0.202812\C,0,3.353188,0.48871,0.054302\H,0,3.277486
 ,1.570448,-0.043134\H,0,4.016274,0.108439,-0.726981\H,0,3.775717,0.217
 76,1.021741\Si,0,-1.328854,0.053416,0.105571\O,0,-1.78132,1.545127,0.5
 91648\C,0,-2.709112,-0.731128,-0.837458\H,0,-2.386861,-1.662664,-1.307

 Normal termination of Gaussian 16 at Wed Apr  9 00:04:39 2025.
