 Gaussian 16, Revision C.01,

 ----------------------------------------------------------------------
 #t hf aug-cc-pvdz symm=none int=(grid=ultrafine) guess=(read,tcheck) s
 table=(opt,rrhf)
 ----------------------------------------------------------------------
 -----
 title
 -----
 Symbolic Z-matrix:
 Charge =  0 Multiplicity = 1

 SCF Done:  E(RHF) =  -344.623457477     A.U. after   15 cycles
 Normal termination of Gaussian 16 at Tue Apr  8 22:43:09 2025.
 Gaussian 16:  ES64L-G16RevC.01  3-Jul-2019

 ----------------------------------------------------------------------
 #t hf aug-cc-pvdz iop(5/13=1,5/36=2,99/5=2) pseudo=read geom=check gue
 ss=(read,tcheck) scf=(maxcycle=1)
 ----------------------------------------------------------------------
 -----
 title
 -----
 Structure from the checkpoint file:  "BDE49_expt_1395_mol1.chk"
 Charge =  0 Multiplicity = 1

                         Standard orientation:
 ---------------------------------------------------------------------
 Center     Atomic      Atomic             Coordinates (Angstroms)
 Number     Number       Type             X           Y           Z
 ---------------------------------------------------------------------
      1          6           0        0.885595   -2.128047    0.000000
      2          6           0        1.805419   -1.076346    0.000000
      3          6           0        1.371054    0.240891    0.000000
      4          6           0       -0.473482   -1.838740    0.000000
      5          6           0       -0.926884   -0.517667    0.000000
      6          6           0        0.000000    0.528174    0.000000
      7          1           0        1.227964   -3.155999    0.000000
      8          1           0        2.869464   -1.285458    0.000000
      9          1           0        2.069658    1.068861    0.000000
     10          1           0       -1.200027   -2.643890    0.000000
     11          1           0       -1.990341   -0.320030    0.000000
     12          8           0       -0.325952    1.853082    0.000000
     13          6           0       -1.698627    2.212910    0.000000
     14          1           0       -1.721295    3.301608    0.000000
     15          1           0       -2.213131    1.841599    0.893787
     16          1           0       -2.213131    1.841599   -0.893787
 ---------------------------------------------------------------------

 SCF Done:  E(RHF) =  -346.239728727     A.U. after    2 cycles

 The electronic state is 1-A'.
 Alpha  occ. eigenvalues --  -21.07239 -11.52655 -11.45317 -11.42417 -11.41524
 Alpha  occ. eigenvalues --  -11.40142 -11.39825 -11.36048  -1.78616  -1.31533
 Alpha  occ. eigenvalues --   -1.09552  -1.08211  -0.98605  -0.86728  -0.82806
 Alpha  occ. eigenvalues --   -0.71036  -0.65319  -0.62888  -0.62301  -0.59287
 Alpha  occ. eigenvalues --   -0.57672  -0.53273  -0.51800  -0.47194  -0.44737
 Alpha  occ. eigenvalues --   -0.40568  -0.38975  -0.33051  -0.25996
 Alpha virt. eigenvalues --    0.03380   0.04827   0.05205   0.05847   0.06379
 Alpha virt. eigenvalues --    0.06509   0.06971   0.08513   0.09751   0.11395
 Alpha virt. eigenvalues --    0.13066   0.13075   0.13423   0.13881   0.14119

 Mulliken charges:
               1
     1  C   -2.529066
     2  C   -0.030534
     3  C   -3.956032
     4  C   -0.072992
     5  C   -3.477028
     6  C    6.112624
     7  H    1.541136
     8  H    1.483683
     9  H    1.784495
    10  H    1.487585
    11  H    1.842881
    12  O   -4.718092
    13  C   -3.596159
    14  H    1.412481
    15  H    1.357509
    16  H    1.357509
 Sum of Mulliken charges =   0.00000

 Dipole moment (field-independent basis, Debye):
    X=             -0.7366    Y=              0.6350    Z=              0.0000  Tot=              0.9725

 Test job not archived.
 1\1\GINC-SE329\SP\RHF\Aug-CC-pVDZ\C7H8O1\OHZDE\08-Apr-2025\0\\#t hf au
 g-cc-pvdz iop(5/13=1,5/36=2,99/5=2) pseudo=read geom=check guess=(read
 ,tcheck) scf=(maxcycle=1)\\title\\0,1\C,0,2.281208,0.330075,0.\C,0,1.8
 49478,-0.998744,0.\C,0,0.495758,-1.300785,0.\C,0,1.336302,1.348868,0.\
 C,0,-0.030467,1.061209,0.\C,0,-0.453548,-0.270669,0.\H,0,3.339372,0.56
 2866,0.\H,0,2.574327,-1.805288,0.\H,0,0.14278,-2.324987,0.\H,0,1.65536
 5,2.385369,0.\H,0,-0.745162,1.873129,0.\O,0,-1.758298,-0.669737,0.\C,0
 ,-2.77073,0.324595,0.\H,0,-3.717222,-0.213857,0.\H,0,-2.715545,0.95668

 Normal termination of Gaussian 16 at Tue Apr  8 22:43:14 2025.
