 Gaussian 16, Revision C.01,

 ----------------------------------------------------------------------
 #t hf aug-cc-pvdz symm=none int=(grid=ultrafine) guess=(read,tcheck) s
 table=(opt,rrhf)
 ----------------------------------------------------------------------
 -----
 title
 -----
 Symbolic Z-matrix:
 Charge =  0 Multiplicity = 1

 SCF Done:  E(RHF) =  -197.408083440     A.U. after   12 cycles
 Normal termination of Gaussian 16 at Wed Apr  9 00:38:30 2025.
 Gaussian 16:  ES64L-G16RevC.01  3-Jul-2019

 ----------------------------------------------------------------------
 #t hf aug-cc-pvdz iop(5/13=1,5/36=2,99/5=2) pseudo=read geom=check gue
 ss=(read,tcheck) scf=(maxcycle=1)
 ----------------------------------------------------------------------
 -----
 title
 -----
 Structure from the checkpoint file:  "BDE49_nonexpt_578_mol1.chk"
 Charge =  0 Multiplicity = 1

                         Standard orientation:
 ---------------------------------------------------------------------
 Center     Atomic      Atomic             Coordinates (Angstroms)
 Number     Number       Type             X           Y           Z
 ---------------------------------------------------------------------
      1          5           0        2.055401    0.382192   -0.159853
      2          6           0       -0.315118   -0.261866    0.531304
      3          6           0       -1.481645   -0.486712   -0.399425
      4          6           0       -1.076275    0.914721   -0.002707
      5          1           0       -0.586652    1.524359   -0.750511
      6          1           0       -1.707455    1.464346    0.684597
      7          1           0       -2.393764   -0.904270    0.009804
      8          1           0       -1.248781   -0.798791   -1.410565
      9          7           0        1.026899   -0.524874    0.069732
     10          1           0       -0.482008   -0.512538    1.575760
     11          1           0        1.863610    1.548881   -0.013832
     12          1           0        3.114034   -0.043369   -0.509196
     13          1           0        1.213947   -1.512314   -0.049953
 ---------------------------------------------------------------------

 SCF Done:  E(RHF) =  -198.387357221     A.U. after    2 cycles

 The electronic state is 1-A.
 Alpha  occ. eigenvalues --  -15.71455 -11.42944 -11.40758 -11.36309  -7.59124
 Alpha  occ. eigenvalues --   -1.41229  -1.22745  -0.89063  -0.86634  -0.77670
 Alpha  occ. eigenvalues --   -0.69922  -0.63956  -0.57534  -0.51085  -0.50988
 Alpha  occ. eigenvalues --   -0.44889  -0.43724  -0.39523  -0.35616
 Alpha virt. eigenvalues --    0.03645   0.04135   0.04439   0.04849   0.05918
 Alpha virt. eigenvalues --    0.06383   0.06907   0.07584   0.08558   0.10903
 Alpha virt. eigenvalues --    0.11545   0.12482   0.12828   0.14332   0.14642

 Mulliken charges:
               1
     1  B    7.161979
     2  C    0.625560
     3  C   -2.579779
     4  C   -2.559980
     5  H    1.251866
     6  H    1.215925
     7  H    1.279118
     8  H    1.258273
     9  N   -3.388157
    10  H    1.283281
    11  H   -3.178460
    12  H   -3.478433
    13  H    1.108807
 Sum of Mulliken charges =   0.00000

 Dipole moment (field-independent basis, Debye):
    X=             -1.2855    Y=             -1.0924    Z=              0.3501  Tot=              1.7230

 Test job not archived.
 1\1\GINC-SE179\SP\RHF\Aug-CC-pVDZ\C3H8B1N1\OHZDE\09-Apr-2025\0\\#t hf
 aug-cc-pvdz iop(5/13=1,5/36=2,99/5=2) pseudo=read geom=check guess=(re
 ad,tcheck) scf=(maxcycle=1)\\title\\0,1\B,0,2.055401,0.382192,-0.15985
 3\C,0,-0.315118,-0.261866,0.531304\C,0,-1.481645,-0.486712,-0.399425\C
 ,0,-1.076275,0.914721,-0.002707\H,0,-0.586652,1.524359,-0.750511\H,0,-
 1.707455,1.464346,0.684597\H,0,-2.393764,-0.90427,0.009804\H,0,-1.2487
 81,-0.798791,-1.410565\N,0,1.026899,-0.524874,0.069732\H,0,-0.482008,-
 0.512538,1.57576\H,0,1.86361,1.548881,-0.013832\H,0,3.114034,-0.043369

 Normal termination of Gaussian 16 at Wed Apr  9 00:38:33 2025.
