 Gaussian 16, Revision C.01,

 ----------------------------------------------------------------------
 #t hf aug-cc-pvdz symm=none int=(grid=ultrafine) guess=(read,tcheck) s
 table=(opt,rrhf)
 ----------------------------------------------------------------------
 -----
 title
 -----
 Symbolic Z-matrix:
 Charge =  0 Multiplicity = 1

 SCF Done:  E(RHF) =  -158.340152531     A.U. after   14 cycles
 Normal termination of Gaussian 16 at Wed Apr  9 00:36:00 2025.
 Gaussian 16:  ES64L-G16RevC.01  3-Jul-2019

 ----------------------------------------------------------------------
 #t hf aug-cc-pvdz iop(5/13=1,5/36=2,99/5=2) pseudo=read geom=check gue
 ss=(read,tcheck) scf=(maxcycle=1)
 ----------------------------------------------------------------------
 -----
 title
 -----
 Structure from the checkpoint file:  "BDE49_nonexpt_505_mol1.chk"
 Charge =  0 Multiplicity = 1

                         Standard orientation:
 ---------------------------------------------------------------------
 Center     Atomic      Atomic             Coordinates (Angstroms)
 Number     Number       Type             X           Y           Z
 ---------------------------------------------------------------------
      1          1           0        2.197456   -0.788311    0.661717
      2          1           0        1.178099   -1.907439   -0.739046
      3          5           0        1.217486   -0.980933    0.011357
      4          6           0        0.053343    0.054934    0.050441
      5          6           0       -1.403405   -0.324217    0.032620
      6          7           0        0.366617    1.296832   -0.081571
      7          1           0       -1.617160   -0.992532   -0.807859
      8          1           0       -2.023306    0.570717   -0.043408
      9          1           0       -1.669784   -0.868890    0.945078
     10          1           0        1.381316    1.428991   -0.000635
 ---------------------------------------------------------------------

 SCF Done:  E(RHF) =  -159.101303618     A.U. after    2 cycles

 The electronic state is 1-A.
 Alpha  occ. eigenvalues --  -15.74510 -11.42143 -11.36642  -7.63253  -1.35712
 Alpha  occ. eigenvalues --   -1.07367  -0.91571  -0.74717  -0.60826  -0.58322
 Alpha  occ. eigenvalues --   -0.54062  -0.51037  -0.48521  -0.40037  -0.35550
 Alpha virt. eigenvalues --    0.02873   0.03739   0.03914   0.04579   0.07133
 Alpha virt. eigenvalues --    0.07573   0.07684   0.08937   0.09279   0.11149
 Alpha virt. eigenvalues --    0.11828   0.13926   0.15649   0.16152   0.16522

 Mulliken charges:
               1
     1  H   -3.117206
     2  H   -2.821002
     3  B    6.753689
     4  C    0.476260
     5  C   -3.233537
     6  N   -2.670223
     7  H    1.249436
     8  H    1.251069
     9  H    1.271646
    10  H    0.839867
 Sum of Mulliken charges =   0.00000

 Dipole moment (field-independent basis, Debye):
    X=              0.1460    Y=             -1.1465    Z=              0.3293  Tot=              1.2018

 Test job not archived.
 1\1\GINC-SE141\SP\RHF\Aug-CC-pVDZ\C2H6B1N1\OHZDE\09-Apr-2025\0\\#t hf
 aug-cc-pvdz iop(5/13=1,5/36=2,99/5=2) pseudo=read geom=check guess=(re
 ad,tcheck) scf=(maxcycle=1)\\title\\0,1\H,0,2.197456,-0.788312,0.66171
 7\H,0,1.178098,-1.90744,-0.739046\B,0,1.217486,-0.980934,0.011357\C,0,
 0.053343,0.054934,0.050441\C,0,-1.403405,-0.324216,0.03262\N,0,0.36661
 7,1.296832,-0.081571\H,0,-1.61716,-0.992531,-0.807859\H,0,-2.023306,0.
 570718,-0.043408\H,0,-1.669784,-0.868889,0.945078\H,0,1.381317,1.42899
 ,-0.000635\\Version=ES64L-G16RevC.01\State=1-A\HF=-159.1013036\RMSD=2.

 Normal termination of Gaussian 16 at Wed Apr  9 00:36:03 2025.
