 Gaussian 16, Revision C.01,

 ----------------------------------------------------------------------
 #t hf aug-cc-pvdz symm=none int=(grid=ultrafine) guess=(read,tcheck) s
 table=opt
 ----------------------------------------------------------------------
 -----
 title
 -----
 Symbolic Z-matrix:
 Charge =  0 Multiplicity = 2

 SCF Done:  E(UHF) =  -882.319842734     A.U. after   16 cycles
 Normal termination of Gaussian 16 at Tue Apr  8 23:40:07 2025.
 Gaussian 16:  ES64L-G16RevC.01  3-Jul-2019

 ----------------------------------------------------------------------
 #t hf aug-cc-pvdz iop(5/13=1,5/36=2,99/5=2) pseudo=read geom=check gue
 ss=(read,tcheck) scf=(maxcycle=1)
 ----------------------------------------------------------------------
 -----
 title
 -----
 Structure from the checkpoint file:  "BDE49_nonexpt_160_mol2.chk"
 Charge =  0 Multiplicity = 2

                         Standard orientation:
 ---------------------------------------------------------------------
 Center     Atomic      Atomic             Coordinates (Angstroms)
 Number     Number       Type             X           Y           Z
 ---------------------------------------------------------------------
      1         17           0       -1.579638    0.092983   -0.000000
      2         16           0        1.603373    0.026361   -0.000002
      3          5           0       -0.019996   -0.670321    0.000007
      4          1           0        1.299850    1.349122    0.000004
 ---------------------------------------------------------------------

 SCF Done:  E(UHF) =  -882.870981876     A.U. after    2 cycles

 The electronic state is 2-A.
 Alpha  occ. eigenvalues --  -99.91159 -75.71619 -13.16593 -13.10799 -13.04714
 Alpha  occ. eigenvalues --  -10.48422  -9.68332  -9.67860  -9.67668  -8.05602
 Alpha  occ. eigenvalues --   -7.70638  -1.36414  -1.16411  -0.76319  -0.59432
 Alpha  occ. eigenvalues --   -0.57652  -0.56061  -0.41754  -0.33099  -0.31933
 Alpha virt. eigenvalues --    0.02629   0.03591   0.04254   0.04874   0.07324
 Alpha virt. eigenvalues --    0.09657   0.10924   0.13575   0.14542   0.16315
 Alpha virt. eigenvalues --    0.16324   0.17166   0.18566   0.19949   0.21482

  Beta  occ. eigenvalues --  -99.91087 -75.71626 -13.16675 -13.10781 -13.04874
  Beta  occ. eigenvalues --  -10.48337  -9.68251  -9.67671  -9.67582  -8.05571
  Beta  occ. eigenvalues --   -7.68555  -1.35418  -1.15549  -0.72587  -0.56004
  Beta  occ. eigenvalues --   -0.55901  -0.55645  -0.39890  -0.31480
  Beta virt. eigenvalues --    0.00430   0.03536   0.03742   0.04299   0.08442
  Beta virt. eigenvalues --    0.09602   0.09782   0.12046   0.13732   0.14758
  Beta virt. eigenvalues --    0.16371   0.16894   0.17344   0.18907   0.20886

 Mulliken charges and spin densities:
               1          2
     1  Cl  -0.731765   0.009748
     2  S   -1.562319  -0.155191
     3  B    1.340680   1.080181
     4  H    0.953404   0.065262
 Sum of Mulliken charges =   0.00000   1.00000

 Dipole moment (field-independent basis, Debye):
    X=              2.9740    Y=              0.2476    Z=             -0.0000  Tot=              2.9843
                          Isotropic Fermi Contact Couplings
        Atom                 a.u.       MegaHertz       Gauss      10(-4) cm-1
     1  Cl(35)             0.09316      40.84562      14.57473      13.62463
     2  S(33)              0.42018     144.31934      51.49673      48.13975
     3  B(11)              0.21303     305.56901     109.03462     101.92685
     4  H(1)               0.01782      79.64229      28.41835      26.56581
 --------------------------------------------------------
       Center         ----  Spin Dipole Couplings  ----
                      3XX-RR        3YY-RR        3ZZ-RR
 --------------------------------------------------------

 Normal termination of Gaussian 16 at Tue Apr  8 23:40:09 2025.
