 Gaussian 16, Revision C.01,

 ----------------------------------------------------------------------
 #t hf aug-cc-pvdz symm=none int=(grid=ultrafine) guess=(read,tcheck) s
 table=(opt,rrhf)
 ----------------------------------------------------------------------
 -----
 title
 -----
 Symbolic Z-matrix:
 Charge =  0 Multiplicity = 1

 SCF Done:  E(RHF) =  -656.259354466     A.U. after   11 cycles

 1\1\GINC-SE074\Stability\RHF\Aug-CC-pVDZ\H6O1Si2\OHZDE\09-Apr-2025\0\\
 #t hf aug-cc-pvdz symm=none int=(grid=ultrafine) guess=(read,tcheck) s
 table=(opt,rrhf)\\title\\0,1\Si,0,-0.707837,0.546654,-0.017866\Si,0,1.
 546879,-0.161362,0.008045\O,0,-1.775211,-0.720735,0.097825\H,0,-1.7431
 48,-1.415357,-0.563573\H,0,2.452133,1.008347,-0.12049\H,0,1.813421,-1.
 08118,-1.128197\H,0,1.872648,-0.878554,1.26498\H,0,-0.997698,1.397621,
 1.155682\H,0,-0.942264,1.340916,-1.253508\\Version=ES64L-G16RevC.01\HF
 =-656.2593545\RMSD=4.154e-09\Dipole=0.1836919,-0.1772511,-0.4228845\Qu

 Normal termination of Gaussian 16 at Wed Apr  9 00:09:30 2025.
 Gaussian 16:  ES64L-G16RevC.01  3-Jul-2019

 ----------------------------------------------------------------------
 #t hf aug-cc-pvdz iop(5/13=1,5/36=2,99/5=2) pseudo=read geom=check gue
 ss=(read,tcheck) scf=(maxcycle=1)
 ----------------------------------------------------------------------
 -----
 title
 -----
 Structure from the checkpoint file:  "BDE49_nonexpt_2336_mol1.chk"
 Charge =  0 Multiplicity = 1

                         Standard orientation:
 ---------------------------------------------------------------------
 Center     Atomic      Atomic             Coordinates (Angstroms)
 Number     Number       Type             X           Y           Z
 ---------------------------------------------------------------------
      1         14           0        0.707837    0.546654    0.017866
      2         14           0       -1.546879   -0.161362   -0.008045
      3          8           0        1.775211   -0.720736   -0.097825
      4          1           0        1.743147   -1.415357    0.563573
      5          1           0       -2.452133    1.008348    0.120490
      6          1           0       -1.813421   -1.081180    1.128197
      7          1           0       -1.872648   -0.878554   -1.264980
      8          1           0        0.997698    1.397621   -1.155682
      9          1           0        0.942264    1.340916    1.253508
 ---------------------------------------------------------------------

 SCF Done:  E(RHF) =  -656.903577391     A.U. after    2 cycles

 The electronic state is 1-A.
 Alpha  occ. eigenvalues --  -76.23836 -76.21609 -21.07957  -5.57468  -5.55070
 Alpha  occ. eigenvalues --   -2.23607  -2.19037  -2.18053  -2.17121  -2.17077
 Alpha  occ. eigenvalues --   -2.16055  -1.65984  -0.80583  -0.72066  -0.58008
 Alpha  occ. eigenvalues --   -0.49238  -0.47795  -0.46696  -0.44323  -0.39483
 Alpha  occ. eigenvalues --   -0.32164
 Alpha virt. eigenvalues --    0.03900   0.04622   0.05567   0.06638   0.07405
 Alpha virt. eigenvalues --    0.07927   0.08260   0.08467   0.09349   0.09779
 Alpha virt. eigenvalues --    0.10084   0.10358   0.13539   0.13960   0.15245

 Mulliken charges:
               1
     1  Si   4.830074
     2  Si   4.368745
     3  O   -2.544009
     4  H    1.030493
     5  H   -1.510978
     6  H   -1.473935
     7  H   -1.499537
     8  H   -1.614356
     9  H   -1.586497
 Sum of Mulliken charges =  -0.00000

 Dipole moment (field-independent basis, Debye):
    X=              0.5363    Y=             -0.8369    Z=              0.3458  Tot=              1.0525

 Test job not archived.
 1\1\GINC-SE074\SP\RHF\Aug-CC-pVDZ\H6O1Si2\OHZDE\09-Apr-2025\0\\#t hf a
 ug-cc-pvdz iop(5/13=1,5/36=2,99/5=2) pseudo=read geom=check guess=(rea
 d,tcheck) scf=(maxcycle=1)\\title\\0,1\Si,0,-0.707837,0.546654,-0.0178
 66\Si,0,1.546879,-0.161362,0.008045\O,0,-1.775211,-0.720735,0.097825\H
 ,0,-1.743148,-1.415357,-0.563573\H,0,2.452133,1.008347,-0.12049\H,0,1.
 813421,-1.08118,-1.128197\H,0,1.872648,-0.878554,1.26498\H,0,-0.997698
 ,1.397621,1.155682\H,0,-0.942264,1.340916,-1.253508\\Version=ES64L-G16
 RevC.01\State=1-A\HF=-656.9035774\RMSD=9.915e-02\Dipole=-0.2110032,-0.

 Normal termination of Gaussian 16 at Wed Apr  9 00:09:32 2025.
