 Gaussian 16, Revision C.01,

 ----------------------------------------------------------------------
 #t hf aug-cc-pvdz symm=none int=(grid=ultrafine) guess=(read,tcheck) s
 table=(opt,rrhf)
 ----------------------------------------------------------------------
 -----
 title
 -----
 Symbolic Z-matrix:
 Charge =  0 Multiplicity = 1

 SCF Done:  E(RHF) =  -227.840059877     A.U. after   13 cycles
 Normal termination of Gaussian 16 at Tue Apr  8 22:36:38 2025.
 Gaussian 16:  ES64L-G16RevC.01  3-Jul-2019

 ----------------------------------------------------------------------
 #t hf aug-cc-pvdz iop(5/13=1,5/36=2,99/5=2) pseudo=read geom=check gue
 ss=(read,tcheck) scf=(maxcycle=1)
 ----------------------------------------------------------------------
 -----
 title
 -----
 Structure from the checkpoint file:  "BDE49_expt_1107_mol1.chk"
 Charge =  0 Multiplicity = 1

                         Standard orientation:
 ---------------------------------------------------------------------
 Center     Atomic      Atomic             Coordinates (Angstroms)
 Number     Number       Type             X           Y           Z
 ---------------------------------------------------------------------
      1          6           0        1.372740   -0.048501    0.000005
      2          6           0       -0.132805    0.141515    0.000028
      3          1           0        1.689212   -0.609255    0.884583
      4          1           0        1.856783    0.925221   -0.000015
      5          1           0        1.689187   -0.609278   -0.884567
      6          8           0       -0.688245    1.200798   -0.000015
      7          8           0       -0.861570   -1.011680   -0.000009
      8          1           0       -0.276270   -1.777723   -0.000011
 ---------------------------------------------------------------------

 SCF Done:  E(RHF) =  -228.817632895     A.U. after    2 cycles

 The electronic state is 1-A.
 Alpha  occ. eigenvalues --  -21.12530 -21.05256 -11.52433 -11.40816  -1.82205
 Alpha  occ. eigenvalues --   -1.65496  -1.11825  -0.79979  -0.67832  -0.62878
 Alpha  occ. eigenvalues --   -0.61928  -0.50804  -0.50422  -0.45751  -0.34060
 Alpha  occ. eigenvalues --   -0.30177
 Alpha virt. eigenvalues --    0.02550   0.05278   0.05427   0.06225   0.10015
 Alpha virt. eigenvalues --    0.12192   0.12265   0.12340   0.13295   0.15604
 Alpha virt. eigenvalues --    0.16559   0.18691   0.19362   0.22520   0.24294

 Mulliken charges:
               1
     1  C   -3.791761
     2  C    4.973313
     3  H    1.177671
     4  H    1.215051
     5  H    1.177649
     6  O   -2.904307
     7  O   -2.910385
     8  H    1.062771
 Sum of Mulliken charges =   0.00000

 Dipole moment (field-independent basis, Debye):
    X=              1.7430    Y=             -1.8050    Z=             -0.0000  Tot=              2.5092

 Test job not archived.
 1\1\GINC-SE016\SP\RHF\Aug-CC-pVDZ\C2H4O2\OHZDE\08-Apr-2025\0\\#t hf au
 g-cc-pvdz iop(5/13=1,5/36=2,99/5=2) pseudo=read geom=check guess=(read
 ,tcheck) scf=(maxcycle=1)\\title\\0,1\C,0,1.37274,-0.048501,0.000005\C
 ,0,-0.132805,0.141515,0.000028\H,0,1.689212,-0.609255,0.884583\H,0,1.8
 56784,0.92522,-0.000015\H,0,1.689187,-0.609278,-0.884567\O,0,-0.688244
 ,1.200799,-0.000015\O,0,-0.86157,-1.011679,-0.000009\H,0,-0.27627,-1.7
 77723,-0.000011\\Version=ES64L-G16RevC.01\State=1-A\HF=-228.8176329\RM
 SD=1.484e-01\Dipole=0.6857434,-0.7101474,-0.0000071\Quadrupole=-0.8400

 Normal termination of Gaussian 16 at Tue Apr  8 22:36:39 2025.
