 Gaussian 16, Revision C.01,

 ----------------------------------------------------------------------
 #t hf aug-cc-pvdz symm=none int=(grid=ultrafine) guess=(read,tcheck) s
 table=(opt,rrhf)
 ----------------------------------------------------------------------
 -----
 title
 -----
 Symbolic Z-matrix:
 Charge =  0 Multiplicity = 1

 SCF Done:  E(RHF) =  -429.211799504     A.U. after   14 cycles
 Normal termination of Gaussian 16 at Wed Apr  9 00:46:55 2025.
 Gaussian 16:  ES64L-G16RevC.01  3-Jul-2019

 ----------------------------------------------------------------------
 #t hf aug-cc-pvdz iop(5/13=1,5/36=2,99/5=2) pseudo=read geom=check gue
 ss=(read,tcheck) scf=(maxcycle=1)
 ----------------------------------------------------------------------
 -----
 title
 -----
 Structure from the checkpoint file:  "BDE49_nonexpt_818_mol1.chk"
 Charge =  0 Multiplicity = 1

                         Standard orientation:
 ---------------------------------------------------------------------
 Center     Atomic      Atomic             Coordinates (Angstroms)
 Number     Number       Type             X           Y           Z
 ---------------------------------------------------------------------
      1          6           0       -1.122937   -0.280551    0.386841
      2          5           0        2.004565   -0.808509   -0.170118
      3          8           0       -2.037231   -0.265716   -0.401895
      4         14           0        0.576597    0.591928    0.044421
      5          1           0        2.785382   -0.800792   -1.068227
      6          1           0        2.085712   -1.686347    0.632091
      7          1           0        0.397210    1.531026   -1.083782
      8          1           0        0.907970    1.346867    1.285839
      9          1           0       -1.235987   -0.826172    1.356892
 ---------------------------------------------------------------------

 SCF Done:  E(RHF) =  -429.964642444     A.U. after    2 cycles

 The electronic state is 1-A.
 Alpha  occ. eigenvalues --  -76.21814 -21.07666 -11.45427  -7.63892  -5.55614
 Alpha  occ. eigenvalues --   -2.18851  -2.18090  -2.17626  -1.70814  -0.92325
 Alpha  occ. eigenvalues --   -0.84390  -0.72088  -0.58346  -0.52057  -0.49553
 Alpha  occ. eigenvalues --   -0.47617  -0.46032  -0.38462  -0.27074
 Alpha virt. eigenvalues --    0.01358   0.03332   0.03515   0.03857   0.06757
 Alpha virt. eigenvalues --    0.07705   0.08288   0.08695   0.09063   0.09984
 Alpha virt. eigenvalues --    0.10353   0.11622   0.12820   0.13781   0.14600

 Mulliken charges:
               1
     1  C   -0.411571
     2  B    2.572111
     3  O   -2.103494
     4  Si   6.200486
     5  H   -2.161898
     6  H   -1.997213
     7  H   -1.872266
     8  H   -1.632323
     9  H    1.406168
 Sum of Mulliken charges =  -0.00000

 Dipole moment (field-independent basis, Debye):
    X=              1.0025    Y=             -0.3574    Z=              0.1006  Tot=              1.0690

 Test job not archived.
 1\1\GINC-SE328\SP\RHF\Aug-CC-pVDZ\C1H5B1O1Si1\OHZDE\09-Apr-2025\0\\#t
 hf aug-cc-pvdz iop(5/13=1,5/36=2,99/5=2) pseudo=read geom=check guess=
 (read,tcheck) scf=(maxcycle=1)\\title\\0,1\C,0,1.122937,0.280551,0.386
 841\B,0,-2.004565,0.808509,-0.170118\O,0,2.037231,0.265716,-0.401895\S
 i,0,-0.576597,-0.591928,0.044421\H,0,-2.785382,0.800792,-1.068227\H,0,
 -2.085712,1.686347,0.632091\H,0,-0.39721,-1.531026,-1.083782\H,0,-0.90
 797,-1.346867,1.285839\H,0,1.235987,0.826172,1.356892\\Version=ES64L-G
 16RevC.01\State=1-A\HF=-429.9646424\RMSD=8.935e-02\Dipole=-0.3944084,0

 Normal termination of Gaussian 16 at Wed Apr  9 00:46:58 2025.
