 Gaussian 16, Revision C.01,

 ----------------------------------------------------------------------
 #t hf aug-cc-pvdz symm=none int=(grid=ultrafine) guess=(read,tcheck) s
 table=(opt,rrhf)
 ----------------------------------------------------------------------
 -----
 title
 -----
 Symbolic Z-matrix:
 Charge =  0 Multiplicity = 1

 SCF Done:  E(RHF) =  -672.621816013     A.U. after   15 cycles
 Normal termination of Gaussian 16 at Wed Apr  9 00:05:02 2025.
 Gaussian 16:  ES64L-G16RevC.01  3-Jul-2019

 ----------------------------------------------------------------------
 #t hf aug-cc-pvdz iop(5/13=1,5/36=2,99/5=2) pseudo=read geom=check gue
 ss=(read,tcheck) scf=(maxcycle=1)
 ----------------------------------------------------------------------
 -----
 title
 -----
 Structure from the checkpoint file:  "BDE49_nonexpt_2182_mol1.chk"
 Charge =  0 Multiplicity = 1

                         Standard orientation:
 ---------------------------------------------------------------------
 Center     Atomic      Atomic             Coordinates (Angstroms)
 Number     Number       Type             X           Y           Z
 ---------------------------------------------------------------------
      1          8           0       -0.414170   -1.222333   -0.006860
      2          6           0        0.744452   -0.494335   -0.010342
      3          6           0        1.921190   -1.168877    0.324301
      4          6           0        0.787786    0.864823   -0.329346
      5          6           0        2.008128    1.538428   -0.314781
      6          6           0        3.183820    0.870967    0.016494
      7          6           0        3.131927   -0.485774    0.336594
      8          1           0        1.862922   -2.222641    0.567975
      9          1           0        4.040379   -1.017508    0.597013
     10          1           0       -0.122829    1.396254   -0.579098
     11          1           0        2.033310    2.593608   -0.563403
     12          1           0        4.129214    1.400325    0.026682
     13         14           0       -1.979311   -0.852391   -0.432969
     14          6           0       -2.775973    0.370337    0.722330
     15          6           0       -3.366540    1.489809    0.294679
     16          1           0       -2.792702    0.153933    1.790111
     17          1           0       -3.383391    1.762541   -0.757569
     18          1           0       -3.861175    2.182610    0.970344
     19          1           0       -2.656571   -2.161723   -0.372867
     20          1           0       -2.034187   -0.287532   -1.802324
 ---------------------------------------------------------------------

 SCF Done:  E(RHF) =  -674.570605326     A.U. after    2 cycles

 The electronic state is 1-A.
 Alpha  occ. eigenvalues --  -76.23815 -21.06311 -11.52953 -11.45670 -11.42476
 Alpha  occ. eigenvalues --  -11.42265 -11.40397 -11.40102 -11.37193 -11.36220
 Alpha  occ. eigenvalues --   -5.57586  -2.24753  -2.20790  -2.19660  -1.73446
 Alpha  occ. eigenvalues --   -1.31455  -1.14838  -1.09252  -1.06680  -0.87438
 Alpha  occ. eigenvalues --   -0.85623  -0.82626  -0.73825  -0.70149  -0.64926
 Alpha  occ. eigenvalues --   -0.62175  -0.59369  -0.58120  -0.56003  -0.55928
 Alpha  occ. eigenvalues --   -0.53460  -0.48941  -0.46600  -0.45299  -0.45075
 Alpha  occ. eigenvalues --   -0.41151  -0.38478  -0.36058  -0.33065  -0.28179
 Alpha virt. eigenvalues --    0.03295   0.04788   0.05192   0.05495   0.05742
 Alpha virt. eigenvalues --    0.05992   0.06365   0.06662   0.07005   0.08067
 Alpha virt. eigenvalues --    0.08650   0.09561   0.09847   0.11610   0.11788

 Mulliken charges:
               1
     1  O   -5.419027
     2  C    6.603342
     3  C   -4.501103
     4  C   -3.666387
     5  C   -0.258896
     6  C   -2.682611
     7  C    0.246696
     8  H    1.822494
     9  H    1.502470
    10  H    2.014261
    11  H    1.488102
    12  H    1.545175
    13  Si   6.473024
    14  C   -2.431874
    15  C   -2.755807
    16  H    1.266338
    17  H    1.405563
    18  H    1.335357
    19  H   -2.084226
    20  H   -1.902890
 Sum of Mulliken charges =  -0.00000

 Dipole moment (field-independent basis, Debye):
    X=             -0.3714    Y=              0.8473    Z=              0.5188  Tot=              1.0607

 Test job not archived.
 1\1\GINC-SE460\SP\RHF\Aug-CC-pVDZ\C8H10O1Si1\OHZDE\09-Apr-2025\0\\#t h
 f aug-cc-pvdz iop(5/13=1,5/36=2,99/5=2) pseudo=read geom=check guess=(
 read,tcheck) scf=(maxcycle=1)\\title\\0,1\O,0,-0.41417,-1.222333,-0.00
 686\C,0,0.744452,-0.494335,-0.010342\C,0,1.92119,-1.168877,0.324301\C,
 0,0.787786,0.864823,-0.329346\C,0,2.008128,1.538428,-0.314781\C,0,3.18
 382,0.870967,0.016494\C,0,3.131927,-0.485774,0.336594\H,0,1.862922,-2.
 222641,0.567975\H,0,4.040379,-1.017508,0.597013\H,0,-0.122829,1.396254
 ,-0.579098\H,0,2.03331,2.593608,-0.563403\H,0,4.129214,1.400325,0.0266

 Normal termination of Gaussian 16 at Wed Apr  9 00:05:11 2025.
