 Gaussian 16, Revision C.01,

 ----------------------------------------------------------------------
 #t hf aug-cc-pvdz symm=none int=(grid=ultrafine) guess=(read,tcheck) s
 table=(opt,rrhf)
 ----------------------------------------------------------------------
 -----
 title
 -----
 Symbolic Z-matrix:
 Charge =  0 Multiplicity = 1

 SCF Done:  E(RHF) =  -1155.98323876     A.U. after   13 cycles
 Normal termination of Gaussian 16 at Tue Apr  8 23:53:20 2025.
 Gaussian 16:  ES64L-G16RevC.01  3-Jul-2019

 ----------------------------------------------------------------------
 #t hf aug-cc-pvdz iop(5/13=1,5/36=2,99/5=2) pseudo=read geom=check gue
 ss=(read,tcheck) scf=(maxcycle=1)
 ----------------------------------------------------------------------
 -----
 title
 -----
 Structure from the checkpoint file:  "BDE49_nonexpt_192_mol1.chk"
 Charge =  0 Multiplicity = 1

                         Standard orientation:
 ---------------------------------------------------------------------
 Center     Atomic      Atomic             Coordinates (Angstroms)
 Number     Number       Type             X           Y           Z
 ---------------------------------------------------------------------
      1         17           0        1.138768   -1.522821    0.002831
      2         17           0        1.138678    1.522868    0.002650
      3          5           0        0.293733   -0.000003   -0.030310
      4          6           0       -1.289486   -0.000054   -0.137470
      5          8           0       -1.940261   -0.000289   -1.124392
      6          9           0       -1.880694    0.000206    1.097591
 ---------------------------------------------------------------------

 SCF Done:  E(RHF) =  -1157.36159750     A.U. after    2 cycles

 The electronic state is 1-A.
 Alpha  occ. eigenvalues --  -99.93822 -99.93805 -29.31768 -21.11690 -11.54538
 Alpha  occ. eigenvalues --  -10.51200 -10.51008  -9.71152  -9.70927  -9.70585
 Alpha  occ. eigenvalues --   -9.70456  -9.70429  -9.70341  -7.76199  -1.78477
 Alpha  occ. eigenvalues --   -1.44237  -1.33700  -1.09834  -0.86958  -0.72756
 Alpha  occ. eigenvalues --   -0.68827  -0.62829  -0.60363  -0.55931  -0.55867
 Alpha  occ. eigenvalues --   -0.55603  -0.53362  -0.44548  -0.31256  -0.30948
 Alpha  occ. eigenvalues --   -0.30103
 Alpha virt. eigenvalues --    0.03216   0.03754   0.03994   0.04155   0.05884
 Alpha virt. eigenvalues --    0.09398   0.10701   0.12248   0.14242   0.14409
 Alpha virt. eigenvalues --    0.15302   0.15305   0.15536   0.15976   0.17005

 Mulliken charges:
               1
     1  Cl  -1.136470
     2  Cl  -1.136456
     3  B    3.788729
     4  C    0.678878
     5  O   -2.688061
     6  F    0.493379
 Sum of Mulliken charges =  -0.00000

 Dipole moment (field-independent basis, Debye):
    X=             -0.6074    Y=              0.0007    Z=              3.1058  Tot=              3.1646

 Test job not archived.
 1\1\GINC-SE333\SP\RHF\Aug-CC-pVDZ\C1B1Cl2F1O1\OHZDE\08-Apr-2025\0\\#t
 hf aug-cc-pvdz iop(5/13=1,5/36=2,99/5=2) pseudo=read geom=check guess=
 (read,tcheck) scf=(maxcycle=1)\\title\\0,1\Cl,0,1.138768,-1.522821,0.0
 02831\Cl,0,1.138678,1.522868,0.00265\B,0,0.293733,-0.000003,-0.03031\C
 ,0,-1.289486,-0.000054,-0.13747\O,0,-1.940261,-0.00029,-1.124392\F,0,-
 1.880694,0.000206,1.097591\\Version=ES64L-G16RevC.01\State=1-A\HF=-115
 7.3615975\RMSD=4.892e-02\Dipole=-0.2389622,0.0002598,1.2219183\Quadrup
 ole=-0.3798817,0.7702706,-0.3903889,-0.0010988,-4.8164528,-0.0002442\P

 Normal termination of Gaussian 16 at Tue Apr  8 23:53:22 2025.
