 Gaussian 16, Revision C.01,

 ----------------------------------------------------------------------
 #t hf aug-cc-pvdz symm=none int=(grid=ultrafine) guess=(read,tcheck) s
 table=opt
 ----------------------------------------------------------------------
 -----
 title
 -----
 Symbolic Z-matrix:
 Charge =  0 Multiplicity = 2

 SCF Done:  E(UHF) =  -805.554373897     A.U. after   18 cycles
 Normal termination of Gaussian 16 at Wed Apr  9 00:11:38 2025.
 Gaussian 16:  ES64L-G16RevC.01  3-Jul-2019

 ----------------------------------------------------------------------
 #t hf aug-cc-pvdz iop(5/13=1,5/36=2,99/5=2) pseudo=read geom=check gue
 ss=(read,tcheck) scf=(maxcycle=1)
 ----------------------------------------------------------------------
 -----
 title
 -----
 Structure from the checkpoint file:  "BDE49_nonexpt_235_mol2.chk"
 Charge =  0 Multiplicity = 2

                         Standard orientation:
 ---------------------------------------------------------------------
 Center     Atomic      Atomic             Coordinates (Angstroms)
 Number     Number       Type             X           Y           Z
 ---------------------------------------------------------------------
      1         17           0        3.195835    0.252894   -0.000048
      2          5           0        1.671545   -0.631672   -0.000032
      3          8           0        0.506460    0.042204    0.000027
      4          6           0       -0.742706   -0.610526    0.000054
      5          8           0       -0.840640   -1.809263    0.000017
      6          7           0       -1.749967    0.293248    0.000023
      7          6           0       -1.585727    1.742693    0.000024
      8          1           0       -2.061508    2.172199    0.887809
      9          1           0       -2.061495    2.172199   -0.887767
     10          1           0       -0.533328    2.003686    0.000032
     11          6           0       -3.121323   -0.202740   -0.000006
     12          1           0       -3.651599    0.153648   -0.888901
     13          1           0       -3.651632    0.153638    0.888874
     14          1           0       -3.105609   -1.289044   -0.000011
 ---------------------------------------------------------------------

 SCF Done:  E(UHF) =  -807.301266918     A.U. after    2 cycles

 The electronic state is 2-A.
 Alpha  occ. eigenvalues --  -99.89700 -21.08534 -21.04680 -15.77012 -11.54411
 Alpha  occ. eigenvalues --  -11.41822 -11.40837 -10.46968  -9.67036  -9.66410
 Alpha  occ. eigenvalues --   -9.66217  -7.71940  -1.87520  -1.69055  -1.44977
 Alpha  occ. eigenvalues --   -1.33069  -1.06799  -1.02217  -0.83406  -0.72707
 Alpha  occ. eigenvalues --   -0.68194  -0.68071  -0.65254  -0.58530  -0.57613
 Alpha  occ. eigenvalues --   -0.57095  -0.56805  -0.54113  -0.53994  -0.52732
 Alpha  occ. eigenvalues --   -0.49300  -0.41807  -0.33188  -0.31822  -0.31682
 Alpha virt. eigenvalues --    0.02885   0.04453   0.04770   0.04937   0.05436
 Alpha virt. eigenvalues --    0.05811   0.06793   0.06896   0.08119   0.09041
 Alpha virt. eigenvalues --    0.09483   0.11982   0.12761   0.13170   0.13909

  Beta  occ. eigenvalues --  -99.89579 -21.08410 -21.04657 -15.77023 -11.54378
  Beta  occ. eigenvalues --  -11.41818 -11.40836 -10.46825  -9.66710  -9.66195
  Beta  occ. eigenvalues --   -9.66164  -7.69678  -1.87076  -1.68871  -1.44935
  Beta  occ. eigenvalues --   -1.31930  -1.06770  -1.02041  -0.82272  -0.72312
  Beta  occ. eigenvalues --   -0.68081  -0.65746  -0.64358  -0.58338  -0.57094
  Beta  occ. eigenvalues --   -0.55934  -0.55766  -0.54003  -0.53942  -0.51571
  Beta  occ. eigenvalues --   -0.47594  -0.41784  -0.31713  -0.31640
  Beta virt. eigenvalues --    0.02380   0.03912   0.04672   0.04902   0.05442
  Beta virt. eigenvalues --    0.05648   0.06103   0.06993   0.07174   0.09518
  Beta virt. eigenvalues --    0.09773   0.11548   0.12279   0.12924   0.13510

 Mulliken charges and spin densities:
               1          2
     1  Cl  -0.990606   0.118822
     2  B    0.924472   1.191444
     3  O   -2.570388  -0.539242
     4  C    6.317406   0.213465
     5  O   -2.624957   0.000034
     6  N   -2.946952   0.007334
     7  C   -3.383043  -0.014458
     8  H    1.431825   0.001050
     9  H    1.431813   0.001048
    10  H    1.725324  -0.010915
    11  C   -3.488805   0.027769
    12  H    1.409524  -0.000027
    13  H    1.409526  -0.000028
    14  H    1.354861   0.003703
 Sum of Mulliken charges =  -0.00000   1.00000

 Dipole moment (field-independent basis, Debye):
    X=             -3.1642    Y=              2.1413    Z=             -0.0000  Tot=              3.8207
                          Isotropic Fermi Contact Couplings
        Atom                 a.u.       MegaHertz       Gauss      10(-4) cm-1
     1  Cl(35)             0.17975      78.81394      28.12278      26.28950
     2  B(11)              0.37575     538.96362     192.31562     179.77891
     3  O(17)              0.01934     -11.72113      -4.18239      -3.90975
     4  C(13)              0.00627       7.04482       2.51377       2.34990
     5  O(17)              0.00420      -2.54745      -0.90899      -0.84974
     6  N(14)              0.00009       0.02777       0.00991       0.00926
     7  C(13)              0.00094       1.05747       0.37733       0.35274
     8  H(1)              -0.00003      -0.15185      -0.05418      -0.05065

 Normal termination of Gaussian 16 at Wed Apr  9 00:11:44 2025.
