 Gaussian 16, Revision C.01,

 ----------------------------------------------------------------------
 #t hf aug-cc-pvdz symm=none int=(grid=ultrafine) guess=(read,tcheck) s
 table=(opt,rrhf)
 ----------------------------------------------------------------------
 -----
 title
 -----
 Symbolic Z-matrix:
 Charge =  0 Multiplicity = 1

 SCF Done:  E(RHF) =  -802.229116517     A.U. after   15 cycles
 Normal termination of Gaussian 16 at Wed Apr  9 00:45:34 2025.
 Gaussian 16:  ES64L-G16RevC.01  3-Jul-2019

 ----------------------------------------------------------------------
 #t hf aug-cc-pvdz iop(5/13=1,5/36=2,99/5=2) pseudo=read geom=check gue
 ss=(read,tcheck) scf=(maxcycle=1)
 ----------------------------------------------------------------------
 -----
 title
 -----
 Structure from the checkpoint file:  "BDE49_nonexpt_742_mol1.chk"
 Charge =  0 Multiplicity = 1

                         Standard orientation:
 ---------------------------------------------------------------------
 Center     Atomic      Atomic             Coordinates (Angstroms)
 Number     Number       Type             X           Y           Z
 ---------------------------------------------------------------------
      1          6           0        2.263909    0.901267   -0.702327
      2          6           0        0.939587    1.287632   -0.536390
      3          6           0        2.767703   -0.227190   -0.038309
      4          6           0        1.894133   -0.954453    0.788078
      5          6           0        0.570289   -0.564797    0.937258
      6          6           0        0.056446    0.566677    0.280716
      7          1           0       -0.074055   -1.149050    1.585469
      8          1           0        2.918706    1.480446   -1.345890
      9          1           0        0.583865    2.176295   -1.047134
     10          5           0       -2.651601   -0.400027   -0.265827
     11          8           0       -3.984065   -0.489452   -0.002465
     12          8           0       -2.060882   -1.347056   -1.051761
     13          7           0        4.077008   -0.649888   -0.236413
     14          1           0        4.722902    0.054755   -0.559239
     15          1           0        4.467721   -1.229821    0.490850
     16          1           0        2.260548   -1.831984    1.311887
     17          1           0       -4.380492   -1.265291   -0.417071
     18          1           0       -1.108899   -1.218048   -1.131113
     19         15           0       -1.689476    1.153254    0.424184
     20          1           0       -1.922027    0.870482    1.793167
 ---------------------------------------------------------------------

 SCF Done:  E(RHF) =  -804.505074062     A.U. after    2 cycles

 The electronic state is 1-A.
 Alpha  occ. eigenvalues -- -105.16026 -21.05855 -21.05453 -15.76902 -11.52153
 Alpha  occ. eigenvalues --  -11.45590 -11.44012 -11.41852 -11.40935 -11.36813
 Alpha  occ. eigenvalues --   -7.64272  -2.73473  -1.81266  -1.65520  -1.49265
 Alpha  occ. eigenvalues --   -1.45014  -1.43194  -1.41380  -1.26173  -1.09951
 Alpha  occ. eigenvalues --   -1.04692  -0.88025  -0.84831  -0.77170  -0.71549
 Alpha  occ. eigenvalues --   -0.68675  -0.68451  -0.63031  -0.61326  -0.58435
 Alpha  occ. eigenvalues --   -0.55343  -0.54922  -0.51755  -0.50018  -0.48225
 Alpha  occ. eigenvalues --   -0.44748  -0.44200  -0.41935  -0.36371  -0.34029
 Alpha  occ. eigenvalues --   -0.29036  -0.23576  -0.15421  -0.01634
 Alpha virt. eigenvalues --    0.03090   0.04454   0.04791   0.05149   0.06091
 Alpha virt. eigenvalues --    0.06724   0.07255   0.07624   0.07898   0.09250
 Alpha virt. eigenvalues --    0.09482   0.09905   0.10429   0.11593   0.11801

 Mulliken charges:
               1
     1  C   -1.783613
     2  C   -4.293392
     3  C    1.866204
     4  C   -1.742046
     5  C   -1.982030
     6  C    3.323147
     7  H    1.830880
     8  H    1.818761
     9  H    1.911687
    10  B    5.530774
    11  O   -3.704318
    12  O   -4.038947
    13  N   -4.036691
    14  H    0.643835
    15  H    0.632038
    16  H    1.677899
    17  H    1.144340
    18  H    1.938389
    19  P    0.359180
    20  H   -1.096098
 Sum of Mulliken charges =  -0.00000

 Dipole moment (field-independent basis, Debye):
    X=              4.1993    Y=              2.2383    Z=             -0.4630  Tot=              4.7810

 Test job not archived.
 1\1\GINC-SE366\SP\RHF\Aug-CC-pVDZ\C6H9B1N1O2P1\OHZDE\09-Apr-2025\0\\#t
  hf aug-cc-pvdz iop(5/13=1,5/36=2,99/5=2) pseudo=read geom=check guess
 =(read,tcheck) scf=(maxcycle=1)\\title\\0,1\C,0,2.263909,0.901267,-0.7
 02327\C,0,0.939587,1.287632,-0.53639\C,0,2.767703,-0.22719,-0.038309\C
 ,0,1.894133,-0.954453,0.788078\C,0,0.570289,-0.564797,0.937258\C,0,0.0
 56446,0.566677,0.280716\H,0,-0.074055,-1.14905,1.585469\H,0,2.918706,1
 .480446,-1.34589\H,0,0.583865,2.176295,-1.047134\B,0,-2.651601,-0.4000
 27,-0.265827\O,0,-3.984065,-0.489452,-0.002465\O,0,-2.060882,-1.347056

 Normal termination of Gaussian 16 at Wed Apr  9 00:45:45 2025.
