 Gaussian 16, Revision C.01,

 ----------------------------------------------------------------------
 #t hf aug-cc-pvdz symm=none int=(grid=ultrafine) guess=(read,tcheck) s
 table=opt
 ----------------------------------------------------------------------
 -----
 title
 -----
 Symbolic Z-matrix:
 Charge =  0 Multiplicity = 2

 SCF Done:  E(UHF) =  -1851.35995577     A.U. after   20 cycles
 Normal termination of Gaussian 16 at Wed Apr  9 00:49:04 2025.
 Gaussian 16:  ES64L-G16RevC.01  3-Jul-2019

 ----------------------------------------------------------------------
 #t hf aug-cc-pvdz iop(5/13=1,5/36=2,99/5=2) pseudo=read geom=check gue
 ss=(read,tcheck) scf=(maxcycle=1)
 ----------------------------------------------------------------------
 -----
 title
 -----
 Structure from the checkpoint file:  "BDE49_nonexpt_874_mol2.chk"
 Charge =  0 Multiplicity = 2

                         Standard orientation:
 ---------------------------------------------------------------------
 Center     Atomic      Atomic             Coordinates (Angstroms)
 Number     Number       Type             X           Y           Z
 ---------------------------------------------------------------------
      1         16           0        2.286605    0.000000   -0.537289
      2         16           0        1.052751   -0.000003    0.991192
      3          6           0       -0.705018   -0.000000    0.304860
      4          9           0       -1.476658   -0.000001    1.414011
      5         17           0       -1.056168   -1.464937   -0.641699
      6         17           0       -1.056165    1.464939   -0.641695
 ---------------------------------------------------------------------

 SCF Done:  E(UHF) =  -1852.77743920     A.U. after    2 cycles

 The electronic state is 2-A.
 Alpha  occ. eigenvalues --  -99.92831 -99.92814 -75.76570 -75.74707 -29.33541
 Alpha  occ. eigenvalues --  -13.18167 -13.13813 -13.10217 -13.09663 -13.07323
 Alpha  occ. eigenvalues --  -13.06737 -11.58674 -10.50327 -10.50138  -9.70120
 Alpha  occ. eigenvalues --   -9.69989  -9.69253  -9.69233  -9.69196  -9.69138
 Alpha  occ. eigenvalues --   -8.10695  -8.08570  -1.46994  -1.32386  -1.27791
 Alpha  occ. eigenvalues --   -1.12912  -0.97834  -0.79424  -0.73061  -0.68529
 Alpha  occ. eigenvalues --   -0.56627  -0.56511  -0.52167  -0.50124  -0.44267
 Alpha  occ. eigenvalues --   -0.41795  -0.41030  -0.33727  -0.32683  -0.27289
 Alpha  occ. eigenvalues --   -0.23917
 Alpha virt. eigenvalues --    0.02141   0.04542   0.06301   0.07266   0.07751
 Alpha virt. eigenvalues --    0.09506   0.11147   0.12943   0.13386   0.13708
 Alpha virt. eigenvalues --    0.14274   0.16104   0.16659   0.17111   0.17298

  Beta  occ. eigenvalues --  -99.92823 -99.92806 -75.76326 -75.73812 -29.33552
  Beta  occ. eigenvalues --  -13.18025 -13.13735 -13.09809 -13.08051 -13.06198
  Beta  occ. eigenvalues --  -13.02078 -11.58746 -10.50320 -10.50131  -9.70089
  Beta  occ. eigenvalues --   -9.69955  -9.69242  -9.69234  -9.69197  -9.69131
  Beta  occ. eigenvalues --   -8.10420  -8.07564  -1.46863  -1.32323  -1.25277
  Beta  occ. eigenvalues --   -1.11264  -0.92247  -0.79413  -0.72876  -0.68039
  Beta  occ. eigenvalues --   -0.56543  -0.56370  -0.52150  -0.49990  -0.44232
  Beta  occ. eigenvalues --   -0.40141  -0.35181  -0.33236  -0.31701  -0.26513
  Beta virt. eigenvalues --    0.02212   0.03381   0.04694   0.06375   0.07362
  Beta virt. eigenvalues --    0.07823   0.10003   0.11259   0.13312   0.13578
  Beta virt. eigenvalues --    0.13755   0.14342   0.16153   0.17349   0.17371

 Mulliken charges and spin densities:
               1          2
     1  S    0.118824   0.884451
     2  S    0.523050   0.126651
     3  C   -1.867932  -0.017338
     4  F    1.038507  -0.002156
     5  Cl   0.093775   0.004196
     6  Cl   0.093776   0.004196
 Sum of Mulliken charges =  -0.00000   1.00000

 Dipole moment (field-independent basis, Debye):
    X=              0.7034    Y=             -0.0000    Z=              4.6062  Tot=              4.6596
                          Isotropic Fermi Contact Couplings
        Atom                 a.u.       MegaHertz       Gauss      10(-4) cm-1
     1  S(33)              0.29167     100.18014      35.74676      33.41650
     2  S(33)              0.13256      45.53207      16.24697      15.18786
     3  C(13)             -0.00866      -9.73048      -3.47208      -3.24574
     4  F(19)             -0.00144      -6.04905      -2.15845      -2.01775
     5  Cl(35)             0.00307       1.34532       0.48004       0.44875
     6  Cl(35)             0.00307       1.34530       0.48004       0.44874
 --------------------------------------------------------
       Center         ----  Spin Dipole Couplings  ----

 Normal termination of Gaussian 16 at Wed Apr  9 00:49:07 2025.
