 Gaussian 16, Revision C.01,

 ----------------------------------------------------------------------
 #t hf aug-cc-pvdz symm=none int=(grid=ultrafine) guess=(read,tcheck) s
 table=opt
 ----------------------------------------------------------------------
 -----
 title
 -----
 Symbolic Z-matrix:
 Charge =  0 Multiplicity = 2

 SCF Done:  E(UHF) =  -192.513855179     A.U. after   16 cycles
 Normal termination of Gaussian 16 at Tue Apr  8 22:47:36 2025.
 Gaussian 16:  ES64L-G16RevC.01  3-Jul-2019

 ----------------------------------------------------------------------
 #t hf aug-cc-pvdz iop(5/13=1,5/36=2,99/5=2) pseudo=read geom=check gue
 ss=(read,tcheck) scf=(maxcycle=1)
 ----------------------------------------------------------------------
 -----
 title
 -----
 Structure from the checkpoint file:  "BDE49_expt_157_mol2.chk"
 Charge =  0 Multiplicity = 2

                         Standard orientation:
 ---------------------------------------------------------------------
 Center     Atomic      Atomic             Coordinates (Angstroms)
 Number     Number       Type             X           Y           Z
 ---------------------------------------------------------------------
      1          6           0       -1.557208   -0.515903    0.132575
      2          6           0       -0.681654    0.615971   -0.284561
      3          1           0       -1.658270   -0.766007    1.183969
      4          1           0       -2.204359   -1.026797   -0.568614
      5          6           0        0.737876    0.526221    0.298617
      6          1           0       -1.117503    1.573894    0.048876
      7          1           0       -0.612277    0.666151   -1.375168
      8          8           0        1.459875   -0.593267   -0.194400
      9          1           0        0.680903    0.508535    1.397877
     10          1           0        1.316372    1.406947    0.011539
     11          1           0        0.922052   -1.374321   -0.023066
 ---------------------------------------------------------------------

 SCF Done:  E(UHF) =  -193.403689954     A.U. after    2 cycles

 The electronic state is 2-A.
 Alpha  occ. eigenvalues --  -21.06223 -11.42889 -11.39988 -11.36397  -1.70323
 Alpha  occ. eigenvalues --   -1.18540  -0.97189  -0.83658  -0.66699  -0.62008
 Alpha  occ. eigenvalues --   -0.59020  -0.55879  -0.49206  -0.48610  -0.40409
 Alpha  occ. eigenvalues --   -0.33842  -0.30462
 Alpha virt. eigenvalues --    0.03867   0.05516   0.05615   0.06229   0.06379
 Alpha virt. eigenvalues --    0.06588   0.06945   0.11890   0.12276   0.14029
 Alpha virt. eigenvalues --    0.14423   0.15396   0.15927   0.16126   0.18267

  Beta  occ. eigenvalues --  -21.06215 -11.42845 -11.38913 -11.35468  -1.70247
  Beta  occ. eigenvalues --   -1.15966  -0.93237  -0.81157  -0.66259  -0.59968
  Beta  occ. eigenvalues --   -0.58157  -0.55120  -0.48720  -0.47564  -0.39975
  Beta  occ. eigenvalues --   -0.31250
  Beta virt. eigenvalues --    0.03868   0.05459   0.05642   0.06096   0.06356
  Beta virt. eigenvalues --    0.06546   0.06658   0.09558   0.11985   0.13157
  Beta virt. eigenvalues --    0.14128   0.14743   0.15534   0.16127   0.18073

 Mulliken charges and spin densities:
               1          2
     1  C   -2.576367   1.510678
     2  C   -3.173951  -0.395840
     3  H    1.378073  -0.092769
     4  H    1.360251  -0.073656
     5  C   -0.868984   0.066363
     6  H    1.401119   0.022225
     7  H    1.409105  -0.005944
     8  O   -2.502335   0.004103
     9  H    1.407966  -0.009856
    10  H    1.286380  -0.004288
    11  H    0.878741  -0.021015
 Sum of Mulliken charges =  -0.00000   1.00000

 Dipole moment (field-independent basis, Debye):
    X=             -0.7906    Y=              0.2401    Z=              0.2316  Tot=              0.8582
                          Isotropic Fermi Contact Couplings
        Atom                 a.u.       MegaHertz       Gauss      10(-4) cm-1
     1  C(13)              0.12404     139.44158      49.75622      46.51270
     2  C(13)             -0.03564     -40.06174     -14.29503     -13.36316
     3  H(1)              -0.01774     -79.31255     -28.30069     -26.45582
     4  H(1)              -0.01856     -82.96958     -29.60561     -27.67567
     5  C(13)              0.02793      31.39928      11.20404      10.47367
     6  H(1)               0.01955      87.39022      31.18300      29.15024
     7  H(1)               0.00230      10.26956       3.66443       3.42556
     8  O(17)              0.00061      -0.37067      -0.13226      -0.12364

 Normal termination of Gaussian 16 at Tue Apr  8 22:47:39 2025.
