 Gaussian 16, Revision C.01,

 ----------------------------------------------------------------------
 #t hf aug-cc-pvdz symm=none int=(grid=ultrafine) guess=(read,tcheck) s
 table=opt
 ----------------------------------------------------------------------
 -----
 title
 -----
 Symbolic Z-matrix:
 Charge =  0 Multiplicity = 2

 SCF Done:  E(UHF) =  -796.926526855     A.U. after   30 cycles
 Normal termination of Gaussian 16 at Tue Apr  8 23:18:54 2025.
 Gaussian 16:  ES64L-G16RevC.01  3-Jul-2019

 ----------------------------------------------------------------------
 #t hf aug-cc-pvdz iop(5/13=1,5/36=2,99/5=2) pseudo=read geom=check gue
 ss=(read,tcheck) scf=(maxcycle=1)
 ----------------------------------------------------------------------
 -----
 title
 -----
 Structure from the checkpoint file:  "BDE49_expt_843_mol2.chk"
 Charge =  0 Multiplicity = 2

                         Standard orientation:
 ---------------------------------------------------------------------
 Center     Atomic      Atomic             Coordinates (Angstroms)
 Number     Number       Type             X           Y           Z
 ---------------------------------------------------------------------
      1          6           0       -3.227029    0.146827   -0.743801
      2          6           0       -1.915032    0.860483   -0.413091
      3          1           0       -3.136305   -0.427869   -1.669783
      4          1           0       -4.032236    0.873434   -0.878184
      5          1           0       -3.521926   -0.543500    0.048087
      6          6           0       -0.685868   -0.068541   -0.283075
      7          1           0       -2.029059    1.451547    0.502345
      8          1           0       -1.682116    1.575359   -1.212077
      9          6           0        0.644905    0.713360   -0.251143
     10          6           0        1.841411   -0.221961   -0.548461
     11          8           0        1.770908   -1.151235   -1.308404
     12          8           0        2.964579    0.133337    0.081326
     13          7           0        0.924572    1.488977    0.960533
     14         16           0       -0.854402   -1.170580    1.162248
     15          1           0       -0.655305   -0.736076   -1.149860
     16          1           0        0.632585    1.416461   -1.093893
     17          1           0        2.708143    0.887888    0.656319
     18          1           0        0.473540    2.395653    0.950701
     19          1           0        0.606893    0.975728    1.780710
 ---------------------------------------------------------------------

 SCF Done:  E(UHF) =  -798.947186539     A.U. after    2 cycles

 The electronic state is 2-A.
 Alpha  occ. eigenvalues --  -75.71559 -21.10767 -21.04462 -15.76993 -13.14727
 Alpha  occ. eigenvalues --  -13.10688 -13.08642 -11.53121 -11.48263 -11.45275
 Alpha  occ. eigenvalues --  -11.41331 -11.37687  -8.05157  -1.81962  -1.65292
 Alpha  occ. eigenvalues --   -1.39756  -1.25582  -1.12224  -1.05430  -0.95084
 Alpha  occ. eigenvalues --   -0.84346  -0.77319  -0.73179  -0.69812  -0.64957
 Alpha  occ. eigenvalues --   -0.62938  -0.60146  -0.57203  -0.53960  -0.52177
 Alpha  occ. eigenvalues --   -0.50558  -0.49840  -0.48866  -0.43042  -0.40784
 Alpha  occ. eigenvalues --   -0.39297  -0.33106  -0.30415  -0.28895  -0.26291
 Alpha virt. eigenvalues --    0.02988   0.04253   0.04636   0.05293   0.05405
 Alpha virt. eigenvalues --    0.05957   0.06686   0.07032   0.07843   0.08528
 Alpha virt. eigenvalues --    0.09592   0.11597   0.11806   0.12595   0.12816

  Beta  occ. eigenvalues --  -75.70574 -21.10770 -21.04447 -15.76990 -13.14138
  Beta  occ. eigenvalues --  -13.09343 -13.03441 -11.53125 -11.48319 -11.45253
  Beta  occ. eigenvalues --  -11.41341 -11.37670  -8.04055  -1.81957  -1.65269
  Beta  occ. eigenvalues --   -1.39535  -1.24439  -1.10070  -1.01992  -0.93500
  Beta  occ. eigenvalues --   -0.83020  -0.76980  -0.73129  -0.69617  -0.64480
  Beta  occ. eigenvalues --   -0.62905  -0.59958  -0.56949  -0.53681  -0.52107
  Beta  occ. eigenvalues --   -0.50500  -0.49747  -0.48659  -0.42800  -0.40464
  Beta  occ. eigenvalues --   -0.38830  -0.32838  -0.28837  -0.24776
  Beta virt. eigenvalues --    0.02071   0.03739   0.04287   0.04806   0.05343
  Beta virt. eigenvalues --    0.05707   0.05988   0.06997   0.07051   0.08034
  Beta virt. eigenvalues --    0.09129   0.09643   0.11612   0.11889   0.12832

 Mulliken charges and spin densities:
               1          2
     1  C   -4.184351   0.018373
     2  C   -3.503300   0.073796
     3  H    1.232368   0.001978
     4  H    1.076953   0.001659
     5  H    1.469199  -0.010518
     6  C   -0.348641  -0.245773
     7  H    1.463488  -0.010851
     8  H    1.323892   0.007973
     9  C   -1.374916  -0.076161
    10  C    6.217958   0.061174
    11  O   -3.321992   0.012413
    12  O   -3.248937  -0.003009
    13  N   -2.847213  -0.024040
    14  S    0.019714   1.207593
    15  H    1.919082  -0.005872
    16  H    1.782714   0.005042
    17  H    1.158514   0.000561
    18  H    0.543915  -0.002031
    19  H    0.621552  -0.012307
 Sum of Mulliken charges =   0.00000   1.00000

 Dipole moment (field-independent basis, Debye):
    X=             -2.4132    Y=              1.8012    Z=              1.5269  Tot=              3.3763
                          Isotropic Fermi Contact Couplings
        Atom                 a.u.       MegaHertz       Gauss      10(-4) cm-1
     1  C(13)              0.00012       0.13244       0.04726       0.04418
     2  C(13)              0.02466      27.71800       9.89047       9.24573
     3  H(1)               0.00004       0.18976       0.06771       0.06330
     4  H(1)               0.00007       0.31267       0.11157       0.10430
     5  H(1)              -0.00001      -0.04285      -0.01529      -0.01429
     6  C(13)             -0.01696     -19.06730      -6.80369      -6.36017
     7  H(1)              -0.00042      -1.87052      -0.66745      -0.62394
     8  H(1)               0.00087       3.88719       1.38705       1.29663

 1\1\GINC-SE116\SP\UHF\Aug-CC-pVDZ\C5H10N1O2S1(2)\OHZDE\08-Apr-2025\0\\
 #t hf aug-cc-pvdz iop(5/13=1,5/36=2,99/5=2) pseudo=read geom=check gue
 ss=(read,tcheck) scf=(maxcycle=1)\\title\\0,2\C,0,-3.227029,0.146827,-
 0.743801\C,0,-1.915032,0.860483,-0.413091\H,0,-3.136305,-0.427869,-1.6
 69783\H,0,-4.032236,0.873435,-0.878184\H,0,-3.521926,-0.5435,0.048087\
 C,0,-0.685868,-0.068541,-0.283075\H,0,-2.029059,1.451547,0.502345\H,0,
 -1.682116,1.575359,-1.212077\C,0,0.644905,0.71336,-0.251143\C,0,1.8414
 11,-0.221961,-0.548461\O,0,1.770908,-1.151235,-1.308404\O,0,2.964579,0

 Normal termination of Gaussian 16 at Tue Apr  8 23:19:07 2025.
