 Gaussian 16, Revision C.01,

 ----------------------------------------------------------------------
 #t hf aug-cc-pvdz symm=none int=(grid=ultrafine) guess=(read,tcheck) s
 table=(opt,rrhf)
 ----------------------------------------------------------------------
 -----
 title
 -----
 Symbolic Z-matrix:
 Charge =  0 Multiplicity = 1

 SCF Done:  E(RHF) =  -580.665558585     A.U. after   14 cycles
 Normal termination of Gaussian 16 at Tue Apr  8 23:56:30 2025.
 Gaussian 16:  ES64L-G16RevC.01  3-Jul-2019

 ----------------------------------------------------------------------
 #t hf aug-cc-pvdz iop(5/13=1,5/36=2,99/5=2) pseudo=read geom=check gue
 ss=(read,tcheck) scf=(maxcycle=1)
 ----------------------------------------------------------------------
 -----
 title
 -----
 Structure from the checkpoint file:  "BDE49_nonexpt_1987_mol1.chk"
 Charge =  0 Multiplicity = 1

                         Standard orientation:
 ---------------------------------------------------------------------
 Center     Atomic      Atomic             Coordinates (Angstroms)
 Number     Number       Type             X           Y           Z
 ---------------------------------------------------------------------
      1         14           0       -0.942382    0.000000   -0.000001
      2          6           0        0.024608    1.459658   -0.000001
      3          9           0       -2.540867    0.000000   -0.000001
      4          6           0        0.024608   -1.459658    0.000001
      5          6           0        1.409088    1.241945    0.000000
      6          6           0        2.054788   -0.000000    0.000001
      7          6           0        1.409088   -1.241945    0.000001
      8          1           0       -0.353532   -2.474089    0.000001
      9          1           0        3.138612   -0.000000    0.000002
     10          1           0        2.048264   -2.122469    0.000002
     11          1           0       -0.353531    2.474090   -0.000002
     12          1           0        2.048264    2.122469    0.000000
 ---------------------------------------------------------------------

 SCF Done:  E(RHF) =  -582.081560643     A.U. after    2 cycles

 The electronic state is 1-A.
 Alpha  occ. eigenvalues --  -76.24810 -29.29758 -11.47014 -11.43748 -11.40089
 Alpha  occ. eigenvalues --  -11.39414 -11.36684  -5.60509  -2.27715  -2.25480
 Alpha  occ. eigenvalues --   -2.17977  -1.27688  -1.10527  -1.00291  -0.84413
 Alpha  occ. eigenvalues --   -0.83679  -0.71067  -0.69333  -0.60037  -0.55162
 Alpha  occ. eigenvalues --   -0.53663  -0.48398  -0.48156  -0.43249  -0.39381
 Alpha  occ. eigenvalues --   -0.35933  -0.35026  -0.33602  -0.25550
 Alpha virt. eigenvalues --    0.03219   0.05190   0.05732   0.05775   0.06546
 Alpha virt. eigenvalues --    0.07156   0.07272   0.08578   0.08838   0.09510
 Alpha virt. eigenvalues --    0.13328   0.13375   0.14129   0.14151   0.14574

 Mulliken charges:
               1
     1  Si   3.500452
     2  C   -3.268546
     3  F   -1.442168
     4  C   -3.268548
     5  C   -1.181253
     6  C    0.115923
     7  C   -1.181252
     8  H    1.247897
     9  H    1.450414
    10  H    1.389591
    11  H    1.247897
    12  H    1.389591
 Sum of Mulliken charges =  -0.00000

 Dipole moment (field-independent basis, Debye):
    X=             -2.9072    Y=             -0.0000    Z=             -0.0000  Tot=              2.9072

 Test job not archived.
 1\1\GINC-SE398\SP\RHF\Aug-CC-pVDZ\C5H5F1Si1\OHZDE\08-Apr-2025\0\\#t hf
  aug-cc-pvdz iop(5/13=1,5/36=2,99/5=2) pseudo=read geom=check guess=(r
 ead,tcheck) scf=(maxcycle=1)\\title\\0,1\Si,0,-0.942382,0.,-0.000001\C
 ,0,0.024608,1.459658,-0.000001\F,0,-2.540867,0.,-0.000001\C,0,0.024608
 ,-1.459658,0.000001\C,0,1.409088,1.241945,0.\C,0,2.054788,0.,0.000001\
 C,0,1.409088,-1.241945,0.000001\H,0,-0.353532,-2.474089,0.000001\H,0,3
 .138612,0.,0.000002\H,0,2.048264,-2.122469,0.000002\H,0,-0.353531,2.47
 409,-0.000002\H,0,2.048264,2.122469,0.\\Version=ES64L-G16RevC.01\State

 Normal termination of Gaussian 16 at Tue Apr  8 23:56:35 2025.
