 Gaussian 16, Revision C.01,

 ----------------------------------------------------------------------
 #t hf aug-cc-pvdz symm=none int=(grid=ultrafine) guess=(read,tcheck) s
 table=(opt,rrhf)
 ----------------------------------------------------------------------
 -----
 title
 -----
 Symbolic Z-matrix:
 Charge =  0 Multiplicity = 1

 SCF Done:  E(RHF) =  -233.172235522     A.U. after   14 cycles
 Normal termination of Gaussian 16 at Wed Apr  9 00:36:25 2025.
 Gaussian 16:  ES64L-G16RevC.01  3-Jul-2019

 ----------------------------------------------------------------------
 #t hf aug-cc-pvdz iop(5/13=1,5/36=2,99/5=2) pseudo=read geom=check gue
 ss=(read,tcheck) scf=(maxcycle=1)
 ----------------------------------------------------------------------
 -----
 title
 -----
 Structure from the checkpoint file:  "BDE49_nonexpt_511_mol1.chk"
 Charge =  0 Multiplicity = 1

                         Standard orientation:
 ---------------------------------------------------------------------
 Center     Atomic      Atomic             Coordinates (Angstroms)
 Number     Number       Type             X           Y           Z
 ---------------------------------------------------------------------
      1          1           0       -2.868262   -0.219781    0.000164
      2          5           0       -1.835955   -0.816825   -0.000146
      3          1           0       -1.827317   -2.004678    0.000148
      4          6           0       -0.497802   -0.045237   -0.000038
      5          7           0        0.534745   -0.831585   -0.000016
      6          8           0        1.730040   -0.129193    0.000053
      7          1           0        2.391885   -0.829973    0.000050
      8          6           0       -0.362017    1.457072    0.000026
      9          1           0       -1.341515    1.933844   -0.000010
     10          1           0        0.200226    1.794199   -0.876026
     11          1           0        0.200131    1.794135    0.876164
 ---------------------------------------------------------------------

 SCF Done:  E(RHF) =  -234.228149297     A.U. after    2 cycles

 The electronic state is 1-A.
 Alpha  occ. eigenvalues --  -21.10879 -15.79951 -11.41478 -11.36332  -7.62197
 Alpha  occ. eigenvalues --   -1.80651  -1.28650  -1.05783  -0.90591  -0.71357
 Alpha  occ. eigenvalues --   -0.64653  -0.60071  -0.59157  -0.52830  -0.49645
 Alpha  occ. eigenvalues --   -0.46566  -0.44900  -0.35203  -0.31598
 Alpha virt. eigenvalues --    0.03704   0.03912   0.04109   0.04915   0.06505
 Alpha virt. eigenvalues --    0.07204   0.07716   0.08784   0.09225   0.11082
 Alpha virt. eigenvalues --    0.12994   0.14331   0.14778   0.15526   0.16217

 Mulliken charges:
               1
     1  H   -3.378242
     2  B    7.490736
     3  H   -3.465263
     4  C    1.589134
     5  N   -0.798619
     6  O   -2.387805
     7  H    0.918976
     8  C   -3.850347
     9  H    1.374753
    10  H    1.253327
    11  H    1.253350
 Sum of Mulliken charges =   0.00000

 Dipole moment (field-independent basis, Debye):
    X=              1.6171    Y=              1.0078    Z=             -0.0004  Tot=              1.9054

 Test job not archived.
 1\1\GINC-SE222\SP\RHF\Aug-CC-pVDZ\C2H6B1N1O1\OHZDE\09-Apr-2025\0\\#t h
 f aug-cc-pvdz iop(5/13=1,5/36=2,99/5=2) pseudo=read geom=check guess=(
 read,tcheck) scf=(maxcycle=1)\\title\\0,1\H,0,-2.868262,-0.219781,0.00
 0164\B,0,-1.835955,-0.816825,-0.000146\H,0,-1.827317,-2.004678,0.00014
 8\C,0,-0.497802,-0.045237,-0.000038\N,0,0.534745,-0.831585,-0.000016\O
 ,0,1.73004,-0.129193,0.000053\H,0,2.391885,-0.829973,0.00005\C,0,-0.36
 2017,1.457072,0.000026\H,0,-1.341515,1.933844,-0.00001\H,0,0.200226,1.
 794199,-0.876026\H,0,0.200131,1.794135,0.876164\\Version=ES64L-G16RevC

 Normal termination of Gaussian 16 at Wed Apr  9 00:36:28 2025.
