 Gaussian 16, Revision C.01,

 ----------------------------------------------------------------------
 #t hf aug-cc-pvdz symm=none int=(grid=ultrafine) guess=(read,tcheck) s
 table=(opt,rrhf)
 ----------------------------------------------------------------------
 -----
 title
 -----
 Symbolic Z-matrix:
 Charge =  0 Multiplicity = 1

 SCF Done:  E(RHF) =  -764.378725138     A.U. after   14 cycles
 Normal termination of Gaussian 16 at Wed Apr  9 00:24:06 2025.
 Gaussian 16:  ES64L-G16RevC.01  3-Jul-2019

 ----------------------------------------------------------------------
 #t hf aug-cc-pvdz iop(5/13=1,5/36=2,99/5=2) pseudo=read geom=check gue
 ss=(read,tcheck) scf=(maxcycle=1)
 ----------------------------------------------------------------------
 -----
 title
 -----
 Structure from the checkpoint file:  "BDE49_nonexpt_2681_mol1.chk"
 Charge =  0 Multiplicity = 1

                         Standard orientation:
 ---------------------------------------------------------------------
 Center     Atomic      Atomic             Coordinates (Angstroms)
 Number     Number       Type             X           Y           Z
 ---------------------------------------------------------------------
      1          9           0       -2.400080    0.300983    0.066742
      2         16           0       -1.224269   -0.859908   -0.207296
      3          6           0        0.263336    0.215424    0.073673
      4          8           0        1.229021   -0.791754   -0.124593
      5          8           0        0.294247    0.743624    1.360330
      6          6           0        2.598163   -0.377732   -0.090865
      7          1           0        2.862773    0.203178   -0.979843
      8          1           0        3.186783   -1.293436   -0.073546
      9          1           0        2.804840    0.208063    0.808535
     10          6           0        0.315908    1.378696   -0.900769
     11          1           0        0.444832    1.009653   -1.917946
     12          1           0        1.134908    2.052527   -0.640106
     13          1           0       -0.619148    1.935213   -0.837322
     14          1           0        0.123457    0.021194    1.978151
 ---------------------------------------------------------------------

 SCF Done:  E(RHF) =  -766.148324012     A.U. after    2 cycles

 The electronic state is 1-A.
 Alpha  occ. eigenvalues --  -75.75148 -29.26251 -21.09808 -21.07392 -13.21493
 Alpha  occ. eigenvalues --  -13.17636 -13.08663 -11.51873 -11.42469 -11.38775
 Alpha  occ. eigenvalues --   -8.09101  -1.83829  -1.70095  -1.22154  -1.09946
 Alpha  occ. eigenvalues --   -1.01978  -0.83091  -0.71689  -0.66783  -0.64315
 Alpha  occ. eigenvalues --   -0.61123  -0.58473  -0.57972  -0.53244  -0.51825
 Alpha  occ. eigenvalues --   -0.48821  -0.40514  -0.38898  -0.35151  -0.32718
 Alpha  occ. eigenvalues --   -0.31781  -0.26457  -0.17506
 Alpha virt. eigenvalues --    0.03231   0.05306   0.05710   0.05834   0.06013
 Alpha virt. eigenvalues --    0.06405   0.06923   0.08753   0.10806   0.12392
 Alpha virt. eigenvalues --    0.13498   0.14079   0.14909   0.14976   0.16140

 Mulliken charges:
               1
     1  F   -0.389830
     2  S    0.657865
     3  C    4.706764
     4  O   -3.209601
     5  O   -3.182970
     6  C   -3.044789
     7  H    1.451514
     8  H    1.307882
     9  H    1.278799
    10  C   -3.914508
    11  H    1.246282
    12  H    1.251321
    13  H    1.162129
    14  H    0.679143
 Sum of Mulliken charges =  -0.00000

 Dipole moment (field-independent basis, Debye):
    X=             -1.0974    Y=              1.1110    Z=              0.2216  Tot=              1.5773

 Test job not archived.
 1\1\GINC-SE322\SP\RHF\Aug-CC-pVDZ\C3H7F1O2S1\OHZDE\09-Apr-2025\0\\#t h
 f aug-cc-pvdz iop(5/13=1,5/36=2,99/5=2) pseudo=read geom=check guess=(
 read,tcheck) scf=(maxcycle=1)\\title\\0,1\F,0,-2.40008,0.300983,0.0667
 42\S,0,-1.224269,-0.859908,-0.207296\C,0,0.263336,0.215424,0.073673\O,
 0,1.229021,-0.791754,-0.124593\O,0,0.294247,0.743624,1.36033\C,0,2.598
 163,-0.377732,-0.090865\H,0,2.862773,0.203178,-0.979843\H,0,3.186783,-
 1.293436,-0.073546\H,0,2.80484,0.208063,0.808535\C,0,0.315908,1.378696
 ,-0.900769\H,0,0.444832,1.009653,-1.917946\H,0,1.134908,2.052527,-0.64

 Normal termination of Gaussian 16 at Wed Apr  9 00:24:11 2025.
