 Gaussian 16, Revision C.01,

 ----------------------------------------------------------------------
 #t hf aug-cc-pvdz symm=none int=(grid=ultrafine) guess=(read,tcheck) s
 table=(opt,rrhf)
 ----------------------------------------------------------------------
 -----
 title
 -----
 Symbolic Z-matrix:
 Charge =  0 Multiplicity = 1

 SCF Done:  E(RHF) =  -1025.30252511     A.U. after   15 cycles
 Normal termination of Gaussian 16 at Tue Apr  8 22:50:40 2025.
 Gaussian 16:  ES64L-G16RevC.01  3-Jul-2019

 ----------------------------------------------------------------------
 #t hf aug-cc-pvdz iop(5/13=1,5/36=2,99/5=2) pseudo=read geom=check gue
 ss=(read,tcheck) scf=(maxcycle=1)
 ----------------------------------------------------------------------
 -----
 title
 -----
 Structure from the checkpoint file:  "BDE49_expt_1676_mol1.chk"
 Charge =  0 Multiplicity = 1

                         Standard orientation:
 ---------------------------------------------------------------------
 Center     Atomic      Atomic             Coordinates (Angstroms)
 Number     Number       Type             X           Y           Z
 ---------------------------------------------------------------------
      1          6           0        0.776972    0.724333   -0.000000
      2          6           0        2.168354    0.712994   -0.000000
      3          6           0        2.852987   -0.498157   -0.000000
      4          6           0        2.148901   -1.697839   -0.000001
      5          6           0        0.758499   -1.681307   -0.000000
      6          6           0        0.053478   -0.476008   -0.000000
      7         17           0       -0.023552    2.280729    0.000001
      8          1           0        3.936669   -0.497425   -0.000000
      9          1           0        2.675979   -2.643978   -0.000001
     10          1           0        2.703198    1.653636   -0.000000
     11          1           0        0.203533   -2.609341   -0.000001
     12          6           0       -1.457666   -0.505798   -0.000000
     13          9           0       -1.926282   -1.773549   -0.000000
     14          9           0       -1.977313    0.100964   -1.086254
     15          9           0       -1.977312    0.100963    1.086255
 ---------------------------------------------------------------------

 SCF Done:  E(RHF) =  -1027.81412826     A.U. after    2 cycles

 The electronic state is 1-A.
 Alpha  occ. eigenvalues --  -99.90673 -29.30945 -29.30466 -29.30435 -11.62217
 Alpha  occ. eigenvalues --  -11.55018 -11.49208 -11.47709 -11.44968 -11.44287
 Alpha  occ. eigenvalues --  -11.39930 -10.48070  -9.68077  -9.67299  -9.67020
 Alpha  occ. eigenvalues --   -1.47323  -1.37316  -1.29456  -1.12778  -1.10505
 Alpha  occ. eigenvalues --   -0.93145  -0.91311  -0.88226  -0.84921  -0.77830
 Alpha  occ. eigenvalues --   -0.71569  -0.64808  -0.62856  -0.61776  -0.59200
 Alpha  occ. eigenvalues --   -0.54079  -0.51351  -0.50079  -0.49223  -0.46789
 Alpha  occ. eigenvalues --   -0.43185  -0.43098  -0.39555  -0.35775  -0.35300
 Alpha  occ. eigenvalues --   -0.33539  -0.30285  -0.24881  -0.24601  -0.21136
 Alpha virt. eigenvalues --    0.03075   0.04765   0.05001   0.06765   0.07771
 Alpha virt. eigenvalues --    0.08628   0.09642   0.09829   0.11025   0.11865
 Alpha virt. eigenvalues --    0.12097   0.12686   0.12976   0.13480   0.13928

 Mulliken charges:
               1
     1  C   -3.717697
     2  C   -1.938530
     3  C   -1.490574
     4  C   -2.063761
     5  C   -2.647259
     6  C    4.472655
     7  Cl  -0.863629
     8  H    1.541126
     9  H    1.547242
    10  H    1.708487
    11  H    1.840199
    12  C    0.599624
    13  F    0.559951
    14  F    0.226083
    15  F    0.226084
 Sum of Mulliken charges =   0.00000

 Dipole moment (field-independent basis, Debye):
    X=             -0.0837    Y=             -1.8091    Z=              0.0000  Tot=              1.8110

 Test job not archived.
 1\1\GINC-SE364\SP\RHF\Aug-CC-pVDZ\C7H4Cl1F3\OHZDE\08-Apr-2025\0\\#t hf
  aug-cc-pvdz iop(5/13=1,5/36=2,99/5=2) pseudo=read geom=check guess=(r
 ead,tcheck) scf=(maxcycle=1)\\title\\0,1\C,0,-0.776972,0.724333,0.\C,0
 ,-2.168354,0.712993,0.\C,0,-2.852987,-0.498158,0.\C,0,-2.148901,-1.697
 84,0.000001\C,0,-0.758499,-1.681307,0.\C,0,-0.053478,-0.476008,0.\Cl,0
 ,0.023551,2.280729,-0.000001\H,0,-3.936669,-0.497426,0.\H,0,-2.675978,
 -2.643979,0.000001\H,0,-2.703198,1.653635,0.\H,0,-0.203532,-2.609341,0
 .000001\C,0,1.457666,-0.505798,0.\F,0,1.926282,-1.773548,0.\F,0,1.9773

 Normal termination of Gaussian 16 at Tue Apr  8 22:50:48 2025.
