 Gaussian 16, Revision C.01,

 ----------------------------------------------------------------------
 #t hf aug-cc-pvdz symm=none int=(grid=ultrafine) guess=(read,tcheck) s
 table=(opt,rrhf)
 ----------------------------------------------------------------------
 -----
 title
 -----
 Symbolic Z-matrix:
 Charge =  0 Multiplicity = 1

 SCF Done:  E(RHF) =  -463.012604962     A.U. after   12 cycles
 Normal termination of Gaussian 16 at Wed Apr  9 00:34:46 2025.
 Gaussian 16:  ES64L-G16RevC.01  3-Jul-2019

 ----------------------------------------------------------------------
 #t hf aug-cc-pvdz iop(5/13=1,5/36=2,99/5=2) pseudo=read geom=check gue
 ss=(read,tcheck) scf=(maxcycle=1)
 ----------------------------------------------------------------------
 -----
 title
 -----
 Structure from the checkpoint file:  "BDE49_nonexpt_450_mol1.chk"
 Charge =  0 Multiplicity = 1

                         Standard orientation:
 ---------------------------------------------------------------------
 Center     Atomic      Atomic             Coordinates (Angstroms)
 Number     Number       Type             X           Y           Z
 ---------------------------------------------------------------------
      1          1           0        2.561110    0.160342    0.000079
      2          1           0        1.240692    1.777414   -0.000013
      3         16           0        0.152638   -0.571950   -0.000006
      4          5           0        1.461764    0.609783   -0.000034
      5          6           0       -1.403287    0.401634    0.000021
      6          1           0       -1.979094    0.144580   -0.888785
      7          1           0       -1.174936    1.465586    0.000030
      8          1           0       -1.979083    0.144562    0.888828
 ---------------------------------------------------------------------

 SCF Done:  E(RHF) =  -463.583248728     A.U. after    2 cycles

 The electronic state is 1-A.
 Alpha  occ. eigenvalues --  -75.68146 -13.12993 -13.07328 -13.01730 -11.40108
 Alpha  occ. eigenvalues --   -8.02286  -7.62253  -1.21391  -0.98133  -0.76763
 Alpha  occ. eigenvalues --   -0.59643  -0.58995  -0.51951  -0.42076  -0.33104
 Alpha  occ. eigenvalues --   -0.28758
 Alpha virt. eigenvalues --    0.02178   0.03331   0.03686   0.04449   0.07619
 Alpha virt. eigenvalues --    0.07994   0.08892   0.11503   0.12571   0.12695
 Alpha virt. eigenvalues --    0.12853   0.13550   0.16378   0.16449   0.16577

 Mulliken charges:
               1
     1  H   -2.773977
     2  H   -2.348327
     3  S   -0.717191
     4  B    6.425410
     5  C   -4.619875
     6  H    1.376015
     7  H    1.281909
     8  H    1.376037
 Sum of Mulliken charges =  -0.00000

 Dipole moment (field-independent basis, Debye):
    X=             -1.5711    Y=             -1.1388    Z=              0.0000  Tot=              1.9404

 Test job not archived.
 1\1\GINC-SE366\SP\RHF\Aug-CC-pVDZ\C1H5B1S1\OHZDE\09-Apr-2025\0\\#t hf
 aug-cc-pvdz iop(5/13=1,5/36=2,99/5=2) pseudo=read geom=check guess=(re
 ad,tcheck) scf=(maxcycle=1)\\title\\0,1\H,0,2.56111,0.160343,0.000079\
 H,0,1.240691,1.777415,-0.000013\S,0,0.152638,-0.57195,-0.000006\B,0,1.
 461764,0.609784,-0.000034\C,0,-1.403287,0.401634,0.000021\H,0,-1.97909
 4,0.14458,-0.888785\H,0,-1.174936,1.465586,0.00003\H,0,-1.979083,0.144
 562,0.888828\\Version=ES64L-G16RevC.01\State=1-A\HF=-463.5832487\RMSD=
 1.155e-01\Dipole=-0.6181026,-0.4480433,0.000009\Quadrupole=-0.2252782,

 Normal termination of Gaussian 16 at Wed Apr  9 00:34:47 2025.
