 Gaussian 16, Revision C.01,

 ----------------------------------------------------------------------
 #t hf aug-cc-pvdz symm=none int=(grid=ultrafine) guess=(read,tcheck) s
 table=(opt,rrhf)
 ----------------------------------------------------------------------
 -----
 title
 -----
 Symbolic Z-matrix:
 Charge =  0 Multiplicity = 1

 SCF Done:  E(RHF) =  -1914.90825605     A.U. after   13 cycles

 1\1\GINC-SE179\Stability\RHF\Aug-CC-pVDZ\C2H2Cl4\OHZDE\08-Apr-2025\0\\
 #t hf aug-cc-pvdz symm=none int=(grid=ultrafine) guess=(read,tcheck) s
 table=(opt,rrhf)\\title\\0,1\C,0,0.384828,0.,0.050867\C,0,-0.746769,0.
 ,1.08224\Cl,0,0.333729,-1.464008,-0.977773\Cl,0,1.924182,0.,0.997168\C
 l,0,0.333729,1.464008,-0.977773\Cl,0,-2.386506,0.,0.358893\H,0,-0.6578
 23,0.893206,1.696307\H,0,-0.657823,-0.893206,1.696307\\Version=ES64L-G
 16RevC.01\HF=-1914.908256\RMSD=3.591e-09\Dipole=0.1081339,0.,0.613001\
 Quadrupole=-2.6787233,0.5480165,2.1307068,0.,-0.0953152,0.\PG=Unknown\

 Normal termination of Gaussian 16 at Tue Apr  8 22:30:43 2025.
 Gaussian 16:  ES64L-G16RevC.01  3-Jul-2019

 ----------------------------------------------------------------------
 #t hf aug-cc-pvdz iop(5/13=1,5/36=2,99/5=2) pseudo=read geom=check gue
 ss=(read,tcheck) scf=(maxcycle=1)
 ----------------------------------------------------------------------
 -----
 title
 -----
 Structure from the checkpoint file:  "BDE49_expt_1013_mol1.chk"
 Charge =  0 Multiplicity = 1

                         Standard orientation:
 ---------------------------------------------------------------------
 Center     Atomic      Atomic             Coordinates (Angstroms)
 Number     Number       Type             X           Y           Z
 ---------------------------------------------------------------------
      1          6           0        0.267817    0.280988    0.000000
      2          6           0       -1.260416    0.374511   -0.000000
      3         17           0        0.873199   -0.552213    1.464008
      4         17           0        0.873199    1.983518    0.000000
      5         17           0        0.873199   -0.552213   -1.464008
      6         17           0       -2.083821   -1.217335   -0.000000
      7          1           0       -1.576294    0.908562   -0.893206
      8          1           0       -1.576294    0.908562    0.893206
 ---------------------------------------------------------------------

 SCF Done:  E(RHF) =  -1916.26619084     A.U. after    2 cycles

 The electronic state is 1-A'.
 Alpha  occ. eigenvalues --  -99.92513 -99.92131 -99.92121 -99.90264 -11.57688
 Alpha  occ. eigenvalues --  -11.47535 -10.49901 -10.49504 -10.49395 -10.47569
 Alpha  occ. eigenvalues --   -9.69765  -9.69432  -9.69276  -9.68934  -9.68863
 Alpha  occ. eigenvalues --   -9.68585  -9.68525  -9.68472  -9.68420  -9.67400
 Alpha  occ. eigenvalues --   -9.66687  -9.66617  -1.48255  -1.33663  -1.31247
 Alpha  occ. eigenvalues --   -1.31225  -1.10677  -0.92403  -0.74772  -0.73210
 Alpha  occ. eigenvalues --   -0.70499  -0.64248  -0.61849  -0.55923  -0.55579
 Alpha  occ. eigenvalues --   -0.53685  -0.51735  -0.51419  -0.51012  -0.49696
 Alpha  occ. eigenvalues --   -0.48803
 Alpha virt. eigenvalues --   -0.00260   0.03362   0.04906   0.06243   0.06574
 Alpha virt. eigenvalues --    0.07194   0.07865   0.09890   0.11268   0.11807
 Alpha virt. eigenvalues --    0.12583   0.14103   0.14296   0.15535   0.16847

 Mulliken charges:
               1
     1  C   -1.312985
     2  C   -2.606582
     3  Cl   0.219401
     4  Cl   0.159646
     5  Cl   0.219401
     6  Cl   0.134744
     7  H    1.593188
     8  H    1.593188
 Sum of Mulliken charges =   0.00000

 Dipole moment (field-independent basis, Debye):
    X=             -0.7321    Y=              1.2862    Z=              0.0000  Tot=              1.4800

 Test job not archived.
 1\1\GINC-SE179\SP\RHF\Aug-CC-pVDZ\C2H2Cl4\OHZDE\08-Apr-2025\0\\#t hf a
 ug-cc-pvdz iop(5/13=1,5/36=2,99/5=2) pseudo=read geom=check guess=(rea
 d,tcheck) scf=(maxcycle=1)\\title\\0,1\C,0,0.384828,0.,0.050867\C,0,-0
 .746769,0.,1.08224\Cl,0,0.333729,-1.464008,-0.977773\Cl,0,1.924182,0.,
 0.997168\Cl,0,0.333729,1.464008,-0.977773\Cl,0,-2.386506,0.,0.358893\H
 ,0,-0.657823,0.893206,1.696307\H,0,-0.657823,-0.893206,1.696307\\Versi
 on=ES64L-G16RevC.01\State=1-A'\HF=-1916.2661908\RMSD=1.303e-01\Dipole=
 0.0930768,0.,0.5747774\Quadrupole=-2.1415526,0.4505703,1.6909823,0.,0.

 Normal termination of Gaussian 16 at Tue Apr  8 22:30:46 2025.
