 Gaussian 16, Revision C.01,

 ----------------------------------------------------------------------
 #t hf aug-cc-pvdz symm=none int=(grid=ultrafine) guess=(read,tcheck) s
 table=(opt,rrhf)
 ----------------------------------------------------------------------
 -----
 title
 -----
 Symbolic Z-matrix:
 Charge =  0 Multiplicity = 1

 SCF Done:  E(RHF) =  -825.799468362     A.U. after   17 cycles
 Normal termination of Gaussian 16 at Wed Apr  9 00:32:14 2025.
 Gaussian 16:  ES64L-G16RevC.01  3-Jul-2019

 ----------------------------------------------------------------------
 #t hf aug-cc-pvdz iop(5/13=1,5/36=2,99/5=2) pseudo=read geom=check gue
 ss=(read,tcheck) scf=(maxcycle=1)
 ----------------------------------------------------------------------
 -----
 title
 -----
 Structure from the checkpoint file:  "BDE49_nonexpt_340_mol1.chk"
 Charge =  0 Multiplicity = 1

                         Standard orientation:
 ---------------------------------------------------------------------
 Center     Atomic      Atomic             Coordinates (Angstroms)
 Number     Number       Type             X           Y           Z
 ---------------------------------------------------------------------
      1          6           0        0.016428    0.004152   -0.029623
      2          7           0        0.365306   -0.161322    1.466048
      3          5           0       -1.606932   -0.093759   -0.236776
      4          7           0        0.829346   -1.086147   -0.741816
      5          8           0        0.359081   -2.212436   -0.623569
      6          8           0       -2.226815   -1.272950   -0.397066
      7          8           0       -0.558059    0.050867    2.227209
      8          8           0       -2.227564    1.097864   -0.235699
      9          8           0        1.501074   -0.470399    1.741755
     10          8           0        1.851886   -0.785766   -1.298646
     11          7           0        0.533584    1.364516   -0.496710
     12          8           0        0.378584    1.560671   -1.683096
     13          8           0        1.002648    2.109012    0.333465
     14          1           0       -3.185197    1.038942   -0.326453
     15          1           0       -1.623047   -2.029277   -0.419399
 ---------------------------------------------------------------------

 SCF Done:  E(RHF) =  -829.217189060     A.U. after    2 cycles

 The electronic state is 1-A.
 Alpha  occ. eigenvalues --  -21.17632 -21.16048 -21.15801 -21.15621 -21.15607
 Alpha  occ. eigenvalues --  -21.14905 -21.10868 -21.10729 -16.07303 -16.06641
 Alpha  occ. eigenvalues --  -16.06238 -11.59683  -7.73476  -2.09174  -2.05091
 Alpha  occ. eigenvalues --   -2.04450  -1.87451  -1.76924  -1.76085  -1.75484
 Alpha  occ. eigenvalues --   -1.72283  -1.36280  -1.06064  -1.05126  -0.91309
 Alpha  occ. eigenvalues --   -0.82476  -0.80377  -0.79676  -0.76315  -0.72069
 Alpha  occ. eigenvalues --   -0.69294  -0.68469  -0.66578  -0.66189  -0.65390
 Alpha  occ. eigenvalues --   -0.63772  -0.55144  -0.51805  -0.48401  -0.43068
 Alpha  occ. eigenvalues --   -0.42029  -0.41615  -0.40394  -0.39210  -0.36829
 Alpha  occ. eigenvalues --   -0.36173  -0.35745  -0.35237  -0.34007
 Alpha virt. eigenvalues --    0.02920   0.04503   0.04803   0.06257   0.07143
 Alpha virt. eigenvalues --    0.07501   0.08208   0.09614   0.09938   0.11966
 Alpha virt. eigenvalues --    0.12964   0.14214   0.14897   0.15163   0.15412

 Mulliken charges:
               1
     1  C    3.248757
     2  N    3.947876
     3  B    7.863160
     4  N    4.077301
     5  O   -2.919586
     6  O   -4.390588
     7  O   -2.714969
     8  O   -4.279994
     9  O   -3.039547
    10  O   -2.878633
    11  N    4.347596
    12  O   -2.994987
    13  O   -2.837665
    14  H    0.999840
    15  H    1.571439
 Sum of Mulliken charges =   0.00000

 Dipole moment (field-independent basis, Debye):
    X=             -1.4729    Y=             -0.4878    Z=             -0.3401  Tot=              1.5885

 Test job not archived.
 1\1\GINC-SE187\SP\RHF\Aug-CC-pVDZ\C1H2B1N3O8\OHZDE\09-Apr-2025\0\\#t h
 f aug-cc-pvdz iop(5/13=1,5/36=2,99/5=2) pseudo=read geom=check guess=(
 read,tcheck) scf=(maxcycle=1)\\title\\0,1\C,0,0.016428,0.004152,-0.029
 623\N,0,0.365306,-0.161322,1.466048\B,0,-1.606932,-0.093761,-0.236776\
 N,0,0.829347,-1.086146,-0.741816\O,0,0.359083,-2.212436,-0.623569\O,0,
 -2.226814,-1.272952,-0.397066\O,0,-0.558059,0.050866,2.227209\O,0,-2.2
 27565,1.097862,-0.235699\O,0,1.501075,-0.470398,1.741755\O,0,1.851887,
 -0.785764,-1.298646\N,0,0.533583,1.364516,-0.49671\O,0,0.378583,1.5606

 Normal termination of Gaussian 16 at Wed Apr  9 00:32:24 2025.
