 Gaussian 16, Revision C.01,

 ----------------------------------------------------------------------
 #t hf aug-cc-pvdz symm=none int=(grid=ultrafine) guess=(read,tcheck) s
 table=(opt,rrhf)
 ----------------------------------------------------------------------
 -----
 title
 -----
 Symbolic Z-matrix:
 Charge =  0 Multiplicity = 1

 SCF Done:  E(RHF) =  -636.134061506     A.U. after   14 cycles
 Normal termination of Gaussian 16 at Wed Apr  9 00:08:56 2025.
 Gaussian 16:  ES64L-G16RevC.01  3-Jul-2019

 ----------------------------------------------------------------------
 #t hf aug-cc-pvdz iop(5/13=1,5/36=2,99/5=2) pseudo=read geom=check gue
 ss=(read,tcheck) scf=(maxcycle=1)
 ----------------------------------------------------------------------
 -----
 title
 -----
 Structure from the checkpoint file:  "BDE49_nonexpt_2251_mol1.chk"
 Charge =  0 Multiplicity = 1

                         Standard orientation:
 ---------------------------------------------------------------------
 Center     Atomic      Atomic             Coordinates (Angstroms)
 Number     Number       Type             X           Y           Z
 ---------------------------------------------------------------------
      1         14           0       -0.161540   -0.160113    0.499162
      2          8           0       -0.896776   -1.366109   -0.443004
      3          8           0       -2.224681   -1.618535    0.127994
      4          1           0       -2.145085   -2.564355    0.310321
      5          6           0        1.515748    0.050574   -0.342112
      6          6           0        2.354885    1.131138    0.369007
      7          6           0       -1.219526    1.388218    0.537536
      8          1           0        1.857177    2.105097    0.377075
      9          1           0        3.320831    1.261106   -0.130805
     10          1           0        2.563250    0.856000    1.408471
     11          6           0        2.283481   -1.281756   -0.434758
     12          1           0        1.310188    0.395520   -1.363664
     13          1           0        2.500235   -1.684538    0.560399
     14          1           0        3.242462   -1.142718   -0.946214
     15          1           0        1.715839   -2.037089   -0.982526
     16          6           0       -1.514730    2.016551   -0.836453
     17          1           0       -0.731429    2.117000    1.197171
     18          1           0       -2.157858    1.119812    1.035328
     19          1           0       -0.598680    2.337930   -1.340557
     20          1           0       -2.159785    2.894742   -0.741448
     21          1           0       -2.019486    1.304953   -1.494346
     22          1           0        0.016405   -0.673076    1.883296
 ---------------------------------------------------------------------

 SCF Done:  E(RHF) =  -637.936145525     A.U. after    2 cycles

 The electronic state is 1-A.
 Alpha  occ. eigenvalues --  -76.21043 -21.12057 -21.07554 -11.40301 -11.39212
 Alpha  occ. eigenvalues --  -11.38564 -11.34476 -11.34213  -5.55214  -2.21887
 Alpha  occ. eigenvalues --   -2.19643  -2.17834  -1.89479  -1.39727  -1.20497
 Alpha  occ. eigenvalues --   -1.14148  -0.99863  -0.89295  -0.83847  -0.69477
 Alpha  occ. eigenvalues --   -0.63045  -0.61788  -0.59964  -0.58339  -0.57306
 Alpha  occ. eigenvalues --   -0.55320  -0.53256  -0.50459  -0.49374  -0.48543
 Alpha  occ. eigenvalues --   -0.47221  -0.46230  -0.45149  -0.41100  -0.36282
 Alpha  occ. eigenvalues --   -0.33652  -0.29359
 Alpha virt. eigenvalues --    0.03941   0.05148   0.05279   0.05537   0.05658
 Alpha virt. eigenvalues --    0.05854   0.06214   0.06893   0.07279   0.07590
 Alpha virt. eigenvalues --    0.08059   0.08289   0.08662   0.09423   0.09953

 Mulliken charges:
               1
     1  Si   8.256945
     2  O   -1.903335
     3  O   -1.270481
     4  H    1.040798
     5  C   -2.936022
     6  C   -3.680484
     7  C   -4.378429
     8  H    1.323498
     9  H    1.239922
    10  H    1.308245
    11  C   -4.126918
    12  H    1.758098
    13  H    1.308452
    14  H    1.203545
    15  H    1.285470
    16  C   -3.934047
    17  H    1.379084
    18  H    1.224190
    19  H    1.312319
    20  H    1.152584
    21  H    1.372182
    22  H   -2.935616
 Sum of Mulliken charges =   0.00000

 Dipole moment (field-independent basis, Debye):
    X=              0.0045    Y=              0.1553    Z=             -0.2216  Tot=              0.2707

 Test job not archived.
 1\1\GINC-SE368\SP\RHF\Aug-CC-pVDZ\C5H14O2Si1\OHZDE\09-Apr-2025\0\\#t h
 f aug-cc-pvdz iop(5/13=1,5/36=2,99/5=2) pseudo=read geom=check guess=(
 read,tcheck) scf=(maxcycle=1)\\title\\0,1\Si,0,-0.16154,-0.160113,0.49
 9162\O,0,-0.896776,-1.366109,-0.443004\O,0,-2.224681,-1.618535,0.12799
 4\H,0,-2.145085,-2.564355,0.310321\C,0,1.515748,0.050574,-0.342112\C,0
 ,2.354885,1.131138,0.369007\C,0,-1.219526,1.388218,0.537536\H,0,1.8571
 77,2.105097,0.377075\H,0,3.320831,1.261106,-0.130805\H,0,2.56325,0.856
 ,1.408471\C,0,2.283481,-1.281756,-0.434758\H,0,1.310188,0.39552,-1.363

 Normal termination of Gaussian 16 at Wed Apr  9 00:09:05 2025.
