 Gaussian 16, Revision C.01,

 ----------------------------------------------------------------------
 #t hf aug-cc-pvdz symm=none int=(grid=ultrafine) guess=(read,tcheck) s
 table=(opt,rrhf)
 ----------------------------------------------------------------------
 -----
 title
 -----
 Symbolic Z-matrix:
 Charge =  0 Multiplicity = 1

 SCF Done:  E(RHF) =  -862.142543455     A.U. after   15 cycles
 Normal termination of Gaussian 16 at Tue Apr  8 23:44:10 2025.
 Gaussian 16:  ES64L-G16RevC.01  3-Jul-2019

 ----------------------------------------------------------------------
 #t hf aug-cc-pvdz iop(5/13=1,5/36=2,99/5=2) pseudo=read geom=check gue
 ss=(read,tcheck) scf=(maxcycle=1)
 ----------------------------------------------------------------------
 -----
 title
 -----
 Structure from the checkpoint file:  "BDE49_nonexpt_1688_mol1.chk"
 Charge =  0 Multiplicity = 1

                         Standard orientation:
 ---------------------------------------------------------------------
 Center     Atomic      Atomic             Coordinates (Angstroms)
 Number     Number       Type             X           Y           Z
 ---------------------------------------------------------------------
      1         14           0        2.583758   -0.004931   -0.896692
      2         15           0        1.460163   -0.086065    1.087204
      3          6           0       -0.271789    0.000873    0.445609
      4          6           0       -0.956994   -1.203056    0.229591
      5          6           0       -0.944358    1.207111    0.205470
      6          6           0       -2.263927    1.206902   -0.239076
      7          6           0       -2.930146    0.003577   -0.463105
      8          6           0       -2.271575   -1.201535   -0.230077
      9          1           0       -3.956313    0.005618   -0.812521
     10          1           0       -2.783878   -2.142786   -0.395491
     11          1           0       -0.462021   -2.147874    0.429541
     12          1           0       -0.435740    2.150970    0.366517
     13          1           0       -2.770559    2.149488   -0.414844
     14          1           0        1.633226    1.295040    1.359947
     15          1           0        2.383741   -1.299872   -1.586922
     16          1           0        4.028049    0.174138   -0.611387
     17          1           0        2.121166    1.092054   -1.779689
 ---------------------------------------------------------------------

 SCF Done:  E(RHF) =  -863.614892316     A.U. after    2 cycles

 The electronic state is 1-A.
 Alpha  occ. eigenvalues -- -105.17379 -76.22592 -11.51741 -11.43504 -11.43237
 Alpha  occ. eigenvalues --  -11.41219 -11.40797 -11.36649  -5.55946  -2.74848
 Alpha  occ. eigenvalues --   -2.17973  -2.17940  -2.17765  -1.50427  -1.45093
 Alpha  occ. eigenvalues --   -1.42454  -1.32866  -1.09504  -1.08026  -0.86617
 Alpha  occ. eigenvalues --   -0.85443  -0.78526  -0.71870  -0.66824  -0.62362
 Alpha  occ. eigenvalues --   -0.58616  -0.56925  -0.50989  -0.49584  -0.47699
 Alpha  occ. eigenvalues --   -0.47579  -0.45115  -0.34516  -0.33435  -0.24976
 Alpha  occ. eigenvalues --   -0.15375  -0.03146
 Alpha virt. eigenvalues --    0.03532   0.05149   0.05271   0.05488   0.06398
 Alpha virt. eigenvalues --    0.06756   0.07232   0.07865   0.08125   0.08728
 Alpha virt. eigenvalues --    0.09436   0.09906   0.10704   0.11201   0.11641

 Mulliken charges:
               1
     1  Si   5.412094
     2  P    0.643185
     3  C    3.939080
     4  C   -4.407577
     5  C   -3.903736
     6  C   -0.281789
     7  C   -2.311601
     8  C   -0.855285
     9  H    1.462233
    10  H    1.550823
    11  H    1.863274
    12  H    1.926750
    13  H    1.509354
    14  H   -1.351156
    15  H   -1.714253
    16  H   -1.707004
    17  H   -1.774393
 Sum of Mulliken charges =   0.00000

 Dipole moment (field-independent basis, Debye):
    X=             -2.7088    Y=             -1.8624    Z=              4.9300  Tot=              5.9255

 Test job not archived.
 1\1\GINC-SE253\SP\RHF\Aug-CC-pVDZ\C6H9P1Si1\OHZDE\08-Apr-2025\0\\#t hf
  aug-cc-pvdz iop(5/13=1,5/36=2,99/5=2) pseudo=read geom=check guess=(r
 ead,tcheck) scf=(maxcycle=1)\\title\\0,1\Si,0,2.583758,-0.004931,-0.89
 6692\P,0,1.460163,-0.086065,1.087204\C,0,-0.271789,0.000873,0.445609\C
 ,0,-0.956994,-1.203056,0.229591\C,0,-0.944358,1.207111,0.20547\C,0,-2.
 263927,1.206902,-0.239076\C,0,-2.930146,0.003577,-0.463105\C,0,-2.2715
 75,-1.201535,-0.230077\H,0,-3.956313,0.005618,-0.812521\H,0,-2.783878,
 -2.142786,-0.395491\H,0,-0.462021,-2.147874,0.429541\H,0,-0.43574,2.15

 Normal termination of Gaussian 16 at Tue Apr  8 23:44:18 2025.
