 Gaussian 16, Revision C.01,

 ----------------------------------------------------------------------
 #t hf aug-cc-pvdz symm=none int=(grid=ultrafine) guess=(read,tcheck) s
 table=(opt,rrhf)
 ----------------------------------------------------------------------
 -----
 title
 -----
 Symbolic Z-matrix:
 Charge =  0 Multiplicity = 1

 SCF Done:  E(RHF) =  -698.724053900     A.U. after   16 cycles
 Normal termination of Gaussian 16 at Wed Apr  9 00:49:31 2025.
 Gaussian 16:  ES64L-G16RevC.01  3-Jul-2019

 ----------------------------------------------------------------------
 #t hf aug-cc-pvdz iop(5/13=1,5/36=2,99/5=2) pseudo=read geom=check gue
 ss=(read,tcheck) scf=(maxcycle=1)
 ----------------------------------------------------------------------
 -----
 title
 -----
 Structure from the checkpoint file:  "BDE49_nonexpt_781_mol1.chk"
 Charge =  0 Multiplicity = 1

                         Standard orientation:
 ---------------------------------------------------------------------
 Center     Atomic      Atomic             Coordinates (Angstroms)
 Number     Number       Type             X           Y           Z
 ---------------------------------------------------------------------
      1          6           0       -2.059109   -1.539346    0.103210
      2          6           0       -3.371363   -1.141283    0.186485
      3          6           0       -3.702578    0.233516    0.157402
      4          6           0       -2.715670    1.183196    0.045602
      5          6           0       -1.351498    0.805011   -0.042591
      6          6           0       -1.015929   -0.584146   -0.013110
      7          1           0       -1.802464   -2.593466    0.124908
      8          1           0       -4.159766   -1.880241    0.274701
      9          1           0       -4.741920    0.535002    0.223771
     10          1           0       -2.968824    2.238098    0.023128
     11          6           0        0.350189   -0.961790   -0.102531
     12          6           0        1.363357   -0.028551   -0.215871
     13          6           0       -0.301766    1.754145   -0.158431
     14          6           0        1.007199    1.352421   -0.239428
     15          1           0       -0.552248    2.810016   -0.180815
     16          1           0        1.785525    2.104562   -0.323581
     17          5           0        4.377878    0.284914    1.036870
     18          1           0        0.585087   -2.022200   -0.081483
     19         14           0        3.162301   -0.569305   -0.323001
     20          1           0        4.166151    1.378866    1.462022
     21          1           0        5.370898   -0.261736    1.407086
     22          1           0        3.196734   -2.053338   -0.281545
     23          1           0        3.742226   -0.148892   -1.634958
 ---------------------------------------------------------------------

 SCF Done:  E(RHF) =  -700.835464205     A.U. after    2 cycles

 The electronic state is 1-A.
 Alpha  occ. eigenvalues --  -76.19986 -11.51976 -11.49463 -11.45065 -11.43805
 Alpha  occ. eigenvalues --  -11.43024 -11.41669 -11.41644 -11.41261 -11.39155
 Alpha  occ. eigenvalues --  -11.36333  -7.62133  -5.53734  -2.18827  -2.17408
 Alpha  occ. eigenvalues --   -2.15772  -1.39462  -1.23609  -1.14283  -1.08003
 Alpha  occ. eigenvalues --   -1.04364  -0.90095  -0.88034  -0.85436  -0.84784
 Alpha  occ. eigenvalues --   -0.73457  -0.71232  -0.69091  -0.63728  -0.62663
 Alpha  occ. eigenvalues --   -0.57204  -0.57099  -0.54110  -0.53677  -0.50941
 Alpha  occ. eigenvalues --   -0.48806  -0.47635  -0.45882  -0.44497  -0.42232
 Alpha  occ. eigenvalues --   -0.39695  -0.38305  -0.35834  -0.31341  -0.27801
 Alpha virt. eigenvalues --    0.02656   0.03246   0.03805   0.03920   0.05207
 Alpha virt. eigenvalues --    0.05610   0.05946   0.06529   0.07198   0.07677
 Alpha virt. eigenvalues --    0.08028   0.08707   0.09170   0.09486   0.09812

 Mulliken charges:
               1
     1  C   -2.645308
     2  C   -4.003990
     3  C   -4.085850
     4  C   -2.840759
     5  C    6.961412
     6  C    8.117169
     7  H    1.712083
     8  H    1.472339
     9  H    1.459824
    10  H    1.718673
    11  C   -1.566824
    12  C   -1.959973
    13  C   -3.187761
    14  C   -6.702920
    15  H    1.879873
    16  H    1.979113
    17  B    3.131205
    18  H    2.055051
    19  Si   4.670888
    20  H   -2.086586
    21  H   -2.490860
    22  H   -1.754329
    23  H   -1.832470
 Sum of Mulliken charges =   0.00000

 Dipole moment (field-independent basis, Debye):
    X=             -1.0901    Y=              0.3061    Z=              0.5890  Tot=              1.2763

 Test job not archived.
 1\1\GINC-SE227\SP\RHF\Aug-CC-pVDZ\C10H11B1Si1\OHZDE\09-Apr-2025\0\\#t
 hf aug-cc-pvdz iop(5/13=1,5/36=2,99/5=2) pseudo=read geom=check guess=
 (read,tcheck) scf=(maxcycle=1)\\title\\0,1\C,0,-2.059109,-1.539346,0.1
 0321\C,0,-3.371363,-1.141283,0.186485\C,0,-3.702578,0.233516,0.157402\
 C,0,-2.71567,1.183196,0.045602\C,0,-1.351498,0.805011,-0.042591\C,0,-1
 .015929,-0.584146,-0.01311\H,0,-1.802464,-2.593466,0.124908\H,0,-4.159
 766,-1.880241,0.274701\H,0,-4.74192,0.535002,0.223771\H,0,-2.968824,2.
 238098,0.023128\C,0,0.350189,-0.96179,-0.102531\C,0,1.363357,-0.028551

 Normal termination of Gaussian 16 at Wed Apr  9 00:49:49 2025.
