 Gaussian 16, Revision C.01,

 ----------------------------------------------------------------------
 #t hf aug-cc-pvdz symm=none int=(grid=ultrafine) guess=(read,tcheck) s
 table=(opt,rrhf)
 ----------------------------------------------------------------------
 -----
 title
 -----
 Symbolic Z-matrix:
 Charge =  0 Multiplicity = 1

 SCF Done:  E(RHF) =  -365.020963636     A.U. after   14 cycles
 Normal termination of Gaussian 16 at Wed Apr  9 00:40:53 2025.
 Gaussian 16:  ES64L-G16RevC.01  3-Jul-2019

 ----------------------------------------------------------------------
 #t hf aug-cc-pvdz iop(5/13=1,5/36=2,99/5=2) pseudo=read geom=check gue
 ss=(read,tcheck) scf=(maxcycle=1)
 ----------------------------------------------------------------------
 -----
 title
 -----
 Structure from the checkpoint file:  "BDE49_nonexpt_653_mol1.chk"
 Charge =  0 Multiplicity = 1

                         Standard orientation:
 ---------------------------------------------------------------------
 Center     Atomic      Atomic             Coordinates (Angstroms)
 Number     Number       Type             X           Y           Z
 ---------------------------------------------------------------------
      1          8           0       -0.204722   -0.662957   -0.208483
      2          5           0        1.020196   -0.026122   -0.008835
      3          8           0        1.151224    1.323142    0.093738
      4          8           0        2.082782   -0.869636    0.080612
      5          8           0       -1.248699    0.344122   -0.339281
      6          6           0       -2.403966   -0.217402    0.264049
      7          1           0       -3.180526    0.536224    0.117052
      8          1           0       -2.247827   -0.396117    1.332087
      9          1           0       -2.687193   -1.147133   -0.236022
     10          1           0        2.902203   -0.387519    0.222374
     11          1           0        0.291485    1.752203    0.011702
 ---------------------------------------------------------------------

 SCF Done:  E(RHF) =  -366.526208219     A.U. after    2 cycles

 The electronic state is 1-A.
 Alpha  occ. eigenvalues --  -21.11093 -21.07376 -21.05913 -21.05717 -11.41864
 Alpha  occ. eigenvalues --   -7.66340  -1.99693  -1.80157  -1.66892  -1.46945
 Alpha  occ. eigenvalues --   -0.98164  -0.75505  -0.67699  -0.64113  -0.63103
 Alpha  occ. eigenvalues --   -0.58600  -0.55913  -0.52843  -0.46246  -0.41028
 Alpha  occ. eigenvalues --   -0.40296  -0.36800  -0.34741  -0.29284
 Alpha virt. eigenvalues --    0.03368   0.04260   0.05477   0.05721   0.06207
 Alpha virt. eigenvalues --    0.06774   0.07631   0.07950   0.09874   0.12696
 Alpha virt. eigenvalues --    0.14201   0.15621   0.16446   0.16781   0.18514

 Mulliken charges:
               1
     1  O   -2.647654
     2  B    7.997921
     3  O   -3.765987
     4  O   -3.690458
     5  O   -1.749342
     6  C   -2.456341
     7  H    1.277823
     8  H    1.342612
     9  H    1.365019
    10  H    0.925940
    11  H    1.400466
 Sum of Mulliken charges =  -0.00000

 Dipole moment (field-independent basis, Debye):
    X=             -1.3585    Y=              0.9302    Z=              0.3767  Tot=              1.6890

 Test job not archived.
 1\1\GINC-SE368\SP\RHF\Aug-CC-pVDZ\C1H5B1O4\OHZDE\09-Apr-2025\0\\#t hf
 aug-cc-pvdz iop(5/13=1,5/36=2,99/5=2) pseudo=read geom=check guess=(re
 ad,tcheck) scf=(maxcycle=1)\\title\\0,1\O,0,-0.204722,-0.662957,-0.208
 483\B,0,1.020196,-0.026122,-0.008835\O,0,1.151224,1.323142,0.093738\O,
 0,2.082782,-0.869636,0.080612\O,0,-1.248699,0.344122,-0.339281\C,0,-2.
 403966,-0.217402,0.264049\H,0,-3.180526,0.536224,0.117052\H,0,-2.24782
 7,-0.396117,1.332087\H,0,-2.687193,-1.147133,-0.236022\H,0,2.902203,-0
 .387519,0.222374\H,0,0.291485,1.752203,0.011702\\Version=ES64L-G16RevC

 Normal termination of Gaussian 16 at Wed Apr  9 00:40:56 2025.
