 Gaussian 16, Revision C.01,

 ----------------------------------------------------------------------
 #t hf aug-cc-pvdz symm=none int=(grid=ultrafine) guess=(read,tcheck) s
 table=opt
 ----------------------------------------------------------------------
 -----
 title
 -----
 Symbolic Z-matrix:
 Charge =  0 Multiplicity = 2

 SCF Done:  E(UHF) =  -114.435823796     A.U. after   15 cycles
 Normal termination of Gaussian 16 at Tue Apr  8 22:35:20 2025.
 Gaussian 16:  ES64L-G16RevC.01  3-Jul-2019

 ----------------------------------------------------------------------
 #t hf aug-cc-pvdz iop(5/13=1,5/36=2,99/5=2) pseudo=read geom=check gue
 ss=(read,tcheck) scf=(maxcycle=1)
 ----------------------------------------------------------------------
 -----
 title
 -----
 Structure from the checkpoint file:  "BDE49_expt_1052_mol2.chk"
 Charge =  0 Multiplicity = 2

                         Standard orientation:
 ---------------------------------------------------------------------
 Center     Atomic      Atomic             Coordinates (Angstroms)
 Number     Number       Type             X           Y           Z
 ---------------------------------------------------------------------
      1          6           0        0.684502    0.027633   -0.066267
      2          8           0       -0.671169   -0.125159    0.023435
      3          1           0       -1.092075    0.734932   -0.068161
      4          1           0        1.231099   -0.889251    0.101595
      5          1           0        1.123315    0.989792    0.176691
 ---------------------------------------------------------------------

 SCF Done:  E(UHF) =  -114.920595599     A.U. after    2 cycles

 The electronic state is 2-A.
 Alpha  occ. eigenvalues --  -21.10054 -11.40123  -1.73840  -0.95207  -0.66911
 Alpha  occ. eigenvalues --   -0.57001  -0.50869  -0.43143  -0.24903
 Alpha virt. eigenvalues --    0.03459   0.05775   0.06151   0.11913   0.12652
 Alpha virt. eigenvalues --    0.15629   0.17088   0.21666   0.22480   0.24764
 Alpha virt. eigenvalues --    0.25164   0.30213   0.30936   0.35479   0.37303

  Beta  occ. eigenvalues --  -21.09442 -11.37853  -1.72070  -0.87948  -0.65736
  Beta  occ. eigenvalues --   -0.55905  -0.43462  -0.39049
  Beta virt. eigenvalues --    0.03599   0.05849   0.06181   0.10121   0.12118
  Beta virt. eigenvalues --    0.15870   0.17089   0.19517   0.21978   0.22699
  Beta virt. eigenvalues --    0.25646   0.26889   0.30942   0.31599   0.35797

 Mulliken charges and spin densities:
               1          2
     1  C   -1.298375   1.084588
     2  O   -2.335722   0.099970
     3  H    0.945976  -0.006096
     4  H    1.386249  -0.086861
     5  H    1.301873  -0.091600
 Sum of Mulliken charges =  -0.00000   1.00000

 Dipole moment (field-independent basis, Debye):
    X=             -0.1833    Y=              0.7904    Z=              0.3160  Tot=              0.8707
                          Isotropic Fermi Contact Couplings
        Atom                 a.u.       MegaHertz       Gauss      10(-4) cm-1
     1  C(13)              0.14072     158.20071      56.44995      52.77008
     2  O(17)              0.04364     -26.45190      -9.43870      -8.82340
     3  H(1)              -0.00143      -6.36972      -2.27287      -2.12471
     4  H(1)              -0.01525     -68.17929     -24.32807     -22.74216
     5  H(1)              -0.01366     -61.04866     -21.78368     -20.36364
 --------------------------------------------------------
       Center         ----  Spin Dipole Couplings  ----
                      3XX-RR        3YY-RR        3ZZ-RR

 Normal termination of Gaussian 16 at Tue Apr  8 22:35:21 2025.
