 Gaussian 16, Revision C.01,

 ----------------------------------------------------------------------
 #t hf aug-cc-pvdz symm=none int=(grid=ultrafine) guess=(read,tcheck) s
 table=(opt,rrhf)
 ----------------------------------------------------------------------
 -----
 title
 -----
 Symbolic Z-matrix:
 Charge =  0 Multiplicity = 1

 SCF Done:  E(RHF) =  -786.225888995     A.U. after   15 cycles
 Normal termination of Gaussian 16 at Wed Apr  9 00:46:00 2025.
 Gaussian 16:  ES64L-G16RevC.01  3-Jul-2019

 ----------------------------------------------------------------------
 #t hf aug-cc-pvdz iop(5/13=1,5/36=2,99/5=2) pseudo=read geom=check gue
 ss=(read,tcheck) scf=(maxcycle=1)
 ----------------------------------------------------------------------
 -----
 title
 -----
 Structure from the checkpoint file:  "BDE49_nonexpt_746_mol1.chk"
 Charge =  0 Multiplicity = 1

                         Standard orientation:
 ---------------------------------------------------------------------
 Center     Atomic      Atomic             Coordinates (Angstroms)
 Number     Number       Type             X           Y           Z
 ---------------------------------------------------------------------
      1          6           0        2.107997   -0.857909   -0.860746
      2          6           0        0.781064   -1.204650   -0.634003
      3          6           0        2.735099    0.152540   -0.121167
      4          6           0        1.984300    0.797427    0.863463
      5          6           0        0.658161    0.441532    1.108610
      6          6           0        0.026439   -0.559214    0.356678
      7          1           0        2.666402   -1.376803   -1.634063
      8          1           0        0.325452   -1.982587   -1.236561
      9          5           0       -2.626362    0.447458   -0.266844
     10          8           0       -3.942412    0.266325   -0.558197
     11          8           0       -2.016221    1.617644   -0.608533
     12          1           0        2.443343    1.579606    1.459799
     13          6           0        4.180489    0.509604   -0.368799
     14          1           0        4.386123    0.619448   -1.437153
     15          1           0        4.849314   -0.269768    0.011412
     16          1           0        4.449851    1.445545    0.124582
     17          1           0        0.116997    0.938365    1.908583
     18          1           0       -1.069088    1.616504   -0.427076
     19          1           0       -4.316344    1.024392   -1.023646
     20         15           0       -1.731299   -0.972885    0.739182
     21          1           0       -1.922979   -1.986451   -0.229773
 ---------------------------------------------------------------------

 SCF Done:  E(RHF) =  -788.453105625     A.U. after    2 cycles

 The electronic state is 1-A.
 Alpha  occ. eigenvalues -- -105.16606 -21.06181 -21.05815 -11.51700 -11.44078
 Alpha  occ. eigenvalues --  -11.43920 -11.43196 -11.41275 -11.39366 -11.36661
 Alpha  occ. eigenvalues --   -7.64861  -2.74152  -1.81635  -1.65948  -1.50219
 Alpha  occ. eigenvalues --   -1.45730  -1.43692  -1.34445  -1.13974  -1.09701
 Alpha  occ. eigenvalues --   -0.99250  -0.87233  -0.83449  -0.77486  -0.71642
 Alpha  occ. eigenvalues --   -0.65635  -0.63134  -0.61322  -0.61140  -0.58220
 Alpha  occ. eigenvalues --   -0.58128  -0.52471  -0.51589  -0.49185  -0.48731
 Alpha  occ. eigenvalues --   -0.47003  -0.44409  -0.42437  -0.36718  -0.33839
 Alpha  occ. eigenvalues --   -0.33399  -0.24485  -0.15604  -0.02078
 Alpha virt. eigenvalues --    0.03109   0.04425   0.04889   0.05163   0.06099
 Alpha virt. eigenvalues --    0.06153   0.06595   0.06719   0.07601   0.08023
 Alpha virt. eigenvalues --    0.08987   0.09310   0.10005   0.10212   0.10976

 Mulliken charges:
               1
     1  C   -0.587442
     2  C   -4.857174
     3  C    2.906909
     4  C   -0.754006
     5  C   -4.834945
     6  C    4.049730
     7  H    1.847718
     8  H    2.025437
     9  B    5.603155
    10  O   -3.753784
    11  O   -3.959528
    12  H    1.866301
    13  C   -6.027705
    14  H    1.044076
    15  H    1.135500
    16  H    1.231437
    17  H    2.100329
    18  H    1.939084
    19  H    1.129376
    20  P   -0.439935
    21  H   -1.664534
 Sum of Mulliken charges =   0.00000

 Dipole moment (field-independent basis, Debye):
    X=              1.8437    Y=             -0.6846    Z=              2.7847  Tot=              3.4091

 Test job not archived.
 1\1\GINC-SE462\SP\RHF\Aug-CC-pVDZ\C7H10B1O2P1\OHZDE\09-Apr-2025\0\\#t
 hf aug-cc-pvdz iop(5/13=1,5/36=2,99/5=2) pseudo=read geom=check guess=
 (read,tcheck) scf=(maxcycle=1)\\title\\0,1\C,0,2.107997,-0.857909,-0.8
 60746\C,0,0.781064,-1.20465,-0.634003\C,0,2.735099,0.15254,-0.121167\C
 ,0,1.9843,0.797427,0.863463\C,0,0.658161,0.441532,1.10861\C,0,0.026439
 ,-0.559214,0.356678\H,0,2.666402,-1.376803,-1.634063\H,0,0.325452,-1.9
 82587,-1.236561\B,0,-2.626362,0.447458,-0.266844\O,0,-3.942412,0.26632
 5,-0.558197\O,0,-2.016221,1.617644,-0.608533\H,0,2.443343,1.579606,1.4

 Normal termination of Gaussian 16 at Wed Apr  9 00:46:14 2025.
