 Gaussian 16, Revision C.01,

 ----------------------------------------------------------------------
 #t hf aug-cc-pvdz symm=none int=(grid=ultrafine) guess=(read,tcheck) s
 table=opt
 ----------------------------------------------------------------------
 -----
 title
 -----
 Symbolic Z-matrix:
 Charge =  0 Multiplicity = 2

 SCF Done:  E(UHF) =  -1855.91793772     A.U. after   23 cycles
 Normal termination of Gaussian 16 at Wed Apr  9 00:55:12 2025.
 Gaussian 16:  ES64L-G16RevC.01  3-Jul-2019

 ----------------------------------------------------------------------
 #t hf aug-cc-pvdz iop(5/13=1,5/36=2,99/5=2) pseudo=read geom=check gue
 ss=(read,tcheck) scf=(maxcycle=1)
 ----------------------------------------------------------------------
 -----
 title
 -----
 Structure from the checkpoint file:  "BDE49_nonexpt_966_mol2.chk"
 Charge =  0 Multiplicity = 2

                         Standard orientation:
 ---------------------------------------------------------------------
 Center     Atomic      Atomic             Coordinates (Angstroms)
 Number     Number       Type             X           Y           Z
 ---------------------------------------------------------------------
      1         17           0        1.557618    1.964043   -0.466899
      2          7           0       -0.775598    0.873981    0.637437
      3          6           0        0.599927    1.123306    0.949424
      4          9           0       -1.345062    2.089623    0.223767
      5          7           0        1.357059   -0.037283    1.241821
      6          6           0       -0.960245   -0.136555   -0.402416
      7          6           0        0.964466   -1.246580    0.588713
      8         17           0       -2.678376   -0.308771   -0.816866
      9          7           0       -0.414593   -1.387666    0.098554
     10         17           0        2.079988   -1.526579   -0.825855
     11          9           0       -1.152916   -1.717450    1.278763
     12          1           0        0.668511    1.862428    1.740675
     13          1           0        1.134526   -2.080256    1.265081
     14          1           0       -0.421121    0.096263   -1.323997
 ---------------------------------------------------------------------

 SCF Done:  E(UHF) =  -1858.55670472     A.U. after    2 cycles

 The electronic state is 2-A.
 Alpha  occ. eigenvalues --  -99.92437 -99.91664 -99.90812 -29.31386 -29.30337
 Alpha  occ. eigenvalues --  -15.85899 -15.85194 -15.83254 -11.55666 -11.54363
 Alpha  occ. eigenvalues --  -11.52610 -10.49700 -10.49072 -10.47968  -9.69885
 Alpha  occ. eigenvalues --   -9.69082  -9.68833  -9.68808  -9.68248  -9.68123
 Alpha  occ. eigenvalues --   -9.68091  -9.67215  -9.67156  -1.65195  -1.48646
 Alpha  occ. eigenvalues --   -1.46292  -1.33549  -1.32880  -1.30174  -1.06340
 Alpha  occ. eigenvalues --   -1.05499  -0.90973  -0.83961  -0.79677  -0.75826
 Alpha  occ. eigenvalues --   -0.73884  -0.73609  -0.67182  -0.64118  -0.62488
 Alpha  occ. eigenvalues --   -0.58467  -0.55347  -0.55038  -0.54575  -0.52988
 Alpha  occ. eigenvalues --   -0.52089  -0.50271  -0.49157  -0.47269  -0.46081
 Alpha  occ. eigenvalues --   -0.40772  -0.39888  -0.31648  -0.29927  -0.27512
 Alpha  occ. eigenvalues --   -0.23408
 Alpha virt. eigenvalues --    0.03730   0.05199   0.05561   0.05816   0.06276
 Alpha virt. eigenvalues --    0.07536   0.09533   0.10303   0.10808   0.11431
 Alpha virt. eigenvalues --    0.12159   0.12419   0.12885   0.13290   0.14497

  Beta  occ. eigenvalues --  -99.92286 -99.91664 -99.90585 -29.31403 -29.30365
  Beta  occ. eigenvalues --  -15.85874 -15.85185 -15.80228 -11.55822 -11.54757
  Beta  occ. eigenvalues --  -11.52876 -10.49542 -10.49071 -10.47730  -9.69296
  Beta  occ. eigenvalues --   -9.69077  -9.68741  -9.68663  -9.68122  -9.68091
  Beta  occ. eigenvalues --   -9.67374  -9.67063  -9.66942  -1.64185  -1.48643
  Beta  occ. eigenvalues --   -1.42216  -1.32547  -1.31599  -1.26378  -1.06098
  Beta  occ. eigenvalues --   -1.05057  -0.89957  -0.83604  -0.78808  -0.75396
  Beta  occ. eigenvalues --   -0.73601  -0.69082  -0.66584  -0.63610  -0.61725
  Beta  occ. eigenvalues --   -0.56765  -0.54972  -0.54596  -0.53775  -0.52603
  Beta  occ. eigenvalues --   -0.51706  -0.49422  -0.48936  -0.44911  -0.40512
  Beta  occ. eigenvalues --   -0.39857  -0.31790  -0.29874  -0.27308  -0.23272
  Beta virt. eigenvalues --   -0.00996   0.03788   0.05412   0.05756   0.05913
  Beta virt. eigenvalues --    0.06343   0.08591   0.09565   0.10437   0.10967
  Beta virt. eigenvalues --    0.11528   0.12436   0.12825   0.13120   0.13357

 Mulliken charges and spin densities:
               1          2
     1  Cl   0.113842   0.187239
     2  N   -0.457623   0.016798
     3  C   -0.648087  -0.298024
     4  F   -0.373503   0.001563
     5  N   -1.553993   1.187263
     6  C   -1.323073   0.008348
     7  C   -1.345233  -0.271969
     8  Cl   0.158541   0.000863
     9  N   -0.250950   0.018502
    10  Cl   0.250388   0.124388
    11  F   -0.352969  -0.002604
    12  H    1.917161   0.008555
    13  H    1.934584   0.019343
    14  H    1.930916  -0.000266
 Sum of Mulliken charges =  -0.00000   1.00000

 Dipole moment (field-independent basis, Debye):
    X=             -3.1384    Y=              0.5958    Z=              3.4217  Tot=              4.6811
                          Isotropic Fermi Contact Couplings
        Atom                 a.u.       MegaHertz       Gauss      10(-4) cm-1
     1  Cl(35)             0.06108      26.77915       9.55547       8.93256
     2  N(14)              0.00496       1.60184       0.57158       0.53432
     3  C(13)             -0.02894     -32.52902     -11.60716     -10.85051
     4  F(19)             -0.00167      -7.03384      -2.50985      -2.34624
     5  N(14)              0.22129      71.49826      25.51236      23.84925
     6  C(13)             -0.00186      -2.09177      -0.74640      -0.69774
     7  C(13)             -0.03198     -35.95273     -12.82883     -11.99254
     8  Cl(35)            -0.00028      -0.12246      -0.04370      -0.04085

 1\1\GINC-SE345\SP\UHF\Aug-CC-pVDZ\C3H3Cl3F2N3(2)\OHZDE\09-Apr-2025\0\\
 #t hf aug-cc-pvdz iop(5/13=1,5/36=2,99/5=2) pseudo=read geom=check gue
 ss=(read,tcheck) scf=(maxcycle=1)\\title\\0,2\Cl,0,1.557618,1.964043,-
 0.466899\N,0,-0.775598,0.873981,0.637437\C,0,0.599927,1.123306,0.94942
 4\F,0,-1.345062,2.089623,0.223767\N,0,1.357059,-0.037283,1.241821\C,0,
 -0.960245,-0.136555,-0.402416\C,0,0.964466,-1.24658,0.588713\Cl,0,-2.6
 78376,-0.308771,-0.816866\N,0,-0.414593,-1.387666,0.098554\Cl,0,2.0799
 88,-1.526579,-0.825855\F,0,-1.152916,-1.71745,1.278763\H,0,0.668511,1.

 Normal termination of Gaussian 16 at Wed Apr  9 00:55:22 2025.
