 Gaussian 16, Revision C.01,

 ----------------------------------------------------------------------
 #t hf aug-cc-pvdz symm=none int=(grid=ultrafine) guess=(read,tcheck) s
 table=opt
 ----------------------------------------------------------------------
 -----
 title
 -----
 Symbolic Z-matrix:
 Charge =  0 Multiplicity = 2

 SCF Done:  E(UHF) =  -718.850689046     A.U. after   24 cycles
 Normal termination of Gaussian 16 at Tue Apr  8 23:16:35 2025.
 Gaussian 16:  ES64L-G16RevC.01  3-Jul-2019

 ----------------------------------------------------------------------
 #t hf aug-cc-pvdz iop(5/13=1,5/36=2,99/5=2) pseudo=read geom=check gue
 ss=(read,tcheck) scf=(maxcycle=1)
 ----------------------------------------------------------------------
 -----
 title
 -----
 Structure from the checkpoint file:  "BDE49_expt_842_mol2.chk"
 Charge =  0 Multiplicity = 2

                         Standard orientation:
 ---------------------------------------------------------------------
 Center     Atomic      Atomic             Coordinates (Angstroms)
 Number     Number       Type             X           Y           Z
 ---------------------------------------------------------------------
      1          6           0        1.062639   -0.141174    0.917317
      2          6           0       -0.315196    0.508690    0.709990
      3          7           0       -0.333482    1.783102   -0.012028
      4          6           0       -1.289925   -0.481944    0.027343
      5          1           0       -0.749661    0.683247    1.701980
      6          8           0       -1.258007   -1.667403    0.222607
      7          8           0       -2.190390    0.115307   -0.758316
      8          1           0       -1.937155    1.064554   -0.764126
      9          1           0        0.360014    1.767259   -0.757614
     10          1           0       -0.133054    2.569346    0.594760
     11         16           0        2.063826   -0.298704   -0.581401
     12          1           0        0.947269   -1.134963    1.355083
     13          1           0        1.667808    0.451448    1.614315
 ---------------------------------------------------------------------

 SCF Done:  E(UHF) =  -720.458167073     A.U. after    2 cycles

 The electronic state is 2-A.
 Alpha  occ. eigenvalues --  -75.72096 -21.11023 -21.04746 -15.77293 -13.14212
 Alpha  occ. eigenvalues --  -13.07788 -13.06995 -11.52914 -11.46938 -11.42074
 Alpha  occ. eigenvalues --   -8.05690  -1.82179  -1.65557  -1.39192  -1.20840
 Alpha  occ. eigenvalues --   -1.05610  -0.91857  -0.77362  -0.73785  -0.69150
 Alpha  occ. eigenvalues --   -0.64232  -0.60653  -0.58409  -0.52084  -0.50742
 Alpha  occ. eigenvalues --   -0.45311  -0.42736  -0.40168  -0.33399  -0.30624
 Alpha  occ. eigenvalues --   -0.29257  -0.26438
 Alpha virt. eigenvalues --    0.02433   0.04360   0.04971   0.05224   0.05889
 Alpha virt. eigenvalues --    0.07431   0.07920   0.11197   0.11463   0.11674
 Alpha virt. eigenvalues --    0.13275   0.13887   0.14037   0.14867   0.15286

  Beta  occ. eigenvalues --  -75.71109 -21.11024 -21.04737 -15.77292 -13.13617
  Beta  occ. eigenvalues --  -13.06471 -13.01785 -11.52917 -11.46974 -11.42154
  Beta  occ. eigenvalues --   -8.04584  -1.82175  -1.65543  -1.39026  -1.17797
  Beta  occ. eigenvalues --   -1.02514  -0.88386  -0.77093  -0.73654  -0.68962
  Beta  occ. eigenvalues --   -0.63668  -0.60452  -0.57697  -0.51943  -0.50714
  Beta  occ. eigenvalues --   -0.45182  -0.42067  -0.40016  -0.33140  -0.29196
  Beta  occ. eigenvalues --   -0.24920
  Beta virt. eigenvalues --    0.02467   0.02994   0.04458   0.05218   0.05828
  Beta virt. eigenvalues --    0.05974   0.07520   0.07978   0.11235   0.11611
  Beta virt. eigenvalues --    0.12260   0.13537   0.13976   0.14205   0.14949

 Mulliken charges and spin densities:
               1          2
     1  C   -3.494133  -0.151423
     2  C   -0.250849  -0.080895
     3  N   -2.768960  -0.005805
     4  C    5.613473   0.054133
     5  H    1.588945   0.002176
     6  O   -3.136881   0.009220
     7  O   -3.152876   0.001080
     8  H    1.156174   0.000476
     9  H    0.612816  -0.019531
    10  H    0.527167  -0.000170
    11  S    0.468001   1.174535
    12  H    1.447452   0.012625
    13  H    1.389671   0.003579
 Sum of Mulliken charges =   0.00000   1.00000

 Dipole moment (field-independent basis, Debye):
    X=              2.0725    Y=              2.5428    Z=              0.4332  Tot=              3.3089
                          Isotropic Fermi Contact Couplings
        Atom                 a.u.       MegaHertz       Gauss      10(-4) cm-1
     1  C(13)             -0.01646     -18.50001      -6.60126      -6.17094
     2  C(13)              0.00098       1.10187       0.39318       0.36754
     3  N(14)             -0.00136      -0.43784      -0.15623      -0.14605
     4  C(13)             -0.00037      -0.41034      -0.14642      -0.13687
     5  H(1)              -0.00040      -1.79382      -0.64008      -0.59835
     6  O(17)              0.00048      -0.28825      -0.10285      -0.09615
     7  O(17)             -0.00020       0.12326       0.04398       0.04112
     8  H(1)               0.00000       0.01992       0.00711       0.00665

 Normal termination of Gaussian 16 at Tue Apr  8 23:16:40 2025.
