 Gaussian 16, Revision C.01,

 ----------------------------------------------------------------------
 #t hf aug-cc-pvdz symm=none int=(grid=ultrafine) guess=(read,tcheck) s
 table=opt
 ----------------------------------------------------------------------
 -----
 title
 -----
 Symbolic Z-matrix:
 Charge =  0 Multiplicity = 2

 SCF Done:  E(UHF) =  -181.919728197     A.U. after   18 cycles

 1\1\GINC-SE284\Stability\UHF\Aug-CC-pVDZ\C4H10B1\OHZDE\09-Apr-2025\0\\
 #t hf aug-cc-pvdz symm=none int=(grid=ultrafine) guess=(read,tcheck) s
 table=opt\\title\\0,2\H,0,-0.360922,2.600062,-0.39117\B,0,-0.940707,1.
 559449,-0.470886\C,0,-0.675355,0.256264,0.312812\C,0,0.805447,0.021396
 ,0.716429\C,0,-1.372931,-1.018312,-0.20223\H,0,-0.94993,-1.345745,-1.1
 55134\H,0,-2.43841,-0.843122,-0.365121\H,0,-1.266457,-1.84357,0.509664
 \H,0,-1.205943,0.560986,1.244941\C,0,1.73602,-0.261555,-0.468035\H,0,0
 .853219,-0.817486,1.422276\H,0,1.169565,0.901631,1.255406\H,0,1.437682

 Normal termination of Gaussian 16 at Wed Apr  9 00:36:14 2025.
 Gaussian 16:  ES64L-G16RevC.01  3-Jul-2019

 ----------------------------------------------------------------------
 #t hf aug-cc-pvdz iop(5/13=1,5/36=2,99/5=2) pseudo=read geom=check gue
 ss=(read,tcheck) scf=(maxcycle=1)
 ----------------------------------------------------------------------
 -----
 title
 -----
 Structure from the checkpoint file:  "BDE49_nonexpt_470_mol2.chk"
 Charge =  0 Multiplicity = 2

                         Standard orientation:
 ---------------------------------------------------------------------
 Center     Atomic      Atomic             Coordinates (Angstroms)
 Number     Number       Type             X           Y           Z
 ---------------------------------------------------------------------
      1          1           0       -0.360922    2.600062   -0.391170
      2          5           0       -0.940707    1.559449   -0.470886
      3          6           0       -0.675355    0.256264    0.312812
      4          6           0        0.805447    0.021396    0.716429
      5          6           0       -1.372931   -1.018312   -0.202230
      6          1           0       -0.949930   -1.345745   -1.155134
      7          1           0       -2.438410   -0.843122   -0.365121
      8          1           0       -1.266457   -1.843570    0.509664
      9          1           0       -1.205943    0.560986    1.244941
     10          6           0        1.736020   -0.261555   -0.468035
     11          1           0        0.853219   -0.817486    1.422276
     12          1           0        1.169565    0.901631    1.255406
     13          1           0        1.437682   -1.159453   -1.015318
     14          1           0        2.764716   -0.411765   -0.129478
     15          1           0        1.740932    0.574463   -1.175487
 ---------------------------------------------------------------------

 SCF Done:  E(UHF) =  -182.840987145     A.U. after    2 cycles

 The electronic state is 2-A.
 Alpha  occ. eigenvalues --  -11.41543 -11.39014 -11.36648 -11.33827  -7.62639
 Alpha  occ. eigenvalues --   -1.25267  -1.07641  -0.94675  -0.85798  -0.70844
 Alpha  occ. eigenvalues --   -0.62931  -0.60920  -0.57771  -0.53604  -0.52249
 Alpha  occ. eigenvalues --   -0.48887  -0.44451  -0.44248  -0.41115  -0.28045
 Alpha virt. eigenvalues --    0.03500   0.03880   0.04476   0.04814   0.05904
 Alpha virt. eigenvalues --    0.06309   0.06597   0.06937   0.07284   0.09241
 Alpha virt. eigenvalues --    0.09493   0.09832   0.11397   0.11871   0.13570

  Beta  occ. eigenvalues --  -11.41481 -11.38981 -11.36632 -11.33799  -7.60937
  Beta  occ. eigenvalues --   -1.24782  -1.07391  -0.94066  -0.84426  -0.68069
  Beta  occ. eigenvalues --   -0.62889  -0.60109  -0.57320  -0.53573  -0.51972
  Beta  occ. eigenvalues --   -0.48620  -0.44300  -0.43081  -0.40185
  Beta virt. eigenvalues --    0.03432   0.04056   0.04142   0.04528   0.05975
  Beta virt. eigenvalues --    0.06311   0.06671   0.06970   0.07380   0.08688
  Beta virt. eigenvalues --    0.09722   0.09855   0.10495   0.11935   0.12455

 Mulliken charges and spin densities:
               1          2
     1  H   -2.111372   0.024927
     2  B    1.544101   0.969100
     3  C   -1.087795  -0.067651
     4  C   -2.907483   0.066773
     5  C   -3.899708   0.009127
     6  H    1.394674   0.009275
     7  H    1.300809   0.011802
     8  H    1.169365  -0.003279
     9  H    1.942096  -0.016376
    10  C   -3.845389  -0.002814
    11  H    1.408839  -0.001663
    12  H    1.271979  -0.000096
    13  H    1.462953  -0.001894
    14  H    1.088091   0.000656
    15  H    1.268839   0.002112
 Sum of Mulliken charges =  -0.00000   1.00000

 Dipole moment (field-independent basis, Debye):
    X=              0.6758    Y=             -0.6541    Z=              0.8895  Tot=              1.2945
                          Isotropic Fermi Contact Couplings
        Atom                 a.u.       MegaHertz       Gauss      10(-4) cm-1
     1  H(1)               0.00741      33.10092      11.81123      11.04128
     2  B(11)              0.16733     240.01312      85.64265      80.05976
     3  C(13)              0.00896      10.07043       3.59338       3.35913
     4  C(13)              0.02072      23.29780       8.31324       7.77131
     5  C(13)              0.01522      17.11541       6.10720       5.70909
     6  H(1)              -0.00028      -1.26899      -0.45281      -0.42329
     7  H(1)              -0.00023      -1.00656      -0.35917      -0.33575
     8  H(1)              -0.00012      -0.53549      -0.19108      -0.17862

 Normal termination of Gaussian 16 at Wed Apr  9 00:36:18 2025.
