 Gaussian 16, Revision C.01,

 ----------------------------------------------------------------------
 #t hf aug-cc-pvdz symm=none int=(grid=ultrafine) guess=(read,tcheck) s
 table=(opt,rrhf)
 ----------------------------------------------------------------------
 -----
 title
 -----
 Symbolic Z-matrix:
 Charge =  0 Multiplicity = 1

 SCF Done:  E(RHF) =  -445.803507672     A.U. after   13 cycles
 Normal termination of Gaussian 16 at Wed Apr  9 00:41:53 2025.
 Gaussian 16:  ES64L-G16RevC.01  3-Jul-2019

 ----------------------------------------------------------------------
 #t hf aug-cc-pvdz iop(5/13=1,5/36=2,99/5=2) pseudo=read geom=check gue
 ss=(read,tcheck) scf=(maxcycle=1)
 ----------------------------------------------------------------------
 -----
 title
 -----
 Structure from the checkpoint file:  "BDE49_nonexpt_686_mol1.chk"
 Charge =  0 Multiplicity = 1

                         Standard orientation:
 ---------------------------------------------------------------------
 Center     Atomic      Atomic             Coordinates (Angstroms)
 Number     Number       Type             X           Y           Z
 ---------------------------------------------------------------------
      1          5           0        1.786856    0.936398   -0.124147
      2         15           0        0.772805   -0.584388    0.099067
      3          6           0       -1.854156    0.578843    0.292932
      4          6           0       -0.972469   -0.388066   -0.504000
      5          1           0       -1.422206   -1.384631   -0.529895
      6          1           0       -0.883716   -0.064012   -1.545466
      7          1           0       -1.449070    1.592968    0.267300
      8          1           0       -2.868590    0.605485   -0.117886
      9          1           0       -1.928022    0.276626    1.340907
     10          1           0        2.712934    1.121494    0.598726
     11          1           0        1.628955    1.607644   -1.095014
     12          1           0        0.643115   -0.816405    1.482457
 ---------------------------------------------------------------------

 SCF Done:  E(RHF) =  -446.544313859     A.U. after    2 cycles

 The electronic state is 1-A.
 Alpha  occ. eigenvalues -- -105.15289 -11.40847 -11.36490  -7.61289  -2.73755
 Alpha  occ. eigenvalues --   -1.52541  -1.46047  -1.40554  -1.13802  -0.90028
 Alpha  occ. eigenvalues --   -0.80808  -0.64305  -0.61986  -0.55790  -0.50518
 Alpha  occ. eigenvalues --   -0.49848  -0.48890  -0.22730  -0.12948  -0.04286
 Alpha virt. eigenvalues --    0.03493   0.04084   0.04613   0.06042   0.06393
 Alpha virt. eigenvalues --    0.07212   0.07511   0.08080   0.09364   0.10242
 Alpha virt. eigenvalues --    0.10545   0.12205   0.12668   0.13076   0.14202

 Mulliken charges:
               1
     1  B    4.044480
     2  P    3.021041
     3  C   -4.038523
     4  C   -3.997758
     5  H    1.286794
     6  H    1.369950
     7  H    1.319402
     8  H    1.121303
     9  H    1.311231
    10  H   -2.635773
    11  H   -2.003889
    12  H   -0.798258
 Sum of Mulliken charges =   0.00000

 Dipole moment (field-independent basis, Debye):
    X=             -2.9054    Y=             -8.0642    Z=             -1.2827  Tot=              8.6671

 Test job not archived.
 1\1\GINC-SE343\SP\RHF\Aug-CC-pVDZ\C2H8B1P1\OHZDE\09-Apr-2025\0\\#t hf
 aug-cc-pvdz iop(5/13=1,5/36=2,99/5=2) pseudo=read geom=check guess=(re
 ad,tcheck) scf=(maxcycle=1)\\title\\0,1\B,0,1.786856,0.936397,-0.12414
 7\P,0,0.772805,-0.584388,0.099067\C,0,-1.854156,0.578843,0.292932\C,0,
 -0.972469,-0.388066,-0.504\H,0,-1.422206,-1.384631,-0.529895\H,0,-0.88
 3716,-0.064012,-1.545466\H,0,-1.449069,1.592968,0.2673\H,0,-2.86859,0.
 605486,-0.117886\H,0,-1.928022,0.276626,1.340907\H,0,2.712934,1.121493
 ,0.598726\H,0,1.628956,1.607644,-1.095014\H,0,0.643115,-0.816405,1.482

 Normal termination of Gaussian 16 at Wed Apr  9 00:41:56 2025.
