 Gaussian 16, Revision C.01,

 ----------------------------------------------------------------------
 #t hf aug-cc-pvdz symm=none int=(grid=ultrafine) guess=(read,tcheck) s
 table=(opt,rrhf)
 ----------------------------------------------------------------------
 -----
 title
 -----
 Symbolic Z-matrix:
 Charge =  0 Multiplicity = 1

 SCF Done:  E(RHF) =  -455.203023441     A.U. after   14 cycles
 Normal termination of Gaussian 16 at Tue Apr  8 23:34:01 2025.
 Gaussian 16:  ES64L-G16RevC.01  3-Jul-2019

 ----------------------------------------------------------------------
 #t hf aug-cc-pvdz iop(5/13=1,5/36=2,99/5=2) pseudo=read geom=check gue
 ss=(read,tcheck) scf=(maxcycle=1)
 ----------------------------------------------------------------------
 -----
 title
 -----
 Structure from the checkpoint file:  "BDE49_nonexpt_1454_mol1.chk"
 Charge =  0 Multiplicity = 1

                         Standard orientation:
 ---------------------------------------------------------------------
 Center     Atomic      Atomic             Coordinates (Angstroms)
 Number     Number       Type             X           Y           Z
 ---------------------------------------------------------------------
      1          6           0       -0.731303    0.439033    0.013918
      2          8           0       -1.652083   -0.332789    0.007505
      3         15           0        1.066124   -0.076178   -0.117374
      4          1           0       -0.893307    1.541068    0.011924
      5          1           0        0.962675   -1.195973    0.739253
      6          1           0        1.543252    0.825688    0.865882
 ---------------------------------------------------------------------

 SCF Done:  E(RHF) =  -455.863650441     A.U. after    2 cycles

 The electronic state is 1-A.
 Alpha  occ. eigenvalues -- -105.19991 -21.08227 -11.48211  -2.77386  -1.72446
 Alpha  occ. eigenvalues --   -1.47746  -1.46801  -1.44677  -0.88404  -0.73409
 Alpha  occ. eigenvalues --   -0.56432  -0.46941  -0.42510  -0.27221  -0.19685
 Alpha  occ. eigenvalues --   -0.04286
 Alpha virt. eigenvalues --    0.04217   0.05531   0.07965   0.08905   0.09079
 Alpha virt. eigenvalues --    0.11240   0.12113   0.13111   0.15445   0.16471
 Alpha virt. eigenvalues --    0.17769   0.20265   0.21613   0.24425   0.27206

 Mulliken charges:
               1
     1  C   -0.544748
     2  O   -2.261766
     3  P    2.420227
     4  H    1.226423
     5  H   -0.386523
     6  H   -0.453613
 Sum of Mulliken charges =   0.00000

 Dipole moment (field-independent basis, Debye):
    X=              2.2426    Y=             -0.6283    Z=             -2.5284  Tot=              3.4376

 Test job not archived.
 1\1\GINC-SE364\SP\RHF\Aug-CC-pVDZ\C1H3O1P1\OHZDE\08-Apr-2025\0\\#t hf
 aug-cc-pvdz iop(5/13=1,5/36=2,99/5=2) pseudo=read geom=check guess=(re
 ad,tcheck) scf=(maxcycle=1)\\title\\0,1\C,0,-0.731303,0.439033,0.01391
 8\O,0,-1.652083,-0.332789,0.007505\P,0,1.066124,-0.076178,-0.117374\H,
 0,-0.893307,1.541068,0.011924\H,0,0.962675,-1.195973,0.739253\H,0,1.54
 3252,0.825688,0.865882\\Version=ES64L-G16RevC.01\State=1-A\HF=-455.863
 6504\RMSD=3.523e-01\Dipole=0.8822966,-0.2471954,-0.9947652\Quadrupole=
 0.9241479,1.3754562,-2.2996041,-0.9478976,0.0368456,0.3124885\PG=C01 [

 Normal termination of Gaussian 16 at Tue Apr  8 23:34:03 2025.
