 Gaussian 16, Revision C.01,

 ----------------------------------------------------------------------
 #t hf aug-cc-pvdz symm=none int=(grid=ultrafine) guess=(read,tcheck) s
 table=(opt,rrhf)
 ----------------------------------------------------------------------
 -----
 title
 -----
 Symbolic Z-matrix:
 Charge =  0 Multiplicity = 1

 SCF Done:  E(RHF) =  -1175.19449663     A.U. after   13 cycles
 Normal termination of Gaussian 16 at Wed Apr  9 00:19:43 2025.
 Gaussian 16:  ES64L-G16RevC.01  3-Jul-2019

 ----------------------------------------------------------------------
 #t hf aug-cc-pvdz iop(5/13=1,5/36=2,99/5=2) pseudo=read geom=check gue
 ss=(read,tcheck) scf=(maxcycle=1)
 ----------------------------------------------------------------------
 -----
 title
 -----
 Structure from the checkpoint file:  "BDE49_nonexpt_258_mol1.chk"
 Charge =  0 Multiplicity = 1

                         Standard orientation:
 ---------------------------------------------------------------------
 Center     Atomic      Atomic             Coordinates (Angstroms)
 Number     Number       Type             X           Y           Z
 ---------------------------------------------------------------------
      1          9           0        1.790802    0.000039   -1.304785
      2          6           0        1.705816   -0.000112    1.076831
      3          6           0        2.563638   -0.000067   -0.162778
      4          1           0        3.203515   -0.890532   -0.163520
      5          1           0        3.203582    0.890349   -0.163407
      6          7           0        0.456248   -0.000080    1.075756
      7          5           0       -0.689282   -0.000020    0.298548
      8         17           0       -1.474939    1.532999   -0.131106
      9         17           0       -1.475145   -1.532895   -0.131193
     10          1           0        2.263058   -0.000208    2.021732
 ---------------------------------------------------------------------

 SCF Done:  E(RHF) =  -1176.72736026     A.U. after    2 cycles

 The electronic state is 1-A.
 Alpha  occ. eigenvalues --  -99.88627 -99.88608 -29.28395 -15.73757 -11.50783
 Alpha  occ. eigenvalues --  -11.46260 -10.46029 -10.45785  -9.65959  -9.65790
 Alpha  occ. eigenvalues --   -9.65411  -9.65333  -9.65252  -9.65199  -7.72227
 Alpha  occ. eigenvalues --   -1.46010  -1.34585  -1.28478  -1.19215  -0.95163
 Alpha  occ. eigenvalues --   -0.78111  -0.71814  -0.68734  -0.67526  -0.63608
 Alpha  occ. eigenvalues --   -0.63587  -0.56722  -0.51507  -0.50875  -0.49378
 Alpha  occ. eigenvalues --   -0.45183  -0.42441  -0.37099  -0.28662  -0.28034
 Alpha virt. eigenvalues --    0.02543   0.04739   0.04822   0.05035   0.06102
 Alpha virt. eigenvalues --    0.06118   0.08718   0.08961   0.10652   0.10906
 Alpha virt. eigenvalues --    0.12070   0.13412   0.13490   0.14174   0.14997

 Mulliken charges:
               1
     1  F    0.282584
     2  C    0.648927
     3  C   -2.208460
     4  H    1.437636
     5  H    1.437640
     6  N   -3.401043
     7  B    2.400582
     8  Cl  -1.148300
     9  Cl  -1.148329
    10  H    1.698762
 Sum of Mulliken charges =  -0.00000

 Dipole moment (field-independent basis, Debye):
    X=              3.0696    Y=             -0.0001    Z=             -1.0240  Tot=              3.2359

 Test job not archived.
 1\1\GINC-SE457\SP\RHF\Aug-CC-pVDZ\C2H3B1Cl2F1N1\OHZDE\09-Apr-2025\0\\#
 t hf aug-cc-pvdz iop(5/13=1,5/36=2,99/5=2) pseudo=read geom=check gues
 s=(read,tcheck) scf=(maxcycle=1)\\title\\0,1\F,0,1.790802,0.000039,-1.
 304785\C,0,1.705816,-0.000112,1.076831\C,0,2.563638,-0.000066,-0.16277
 8\H,0,3.203515,-0.890531,-0.16352\H,0,3.203582,0.89035,-0.163407\N,0,0
 .456248,-0.00008,1.075756\B,0,-0.689282,-0.00002,0.298548\Cl,0,-1.4749
 39,1.532999,-0.131106\Cl,0,-1.475144,-1.532895,-0.131193\H,0,2.263058,
 -0.000207,2.021732\\Version=ES64L-G16RevC.01\State=1-A\HF=-1176.727360

 Normal termination of Gaussian 16 at Wed Apr  9 00:19:47 2025.
