 Gaussian 16, Revision C.01,

 ----------------------------------------------------------------------
 #t hf aug-cc-pvdz symm=none int=(grid=ultrafine) guess=(read,tcheck) s
 table=(opt,rrhf)
 ----------------------------------------------------------------------
 -----
 title
 -----
 Symbolic Z-matrix:
 Charge =  0 Multiplicity = 1

 SCF Done:  E(RHF) =  -309.451564894     A.U. after   12 cycles
 Normal termination of Gaussian 16 at Wed Apr  9 00:37:16 2025.
 Gaussian 16:  ES64L-G16RevC.01  3-Jul-2019

 ----------------------------------------------------------------------
 #t hf aug-cc-pvdz iop(5/13=1,5/36=2,99/5=2) pseudo=read geom=check gue
 ss=(read,tcheck) scf=(maxcycle=1)
 ----------------------------------------------------------------------
 -----
 title
 -----
 Structure from the checkpoint file:  "BDE49_nonexpt_551_mol1.chk"
 Charge =  0 Multiplicity = 1

                         Standard orientation:
 ---------------------------------------------------------------------
 Center     Atomic      Atomic             Coordinates (Angstroms)
 Number     Number       Type             X           Y           Z
 ---------------------------------------------------------------------
      1          7           0       -0.202384   -0.586093    0.328453
      2          5           0        1.055666   -0.029575    0.021536
      3          8           0        1.170261    1.348089   -0.054919
      4          8           0        2.109755   -0.905138   -0.181612
      5          6           0       -1.439615    0.143527    0.558144
      6          6           0       -2.481628   -0.070467   -0.543972
      7          1           0       -2.745225   -1.129039   -0.636225
      8          1           0       -2.094587    0.264616   -1.509663
      9          1           0       -3.399758    0.484784   -0.327244
     10          1           0       -1.187014    1.202805    0.627957
     11          1           0       -1.869619   -0.143595    1.526625
     12          1           0        2.054915    1.666134   -0.241020
     13          1           0        2.943773   -0.485682   -0.398986
     14          1           0       -0.276794   -1.591467    0.358927
 ---------------------------------------------------------------------

 SCF Done:  E(RHF) =  -310.828409360     A.U. after    2 cycles

 The electronic state is 1-A.
 Alpha  occ. eigenvalues --  -21.05188 -21.05057 -15.68386 -11.41083 -11.35005
 Alpha  occ. eigenvalues --   -7.63148  -1.81071  -1.65221  -1.34653  -1.08538
 Alpha  occ. eigenvalues --   -0.88184  -0.77351  -0.66926  -0.62161  -0.59333
 Alpha  occ. eigenvalues --   -0.55851  -0.53330  -0.51121  -0.47310  -0.47193
 Alpha  occ. eigenvalues --   -0.45095  -0.35737  -0.35598  -0.32137
 Alpha virt. eigenvalues --    0.02981   0.04311   0.05082   0.05154   0.06726
 Alpha virt. eigenvalues --    0.07207   0.07689   0.07837   0.08440   0.09177
 Alpha virt. eigenvalues --    0.10093   0.10339   0.13639   0.15043   0.15966

 Mulliken charges:
               1
     1  N   -3.420067
     2  B    6.317028
     3  O   -3.262652
     4  O   -3.970935
     5  C   -2.182250
     6  C   -3.260197
     7  H    1.262468
     8  H    1.279164
     9  H    1.160607
    10  H    1.801705
    11  H    1.402830
    12  H    0.933805
    13  H    0.832511
    14  H    1.105982
 Sum of Mulliken charges =  -0.00000

 Dipole moment (field-independent basis, Debye):
    X=              0.7072    Y=              0.3355    Z=             -0.0707  Tot=              0.7860

 Test job not archived.
 1\1\GINC-SE165\SP\RHF\Aug-CC-pVDZ\C2H8B1N1O2\OHZDE\09-Apr-2025\0\\#t h
 f aug-cc-pvdz iop(5/13=1,5/36=2,99/5=2) pseudo=read geom=check guess=(
 read,tcheck) scf=(maxcycle=1)\\title\\0,1\N,0,-0.202384,-0.586093,0.32
 8453\B,0,1.055666,-0.029575,0.021536\O,0,1.170261,1.348089,-0.054919\O
 ,0,2.109755,-0.905138,-0.181612\C,0,-1.439615,0.143527,0.558144\C,0,-2
 .481628,-0.070467,-0.543972\H,0,-2.745225,-1.129039,-0.636225\H,0,-2.0
 94587,0.264616,-1.509663\H,0,-3.399758,0.484784,-0.327244\H,0,-1.18701
 4,1.202805,0.627957\H,0,-1.869619,-0.143595,1.526625\H,0,2.054915,1.66

 Normal termination of Gaussian 16 at Wed Apr  9 00:37:20 2025.
