 Gaussian 16, Revision C.01,

 ----------------------------------------------------------------------
 #t hf aug-cc-pvdz symm=none int=(grid=ultrafine) guess=(read,tcheck) s
 table=(opt,rrhf)
 ----------------------------------------------------------------------
 -----
 title
 -----
 Symbolic Z-matrix:
 Charge =  0 Multiplicity = 1

 SCF Done:  E(RHF) =  -844.962260561     A.U. after   13 cycles
 Normal termination of Gaussian 16 at Wed Apr  9 00:16:53 2025.
 Gaussian 16:  ES64L-G16RevC.01  3-Jul-2019

 ----------------------------------------------------------------------
 #t hf aug-cc-pvdz iop(5/13=1,5/36=2,99/5=2) pseudo=read geom=check gue
 ss=(read,tcheck) scf=(maxcycle=1)
 ----------------------------------------------------------------------
 -----
 title
 -----
 Structure from the checkpoint file:  "BDE49_nonexpt_2522_mol1.chk"
 Charge =  0 Multiplicity = 1

                         Standard orientation:
 ---------------------------------------------------------------------
 Center     Atomic      Atomic             Coordinates (Angstroms)
 Number     Number       Type             X           Y           Z
 ---------------------------------------------------------------------
      1         16           0       -0.466422   -1.025978    0.000003
      2          6           0        1.036540    0.122305    0.000004
      3          6           0        2.236537   -0.836476   -0.000213
      4          1           0        3.165797   -0.257547   -0.000337
      5          1           0        2.233831   -1.476198   -0.885682
      6          1           0        2.234097   -1.476245    0.885224
      7          6           0        1.052185    0.987715   -1.264303
      8          1           0        0.208002    1.680115   -1.295953
      9          1           0        1.019239    0.371022   -2.164473
     10          1           0        1.970924    1.584446   -1.289703
     11         14           0       -2.208097    0.236239    0.000009
     12          6           0        1.052422    0.987422    1.264495
     13          1           0        1.019606    0.370541    2.164541
     14          1           0        0.208268    1.679842    1.296434
     15          1           0        1.971186    1.584117    1.289876
     16          1           0       -3.332455   -0.723536   -0.000067
     17          1           0       -2.294209    1.103021   -1.198499
     18          1           0       -2.294273    1.102934    1.198575
 ---------------------------------------------------------------------

 SCF Done:  E(RHF) =  -846.189683955     A.U. after    2 cycles

 The electronic state is 1-A.
 Alpha  occ. eigenvalues --  -76.23589 -75.66207 -13.11586 -13.07116 -13.03110
 Alpha  occ. eigenvalues --  -11.43996 -11.39529 -11.39489 -11.36007  -8.00330
 Alpha  occ. eigenvalues --   -5.56885  -2.19292  -2.18992  -2.18757  -1.29773
 Alpha  occ. eigenvalues --   -1.05159  -1.01573  -1.01431  -0.79828  -0.73963
 Alpha  occ. eigenvalues --   -0.62575  -0.61301  -0.61181  -0.55247  -0.54938
 Alpha  occ. eigenvalues --   -0.52280  -0.48400  -0.47531  -0.45767  -0.45495
 Alpha  occ. eigenvalues --   -0.36973  -0.32098  -0.25501
 Alpha virt. eigenvalues --    0.03549   0.04144   0.05486   0.05609   0.05863
 Alpha virt. eigenvalues --    0.06008   0.06062   0.06862   0.06980   0.08357
 Alpha virt. eigenvalues --    0.09129   0.09204   0.10285   0.10754   0.11587

 Mulliken charges:
               1
     1  S   -1.488697
     2  C    2.047238
     3  C   -4.367619
     4  H    1.231064
     5  H    1.276915
     6  H    1.276868
     7  C   -4.381613
     8  H    1.389362
     9  H    1.396435
    10  H    1.180824
    11  Si   6.072076
    12  C   -4.381469
    13  H    1.396439
    14  H    1.389346
    15  H    1.180849
    16  H   -1.870578
    17  H   -1.673683
    18  H   -1.673757
 Sum of Mulliken charges =  -0.00000

 Dipole moment (field-independent basis, Debye):
    X=              1.8307    Y=             -0.8617    Z=             -0.0000  Tot=              2.0234

 Test job not archived.
 1\1\GINC-SE212\SP\RHF\Aug-CC-pVDZ\C4H12S1Si1\OHZDE\09-Apr-2025\0\\#t h
 f aug-cc-pvdz iop(5/13=1,5/36=2,99/5=2) pseudo=read geom=check guess=(
 read,tcheck) scf=(maxcycle=1)\\title\\0,1\S,0,0.466422,-1.025978,-0.00
 0003\C,0,-1.03654,0.122305,-0.000004\C,0,-2.236537,-0.836476,0.000213\
 H,0,-3.165797,-0.257547,0.000337\H,0,-2.233831,-1.476198,0.885682\H,0,
 -2.234097,-1.476245,-0.885224\C,0,-1.052185,0.987715,1.264303\H,0,-0.2
 08002,1.680115,1.295953\H,0,-1.019239,0.371022,2.164473\H,0,-1.970924,
 1.584446,1.289703\Si,0,2.208097,0.236239,-0.000009\C,0,-1.052422,0.987

 Normal termination of Gaussian 16 at Wed Apr  9 00:17:01 2025.
