 Gaussian 16, Revision C.01,

 ----------------------------------------------------------------------
 #t hf aug-cc-pvdz symm=none int=(grid=ultrafine) guess=(read,tcheck) s
 table=(opt,rrhf)
 ----------------------------------------------------------------------
 -----
 title
 -----
 Symbolic Z-matrix:
 Charge =  0 Multiplicity = 1

 SCF Done:  E(RHF) =  -780.440412842     A.U. after   16 cycles
 Normal termination of Gaussian 16 at Tue Apr  8 23:20:09 2025.
 Gaussian 16:  ES64L-G16RevC.01  3-Jul-2019

 ----------------------------------------------------------------------
 #t hf aug-cc-pvdz iop(5/13=1,5/36=2,99/5=2) pseudo=read geom=check gue
 ss=(read,tcheck) scf=(maxcycle=1)
 ----------------------------------------------------------------------
 -----
 title
 -----
 Structure from the checkpoint file:  "BDE49_nonexpt_1084_mol1.chk"
 Charge =  0 Multiplicity = 1

                         Standard orientation:
 ---------------------------------------------------------------------
 Center     Atomic      Atomic             Coordinates (Angstroms)
 Number     Number       Type             X           Y           Z
 ---------------------------------------------------------------------
      1         17           0        2.621890    0.244031   -0.000004
      2          8           0        1.299806   -0.876618   -0.000002
      3          6           0        0.035085   -0.335183    0.000000
      4          6           0       -0.983840   -1.290592    0.000004
      5          6           0       -0.294186    1.012896   -0.000002
      6          6           0       -1.649554    1.344548    0.000000
      7          6           0       -2.295278   -0.834076    0.000006
      8          7           0       -2.644447    0.457658    0.000004
      9          1           0       -0.747383   -2.346514    0.000006
     10          1           0       -3.109918   -1.552550    0.000009
     11          1           0        0.463697    1.782806   -0.000005
     12          1           0       -1.939208    2.391513   -0.000002
 ---------------------------------------------------------------------

 SCF Done:  E(RHF) =  -782.134502849     A.U. after    2 cycles

 The electronic state is 1-A.
 Alpha  occ. eigenvalues --  -99.96399 -21.15182 -15.74022 -11.52226 -11.46332
 Alpha  occ. eigenvalues --  -11.45998 -11.42161 -11.39674 -10.53098  -9.73033
 Alpha  occ. eigenvalues --   -9.72283  -9.71981  -1.83260  -1.44646  -1.28990
 Alpha  occ. eigenvalues --   -1.16188  -1.12713  -0.91402  -0.88007  -0.73739
 Alpha  occ. eigenvalues --   -0.68024  -0.65937  -0.62698  -0.61413  -0.59990
 Alpha  occ. eigenvalues --   -0.56652  -0.55907  -0.49926  -0.46550  -0.45787
 Alpha  occ. eigenvalues --   -0.37114  -0.35514  -0.31996
 Alpha virt. eigenvalues --    0.02134   0.03213   0.05553   0.06233   0.06605
 Alpha virt. eigenvalues --    0.07946   0.10259   0.10429   0.10467   0.12126
 Alpha virt. eigenvalues --    0.12193   0.12868   0.12907   0.13336   0.13893

 Mulliken charges:
               1
     1  Cl   0.451299
     2  O   -3.193028
     3  C    4.894199
     4  C   -2.042234
     5  C   -1.691540
     6  C   -0.719668
     7  C   -0.555616
     8  N   -3.527827
     9  H    1.612261
    10  H    1.537640
    11  H    1.691331
    12  H    1.543182
 Sum of Mulliken charges =   0.00000

 Dipole moment (field-independent basis, Debye):
    X=             -0.1320    Y=             -1.2608    Z=              0.0000  Tot=              1.2676

 Test job not archived.
 1\1\GINC-SE108\SP\RHF\Aug-CC-pVDZ\C5H4Cl1N1O1\OHZDE\08-Apr-2025\0\\#t
 hf aug-cc-pvdz iop(5/13=1,5/36=2,99/5=2) pseudo=read geom=check guess=
 (read,tcheck) scf=(maxcycle=1)\\title\\0,1\Cl,0,2.62189,0.244031,-0.00
 0004\O,0,1.299806,-0.876618,-0.000002\C,0,0.035085,-0.335183,0.\C,0,-0
 .98384,-1.290592,0.000004\C,0,-0.294186,1.012896,-0.000002\C,0,-1.6495
 54,1.344548,0.\C,0,-2.295278,-0.834076,0.000006\N,0,-2.644447,0.457658
 ,0.000004\H,0,-0.747383,-2.346514,0.000006\H,0,-3.109918,-1.55255,0.00
 0009\H,0,0.463697,1.782806,-0.000005\H,0,-1.939208,2.391513,-0.000002\

 Normal termination of Gaussian 16 at Tue Apr  8 23:20:14 2025.
