 Gaussian 16, Revision C.01,

 ----------------------------------------------------------------------
 #t hf aug-cc-pvdz symm=none int=(grid=ultrafine) guess=(read,tcheck) s
 table=(opt,rrhf)
 ----------------------------------------------------------------------
 -----
 title
 -----
 Symbolic Z-matrix:
 Charge =  0 Multiplicity = 1

 SCF Done:  E(RHF) =  -705.168815445     A.U. after   16 cycles
 Normal termination of Gaussian 16 at Tue Apr  8 23:36:13 2025.
 Gaussian 16:  ES64L-G16RevC.01  3-Jul-2019

 ----------------------------------------------------------------------
 #t hf aug-cc-pvdz iop(5/13=1,5/36=2,99/5=2) pseudo=read geom=check gue
 ss=(read,tcheck) scf=(maxcycle=1)
 ----------------------------------------------------------------------
 -----
 title
 -----
 Structure from the checkpoint file:  "BDE49_nonexpt_1460_mol1.chk"
 Charge =  0 Multiplicity = 1

                         Standard orientation:
 ---------------------------------------------------------------------
 Center     Atomic      Atomic             Coordinates (Angstroms)
 Number     Number       Type             X           Y           Z
 ---------------------------------------------------------------------
      1          6           0        0.929401   -1.164074   -0.154611
      2          6           0       -0.443018   -1.021368    0.038413
      3          6           0        1.755765   -0.053610   -0.347285
      4          6           0        1.158427    1.212539   -0.347088
      5          6           0       -0.211202    1.361694   -0.159613
      6          6           0       -1.034087    0.245073    0.032815
      7          1           0       -1.067270   -1.896383    0.178569
      8          1           0        1.364592   -2.159180   -0.159696
      9          1           0        1.773762    2.092985   -0.506842
     10          1           0       -0.642972    2.358376   -0.178488
     11         15           0       -2.822782    0.474950    0.407805
     12          7           0       -3.491133   -0.978446   -0.191112
     13          1           0       -4.350040   -1.269649    0.250039
     14          1           0       -3.484329   -1.171947   -1.183756
     15          6           0        3.250794   -0.209989   -0.515920
     16          6           0        4.015755   -0.145718    0.817790
     17          1           0        3.625292    0.572715   -1.183748
     18          1           0        3.462810   -1.165107   -1.007140
     19          1           0        3.848241    0.811106    1.319459
     20          1           0        5.091587   -0.261550    0.657954
     21          1           0        3.685860   -0.937031    1.496147
     22          1           0       -3.058875    1.403255   -0.648798
 ---------------------------------------------------------------------

 SCF Done:  E(RHF) =  -707.150566388     A.U. after    2 cycles

 The electronic state is 1-A.
 Alpha  occ. eigenvalues -- -105.18766 -15.74270 -11.50744 -11.43441 -11.42844
 Alpha  occ. eigenvalues --  -11.41460 -11.40593 -11.40083 -11.36617 -11.35237
 Alpha  occ. eigenvalues --   -2.76717  -1.55931  -1.50598  -1.44033  -1.34056
 Alpha  occ. eigenvalues --   -1.18294  -1.16203  -1.08580  -1.04193  -0.90109
 Alpha  occ. eigenvalues --   -0.86206  -0.81115  -0.73142  -0.65756  -0.64662
 Alpha  occ. eigenvalues --   -0.62584  -0.61625  -0.57254  -0.56597  -0.54864
 Alpha  occ. eigenvalues --   -0.51816  -0.47959  -0.47437  -0.43955  -0.43188
 Alpha  occ. eigenvalues --   -0.40886  -0.32605  -0.32330  -0.28056  -0.23260
 Alpha  occ. eigenvalues --   -0.01165
 Alpha virt. eigenvalues --    0.03978   0.04785   0.05159   0.05694   0.06122
 Alpha virt. eigenvalues --    0.06229   0.06776   0.06909   0.07277   0.07623
 Alpha virt. eigenvalues --    0.08012   0.09086   0.10113   0.10536   0.11652

 Mulliken charges:
               1
     1  C   -0.333810
     2  C   -4.036704
     3  C    2.794253
     4  C   -0.509511
     5  C   -4.917947
     6  C    0.538929
     7  H    1.826858
     8  H    1.866682
     9  H    1.805757
    10  H    2.042521
    11  P    3.564299
    12  N   -2.697306
    13  H    0.628684
    14  H    0.518708
    15  C   -4.680431
    16  C   -3.850219
    17  H    1.146015
    18  H    1.133084
    19  H    1.410651
    20  H    1.140998
    21  H    1.412206
    22  H   -0.803715
 Sum of Mulliken charges =   0.00000

 Dipole moment (field-independent basis, Debye):
    X=             -0.3930    Y=             -0.4982    Z=             -0.5035  Tot=              0.8101

 Test job not archived.
 1\1\GINC-SE071\SP\RHF\Aug-CC-pVDZ\C8H12N1P1\OHZDE\08-Apr-2025\0\\#t hf
  aug-cc-pvdz iop(5/13=1,5/36=2,99/5=2) pseudo=read geom=check guess=(r
 ead,tcheck) scf=(maxcycle=1)\\title\\0,1\C,0,0.929401,-1.164074,-0.154
 611\C,0,-0.443018,-1.021368,0.038413\C,0,1.755765,-0.05361,-0.347285\C
 ,0,1.158427,1.212539,-0.347088\C,0,-0.211202,1.361694,-0.159613\C,0,-1
 .034087,0.245073,0.032815\H,0,-1.06727,-1.896383,0.178569\H,0,1.364592
 ,-2.15918,-0.159696\H,0,1.773762,2.092985,-0.506842\H,0,-0.642972,2.35
 8376,-0.178488\P,0,-2.822782,0.47495,0.407805\N,0,-3.491133,-0.978446,

 Normal termination of Gaussian 16 at Tue Apr  8 23:36:26 2025.
