 Gaussian 16, Revision C.01,

 ----------------------------------------------------------------------
 #t hf aug-cc-pvdz symm=none int=(grid=ultrafine) guess=(read,tcheck) s
 table=(opt,rrhf)
 ----------------------------------------------------------------------
 -----
 title
 -----
 Symbolic Z-matrix:
 Charge =  0 Multiplicity = 1

 SCF Done:  E(RHF) =  -799.085994171     A.U. after   12 cycles

 1\1\GINC-SE166\Stability\RHF\Aug-CC-pVDZ\H6N4Si2\OHZDE\09-Apr-2025\0\\
 #t hf aug-cc-pvdz symm=none int=(grid=ultrafine) guess=(read,tcheck) s
 table=(opt,rrhf)\\title\\0,1\Si,0,-0.655317,0.987851,-0.000001\Si,0,0.
 655317,-0.987851,0.000003\N,0,2.383642,-0.418816,-0.000006\H,0,0.52545
 1,-1.832019,-1.208684\H,0,0.525459,-1.832009,1.208697\N,0,2.453473,0.8
 25167,-0.000011\H,0,3.456088,1.100879,-0.000015\N,0,-2.383642,0.418816
 ,0.000004\H,0,-0.525457,1.832011,-1.208694\H,0,-0.525453,1.832018,1.20
 8687\N,0,-2.453473,-0.825167,0.000008\H,0,-3.456088,-1.10088,0.000011\

 Normal termination of Gaussian 16 at Wed Apr  9 00:12:05 2025.
 Gaussian 16:  ES64L-G16RevC.01  3-Jul-2019

 ----------------------------------------------------------------------
 #t hf aug-cc-pvdz iop(5/13=1,5/36=2,99/5=2) pseudo=read geom=check gue
 ss=(read,tcheck) scf=(maxcycle=1)
 ----------------------------------------------------------------------
 -----
 title
 -----
 Structure from the checkpoint file:  "BDE49_nonexpt_2394_mol1.chk"
 Charge =  0 Multiplicity = 1

                         Standard orientation:
 ---------------------------------------------------------------------
 Center     Atomic      Atomic             Coordinates (Angstroms)
 Number     Number       Type             X           Y           Z
 ---------------------------------------------------------------------
      1         14           0       -0.655317    0.987851   -0.000001
      2         14           0        0.655317   -0.987851    0.000003
      3          7           0        2.383642   -0.418816   -0.000006
      4          1           0        0.525451   -1.832019   -1.208684
      5          1           0        0.525459   -1.832009    1.208697
      6          7           0        2.453473    0.825167   -0.000011
      7          1           0        3.456088    1.100879   -0.000015
      8          7           0       -2.383642    0.418816    0.000004
      9          1           0       -0.525457    1.832011   -1.208694
     10          1           0       -0.525453    1.832018    1.208687
     11          7           0       -2.453473   -0.825167    0.000008
     12          1           0       -3.456088   -1.100880    0.000011
 ---------------------------------------------------------------------

 SCF Done:  E(RHF) =  -800.351749927     A.U. after    2 cycles

 The electronic state is 1-A.
 Alpha  occ. eigenvalues --  -76.23437 -76.23412 -15.81260 -15.81246 -15.77750
 Alpha  occ. eigenvalues --  -15.77744  -5.57113  -5.57050  -2.21421  -2.20753
 Alpha  occ. eigenvalues --   -2.19046  -2.18999  -2.18774  -2.17856  -1.50130
 Alpha  occ. eigenvalues --   -1.49859  -0.97017  -0.96371  -0.76867  -0.70076
 Alpha  occ. eigenvalues --   -0.64599  -0.64230  -0.54746  -0.53721  -0.52553
 Alpha  occ. eigenvalues --   -0.51888  -0.46534  -0.46093  -0.38681  -0.32100
 Alpha  occ. eigenvalues --   -0.31070
 Alpha virt. eigenvalues --    0.04087   0.04905   0.05008   0.06852   0.07063
 Alpha virt. eigenvalues --    0.07661   0.08103   0.08125   0.09072   0.09293
 Alpha virt. eigenvalues --    0.09568   0.10060   0.10094   0.11689   0.13035

 Mulliken charges:
               1
     1  Si   4.421321
     2  Si   4.421322
     3  N   -1.333027
     4  H   -1.736926
     5  H   -1.736928
     6  N   -0.462950
     7  H    0.848509
     8  N   -1.333027
     9  H   -1.736926
    10  H   -1.736927
    11  N   -0.462949
    12  H    0.848509
 Sum of Mulliken charges =  -0.00000

 Dipole moment (field-independent basis, Debye):
    X=              0.0000    Y=             -0.0000    Z=              0.0000  Tot=              0.0000

 Test job not archived.
 1\1\GINC-SE166\SP\RHF\Aug-CC-pVDZ\H6N4Si2\OHZDE\09-Apr-2025\0\\#t hf a
 ug-cc-pvdz iop(5/13=1,5/36=2,99/5=2) pseudo=read geom=check guess=(rea
 d,tcheck) scf=(maxcycle=1)\\title\\0,1\Si,0,-0.655317,0.987851,-0.0000
 01\Si,0,0.655317,-0.987851,0.000003\N,0,2.383642,-0.418816,-0.000006\H
 ,0,0.525451,-1.832019,-1.208684\H,0,0.525459,-1.832009,1.208697\N,0,2.
 453473,0.825167,-0.000011\H,0,3.456088,1.100879,-0.000015\N,0,-2.38364
 2,0.418816,0.000004\H,0,-0.525457,1.832011,-1.208694\H,0,-0.525453,1.8
 32018,1.208687\N,0,-2.453473,-0.825167,0.000008\H,0,-3.456088,-1.10088

 Normal termination of Gaussian 16 at Wed Apr  9 00:12:09 2025.
