 Gaussian 16, Revision C.01,

 ----------------------------------------------------------------------
 #t hf aug-cc-pvdz symm=none int=(grid=ultrafine) guess=(read,tcheck) s
 table=(opt,rrhf)
 ----------------------------------------------------------------------
 -----
 title
 -----
 Symbolic Z-matrix:
 Charge =  0 Multiplicity = 1

 SCF Done:  E(RHF) =  -1248.12882281     A.U. after   12 cycles
 Normal termination of Gaussian 16 at Tue Apr  8 23:57:22 2025.
 Gaussian 16:  ES64L-G16RevC.01  3-Jul-2019

 ----------------------------------------------------------------------
 #t hf aug-cc-pvdz iop(5/13=1,5/36=2,99/5=2) pseudo=read geom=check gue
 ss=(read,tcheck) scf=(maxcycle=1)
 ----------------------------------------------------------------------
 -----
 title
 -----
 Structure from the checkpoint file:  "BDE49_nonexpt_2025_mol1.chk"
 Charge =  0 Multiplicity = 1

                         Standard orientation:
 ---------------------------------------------------------------------
 Center     Atomic      Atomic             Coordinates (Angstroms)
 Number     Number       Type             X           Y           Z
 ---------------------------------------------------------------------
      1         14           0       -1.755265   -0.000002   -0.070596
      2          6           0        0.064464    0.000000    0.498471
      3         17           0        0.899543    1.490772   -0.087772
      4         17           0        0.899547   -1.490769   -0.087772
      5          1           0        0.180984    0.000000    1.578987
      6          1           0       -1.777444   -0.000002   -1.544678
      7          1           0       -2.400578    1.213440    0.473739
      8          1           0       -2.400574   -1.213445    0.473738
 ---------------------------------------------------------------------

 SCF Done:  E(RHF) =  -1248.97686879     A.U. after    2 cycles

 The electronic state is 1-A.
 Alpha  occ. eigenvalues --  -99.90313 -99.90303 -76.24217 -11.47380 -10.47628
 Alpha  occ. eigenvalues --  -10.47457  -9.67413  -9.67365  -9.66774  -9.66747
 Alpha  occ. eigenvalues --   -9.66616  -9.66593  -5.57713  -2.21133  -2.20002
 Alpha  occ. eigenvalues --   -2.19944  -1.38963  -1.28478  -0.99538  -0.79256
 Alpha  occ. eigenvalues --   -0.68473  -0.64760  -0.60295  -0.53340  -0.50704
 Alpha  occ. eigenvalues --   -0.50051  -0.49110  -0.48408  -0.43279
 Alpha virt. eigenvalues --    0.02346   0.03566   0.05537   0.06131   0.06296
 Alpha virt. eigenvalues --    0.07299   0.07468   0.09533   0.09602   0.10780
 Alpha virt. eigenvalues --    0.13471   0.14197   0.14845   0.15902   0.16252

 Mulliken charges:
               1
     1  Si   6.102159
     2  C   -3.611948
     3  Cl   0.212209
     4  Cl   0.212209
     5  H    1.948398
     6  H   -1.664573
     7  H   -1.599227
     8  H   -1.599228
 Sum of Mulliken charges =   0.00000

 Dipole moment (field-independent basis, Debye):
    X=             -1.7215    Y=             -0.0000    Z=              1.0416  Tot=              2.0121

 Test job not archived.
 1\1\GINC-SE333\SP\RHF\Aug-CC-pVDZ\C1H4Cl2Si1\OHZDE\08-Apr-2025\0\\#t h
 f aug-cc-pvdz iop(5/13=1,5/36=2,99/5=2) pseudo=read geom=check guess=(
 read,tcheck) scf=(maxcycle=1)\\title\\0,1\Si,0,-1.755265,-0.000001,-0.
 070596\C,0,0.064464,0.,0.498471\Cl,0,0.899544,1.490771,-0.087772\Cl,0,
 0.899546,-1.49077,-0.087772\H,0,0.180984,0.,1.578987\H,0,-1.777444,-0.
 000001,-1.544678\H,0,-2.400577,1.213441,0.473739\H,0,-2.400575,-1.2134
 44,0.473738\\Version=ES64L-G16RevC.01\State=1-A\HF=-1248.9768688\RMSD=
 8.049e-02\Dipole=-0.6773084,-0.0000002,0.4097999\Quadrupole=0.5091337,

 Normal termination of Gaussian 16 at Tue Apr  8 23:57:25 2025.
