 Gaussian 16, Revision C.01,

 ----------------------------------------------------------------------
 #t hf aug-cc-pvdz symm=none int=(grid=ultrafine) guess=(read,tcheck) s
 table=(opt,rrhf)
 ----------------------------------------------------------------------
 -----
 title
 -----
 Symbolic Z-matrix:
 Charge =  0 Multiplicity = 1

 SCF Done:  E(RHF) =  -932.455473002     A.U. after   14 cycles
 Normal termination of Gaussian 16 at Wed Apr  9 00:16:32 2025.
 Gaussian 16:  ES64L-G16RevC.01  3-Jul-2019

 ----------------------------------------------------------------------
 #t hf aug-cc-pvdz iop(5/13=1,5/36=2,99/5=2) pseudo=read geom=check gue
 ss=(read,tcheck) scf=(maxcycle=1)
 ----------------------------------------------------------------------
 -----
 title
 -----
 Structure from the checkpoint file:  "BDE49_nonexpt_2526_mol1.chk"
 Charge =  0 Multiplicity = 1

                         Standard orientation:
 ---------------------------------------------------------------------
 Center     Atomic      Atomic             Coordinates (Angstroms)
 Number     Number       Type             X           Y           Z
 ---------------------------------------------------------------------
      1         17           0       -1.359154   -0.204489   -0.002456
      2          8           0        1.558642   -0.683864   -0.119189
      3         16           0        0.558620    0.624761    0.014316
      4          1           0        1.698573   -1.048948    0.766217
 ---------------------------------------------------------------------

 SCF Done:  E(RHF) =  -933.226377834     A.U. after    2 cycles

 The electronic state is 1-A.
 Alpha  occ. eigenvalues --  -99.91346 -75.79006 -21.14010 -13.23540 -13.11664
 Alpha  occ. eigenvalues --  -13.10746 -10.48496  -9.68172  -9.67545  -9.67492
 Alpha  occ. eigenvalues --   -8.12441  -1.77398  -1.32737  -1.03553  -0.65779
 Alpha  occ. eigenvalues --   -0.58693  -0.56784  -0.54650  -0.45119  -0.41277
 Alpha  occ. eigenvalues --   -0.26038
 Alpha virt. eigenvalues --    0.03016   0.04582   0.07513   0.10933   0.11994
 Alpha virt. eigenvalues --    0.13383   0.14443   0.16530   0.16767   0.19683
 Alpha virt. eigenvalues --    0.21315   0.22465   0.24704   0.25157   0.27030

 Mulliken charges:
               1
     1  Cl  -0.431020
     2  O   -1.970715
     3  S    1.459119
     4  H    0.942616
 Sum of Mulliken charges =  -0.00000

 Dipole moment (field-independent basis, Debye):
    X=              3.2796    Y=              1.2208    Z=              0.6257  Tot=              3.5549

 Test job not archived.
 1\1\GINC-SE015\SP\RHF\Aug-CC-pVDZ\Cl1H1O1S1\OHZDE\09-Apr-2025\0\\#t hf
  aug-cc-pvdz iop(5/13=1,5/36=2,99/5=2) pseudo=read geom=check guess=(r
 ead,tcheck) scf=(maxcycle=1)\\title\\0,1\Cl,0,-1.359154,-0.204489,-0.0
 02456\O,0,1.558642,-0.683864,-0.119189\S,0,0.55862,0.624761,0.014316\H
 ,0,1.698573,-1.048948,0.766217\\Version=ES64L-G16RevC.01\State=1-A\HF=
 -933.2263778\RMSD=3.538e-02\Dipole=1.2902922,0.4802995,0.2461761\Quadr
 upole=0.5040308,1.4441837,-1.9482145,0.243471,1.2627566,-1.1165348\PG=
 C01 [X(Cl1H1O1S1)]\\@

 Normal termination of Gaussian 16 at Wed Apr  9 00:16:34 2025.
