 Gaussian 16, Revision C.01,

 ----------------------------------------------------------------------
 #t hf aug-cc-pvdz symm=none int=(grid=ultrafine) guess=(read,tcheck) s
 table=(opt,rrhf)
 ----------------------------------------------------------------------
 -----
 title
 -----
 Symbolic Z-matrix:
 Charge =  0 Multiplicity = 1

 SCF Done:  E(RHF) =  -691.039238176     A.U. after   14 cycles
 Normal termination of Gaussian 16 at Tue Apr  8 23:00:07 2025.
 Gaussian 16:  ES64L-G16RevC.01  3-Jul-2019

 ----------------------------------------------------------------------
 #t hf aug-cc-pvdz iop(5/13=1,5/36=2,99/5=2) pseudo=read geom=check gue
 ss=(read,tcheck) scf=(maxcycle=1)
 ----------------------------------------------------------------------
 -----
 title
 -----
 Structure from the checkpoint file:  "BDE49_expt_1925_mol1.chk"
 Charge =  0 Multiplicity = 1

                         Standard orientation:
 ---------------------------------------------------------------------
 Center     Atomic      Atomic             Coordinates (Angstroms)
 Number     Number       Type             X           Y           Z
 ---------------------------------------------------------------------
      1          8           0       -0.398911   -0.000001   -0.859844
      2         17           0       -1.951878    0.000000   -0.063735
      3          6           0        0.752547    0.000000    0.041493
      4          6           0        1.892615   -0.000001   -0.985962
      5          1           0        1.838645   -0.886701   -1.619866
      6          1           0        2.852318   -0.000001   -0.463450
      7          1           0        1.838645    0.886699   -1.619868
      8          6           0        0.773301    1.269727    0.891589
      9          1           0        0.714564    2.154538    0.254323
     10          1           0        1.697695    1.318769    1.472764
     11          1           0       -0.065742    1.289485    1.589494
     12          6           0        0.773301   -1.269726    0.891591
     13          1           0        0.714563   -2.154538    0.254325
     14          1           0       -0.065743   -1.289483    1.589496
     15          1           0        1.697695   -1.318768    1.472766
 ---------------------------------------------------------------------

 SCF Done:  E(RHF) =  -692.418993000     A.U. after    2 cycles

 The electronic state is 1-A.
 Alpha  occ. eigenvalues --  -99.92193 -21.09816 -11.46109 -11.40061 -11.39954
 Alpha  occ. eigenvalues --  -11.35964 -10.48953  -9.68910  -9.68176  -9.68021
 Alpha  occ. eigenvalues --   -1.76665  -1.27409  -1.17795  -1.02381  -1.02218
 Alpha  occ. eigenvalues --   -0.79828  -0.65095  -0.64458  -0.63404  -0.58404
 Alpha  occ. eigenvalues --   -0.57025  -0.53661  -0.53649  -0.52600  -0.52153
 Alpha  occ. eigenvalues --   -0.46902  -0.45523  -0.40058  -0.33245
 Alpha virt. eigenvalues --    0.03557   0.04997   0.05642   0.05742   0.05887
 Alpha virt. eigenvalues --    0.06203   0.06388   0.06706   0.07698   0.09325
 Alpha virt. eigenvalues --    0.09873   0.12522   0.14229   0.14348   0.15005

 Mulliken charges:
               1
     1  O   -2.821601
     2  Cl   0.323626
     3  C    3.874060
     4  C   -4.224505
     5  H    1.273770
     6  H    1.181305
     7  H    1.273769
     8  C   -4.064655
     9  H    1.181983
    10  H    1.209962
    11  H    1.232498
    12  C   -4.064655
    13  H    1.181982
    14  H    1.232497
    15  H    1.209962
 Sum of Mulliken charges =  -0.00000

 Dipole moment (field-independent basis, Debye):
    X=              3.2819    Y=             -0.0000    Z=             -0.2751  Tot=              3.2934

 Test job not archived.
 1\1\GINC-SE039\SP\RHF\Aug-CC-pVDZ\C4H9Cl1O1\OHZDE\08-Apr-2025\0\\#t hf
  aug-cc-pvdz iop(5/13=1,5/36=2,99/5=2) pseudo=read geom=check guess=(r
 ead,tcheck) scf=(maxcycle=1)\\title\\0,1\O,0,0.398911,0.000001,-0.8598
 44\Cl,0,1.951878,0.,-0.063735\C,0,-0.752547,0.,0.041493\C,0,-1.892615,
 0.000001,-0.985962\H,0,-1.838645,0.886701,-1.619866\H,0,-2.852318,0.00
 0001,-0.46345\H,0,-1.838645,-0.886699,-1.619868\C,0,-0.773301,-1.26972
 7,0.891589\H,0,-0.714564,-2.154538,0.254323\H,0,-1.697695,-1.318769,1.
 472764\H,0,0.065742,-1.289485,1.589494\C,0,-0.773301,1.269726,0.891591

 Normal termination of Gaussian 16 at Tue Apr  8 23:00:15 2025.
