 Gaussian 16, Revision C.01,

 ----------------------------------------------------------------------
 #t hf aug-cc-pvdz symm=none int=(grid=ultrafine) guess=(read,tcheck) s
 table=(opt,rrhf)
 ----------------------------------------------------------------------
 -----
 title
 -----
 Symbolic Z-matrix:
 Charge =  0 Multiplicity = 1

 SCF Done:  E(RHF) =  -497.523427954     A.U. after   12 cycles
 Normal termination of Gaussian 16 at Tue Apr  8 22:59:35 2025.
 Gaussian 16:  ES64L-G16RevC.01  3-Jul-2019

 ----------------------------------------------------------------------
 #t hf aug-cc-pvdz iop(5/13=1,5/36=2,99/5=2) pseudo=read geom=check gue
 ss=(read,tcheck) scf=(maxcycle=1)
 ----------------------------------------------------------------------
 -----
 title
 -----
 Structure from the checkpoint file:  "BDE49_expt_1933_mol1.chk"
 Charge =  0 Multiplicity = 1

                         Standard orientation:
 ---------------------------------------------------------------------
 Center     Atomic      Atomic             Coordinates (Angstroms)
 Number     Number       Type             X           Y           Z
 ---------------------------------------------------------------------
      1         16           0        0.051548   -0.571098    0.000000
      2          9           0        0.051548    1.094082    0.000000
      3          1           0       -1.288704   -0.709166    0.000000
 ---------------------------------------------------------------------

 SCF Done:  E(RHF) =  -498.089330852     A.U. after    2 cycles

 The electronic state is 1-A'.
 Alpha  occ. eigenvalues --  -75.77627 -29.28162 -13.21575 -13.14988 -13.07589
 Alpha  occ. eigenvalues --   -8.11325  -1.20699  -0.69105  -0.53377  -0.41969
 Alpha  occ. eigenvalues --   -0.35240  -0.29543  -0.18836
 Alpha virt. eigenvalues --    0.03157   0.09396   0.10043   0.12262   0.15766
 Alpha virt. eigenvalues --    0.19519   0.25037   0.26738   0.28398   0.30476
 Alpha virt. eigenvalues --    0.30577   0.33852   0.40027   0.41048   0.49287

 Mulliken charges:
               1
     1  S   -0.749136
     2  F   -0.160100
     3  H    0.909236
 Sum of Mulliken charges =  -0.00000

 Dipole moment (field-independent basis, Debye):
    X=              0.8958    Y=              2.0475    Z=              0.0000  Tot=              2.2349

 Test job not archived.
 1\1\GINC-SE096\SP\RHF\Aug-CC-pVDZ\F1H1S1\OHZDE\08-Apr-2025\0\\#t hf au
 g-cc-pvdz iop(5/13=1,5/36=2,99/5=2) pseudo=read geom=check guess=(read
 ,tcheck) scf=(maxcycle=1)\\title\\0,1\S,0,0.051548,-0.571098,0.\F,0,0.
 051548,1.094082,0.\H,0,-1.288704,-0.709166,0.\\Version=ES64L-G16RevC.0
 1\State=1-A'\HF=-498.0893309\RMSD=7.660e-02\Dipole=0.3524239,0.8055649
 ,0.\Quadrupole=1.1327137,0.8783275,-2.0110412,-0.046551,0.,0.\PG=CS [S
 G(F1H1S1)]\\@

 Normal termination of Gaussian 16 at Tue Apr  8 22:59:36 2025.
