 Gaussian 16, Revision C.01,

 ----------------------------------------------------------------------
 #t hf aug-cc-pvdz symm=none int=(grid=ultrafine) guess=(read,tcheck) s
 table=opt
 ----------------------------------------------------------------------
 -----
 title
 -----
 Symbolic Z-matrix:
 Charge =  0 Multiplicity = 2

 SCF Done:  E(UHF) =  -1059.17498722     A.U. after   23 cycles
 Normal termination of Gaussian 16 at Wed Apr  9 00:19:21 2025.
 Gaussian 16:  ES64L-G16RevC.01  3-Jul-2019

 ----------------------------------------------------------------------
 #t hf aug-cc-pvdz iop(5/13=1,5/36=2,99/5=2) pseudo=read geom=check gue
 ss=(read,tcheck) scf=(maxcycle=1)
 ----------------------------------------------------------------------
 -----
 title
 -----
 Structure from the checkpoint file:  "BDE49_nonexpt_2578_mol2.chk"
 Charge =  0 Multiplicity = 2

                         Standard orientation:
 ---------------------------------------------------------------------
 Center     Atomic      Atomic             Coordinates (Angstroms)
 Number     Number       Type             X           Y           Z
 ---------------------------------------------------------------------
      1         16           0        1.356524    1.175244   -0.083548
      2         16           0        0.159984   -0.511642    0.056047
      3          8           0       -0.085966   -0.645931    1.471390
      4          8           0       -1.213296   -0.126225   -0.683268
      5          6           0       -2.097523    0.823801   -0.039354
      6          1           0       -3.000530    0.813667   -0.645357
      7          1           0       -1.648288    1.819095   -0.050066
      8          1           0       -2.313499    0.506991    0.980195
      9          8           0        0.709680   -1.565369   -0.739200
 ---------------------------------------------------------------------

 SCF Done:  E(UHF) =  -1060.75618443     A.U. after    2 cycles

 The electronic state is 2-A.
 Alpha  occ. eigenvalues --  -75.94795 -75.77357 -21.12206 -21.08368 -21.08226
 Alpha  occ. eigenvalues --  -13.57856 -13.47926 -13.38037 -13.15594 -13.11234
 Alpha  occ. eigenvalues --  -13.10104 -11.44695  -8.29904  -8.11075  -1.93269
 Alpha  occ. eigenvalues --   -1.75450  -1.68692  -1.20106  -1.05726  -0.89159
 Alpha  occ. eigenvalues --   -0.68054  -0.66554  -0.63424  -0.59219  -0.53409
 Alpha  occ. eigenvalues --   -0.49216  -0.43989  -0.43172  -0.39674  -0.38240
 Alpha  occ. eigenvalues --   -0.35996  -0.33297  -0.31121
 Alpha virt. eigenvalues --    0.02318   0.04401   0.06079   0.06492   0.09171
 Alpha virt. eigenvalues --    0.10747   0.11693   0.12009   0.12769   0.13886
 Alpha virt. eigenvalues --    0.14655   0.15032   0.16460   0.17080   0.19445

  Beta  occ. eigenvalues --  -75.94832 -75.76345 -21.12232 -21.08172 -21.08155
  Beta  occ. eigenvalues --  -13.57902 -13.47953 -13.38181 -13.14972 -13.09638
  Beta  occ. eigenvalues --  -13.05062 -11.44694  -8.29955  -8.09945  -1.93231
  Beta  occ. eigenvalues --   -1.75379  -1.68385  -1.13249  -1.04633  -0.87222
  Beta  occ. eigenvalues --   -0.67813  -0.66407  -0.63078  -0.58786  -0.53102
  Beta  occ. eigenvalues --   -0.46790  -0.43653  -0.42785  -0.39279  -0.38098
  Beta  occ. eigenvalues --   -0.34888  -0.29650
  Beta virt. eigenvalues --   -0.00026   0.02448   0.04530   0.06157   0.06634
  Beta virt. eigenvalues --    0.09239   0.11598   0.12116   0.12807   0.13274
  Beta virt. eigenvalues --    0.14035   0.14721   0.15174   0.16861   0.17851

 Mulliken charges and spin densities:
               1          2
     1  S    0.299646   1.070050
     2  S    6.062152  -0.079021
     3  O   -2.343578   0.010414
     4  O   -2.907481  -0.001016
     5  C   -2.794740   0.009670
     6  H    1.323751   0.001689
     7  H    1.450537  -0.017201
     8  H    1.329363  -0.004403
     9  O   -2.419650   0.009818
 Sum of Mulliken charges =  -0.00000   1.00000

 Dipole moment (field-independent basis, Debye):
    X=             -0.6244    Y=              2.9166    Z=             -0.4412  Tot=              3.0151
                          Isotropic Fermi Contact Couplings
        Atom                 a.u.       MegaHertz       Gauss      10(-4) cm-1
     1  S(33)              0.26866      92.27880      32.92737      30.78089
     2  S(33)             -0.05492     -18.86433      -6.73126      -6.29246
     3  O(17)              0.01602      -9.71194      -3.46546      -3.23955
     4  O(17)             -0.00276       1.67104       0.59627       0.55740
     5  C(13)             -0.00038      -0.42359      -0.15115      -0.14130
     6  H(1)              -0.00001      -0.04250      -0.01516      -0.01418
     7  H(1)               0.00014       0.62567       0.22326       0.20870
     8  H(1)               0.00002       0.07262       0.02591       0.02422

 Normal termination of Gaussian 16 at Wed Apr  9 00:19:25 2025.
