 Gaussian 16, Revision C.01,

 ----------------------------------------------------------------------
 #t hf aug-cc-pvdz symm=none int=(grid=ultrafine) guess=(read,tcheck) s
 table=(opt,rrhf)
 ----------------------------------------------------------------------
 -----
 title
 -----
 Symbolic Z-matrix:
 Charge =  0 Multiplicity = 1

 SCF Done:  E(RHF) =  -306.709454260     A.U. after   14 cycles
 Normal termination of Gaussian 16 at Tue Apr  8 23:21:50 2025.
 Gaussian 16:  ES64L-G16RevC.01  3-Jul-2019

 ----------------------------------------------------------------------
 #t hf aug-cc-pvdz iop(5/13=1,5/36=2,99/5=2) pseudo=read geom=check gue
 ss=(read,tcheck) scf=(maxcycle=1)
 ----------------------------------------------------------------------
 -----
 title
 -----
 Structure from the checkpoint file:  "BDE49_nonexpt_1153_mol1.chk"
 Charge =  0 Multiplicity = 1

                         Standard orientation:
 ---------------------------------------------------------------------
 Center     Atomic      Atomic             Coordinates (Angstroms)
 Number     Number       Type             X           Y           Z
 ---------------------------------------------------------------------
      1          9           0        1.831897   -0.201531   -0.000012
      2          8           0        0.527162   -0.797671   -0.000005
      3          6           0       -0.441322    0.209338    0.000002
      4          6           0       -1.771614   -0.488860    0.000014
      5          7           0       -0.264635    1.449146    0.000002
      6          1           0       -1.878008   -1.120443   -0.884644
      7          1           0       -2.543926    0.277770    0.000013
      8          1           0       -1.877998   -1.120431    0.884682
      9          1           0        0.725619    1.691351   -0.000005
 ---------------------------------------------------------------------

 SCF Done:  E(RHF) =  -307.970433115     A.U. after    2 cycles

 The electronic state is 1-A.
 Alpha  occ. eigenvalues --  -29.31751 -21.18614 -15.75131 -11.50819 -11.40686
 Alpha  occ. eigenvalues --   -1.85116  -1.34163  -1.11472  -0.84899  -0.72112
 Alpha  occ. eigenvalues --   -0.65031  -0.63766  -0.57216  -0.55863  -0.54376
 Alpha  occ. eigenvalues --   -0.41067  -0.40128  -0.37455  -0.28745  -0.24779
 Alpha virt. eigenvalues --    0.03575   0.06143   0.06321   0.06428   0.09930
 Alpha virt. eigenvalues --    0.12141   0.12967   0.13897   0.14849   0.15809
 Alpha virt. eigenvalues --    0.16149   0.17115   0.17886   0.21081   0.21841

 Mulliken charges:
               1
     1  F   -0.175681
     2  O   -1.593106
     3  C    3.835529
     4  C   -3.390302
     5  N   -2.934182
     6  H    1.218353
     7  H    1.186366
     8  H    1.218352
     9  H    0.634670
 Sum of Mulliken charges =  -0.00000

 Dipole moment (field-independent basis, Debye):
    X=              1.3404    Y=             -1.2553    Z=             -0.0000  Tot=              1.8364

 Test job not archived.
 1\1\GINC-SE096\SP\RHF\Aug-CC-pVDZ\C2H4F1N1O1\OHZDE\08-Apr-2025\0\\#t h
 f aug-cc-pvdz iop(5/13=1,5/36=2,99/5=2) pseudo=read geom=check guess=(
 read,tcheck) scf=(maxcycle=1)\\title\\0,1\F,0,1.831897,-0.201531,-0.00
 0012\O,0,0.527162,-0.797671,-0.000005\C,0,-0.441322,0.209338,0.000002\
 C,0,-1.771614,-0.48886,0.000014\N,0,-0.264635,1.449146,0.000002\H,0,-1
 .878008,-1.120443,-0.884644\H,0,-2.543926,0.27777,0.000013\H,0,-1.8779
 98,-1.120431,0.884682\H,0,0.725619,1.691351,-0.000005\\Version=ES64L-G
 16RevC.01\State=1-A\HF=-307.9704331\RMSD=1.900e-01\Dipole=0.5273496,-0

 Normal termination of Gaussian 16 at Tue Apr  8 23:21:53 2025.
