 Gaussian 16, Revision C.01,

 ----------------------------------------------------------------------
 #t hf aug-cc-pvdz symm=none int=(grid=ultrafine) guess=(read,tcheck) s
 table=opt
 ----------------------------------------------------------------------
 -----
 title
 -----
 Symbolic Z-matrix:
 Charge =  0 Multiplicity = 2

 SCF Done:  E(UHF) =  -1706.49181461     A.U. after   16 cycles
 Normal termination of Gaussian 16 at Tue Apr  8 23:49:24 2025.
 Gaussian 16:  ES64L-G16RevC.01  3-Jul-2019

 ----------------------------------------------------------------------
 #t hf aug-cc-pvdz iop(5/13=1,5/36=2,99/5=2) pseudo=read geom=check gue
 ss=(read,tcheck) scf=(maxcycle=1)
 ----------------------------------------------------------------------
 -----
 title
 -----
 Structure from the checkpoint file:  "BDE49_nonexpt_1821_mol2.chk"
 Charge =  0 Multiplicity = 2

                         Standard orientation:
 ---------------------------------------------------------------------
 Center     Atomic      Atomic             Coordinates (Angstroms)
 Number     Number       Type             X           Y           Z
 ---------------------------------------------------------------------
      1          6           0        0.674699    0.025335   -0.460068
      2         14           0       -0.780140   -0.919219    0.336296
      3         17           0        0.800461    1.714490    0.160637
      4         17           0        2.169250   -0.922877   -0.090138
      5         17           0       -2.564588    0.000800   -0.200721
      6          1           0        0.613021    0.099303   -1.541785
      7          1           0       -0.626347   -0.853282    1.807796
 ---------------------------------------------------------------------

 SCF Done:  E(UHF) =  -1707.54206337     A.U. after    2 cycles

 The electronic state is 2-A.
 Alpha  occ. eigenvalues --  -99.91452 -99.91094 -99.90247 -76.29866 -11.48768
 Alpha  occ. eigenvalues --  -10.48701 -10.48309 -10.47638  -9.68519  -9.68246
 Alpha  occ. eigenvalues --   -9.67844  -9.67772  -9.67560  -9.67493  -9.67385
 Alpha  occ. eigenvalues --   -9.66882  -9.66826  -5.63261  -2.26254  -2.25031
 Alpha  occ. eigenvalues --   -2.24141  -1.40127  -1.30744  -1.29546  -1.00708
 Alpha  occ. eigenvalues --   -0.79468  -0.69641  -0.65969  -0.62653  -0.57310
 Alpha  occ. eigenvalues --   -0.55624  -0.54101  -0.53544  -0.51418  -0.50577
 Alpha  occ. eigenvalues --   -0.45363  -0.32801
 Alpha virt. eigenvalues --    0.01886   0.03762   0.04938   0.05680   0.06832
 Alpha virt. eigenvalues --    0.07223   0.07768   0.09998   0.11626   0.11993
 Alpha virt. eigenvalues --    0.12423   0.13363   0.13967   0.14825   0.15337

  Beta  occ. eigenvalues --  -99.91454 -99.91039 -99.90149 -76.29281 -11.48642
  Beta  occ. eigenvalues --  -10.48700 -10.48252 -10.47530  -9.68536  -9.68062
  Beta  occ. eigenvalues --   -9.67848  -9.67744  -9.67455  -9.67375  -9.67342
  Beta  occ. eigenvalues --   -9.66795  -9.66577  -5.62311  -2.25596  -2.24401
  Beta  occ. eigenvalues --   -2.20640  -1.39869  -1.29941  -1.29315  -1.00050
  Beta  occ. eigenvalues --   -0.76174  -0.69191  -0.65527  -0.61867  -0.56269
  Beta  occ. eigenvalues --   -0.54727  -0.53570  -0.52811  -0.51271  -0.50462
  Beta  occ. eigenvalues --   -0.44339
  Beta virt. eigenvalues --   -0.00430   0.03317   0.04235   0.05264   0.06133
  Beta virt. eigenvalues --    0.07140   0.07632   0.08025   0.10310   0.11828
  Beta virt. eigenvalues --    0.12702   0.12987   0.14143   0.14773   0.15167

 Mulliken charges and spin densities:
               1          2
     1  C   -3.563457  -0.004976
     2  Si   3.892124   0.822265
     3  Cl   0.222725   0.030905
     4  Cl   0.242493  -0.008643
     5  Cl  -0.909931   0.070562
     6  H    1.859325   0.003790
     7  H   -1.743279   0.086098
 Sum of Mulliken charges =   0.00000   1.00000

 Dipole moment (field-independent basis, Debye):
    X=             -0.3263    Y=             -1.5697    Z=             -0.6338  Tot=              1.7240
                          Isotropic Fermi Contact Couplings
        Atom                 a.u.       MegaHertz       Gauss      10(-4) cm-1
     1  C(13)              0.04987      56.06372      20.00493      18.70084
     2  Si(29)             0.67576    -600.56853    -214.29779    -200.32810
     3  Cl(35)             0.02107       9.23690       3.29595       3.08110
     4  Cl(35)            -0.00191      -0.83829      -0.29912      -0.27962
     5  Cl(35)             0.07369      32.30843      11.52845      10.77693
     6  H(1)              -0.00045      -2.00189      -0.71432      -0.66776
     7  H(1)               0.01756      78.49977      28.01067      26.18471
 --------------------------------------------------------

 Normal termination of Gaussian 16 at Tue Apr  8 23:49:27 2025.
