 Gaussian 16, Revision C.01,

 ----------------------------------------------------------------------
 #t hf aug-cc-pvdz symm=none int=(grid=ultrafine) guess=(read,tcheck) s
 table=opt
 ----------------------------------------------------------------------
 -----
 title
 -----
 Symbolic Z-matrix:
 Charge =  0 Multiplicity = 2

 SCF Done:  E(UHF) =  -497.462947157     A.U. after   20 cycles
 Normal termination of Gaussian 16 at Tue Apr  8 23:51:31 2025.
 Gaussian 16:  ES64L-G16RevC.01  3-Jul-2019

 ----------------------------------------------------------------------
 #t hf aug-cc-pvdz iop(5/13=1,5/36=2,99/5=2) pseudo=read geom=check gue
 ss=(read,tcheck) scf=(maxcycle=1)
 ----------------------------------------------------------------------
 -----
 title
 -----
 Structure from the checkpoint file:  "BDE49_nonexpt_1893_mol2.chk"
 Charge =  0 Multiplicity = 2

                         Standard orientation:
 ---------------------------------------------------------------------
 Center     Atomic      Atomic             Coordinates (Angstroms)
 Number     Number       Type             X           Y           Z
 ---------------------------------------------------------------------
      1         14           0       -1.858579   -0.311002   -0.084921
      2          6           0       -0.040725    0.303420   -0.004373
      3          1           0       -2.046559   -1.672388    0.491369
      4          1           0       -2.742257    0.677669    0.568908
      5          8           0        0.175899    1.506744    0.008396
      6          7           0        0.946616   -0.641750   -0.020128
      7          6           0        2.362814   -0.302206    0.018297
      8          1           0        0.680749   -1.611802    0.044361
      9          1           0        2.447003    0.771128   -0.142192
     10          1           0        2.905495   -0.830195   -0.769761
     11          1           0        2.809637   -0.549380    0.986397
 ---------------------------------------------------------------------

 SCF Done:  E(UHF) =  -498.526311115     A.U. after    2 cycles

 The electronic state is 2-A.
 Alpha  occ. eigenvalues --  -76.24226 -21.02957 -15.76883 -11.46193 -11.39911
 Alpha  occ. eigenvalues --   -5.57674  -2.21351  -2.20086  -2.18450  -1.69997
 Alpha  occ. eigenvalues --   -1.38705  -1.02553  -0.83618  -0.77219  -0.64776
 Alpha  occ. eigenvalues --   -0.61947  -0.58014  -0.53200  -0.50582  -0.48586
 Alpha  occ. eigenvalues --   -0.46742  -0.32008  -0.30144  -0.25351
 Alpha virt. eigenvalues --    0.03357   0.04690   0.05424   0.05873   0.06904
 Alpha virt. eigenvalues --    0.06955   0.07568   0.08353   0.09695   0.10983
 Alpha virt. eigenvalues --    0.12311   0.13727   0.14363   0.15053   0.15685

  Beta  occ. eigenvalues --  -76.23661 -21.02738 -15.76846 -11.46255 -11.39914
  Beta  occ. eigenvalues --   -5.56793  -2.20649  -2.19415  -2.14798  -1.69611
  Beta  occ. eigenvalues --   -1.38575  -1.02431  -0.81521  -0.75734  -0.63589
  Beta  occ. eigenvalues --   -0.61865  -0.57895  -0.53068  -0.50094  -0.48078
  Beta  occ. eigenvalues --   -0.46423  -0.30737  -0.27217
  Beta virt. eigenvalues --    0.02861   0.03550   0.04953   0.05543   0.05932
  Beta virt. eigenvalues --    0.07133   0.07552   0.08505   0.09051   0.09917
  Beta virt. eigenvalues --    0.11511   0.12870   0.13968   0.14550   0.15420

 Mulliken charges and spin densities:
               1          2
     1  Si   3.737407   1.075881
     2  C    2.479080  -0.099967
     3  H   -1.384253  -0.015043
     4  H   -1.437287  -0.003107
     5  O   -2.575166   0.067666
     6  N   -2.404049  -0.015830
     7  C   -3.226923   0.003699
     8  H    0.829565  -0.008648
     9  H    1.378710  -0.003473
    10  H    1.298582  -0.000321
    11  H    1.304332  -0.000857
 Sum of Mulliken charges =  -0.00000   1.00000

 Dipole moment (field-independent basis, Debye):
    X=              1.1095    Y=             -1.8257    Z=             -0.1826  Tot=              2.1442
                          Isotropic Fermi Contact Couplings
        Atom                 a.u.       MegaHertz       Gauss      10(-4) cm-1
     1  Si(29)             0.45203    -401.73238    -143.34810    -134.00350
     2  C(13)              0.00246       2.77026       0.98850       0.92406
     3  H(1)               0.00169       7.53458       2.68852       2.51326
     4  H(1)               0.00175       7.82844       2.79338       2.61129
     5  O(17)              0.01253      -7.59571      -2.71034      -2.53366
     6  N(14)              0.00190       0.61304       0.21875       0.20449
     7  C(13)             -0.00021      -0.23665      -0.08444      -0.07894
     8  H(1)              -0.00010      -0.44180      -0.15764      -0.14737

 1\1\GINC-SE072\SP\UHF\Aug-CC-pVDZ\C2H6N1O1Si1(2)\OHZDE\08-Apr-2025\0\\
 #t hf aug-cc-pvdz iop(5/13=1,5/36=2,99/5=2) pseudo=read geom=check gue
 ss=(read,tcheck) scf=(maxcycle=1)\\title\\0,2\Si,0,-1.858579,-0.311002
 ,-0.084921\C,0,-0.040725,0.30342,-0.004373\H,0,-2.046559,-1.672388,0.4
 91369\H,0,-2.742257,0.677669,0.568908\O,0,0.175899,1.506744,0.008396\N
 ,0,0.946616,-0.64175,-0.020128\C,0,2.362814,-0.302206,0.018297\H,0,0.6
 80749,-1.611802,0.044361\H,0,2.447003,0.771128,-0.142192\H,0,2.905495,
 -0.830195,-0.769761\H,0,2.809637,-0.54938,0.986397\\Version=ES64L-G16R

 Normal termination of Gaussian 16 at Tue Apr  8 23:51:35 2025.
