 Gaussian 16, Revision C.01,

 ----------------------------------------------------------------------
 #t hf aug-cc-pvdz symm=none int=(grid=ultrafine) guess=(read,tcheck) s
 table=opt
 ----------------------------------------------------------------------
 -----
 title
 -----
 Symbolic Z-matrix:
 Charge =  0 Multiplicity = 2

 SCF Done:  E(UHF) =  -1813.86131718     A.U. after   18 cycles

 1\1\GINC-SE082\Stability\UHF\Aug-CC-pVDZ\C1Cl3S1\OHZDE\09-Apr-2025\0\\
 #t hf aug-cc-pvdz symm=none int=(grid=ultrafine) guess=(read,tcheck) s
 table=opt\\title\\0,2\S,0,1.118185,0.,-1.438193\C,0,-0.011227,0.,-0.05
 4566\Cl,0,-1.067398,-1.456443,-0.005097\Cl,0,-1.067398,1.456443,-0.005
 097\Cl,0,1.086348,0.,1.383047\\Version=ES64L-G16RevC.01\HF=-1813.86131
 72\S2=0.762949\S2-1=0.\S2A=0.750069\RMSD=7.306e-09\Dipole=0.1484834,0.
 ,-0.1815558\Quadrupole=0.4335324,-1.1543808,0.7208484,0.,0.1624412,0.\
 PG=Unknown\\@

 Normal termination of Gaussian 16 at Wed Apr  9 00:16:38 2025.
 Gaussian 16:  ES64L-G16RevC.01  3-Jul-2019

 ----------------------------------------------------------------------
 #t hf aug-cc-pvdz iop(5/13=1,5/36=2,99/5=2) pseudo=read geom=check gue
 ss=(read,tcheck) scf=(maxcycle=1)
 ----------------------------------------------------------------------
 -----
 title
 -----
 Structure from the checkpoint file:  "BDE49_nonexpt_2538_mol2.chk"
 Charge =  0 Multiplicity = 2

                         Standard orientation:
 ---------------------------------------------------------------------
 Center     Atomic      Atomic             Coordinates (Angstroms)
 Number     Number       Type             X           Y           Z
 ---------------------------------------------------------------------
      1         16           0       -1.814635   -0.160739   -0.000000
      2          6           0       -0.039783    0.038998   -0.000000
      3         17           0        0.573978    0.899952    1.456443
      4         17           0        0.573978    0.899952   -1.456443
      5         17           0        0.573978   -1.662384    0.000000
 ---------------------------------------------------------------------

 SCF Done:  E(UHF) =  -1814.96080511     A.U. after    2 cycles

 The electronic state is 2-A'.
 Alpha  occ. eigenvalues --  -99.93265 -99.92562 -99.92544 -75.75304 -13.16847
 Alpha  occ. eigenvalues --  -13.10147 -13.07319 -11.57429 -10.50573 -10.49979
 Alpha  occ. eigenvalues --  -10.49731  -9.70466  -9.69798  -9.69690  -9.69544
 Alpha  occ. eigenvalues --   -9.69514  -9.68933  -9.68877  -9.68872  -9.68814
 Alpha  occ. eigenvalues --   -8.09051  -1.47539  -1.32079  -1.31173  -1.18111
 Alpha  occ. eigenvalues --   -0.93404  -0.72344  -0.71636  -0.66585  -0.58367
 Alpha  occ. eigenvalues --   -0.57279  -0.52399  -0.52090  -0.50926  -0.46203
 Alpha  occ. eigenvalues --   -0.33556  -0.29434
 Alpha virt. eigenvalues --   -0.01560   0.04320   0.05187   0.05772   0.06555
 Alpha virt. eigenvalues --    0.09206   0.09495   0.11724   0.13575   0.14452
 Alpha virt. eigenvalues --    0.15583   0.15733   0.17148   0.17508   0.17848

  Beta  occ. eigenvalues --  -99.93160 -99.92549 -99.92532 -75.74297 -13.16229
  Beta  occ. eigenvalues --  -13.06728 -13.04134 -11.57614 -10.50461 -10.49963
  Beta  occ. eigenvalues --  -10.49718  -9.70206  -9.69754  -9.69550  -9.69454
  Beta  occ. eigenvalues --   -9.69406  -9.68930  -9.68853  -9.68848  -9.68810
  Beta  occ. eigenvalues --   -8.07921  -1.46994  -1.31476  -1.31073  -1.11959
  Beta  occ. eigenvalues --   -0.90831  -0.71587  -0.71495  -0.65336  -0.57354
  Beta  occ. eigenvalues --   -0.57091  -0.52234  -0.52006  -0.50872  -0.45220
  Beta  occ. eigenvalues --   -0.27872
  Beta virt. eigenvalues --   -0.01443  -0.00169   0.04548   0.05751   0.06417
  Beta virt. eigenvalues --    0.06767   0.09528   0.09812   0.12018   0.14409
  Beta virt. eigenvalues --    0.14540   0.15947   0.16984   0.17315   0.17740

 Mulliken charges and spin densities:
               1          2
     1  S    1.256316   1.049569
     2  C   -2.794041  -0.122999
     3  Cl   0.499956   0.013481
     4  Cl   0.499956   0.013481
     5  Cl   0.537813   0.046467
 Sum of Mulliken charges =  -0.00000   1.00000

 Dipole moment (field-independent basis, Debye):
    X=             -3.3358    Y=             -0.4629    Z=             -0.0000  Tot=              3.3678
                          Isotropic Fermi Contact Couplings
        Atom                 a.u.       MegaHertz       Gauss      10(-4) cm-1
     1  S(33)              0.30207     103.75319      37.02172      34.60834
     2  C(13)             -0.02037     -22.90289      -8.17232      -7.63958
     3  Cl(35)             0.00190       0.83209       0.29691       0.27755
     4  Cl(35)             0.00190       0.83209       0.29691       0.27755
     5  Cl(35)             0.07573      33.20552      11.84856      11.07617
 --------------------------------------------------------
       Center         ----  Spin Dipole Couplings  ----
                      3XX-RR        3YY-RR        3ZZ-RR

 Normal termination of Gaussian 16 at Wed Apr  9 00:16:40 2025.
