 Gaussian 16, Revision C.01,

 ----------------------------------------------------------------------
 #t hf aug-cc-pvdz symm=none int=(grid=ultrafine) guess=(read,tcheck) s
 table=(opt,rrhf)
 ----------------------------------------------------------------------
 -----
 title
 -----
 Symbolic Z-matrix:
 Charge =  0 Multiplicity = 1

 SCF Done:  E(RHF) =  -400.115038300     A.U. after   12 cycles

 1\1\GINC-SE362\Stability\RHF\Aug-CC-pVDZ\H4N2Si1\OHZDE\08-Apr-2025\0\\
 #t hf aug-cc-pvdz symm=none int=(grid=ultrafine) guess=(read,tcheck) s
 table=(opt,rrhf)\\title\\0,1\Si,0,-1.005228,0.064027,0.000005\N,0,0.69
 408,-0.525804,0.000004\N,0,1.583376,0.346617,-0.000018\H,0,2.501825,-0
 .142975,0.000004\H,0,-1.627143,-0.519709,1.207463\H,0,-1.627198,-0.519
 861,-1.207351\H,0,-1.116487,1.540477,-0.000086\\Version=ES64L-G16RevC.
 01\HF=-400.1150383\RMSD=8.771e-09\Dipole=-0.0587136,-0.0268988,0.00000
 76\Quadrupole=2.8157686,-2.5148528,-0.3009158,-0.9325607,0.0000355,0.0

 Normal termination of Gaussian 16 at Tue Apr  8 23:59:21 2025.
 Gaussian 16:  ES64L-G16RevC.01  3-Jul-2019

 ----------------------------------------------------------------------
 #t hf aug-cc-pvdz iop(5/13=1,5/36=2,99/5=2) pseudo=read geom=check gue
 ss=(read,tcheck) scf=(maxcycle=1)
 ----------------------------------------------------------------------
 -----
 title
 -----
 Structure from the checkpoint file:  "BDE49_nonexpt_2077_mol1.chk"
 Charge =  0 Multiplicity = 1

                         Standard orientation:
 ---------------------------------------------------------------------
 Center     Atomic      Atomic             Coordinates (Angstroms)
 Number     Number       Type             X           Y           Z
 ---------------------------------------------------------------------
      1         14           0       -1.005228    0.064027    0.000005
      2          7           0        0.694080   -0.525804    0.000004
      3          7           0        1.583376    0.346617   -0.000018
      4          1           0        2.501825   -0.142975    0.000004
      5          1           0       -1.627143   -0.519709    1.207463
      6          1           0       -1.627198   -0.519861   -1.207351
      7          1           0       -1.116487    1.540477   -0.000086
 ---------------------------------------------------------------------

 SCF Done:  E(RHF) =  -400.758715004     A.U. after    2 cycles

 The electronic state is 1-A.
 Alpha  occ. eigenvalues --  -76.23802 -15.81279 -15.77693  -5.57442  -2.21779
 Alpha  occ. eigenvalues --   -2.19467  -2.19308  -1.49663  -0.97106  -0.74820
 Alpha  occ. eigenvalues --   -0.64275  -0.54378  -0.52615  -0.48036  -0.46269
 Alpha  occ. eigenvalues --   -0.32092
 Alpha virt. eigenvalues --    0.04043   0.05456   0.06265   0.06449   0.07278
 Alpha virt. eigenvalues --    0.09690   0.09709   0.10602   0.13613   0.14985
 Alpha virt. eigenvalues --    0.17180   0.17205   0.17934   0.20129   0.20587

 Mulliken charges:
               1
     1  Si   5.690434
     2  N   -0.932336
     3  N   -0.895731
     4  H    0.825331
     5  H   -1.596047
     6  H   -1.596041
     7  H   -1.495609
 Sum of Mulliken charges =  -0.00000

 Dipole moment (field-independent basis, Debye):
    X=              0.1816    Y=             -0.0082    Z=              0.0000  Tot=              0.1818

 Test job not archived.
 1\1\GINC-SE362\SP\RHF\Aug-CC-pVDZ\H4N2Si1\OHZDE\08-Apr-2025\0\\#t hf a
 ug-cc-pvdz iop(5/13=1,5/36=2,99/5=2) pseudo=read geom=check guess=(rea
 d,tcheck) scf=(maxcycle=1)\\title\\0,1\Si,0,-1.005228,0.064027,0.00000
 5\N,0,0.69408,-0.525804,0.000004\N,0,1.583376,0.346617,-0.000018\H,0,2
 .501825,-0.142975,0.000004\H,0,-1.627143,-0.519709,1.207463\H,0,-1.627
 198,-0.519861,-1.207351\H,0,-1.116487,1.540477,-0.000086\\Version=ES64
 L-G16RevC.01\State=1-A\HF=-400.758715\RMSD=9.846e-02\Dipole=0.071435,-
 0.0032308,0.0000019\Quadrupole=2.4930086,-2.3946017,-0.0984069,-0.8041

 Normal termination of Gaussian 16 at Tue Apr  8 23:59:23 2025.
