 Gaussian 16, Revision C.01,

 ----------------------------------------------------------------------
 #t hf aug-cc-pvdz symm=none int=(grid=ultrafine) guess=(read,tcheck) s
 table=(opt,rrhf)
 ----------------------------------------------------------------------
 -----
 title
 -----
 Symbolic Z-matrix:
 Charge =  0 Multiplicity = 1

 SCF Done:  E(RHF) =  -1415.48043483     A.U. after   13 cycles
 Normal termination of Gaussian 16 at Wed Apr  9 00:12:50 2025.
 Gaussian 16:  ES64L-G16RevC.01  3-Jul-2019

 ----------------------------------------------------------------------
 #t hf aug-cc-pvdz iop(5/13=1,5/36=2,99/5=2) pseudo=read geom=check gue
 ss=(read,tcheck) scf=(maxcycle=1)
 ----------------------------------------------------------------------
 -----
 title
 -----
 Structure from the checkpoint file:  "BDE49_nonexpt_2421_mol1.chk"
 Charge =  0 Multiplicity = 1

                         Standard orientation:
 ---------------------------------------------------------------------
 Center     Atomic      Atomic             Coordinates (Angstroms)
 Number     Number       Type             X           Y           Z
 ---------------------------------------------------------------------
      1         14           0       -2.582039   -0.789086   -0.081263
      2         14           0       -1.034961    0.846977    0.618541
      3         16           0        0.661580    1.047970   -0.736011
      4          1           0       -0.536656    0.570373    1.987874
      5          1           0       -1.669545    2.189923    0.606417
      6         16           0        1.593255   -0.816381   -0.426570
      7          1           0       -3.686656   -0.866762    0.907460
      8          1           0       -1.941398   -2.118876   -0.190078
      9          6           0        2.757996   -0.446904    0.930953
     10          1           0        3.308883   -1.375073    1.103129
     11          1           0        2.227739   -0.167346    1.840546
     12          1           0        3.453299    0.337733    0.636094
     13          1           0       -3.143018   -0.404443   -1.397752
 ---------------------------------------------------------------------

 SCF Done:  E(RHF) =  -1416.46874862     A.U. after    2 cycles

 The electronic state is 1-A.
 Alpha  occ. eigenvalues --  -76.24424 -76.22084 -75.70945 -75.69820 -13.12380
 Alpha  occ. eigenvalues --  -13.11471 -13.09211 -13.07141 -13.05350 -13.04656
 Alpha  occ. eigenvalues --  -11.40345  -8.04711  -8.03747  -5.57788  -5.55498
 Alpha  occ. eigenvalues --   -2.19689  -2.19617  -2.18889  -2.17581  -2.17534
 Alpha  occ. eigenvalues --   -2.16433  -1.23626  -1.06758  -0.90925  -0.80607
 Alpha  occ. eigenvalues --   -0.70691  -0.59789  -0.59505  -0.50041  -0.47858
 Alpha  occ. eigenvalues --   -0.46858  -0.46049  -0.41595  -0.35780  -0.35428
 Alpha  occ. eigenvalues --   -0.26434  -0.22628
 Alpha virt. eigenvalues --    0.02763   0.03681   0.04137   0.04606   0.06464
 Alpha virt. eigenvalues --    0.07047   0.07215   0.07902   0.08171   0.08706
 Alpha virt. eigenvalues --    0.09243   0.09565   0.10346   0.11107   0.11469

 Mulliken charges:
               1
     1  Si   4.708717
     2  Si   5.079347
     3  S   -1.515576
     4  H   -1.731365
     5  H   -1.867891
     6  S    0.193385
     7  H   -1.553873
     8  H   -1.512209
     9  C   -4.688589
    10  H    1.390504
    11  H    1.520351
    12  H    1.500834
    13  H   -1.523634
 Sum of Mulliken charges =   0.00000

 Dipole moment (field-independent basis, Debye):
    X=              1.5208    Y=             -0.4185    Z=             -1.3418  Tot=              2.0709

 Test job not archived.
 1\1\GINC-SE455\SP\RHF\Aug-CC-pVDZ\C1H8S2Si2\OHZDE\09-Apr-2025\0\\#t hf
  aug-cc-pvdz iop(5/13=1,5/36=2,99/5=2) pseudo=read geom=check guess=(r
 ead,tcheck) scf=(maxcycle=1)\\title\\0,1\Si,0,-2.582039,-0.789086,-0.0
 81263\Si,0,-1.034961,0.846977,0.618541\S,0,0.66158,1.04797,-0.736011\H
 ,0,-0.536656,0.570373,1.987874\H,0,-1.669545,2.189923,0.606417\S,0,1.5
 93255,-0.816381,-0.42657\H,0,-3.686656,-0.866762,0.90746\H,0,-1.941398
 ,-2.118876,-0.190078\C,0,2.757996,-0.446904,0.930953\H,0,3.308883,-1.3
 75073,1.103129\H,0,2.227739,-0.167346,1.840546\H,0,3.453299,0.337733,0

 Normal termination of Gaussian 16 at Wed Apr  9 00:12:53 2025.
