 Gaussian 16, Revision C.01,

 ----------------------------------------------------------------------
 #t hf aug-cc-pvdz symm=none int=(grid=ultrafine) guess=(read,tcheck) s
 table=(opt,rrhf)
 ----------------------------------------------------------------------
 -----
 title
 -----
 Symbolic Z-matrix:
 Charge =  0 Multiplicity = 1

 SCF Done:  E(RHF) =  -683.800963315     A.U. after   17 cycles
 Normal termination of Gaussian 16 at Tue Apr  8 23:13:52 2025.
 Gaussian 16:  ES64L-G16RevC.01  3-Jul-2019

 ----------------------------------------------------------------------
 #t hf aug-cc-pvdz iop(5/13=1,5/36=2,99/5=2) pseudo=read geom=check gue
 ss=(read,tcheck) scf=(maxcycle=1)
 ----------------------------------------------------------------------
 -----
 title
 -----
 Structure from the checkpoint file:  "BDE49_expt_718_mol1.chk"
 Charge =  0 Multiplicity = 1

                         Standard orientation:
 ---------------------------------------------------------------------
 Center     Atomic      Atomic             Coordinates (Angstroms)
 Number     Number       Type             X           Y           Z
 ---------------------------------------------------------------------
      1          6           0       -1.777152   -0.754998    0.000610
      2          6           0       -2.773480    0.220507   -0.006030
      3          6           0       -2.427830    1.570545   -0.005625
      4          6           0       -1.087723    1.974381    0.001715
      5          6           0       -0.123644    0.984022    0.002920
      6          6           0       -0.446315   -0.377447    0.000867
      7          1           0       -3.215217    2.314807   -0.011963
      8          1           0       -0.807121    3.019988    0.003203
      9          6           0        0.811599   -1.181489    0.008619
     10          7           0        1.828873   -0.200125    0.080643
     11          6           0        1.364973    1.125777    0.013009
     12          8           0        0.988239   -2.367869   -0.019601
     13          8           0        2.041404    2.119164   -0.014531
     14          8           0        3.146821   -0.517403   -0.142068
     15          1           0        3.530780   -0.663026    0.733267
     16          1           0       -3.809442   -0.094880   -0.012270
     17          9           0       -2.128377   -2.046103    0.004038
 ---------------------------------------------------------------------

 SCF Done:  E(RHF) =  -686.674903271     A.U. after    2 cycles

 The electronic state is 1-A.
 Alpha  occ. eigenvalues --  -29.31513 -21.14489 -21.07798 -21.07789 -15.81960
 Alpha  occ. eigenvalues --  -11.58204 -11.56187 -11.55484 -11.51843 -11.49456
 Alpha  occ. eigenvalues --  -11.47057 -11.45563 -11.42749  -1.85997  -1.73773
 Alpha  occ. eigenvalues --   -1.72915  -1.45199  -1.33732  -1.19615  -1.14363
 Alpha  occ. eigenvalues --   -0.99881  -0.96946  -0.88496  -0.85421  -0.74949
 Alpha  occ. eigenvalues --   -0.71846  -0.69196  -0.68279  -0.66268  -0.61242
 Alpha  occ. eigenvalues --   -0.58266  -0.57111  -0.55589  -0.51903  -0.51359
 Alpha  occ. eigenvalues --   -0.51014  -0.50119  -0.43768  -0.41417  -0.39173
 Alpha  occ. eigenvalues --   -0.37170  -0.34046  -0.33161  -0.32207  -0.27628
 Alpha  occ. eigenvalues --   -0.26407
 Alpha virt. eigenvalues --    0.02516   0.04859   0.05185   0.05771   0.06000
 Alpha virt. eigenvalues --    0.08009   0.09424   0.09660   0.10269   0.10830
 Alpha virt. eigenvalues --    0.10996   0.11563   0.11959   0.12494   0.12771

 Mulliken charges:
               1
     1  C    7.810957
     2  C   -4.885750
     3  C   -1.080104
     4  C   -2.044581
     5  C    2.283713
     6  C   -3.474227
     7  H    1.483556
     8  H    1.679948
     9  C    2.705453
    10  N   -0.655353
    11  C    2.782832
    12  O   -3.690973
    13  O   -3.801856
    14  O   -2.608927
    15  H    0.635856
    16  H    1.712538
    17  F    1.146917
 Sum of Mulliken charges =  -0.00000

 Dipole moment (field-independent basis, Debye):
    X=             -2.5626    Y=             -1.7520    Z=              0.5992  Tot=              3.1616

 Test job not archived.
 1\1\GINC-SE423\SP\RHF\Aug-CC-pVDZ\C8H4F1N1O3\OHZDE\08-Apr-2025\0\\#t h
 f aug-cc-pvdz iop(5/13=1,5/36=2,99/5=2) pseudo=read geom=check guess=(
 read,tcheck) scf=(maxcycle=1)\\title\\0,1\C,0,-1.777152,-0.754998,0.00
 061\C,0,-2.77348,0.220507,-0.00603\C,0,-2.42783,1.570545,-0.005625\C,0
 ,-1.087723,1.974381,0.001715\C,0,-0.123644,0.984022,0.00292\C,0,-0.446
 315,-0.377447,0.000867\H,0,-3.215217,2.314807,-0.011963\H,0,-0.807121,
 3.019988,0.003203\C,0,0.811599,-1.181489,0.008619\N,0,1.828873,-0.2001
 25,0.080643\C,0,1.364973,1.125777,0.013009\O,0,0.988239,-2.367869,-0.0

 Normal termination of Gaussian 16 at Tue Apr  8 23:14:03 2025.
