 Gaussian 16, Revision C.01,

 ----------------------------------------------------------------------
 #t hf aug-cc-pvdz symm=none int=(grid=ultrafine) guess=(read,tcheck) s
 table=(opt,rrhf)
 ----------------------------------------------------------------------
 -----
 title
 -----
 Symbolic Z-matrix:
 Charge =  0 Multiplicity = 1

 SCF Done:  E(RHF) =  -1901.24523542     A.U. after   13 cycles
 Normal termination of Gaussian 16 at Tue Apr  8 23:43:14 2025.
 Gaussian 16:  ES64L-G16RevC.01  3-Jul-2019

 ----------------------------------------------------------------------
 #t hf aug-cc-pvdz iop(5/13=1,5/36=2,99/5=2) pseudo=read geom=check gue
 ss=(read,tcheck) scf=(maxcycle=1)
 ----------------------------------------------------------------------
 -----
 title
 -----
 Structure from the checkpoint file:  "BDE49_nonexpt_168_mol1.chk"
 Charge =  0 Multiplicity = 1

                         Standard orientation:
 ---------------------------------------------------------------------
 Center     Atomic      Atomic             Coordinates (Angstroms)
 Number     Number       Type             X           Y           Z
 ---------------------------------------------------------------------
      1         17           0        2.130866   -0.811302   -0.735578
      2         17           0        1.020976    1.435923    0.971010
      3          5           0        0.763358    0.075419   -0.086880
      4          6           0       -0.691929   -0.422291   -0.475832
      5         17           0       -1.292612   -1.344359    0.964861
      6         17           0       -1.798264    0.912849   -0.930241
      7          1           0       -0.701630   -1.126249   -1.301506
 ---------------------------------------------------------------------

 SCF Done:  E(RHF) =  -1902.51269379     A.U. after    2 cycles

 The electronic state is 1-A.
 Alpha  occ. eigenvalues --  -99.92198 -99.91732 -99.91668 -99.91410 -11.48686
 Alpha  occ. eigenvalues --  -10.49540 -10.49036 -10.48926 -10.48659  -9.69490
 Alpha  occ. eigenvalues --   -9.69008  -9.68978  -9.68853  -9.68764  -9.68582
 Alpha  occ. eigenvalues --   -9.68535  -9.68367  -9.68074  -9.67994  -9.67777
 Alpha  occ. eigenvalues --   -9.67715  -7.74039  -1.45179  -1.37941  -1.31990
 Alpha  occ. eigenvalues --   -1.29936  -1.03902  -0.82917  -0.72491  -0.68230
 Alpha  occ. eigenvalues --   -0.66829  -0.62140  -0.59280  -0.56707  -0.55432
 Alpha  occ. eigenvalues --   -0.52985  -0.51891  -0.51007  -0.50721  -0.46171
 Alpha virt. eigenvalues --    0.01038   0.02221   0.04048   0.04193   0.04506
 Alpha virt. eigenvalues --    0.04841   0.09146   0.09895   0.10432   0.11715
 Alpha virt. eigenvalues --    0.13428   0.13801   0.14455   0.14823   0.15409

 Mulliken charges:
               1
     1  Cl  -1.301657
     2  Cl  -1.055781
     3  B    4.203710
     4  C   -3.874506
     5  Cl   0.240438
     6  Cl   0.069778
     7  H    1.718018
 Sum of Mulliken charges =   0.00000

 Dipole moment (field-independent basis, Debye):
    X=              0.7177    Y=             -0.4537    Z=             -0.8428  Tot=              1.1963

 Test job not archived.
 1\1\GINC-SE366\SP\RHF\Aug-CC-pVDZ\C1H1B1Cl4\OHZDE\08-Apr-2025\0\\#t hf
  aug-cc-pvdz iop(5/13=1,5/36=2,99/5=2) pseudo=read geom=check guess=(r
 ead,tcheck) scf=(maxcycle=1)\\title\\0,1\Cl,0,2.130866,-0.811302,-0.73
 5578\Cl,0,1.020976,1.435923,0.97101\B,0,0.763358,0.075419,-0.08688\C,0
 ,-0.691929,-0.422291,-0.475832\Cl,0,-1.292612,-1.344358,0.964861\Cl,0,
 -1.798264,0.91285,-0.930241\H,0,-0.70163,-1.126249,-1.301506\\Version=
 ES64L-G16RevC.01\State=1-A\HF=-1902.5126938\RMSD=4.994e-02\Dipole=0.28
 23506,-0.1784932,-0.3315752\Quadrupole=-1.7140573,0.7351235,0.9789338,

 Normal termination of Gaussian 16 at Tue Apr  8 23:43:16 2025.
