 Gaussian 16, Revision C.01,

 ----------------------------------------------------------------------
 #t hf aug-cc-pvdz symm=none int=(grid=ultrafine) guess=(read,tcheck) s
 table=(opt,rrhf)
 ----------------------------------------------------------------------
 -----
 title
 -----
 Symbolic Z-matrix:
 Charge =  0 Multiplicity = 1

 SCF Done:  E(RHF) =  -332.454448633     A.U. after   13 cycles
 Normal termination of Gaussian 16 at Wed Apr  9 00:25:47 2025.
 Gaussian 16:  ES64L-G16RevC.01  3-Jul-2019

 ----------------------------------------------------------------------
 #t hf aug-cc-pvdz iop(5/13=1,5/36=2,99/5=2) pseudo=read geom=check gue
 ss=(read,tcheck) scf=(maxcycle=1)
 ----------------------------------------------------------------------
 -----
 title
 -----
 Structure from the checkpoint file:  "BDE49_nonexpt_271_mol1.chk"
 Charge =  0 Multiplicity = 1

                         Standard orientation:
 ---------------------------------------------------------------------
 Center     Atomic      Atomic             Coordinates (Angstroms)
 Number     Number       Type             X           Y           Z
 ---------------------------------------------------------------------
      1          6           0        0.617244   -0.002882    0.000009
      2          5           0       -0.976874    0.023765    0.000024
      3          8           0       -1.645616   -1.167405   -0.000037
      4          8           0       -1.738718    1.165743    0.000005
      5          6           0        1.221839    1.414870    0.000010
      6          1           0        0.925808    1.985616    0.888083
      7          1           0        0.925793    1.985624   -0.888052
      8          6           0        1.100578   -0.761066   -1.258493
      9          1           0        2.194114   -0.840642   -1.262953
     10          1           0        0.803371   -0.247557   -2.178999
     11          1           0        0.685993   -1.770980   -1.292655
     12          6           0        1.100597   -0.761076    1.258497
     13          1           0        0.803405   -0.247574    2.179013
     14          1           0        2.194133   -0.840651    1.262938
     15          1           0        0.686014   -1.770991    1.292658
     16          1           0        2.316350    1.372965    0.000001
     17          1           0       -2.600793   -1.042504   -0.000055
     18          1           0       -1.216696    1.972090    0.000012
 ---------------------------------------------------------------------

 SCF Done:  E(RHF) =  -334.011567642     A.U. after    2 cycles

 The electronic state is 1-A.
 Alpha  occ. eigenvalues --  -21.05758 -21.04672 -11.39565 -11.39035 -11.38278
 Alpha  occ. eigenvalues --  -11.33692  -7.62507  -1.81590  -1.64972  -1.25569
 Alpha  occ. eigenvalues --   -1.00314  -0.99660  -0.84562  -0.71819  -0.65848
 Alpha  occ. eigenvalues --   -0.61763  -0.59926  -0.57032  -0.53891  -0.53890
 Alpha  occ. eigenvalues --   -0.50955  -0.50714  -0.47379  -0.45682  -0.42041
 Alpha  occ. eigenvalues --   -0.39262  -0.36055  -0.33680
 Alpha virt. eigenvalues --    0.03482   0.04678   0.05205   0.05364   0.06275
 Alpha virt. eigenvalues --    0.06344   0.06508   0.06823   0.06931   0.08818
 Alpha virt. eigenvalues --    0.09097   0.09235   0.09656   0.09663   0.11679

 Mulliken charges:
               1
     1  C    0.916168
     2  B    8.320855
     3  O   -4.672188
     4  O   -4.757655
     5  C   -4.004261
     6  H    1.133163
     7  H    1.133165
     8  C   -4.407159
     9  H    1.199652
    10  H    1.035726
    11  H    1.292860
    12  C   -4.407199
    13  H    1.035764
    14  H    1.199648
    15  H    1.292847
    16  H    1.171871
    17  H    1.092863
    18  H    1.423880
 Sum of Mulliken charges =  -0.00000

 Dipole moment (field-independent basis, Debye):
    X=              0.0219    Y=              0.7176    Z=              0.0000  Tot=              0.7179

 Test job not archived.
 1\1\GINC-SE367\SP\RHF\Aug-CC-pVDZ\C4H11B1O2\OHZDE\09-Apr-2025\0\\#t hf
  aug-cc-pvdz iop(5/13=1,5/36=2,99/5=2) pseudo=read geom=check guess=(r
 ead,tcheck) scf=(maxcycle=1)\\title\\0,1\C,0,-0.617244,-0.002882,-0.00
 0009\B,0,0.976874,0.023765,-0.000024\O,0,1.645616,-1.167405,0.000037\O
 ,0,1.738718,1.165743,-0.000005\C,0,-1.221838,1.41487,-0.00001\H,0,-0.9
 25807,1.985616,-0.888083\H,0,-0.925792,1.985624,0.888052\C,0,-1.100578
 ,-0.761066,1.258493\H,0,-2.194114,-0.840642,1.262953\H,0,-0.803371,-0.
 247557,2.178999\H,0,-0.685993,-1.77098,1.292655\C,0,-1.100597,-0.76107

 Normal termination of Gaussian 16 at Wed Apr  9 00:25:53 2025.
