 Gaussian 16, Revision C.01,

 ----------------------------------------------------------------------
 #t hf aug-cc-pvdz symm=none int=(grid=ultrafine) guess=(read,tcheck) s
 table=opt
 ----------------------------------------------------------------------
 -----
 title
 -----
 Symbolic Z-matrix:
 Charge =  0 Multiplicity = 2

 SCF Done:  E(UHF) =  -312.342504853     A.U. after   21 cycles
 Normal termination of Gaussian 16 at Wed Apr  9 00:32:15 2025.
 Gaussian 16:  ES64L-G16RevC.01  3-Jul-2019

 ----------------------------------------------------------------------
 #t hf aug-cc-pvdz iop(5/13=1,5/36=2,99/5=2) pseudo=read geom=check gue
 ss=(read,tcheck) scf=(maxcycle=1)
 ----------------------------------------------------------------------
 -----
 title
 -----
 Structure from the checkpoint file:  "BDE49_nonexpt_377_mol2.chk"
 Charge =  0 Multiplicity = 2

                         Standard orientation:
 ---------------------------------------------------------------------
 Center     Atomic      Atomic             Coordinates (Angstroms)
 Number     Number       Type             X           Y           Z
 ---------------------------------------------------------------------
      1          9           0       -2.023847   -0.088945   -0.220141
      2          5           0       -0.969556   -0.126295    0.543801
      3          6           0        0.521232    0.099665    0.074192
      4          8           0        0.960832    1.218800   -0.056322
      5          8           0        1.260224   -1.021338   -0.057090
      6          1           0        2.166557   -0.745710   -0.275590
 ---------------------------------------------------------------------

 SCF Done:  E(UHF) =  -313.516388989     A.U. after    2 cycles

 The electronic state is 2-A.
 Alpha  occ. eigenvalues --  -29.29465 -21.14419 -21.08050 -11.50259  -7.72309
 Alpha  occ. eigenvalues --   -1.84458  -1.67403  -1.07137  -0.84404  -0.66496
 Alpha  occ. eigenvalues --   -0.62390  -0.58813  -0.50977  -0.48991  -0.45841
 Alpha  occ. eigenvalues --   -0.41466  -0.36296  -0.33609  -0.23231
 Alpha virt. eigenvalues --    0.03896   0.04396   0.04532   0.06229   0.08705
 Alpha virt. eigenvalues --    0.12838   0.13968   0.14617   0.14995   0.15781
 Alpha virt. eigenvalues --    0.18798   0.19619   0.20912   0.21591   0.23000

  Beta  occ. eigenvalues --  -29.29173 -21.14425 -21.07750 -11.50056  -7.70364
  Beta  occ. eigenvalues --   -1.84265  -1.66923  -1.03419  -0.83324  -0.65890
  Beta  occ. eigenvalues --   -0.62182  -0.56637  -0.49145  -0.45371  -0.43744
  Beta  occ. eigenvalues --   -0.40091  -0.35256  -0.31062
  Beta virt. eigenvalues --    0.03771   0.03943   0.04578   0.05980   0.07780
  Beta virt. eigenvalues --    0.10595   0.13827   0.14638   0.15142   0.15748
  Beta virt. eigenvalues --    0.17058   0.19190   0.20160   0.21432   0.23083

 Mulliken charges and spin densities:
               1          2
     1  F   -0.314698  -0.072085
     2  B    1.029785   1.013569
     3  C    3.492411  -0.102191
     4  O   -2.528344   0.125274
     5  O   -2.525618   0.034812
     6  H    0.846463   0.000621
 Sum of Mulliken charges =  -0.00000   1.00000

 Dipole moment (field-independent basis, Debye):
    X=             -2.4415    Y=             -0.8101    Z=             -2.2539  Tot=              3.4201
                          Isotropic Fermi Contact Couplings
        Atom                 a.u.       MegaHertz       Gauss      10(-4) cm-1
     1  F(19)              0.04792     201.63815      71.94951      67.25925
     2  B(11)              0.19633     281.60972     100.48535      93.93489
     3  C(13)              0.05980      67.22494      23.98753      22.42383
     4  O(17)              0.01658     -10.05280      -3.58709      -3.35325
     5  O(17)             -0.00002       0.01267       0.00452       0.00423
     6  H(1)               0.00039       1.73851       0.62034       0.57990
 --------------------------------------------------------
       Center         ----  Spin Dipole Couplings  ----

 Normal termination of Gaussian 16 at Wed Apr  9 00:32:17 2025.
