 Gaussian 16, Revision C.01,

 ----------------------------------------------------------------------
 #t hf aug-cc-pvdz symm=none int=(grid=ultrafine) guess=(read,tcheck) s
 table=(opt,rrhf)
 ----------------------------------------------------------------------
 -----
 title
 -----
 Symbolic Z-matrix:
 Charge =  0 Multiplicity = 1

 SCF Done:  E(RHF) =  -682.082783337     A.U. after   15 cycles
 Normal termination of Gaussian 16 at Tue Apr  8 23:40:15 2025.
 Gaussian 16:  ES64L-G16RevC.01  3-Jul-2019

 ----------------------------------------------------------------------
 #t hf aug-cc-pvdz iop(5/13=1,5/36=2,99/5=2) pseudo=read geom=check gue
 ss=(read,tcheck) scf=(maxcycle=1)
 ----------------------------------------------------------------------
 -----
 title
 -----
 Structure from the checkpoint file:  "BDE49_nonexpt_1579_mol1.chk"
 Charge =  0 Multiplicity = 1

                         Standard orientation:
 ---------------------------------------------------------------------
 Center     Atomic      Atomic             Coordinates (Angstroms)
 Number     Number       Type             X           Y           Z
 ---------------------------------------------------------------------
      1          6           0        0.407648    0.371117    0.359318
      2          7           0       -1.930719   -0.058987    0.749960
      3         15           0       -2.931278   -0.305541   -0.628553
      4          6           0        1.361670    1.293315   -0.094500
      5          6           0        2.639308    0.869687   -0.440824
      6          6           0        2.988598   -0.477147   -0.352255
      7          6           0        2.037401   -1.393338    0.091671
      8          6           0        0.756669   -0.981652    0.448333
      9          1           0        0.020258   -1.693613    0.796394
     10          1           0        1.098826    2.344322   -0.169670
     11          1           0        3.363895    1.597896   -0.788557
     12          1           0        3.983705   -0.805939   -0.627131
     13          1           0        2.292269   -2.445140    0.164576
     14          7           0       -0.852824    0.841057    0.773637
     15          1           0       -1.085508    1.748636    0.382222
     16          1           0       -1.921891   -0.674217   -1.552288
     17          1           0       -3.029252    1.023843   -1.148447
     18          1           0       -2.416104   -0.079045    1.635554
 ---------------------------------------------------------------------

 SCF Done:  E(RHF) =  -683.901397100     A.U. after    2 cycles

 The electronic state is 1-A.
 Alpha  occ. eigenvalues -- -105.20295 -15.76675 -15.75601 -11.51612 -11.44560
 Alpha  occ. eigenvalues --  -11.42406 -11.39936 -11.39654 -11.35641  -2.77343
 Alpha  occ. eigenvalues --   -1.59238  -1.46192  -1.45024  -1.43840  -1.30261
 Alpha  occ. eigenvalues --   -1.13332  -1.08756  -1.01149  -0.86724  -0.83715
 Alpha  occ. eigenvalues --   -0.75019  -0.71528  -0.67581  -0.65801  -0.59060
 Alpha  occ. eigenvalues --   -0.57503  -0.54978  -0.52955  -0.46651  -0.45151
 Alpha  occ. eigenvalues --   -0.43639  -0.39091  -0.32862  -0.32703  -0.26737
 Alpha  occ. eigenvalues --   -0.23495  -0.03305
 Alpha virt. eigenvalues --    0.03761   0.05197   0.05243   0.05917   0.06057
 Alpha virt. eigenvalues --    0.06432   0.07573   0.08419   0.08896   0.10086
 Alpha virt. eigenvalues --    0.10912   0.11497   0.12459   0.13033   0.13373

 Mulliken charges:
               1
     1  C    4.177292
     2  N   -1.677646
     3  P    2.204103
     4  C   -3.525346
     5  C   -0.202746
     6  C   -2.818975
     7  C   -0.306538
     8  C   -2.081444
     9  H    1.793224
    10  H    1.600468
    11  H    1.511620
    12  H    1.556018
    13  H    1.503168
    14  N   -3.353254
    15  H    0.838063
    16  H   -1.080363
    17  H   -0.829563
    18  H    0.691918
 Sum of Mulliken charges =  -0.00000

 Dipole moment (field-independent basis, Debye):
    X=             -2.1494    Y=             -0.2838    Z=              0.4755  Tot=              2.2196

 Test job not archived.
 1\1\GINC-SE250\SP\RHF\Aug-CC-pVDZ\C6H9N2P1\OHZDE\08-Apr-2025\0\\#t hf
 aug-cc-pvdz iop(5/13=1,5/36=2,99/5=2) pseudo=read geom=check guess=(re
 ad,tcheck) scf=(maxcycle=1)\\title\\0,1\C,0,0.407648,0.371117,0.359318
 \N,0,-1.930719,-0.058987,0.74996\P,0,-2.931278,-0.305541,-0.628553\C,0
 ,1.36167,1.293315,-0.0945\C,0,2.639308,0.869687,-0.440824\C,0,2.988598
 ,-0.477147,-0.352255\C,0,2.037401,-1.393338,0.091671\C,0,0.756669,-0.9
 81652,0.448333\H,0,0.020258,-1.693613,0.796394\H,0,1.098826,2.344322,-
 0.16967\H,0,3.363895,1.597896,-0.788557\H,0,3.983705,-0.805939,-0.6271

 Normal termination of Gaussian 16 at Tue Apr  8 23:40:23 2025.
