 Gaussian 16, Revision C.01,

 ----------------------------------------------------------------------
 #t hf aug-cc-pvdz symm=none int=(grid=ultrafine) guess=(read,tcheck) s
 table=(opt,rrhf)
 ----------------------------------------------------------------------
 -----
 title
 -----
 Symbolic Z-matrix:
 Charge =  0 Multiplicity = 1

 SCF Done:  E(RHF) =  -906.407591176     A.U. after   12 cycles
 Normal termination of Gaussian 16 at Tue Apr  8 23:45:47 2025.
 Gaussian 16:  ES64L-G16RevC.01  3-Jul-2019

 ----------------------------------------------------------------------
 #t hf aug-cc-pvdz iop(5/13=1,5/36=2,99/5=2) pseudo=read geom=check gue
 ss=(read,tcheck) scf=(maxcycle=1)
 ----------------------------------------------------------------------
 -----
 title
 -----
 Structure from the checkpoint file:  "BDE49_nonexpt_1744_mol1.chk"
 Charge =  0 Multiplicity = 1

                         Standard orientation:
 ---------------------------------------------------------------------
 Center     Atomic      Atomic             Coordinates (Angstroms)
 Number     Number       Type             X           Y           Z
 ---------------------------------------------------------------------
      1         14           0       -0.799266    0.419244    0.403742
      2          6           0        0.946683    0.682324   -0.226660
      3          6           0        2.008754   -0.292517    0.313686
      4          1           0        1.222346    1.714705    0.032733
      5          1           0        0.924079    0.644383   -1.323165
      6          6           0       -2.005717    1.672506   -0.277560
      7          1           0       -1.720343    2.682001    0.035810
      8          1           0       -3.017199    1.477139    0.086504
      9          1           0       -2.026217    1.646531   -1.370185
     10         17           0       -1.448931   -1.496593   -0.170245
     11          6           0        3.414708   -0.004521   -0.222879
     12          1           0        1.724441   -1.317691    0.055911
     13          1           0        2.022696   -0.247678    1.408666
     14          1           0        3.442113   -0.078515   -1.314368
     15          1           0        4.144934   -0.713355    0.177472
     16          1           0        3.743776    1.003274    0.049234
     17          1           0       -0.825644    0.415123    1.883637
 ---------------------------------------------------------------------

 SCF Done:  E(RHF) =  -907.648038138     A.U. after    2 cycles

 The electronic state is 1-A.
 Alpha  occ. eigenvalues --  -99.86827 -76.23949 -11.41691 -11.37730 -11.35749
 Alpha  occ. eigenvalues --  -11.34721 -10.44199  -9.64131  -9.63630  -9.63524
 Alpha  occ. eigenvalues --   -5.57772  -2.21865  -2.20653  -2.19753  -1.27472
 Alpha  occ. eigenvalues --   -1.20755  -1.04995  -0.99699  -0.85057  -0.72490
 Alpha  occ. eigenvalues --   -0.64267  -0.58671  -0.58045  -0.56507  -0.54915
 Alpha  occ. eigenvalues --   -0.53972  -0.52303  -0.51707  -0.49791  -0.46740
 Alpha  occ. eigenvalues --   -0.46704  -0.42928  -0.37958
 Alpha virt. eigenvalues --    0.03388   0.04594   0.05660   0.05751   0.06098
 Alpha virt. eigenvalues --    0.06240   0.06531   0.06757   0.07828   0.08171
 Alpha virt. eigenvalues --    0.08442   0.09166   0.09669   0.11283   0.12016

 Mulliken charges:
               1
     1  Si   5.220502
     2  C   -3.541906
     3  C   -3.161339
     4  H    1.546665
     5  H    1.501363
     6  C   -5.124534
     7  H    1.404029
     8  H    1.240806
     9  H    1.301536
    10  Cl  -0.911808
    11  C   -3.745997
    12  H    1.408343
    13  H    1.517379
    14  H    1.259672
    15  H    1.140575
    16  H    1.282546
    17  H   -2.337831
 Sum of Mulliken charges =  -0.00000

 Dipole moment (field-independent basis, Debye):
    X=              0.9509    Y=              2.1145    Z=             -0.1428  Tot=              2.3229

 Test job not archived.
 1\1\GINC-SE364\SP\RHF\Aug-CC-pVDZ\C4H11Cl1Si1\OHZDE\08-Apr-2025\0\\#t
 hf aug-cc-pvdz iop(5/13=1,5/36=2,99/5=2) pseudo=read geom=check guess=
 (read,tcheck) scf=(maxcycle=1)\\title\\0,1\Si,0,-0.799266,0.419244,0.4
 03742\C,0,0.946683,0.682324,-0.22666\C,0,2.008754,-0.292517,0.313686\H
 ,0,1.222346,1.714705,0.032733\H,0,0.924079,0.644383,-1.323165\C,0,-2.0
 05717,1.672506,-0.27756\H,0,-1.720343,2.682001,0.03581\H,0,-3.017199,1
 .477139,0.086504\H,0,-2.026217,1.646531,-1.370185\Cl,0,-1.448931,-1.49
 6593,-0.170245\C,0,3.414708,-0.004521,-0.222879\H,0,1.724441,-1.317691

 Normal termination of Gaussian 16 at Tue Apr  8 23:45:53 2025.
