 Gaussian 16, Revision C.01,

 ----------------------------------------------------------------------
 #t hf aug-cc-pvdz symm=none int=(grid=ultrafine) guess=(read,tcheck) s
 table=(opt,rrhf)
 ----------------------------------------------------------------------
 -----
 title
 -----
 Symbolic Z-matrix:
 Charge =  0 Multiplicity = 1

 SCF Done:  E(RHF) =  -907.692898926     A.U. after   16 cycles
 Normal termination of Gaussian 16 at Tue Apr  8 23:34:38 2025.
 Gaussian 16:  ES64L-G16RevC.01  3-Jul-2019

 ----------------------------------------------------------------------
 #t hf aug-cc-pvdz iop(5/13=1,5/36=2,99/5=2) pseudo=read geom=check gue
 ss=(read,tcheck) scf=(maxcycle=1)
 ----------------------------------------------------------------------
 -----
 title
 -----
 Structure from the checkpoint file:  "BDE49_nonexpt_1423_mol1.chk"
 Charge =  0 Multiplicity = 1

                         Standard orientation:
 ---------------------------------------------------------------------
 Center     Atomic      Atomic             Coordinates (Angstroms)
 Number     Number       Type             X           Y           Z
 ---------------------------------------------------------------------
      1          6           0       -2.860115   -0.495672    0.013552
      2          6           0       -2.154053    0.704520    0.007772
      3          6           0       -0.754187    0.733939   -0.017047
      4          6           0       -2.176319   -1.705326   -0.012178
      5          6           0       -0.785608   -1.703992   -0.032928
      6          6           0       -0.076789   -0.502759   -0.025968
      7          1           0       -3.944020   -0.479816    0.029904
      8          1           0       -2.703253    1.638338    0.014996
      9         15           0        0.138513    2.364051    0.081923
     10          1           0       -0.241935   -2.638948   -0.052722
     11          1           0       -2.716376   -2.644536   -0.015507
     12          6           0        1.430830   -0.567306    0.005896
     13          9           0        1.898835   -1.803569   -0.263260
     14          9           0        1.995305    0.268415   -0.900401
     15          9           0        1.925741   -0.217878    1.214439
     16          1           0       -1.032442    3.156659   -0.001078
     17          1           0        0.438856    2.504394   -1.296028
 ---------------------------------------------------------------------

 SCF Done:  E(RHF) =  -910.161886847     A.U. after    2 cycles

 The electronic state is 1-A.
 Alpha  occ. eigenvalues -- -105.19519 -29.30773 -29.30496 -29.30150 -11.61744
 Alpha  occ. eigenvalues --  -11.53890 -11.47002 -11.45665 -11.43729 -11.43218
 Alpha  occ. eigenvalues --  -11.38748  -2.76305  -1.52285  -1.46763  -1.44759
 Alpha  occ. eigenvalues --   -1.44598  -1.31819  -1.11463  -1.10226  -0.92220
 Alpha  occ. eigenvalues --   -0.90233  -0.87630  -0.83609  -0.78317  -0.73046
 Alpha  occ. eigenvalues --   -0.66709  -0.62660  -0.58983  -0.53089  -0.52985
 Alpha  occ. eigenvalues --   -0.50029  -0.46611  -0.43750  -0.42919  -0.39382
 Alpha  occ. eigenvalues --   -0.36207  -0.35248  -0.32882  -0.30550  -0.27058
 Alpha  occ. eigenvalues --   -0.25135  -0.24716  -0.24000  -0.21085  -0.02895
 Alpha virt. eigenvalues --    0.03442   0.04856   0.05175   0.06625   0.07060
 Alpha virt. eigenvalues --    0.07660   0.08880   0.09689   0.10284   0.10340
 Alpha virt. eigenvalues --    0.11663   0.12355   0.12934   0.13484   0.13820

 Mulliken charges:
               1
     1  C   -1.653137
     2  C   -3.168661
     3  C    1.224901
     4  C   -1.433079
     5  C   -2.533541
     6  C    0.728372
     7  H    1.573616
     8  H    1.820914
     9  P    1.055420
    10  H    1.884333
    11  H    1.522507
    12  C   -0.360612
    13  F    0.451421
    14  F    0.213262
    15  F    0.145430
    16  H   -1.076979
    17  H   -0.394165
 Sum of Mulliken charges =  -0.00000

 Dipole moment (field-independent basis, Debye):
    X=              3.8001    Y=             -1.0612    Z=              2.8636  Tot=              4.8752

 Test job not archived.
 1\1\GINC-SE393\SP\RHF\Aug-CC-pVDZ\C7H6F3P1\OHZDE\08-Apr-2025\0\\#t hf
 aug-cc-pvdz iop(5/13=1,5/36=2,99/5=2) pseudo=read geom=check guess=(re
 ad,tcheck) scf=(maxcycle=1)\\title\\0,1\C,0,-2.860115,-0.495672,0.0135
 52\C,0,-2.154053,0.70452,0.007772\C,0,-0.754187,0.733939,-0.017047\C,0
 ,-2.176319,-1.705326,-0.012178\C,0,-0.785608,-1.703992,-0.032928\C,0,-
 0.076789,-0.502759,-0.025968\H,0,-3.94402,-0.479817,0.029904\H,0,-2.70
 3253,1.638338,0.014996\P,0,0.138513,2.364051,0.081923\H,0,-0.241934,-2
 .638948,-0.052722\H,0,-2.716375,-2.644536,-0.015507\C,0,1.43083,-0.567

 Normal termination of Gaussian 16 at Tue Apr  8 23:34:47 2025.
