 Gaussian 16, Revision C.01,

 ----------------------------------------------------------------------
 #t hf aug-cc-pvdz symm=none int=(grid=ultrafine) guess=(read,tcheck) s
 table=(opt,rrhf)
 ----------------------------------------------------------------------
 -----
 title
 -----
 Symbolic Z-matrix:
 Charge =  0 Multiplicity = 1

 SCF Done:  E(RHF) =  -1130.06339699     A.U. after   13 cycles
 Normal termination of Gaussian 16 at Tue Apr  8 23:43:32 2025.
 Gaussian 16:  ES64L-G16RevC.01  3-Jul-2019

 ----------------------------------------------------------------------
 #t hf aug-cc-pvdz iop(5/13=1,5/36=2,99/5=2) pseudo=read geom=check gue
 ss=(read,tcheck) scf=(maxcycle=1)
 ----------------------------------------------------------------------
 -----
 title
 -----
 Structure from the checkpoint file:  "BDE49_nonexpt_1674_mol1.chk"
 Charge =  0 Multiplicity = 1

                         Standard orientation:
 ---------------------------------------------------------------------
 Center     Atomic      Atomic             Coordinates (Angstroms)
 Number     Number       Type             X           Y           Z
 ---------------------------------------------------------------------
      1          6           0       -1.931689    1.733333    0.015275
      2         15           0       -1.594599    0.018084    0.678535
      3          1           0       -2.133747    1.749142   -1.058772
      4          1           0       -1.080497    2.384484    0.223832
      5          1           0       -2.798053    2.143579    0.540932
      6          6           0       -3.091366   -0.880713    0.006914
      7          1           0       -3.976525   -0.529254    0.544139
      8          1           0       -2.987815   -1.950564    0.198680
      9          1           0       -3.248598   -0.725756   -1.063729
     10         14           0       -0.053921   -0.709474   -0.848594
     11         15           0        2.132811   -0.211767   -0.451686
     12          6           0        2.323756   -0.906288    1.271652
     13          1           0        1.576822   -0.535601    1.977179
     14          1           0        3.319101   -0.645736    1.641134
     15          1           0        2.261053   -1.995910    1.229564
     16          6           0        2.051007    1.615958   -0.070770
     17          1           0        3.054556    1.957158    0.196331
     18          1           0        1.373006    1.860182    0.750361
     19          1           0        1.743971    2.163611   -0.964701
     20          1           0       -0.394413   -0.217177   -2.213154
     21          1           0       -0.137388   -2.194025   -0.862651
 ---------------------------------------------------------------------

 SCF Done:  E(RHF) =  -1131.46328422     A.U. after    2 cycles

 The electronic state is 1-A.
 Alpha  occ. eigenvalues -- -105.15602-105.15380 -76.21804 -11.37522 -11.37452
 Alpha  occ. eigenvalues --  -11.37276 -11.36899  -5.55341  -2.73707  -2.73485
 Alpha  occ. eigenvalues --   -2.17814  -2.17331  -2.17092  -1.46229  -1.45984
 Alpha  occ. eigenvalues --   -1.45378  -1.44948  -1.41330  -1.40892  -1.03888
 Alpha  occ. eigenvalues --   -1.02870  -0.96902  -0.96640  -0.74821  -0.63741
 Alpha  occ. eigenvalues --   -0.59650  -0.57659  -0.57312  -0.56779  -0.56455
 Alpha  occ. eigenvalues --   -0.55938  -0.55625  -0.54946  -0.54613  -0.47469
 Alpha  occ. eigenvalues --   -0.21835  -0.20476  -0.20299  -0.11507  -0.02831
 Alpha  occ. eigenvalues --    0.01782
 Alpha virt. eigenvalues --    0.04739   0.04990   0.05730   0.06101   0.06333
 Alpha virt. eigenvalues --    0.06702   0.06756   0.07115   0.07429   0.07462
 Alpha virt. eigenvalues --    0.08037   0.08371   0.09076   0.09732   0.10144

 Mulliken charges:
               1
     1  C   -6.310596
     2  P    5.128736
     3  H    1.308922
     4  H    1.325415
     5  H    1.151532
     6  C   -6.152504
     7  H    1.048000
     8  H    1.215757
     9  H    1.336124
    10  Si   3.996754
    11  P    4.779431
    12  C   -6.162548
    13  H    1.524363
    14  H    1.058877
    15  H    1.129603
    16  C   -6.001863
    17  H    0.916976
    18  H    1.465557
    19  H    1.278433
    20  H   -1.867526
    21  H   -2.169446
 Sum of Mulliken charges =   0.00000

 Dipole moment (field-independent basis, Debye):
    X=              0.8807    Y=              0.4542    Z=              3.7793  Tot=              3.9070

 Test job not archived.
 1\1\GINC-SE071\SP\RHF\Aug-CC-pVDZ\C4H14P2Si1\OHZDE\08-Apr-2025\0\\#t h
 f aug-cc-pvdz iop(5/13=1,5/36=2,99/5=2) pseudo=read geom=check guess=(
 read,tcheck) scf=(maxcycle=1)\\title\\0,1\C,0,-1.931689,1.733333,0.015
 275\P,0,-1.594599,0.018084,0.678535\H,0,-2.133747,1.749142,-1.058772\H
 ,0,-1.080497,2.384484,0.223832\H,0,-2.798053,2.143579,0.540932\C,0,-3.
 091366,-0.880713,0.006914\H,0,-3.976525,-0.529254,0.544139\H,0,-2.9878
 15,-1.950564,0.19868\H,0,-3.248598,-0.725756,-1.063729\Si,0,-0.053921,
 -0.709474,-0.848594\P,0,2.132811,-0.211767,-0.451686\C,0,2.323756,-0.9

 Normal termination of Gaussian 16 at Tue Apr  8 23:43:42 2025.
