 Gaussian 16, Revision C.01,

 ----------------------------------------------------------------------
 #t hf aug-cc-pvdz symm=none int=(grid=ultrafine) guess=(read,tcheck) s
 table=(opt,rrhf)
 ----------------------------------------------------------------------
 -----
 title
 -----
 Symbolic Z-matrix:
 Charge =  0 Multiplicity = 1

 SCF Done:  E(RHF) =  -175.654021963     A.U. after   11 cycles
 Normal termination of Gaussian 16 at Wed Apr  9 00:37:50 2025.
 Gaussian 16:  ES64L-G16RevC.01  3-Jul-2019

 ----------------------------------------------------------------------
 #t hf aug-cc-pvdz iop(5/13=1,5/36=2,99/5=2) pseudo=read geom=check gue
 ss=(read,tcheck) scf=(maxcycle=1)
 ----------------------------------------------------------------------
 -----
 title
 -----
 Structure from the checkpoint file:  "BDE49_nonexpt_563_mol1.chk"
 Charge =  0 Multiplicity = 1

                         Standard orientation:
 ---------------------------------------------------------------------
 Center     Atomic      Atomic             Coordinates (Angstroms)
 Number     Number       Type             X           Y           Z
 ---------------------------------------------------------------------
      1          5           0        0.055952   -0.000000   -0.010083
      2          7           0        0.760122   -1.232908   -0.002656
      3          7           0        0.760121    1.232910   -0.002656
      4          6           0       -1.533332   -0.000001    0.000752
      5          1           0       -1.955629   -0.881705   -0.491842
      6          1           0       -1.955630    0.881688   -0.491868
      7          1           0       -1.912314    0.000014    1.029868
      8          1           0        1.763800   -1.310880    0.024739
      9          1           0        0.287254   -2.120006   -0.006277
     10          1           0        1.763798    1.310883    0.024739
     11          1           0        0.287249    2.120006   -0.006277
 ---------------------------------------------------------------------

 SCF Done:  E(RHF) =  -176.509238873     A.U. after    2 cycles

 The electronic state is 1-A.
 Alpha  occ. eigenvalues --  -15.70085 -15.70028 -11.31552  -7.57931  -1.36614
 Alpha  occ. eigenvalues --   -1.22116  -1.02775  -0.75259  -0.66563  -0.65317
 Alpha  occ. eigenvalues --   -0.54947  -0.53794  -0.47750  -0.42807  -0.41585
 Alpha  occ. eigenvalues --   -0.33560
 Alpha virt. eigenvalues --    0.03603   0.04017   0.04133   0.04734   0.08165
 Alpha virt. eigenvalues --    0.08224   0.08951   0.08952   0.09966   0.09967
 Alpha virt. eigenvalues --    0.10399   0.16286   0.16502   0.17500   0.18382

 Mulliken charges:
               1
     1  B    5.934582
     2  N   -3.051660
     3  N   -3.051673
     4  C   -5.836902
     5  H    1.040006
     6  H    1.040006
     7  H    0.923701
     8  H    0.828331
     9  H    0.672640
    10  H    0.828326
    11  H    0.672642
 Sum of Mulliken charges =   0.00000

 Dipole moment (field-independent basis, Debye):
    X=              0.8696    Y=             -0.0000    Z=              0.0690  Tot=              0.8723

 Test job not archived.
 1\1\GINC-SE329\SP\RHF\Aug-CC-pVDZ\C1H7B1N2\OHZDE\09-Apr-2025\0\\#t hf
 aug-cc-pvdz iop(5/13=1,5/36=2,99/5=2) pseudo=read geom=check guess=(re
 ad,tcheck) scf=(maxcycle=1)\\title\\0,1\B,0,0.055952,0.,-0.010083\N,0,
 0.760123,-1.232908,-0.002656\N,0,0.76012,1.23291,-0.002656\C,0,-1.5333
 32,-0.000002,0.000752\H,0,-1.955629,-0.881706,-0.491842\H,0,-1.955631,
 0.881687,-0.491868\H,0,-1.912314,0.000013,1.029868\H,0,1.763801,-1.310
 879,0.024739\H,0,0.287255,-2.120006,-0.006277\H,0,1.763797,1.310884,0.
 024739\H,0,0.287248,2.120006,-0.006277\\Version=ES64L-G16RevC.01\State

 Normal termination of Gaussian 16 at Wed Apr  9 00:37:52 2025.
