 Gaussian 16, Revision C.01,

 ----------------------------------------------------------------------
 #t hf aug-cc-pvdz symm=none int=(grid=ultrafine) guess=(read,tcheck) s
 table=opt
 ----------------------------------------------------------------------
 -----
 title
 -----
 Symbolic Z-matrix:
 Charge =  0 Multiplicity = 2

 SCF Done:  E(UHF) =  -834.637025381     A.U. after   20 cycles
 Normal termination of Gaussian 16 at Tue Apr  8 23:53:18 2025.
 Gaussian 16:  ES64L-G16RevC.01  3-Jul-2019

 ----------------------------------------------------------------------
 #t hf aug-cc-pvdz iop(5/13=1,5/36=2,99/5=2) pseudo=read geom=check gue
 ss=(read,tcheck) scf=(maxcycle=1)
 ----------------------------------------------------------------------
 -----
 title
 -----
 Structure from the checkpoint file:  "BDE49_nonexpt_1927_mol2.chk"
 Charge =  0 Multiplicity = 2

                         Standard orientation:
 ---------------------------------------------------------------------
 Center     Atomic      Atomic             Coordinates (Angstroms)
 Number     Number       Type             X           Y           Z
 ---------------------------------------------------------------------
      1          6           0        1.633789    0.720331   -0.006067
      2         16           0        0.597766   -0.632902   -0.012914
      3         16           0       -1.366988    0.189587   -0.061692
      4          1           0       -1.444286    0.518461    1.243081
      5          1           0        1.395574    1.610262   -0.571892
      6          1           0        2.553528    0.642328    0.558897
 ---------------------------------------------------------------------

 SCF Done:  E(UHF) =  -835.267532823     A.U. after    2 cycles

 The electronic state is 2-A.
 Alpha  occ. eigenvalues --  -75.72335 -75.72046 -13.14269 -13.13769 -13.10053
 Alpha  occ. eigenvalues --  -13.07875 -13.04593 -13.03920 -11.40807  -8.06346
 Alpha  occ. eigenvalues --   -8.05716  -1.25596  -1.08159  -0.89431  -0.63096
 Alpha  occ. eigenvalues --   -0.53510  -0.47594  -0.45775  -0.33152  -0.27521
 Alpha  occ. eigenvalues --   -0.22087
 Alpha virt. eigenvalues --    0.02755   0.03644   0.05171   0.06531   0.09054
 Alpha virt. eigenvalues --    0.12420   0.13790   0.14377   0.14544   0.15397
 Alpha virt. eigenvalues --    0.15627   0.17629   0.19649   0.20299   0.20790

  Beta  occ. eigenvalues --  -75.72325 -75.71973 -13.14342 -13.13871 -13.10150
  Beta  occ. eigenvalues --  -13.07776 -13.04033 -13.03832 -11.38610  -8.06324
  Beta  occ. eigenvalues --   -8.05620  -1.23662  -1.05270  -0.84698  -0.61681
  Beta  occ. eigenvalues --   -0.52616  -0.45881  -0.37320  -0.28377  -0.25709
  Beta virt. eigenvalues --    0.02486   0.03257   0.05179   0.06688   0.08206
  Beta virt. eigenvalues --    0.09385   0.12548   0.14061   0.14656   0.14874
  Beta virt. eigenvalues --    0.15821   0.16999   0.18551   0.19963   0.21104

 Mulliken charges and spin densities:
               1          2
     1  C   -3.360720   1.206843
     2  S    0.486090  -0.078051
     3  S   -1.176671   0.032750
     4  H    1.216667   0.014896
     5  H    1.401946  -0.088718
     6  H    1.432687  -0.087720
 Sum of Mulliken charges =  -0.00000   1.00000

 Dipole moment (field-independent basis, Debye):
    X=             -0.3374    Y=             -0.8413    Z=             -0.7945  Tot=              1.2054
                          Isotropic Fermi Contact Couplings
        Atom                 a.u.       MegaHertz       Gauss      10(-4) cm-1
     1  C(13)              0.11699     131.52094      46.92994      43.87066
     2  S(33)              0.10201      35.03792      12.50240      11.68739
     3  S(33)              0.15398      52.88952      18.87230      17.64204
     4  H(1)               0.00248      11.10154       3.96131       3.70307
     5  H(1)              -0.01648     -73.68178     -26.29149     -24.57759
     6  H(1)              -0.01675     -74.85194     -26.70903     -24.96792
 --------------------------------------------------------
       Center         ----  Spin Dipole Couplings  ----

 Normal termination of Gaussian 16 at Tue Apr  8 23:53:20 2025.
