 Gaussian 16, Revision C.01,

 ----------------------------------------------------------------------
 #t hf aug-cc-pvdz symm=none int=(grid=ultrafine) guess=(read,tcheck) s
 table=opt
 ----------------------------------------------------------------------
 -----
 title
 -----
 Symbolic Z-matrix:
 Charge =  0 Multiplicity = 2

 SCF Done:  E(UHF) =  -1544.23533709     A.U. after   15 cycles
 Normal termination of Gaussian 16 at Tue Apr  8 23:46:26 2025.
 Gaussian 16:  ES64L-G16RevC.01  3-Jul-2019

 ----------------------------------------------------------------------
 #t hf aug-cc-pvdz iop(5/13=1,5/36=2,99/5=2) pseudo=read geom=check gue
 ss=(read,tcheck) scf=(maxcycle=1)
 ----------------------------------------------------------------------
 -----
 title
 -----
 Structure from the checkpoint file:  "BDE49_nonexpt_1764_mol2.chk"
 Charge =  0 Multiplicity = 2

                         Standard orientation:
 ---------------------------------------------------------------------
 Center     Atomic      Atomic             Coordinates (Angstroms)
 Number     Number       Type             X           Y           Z
 ---------------------------------------------------------------------
      1         14           0        0.702827   -0.420225    0.000000
      2          6           0       -0.230808    1.293776    0.000000
      3         17           0        0.109374   -1.428047    1.699882
      4         17           0        0.109374   -1.428047   -1.699882
      5          9           0        0.109374    2.013747   -1.089877
      6          9           0        0.109374    2.013747    1.089877
      7          9           0       -1.571351    1.158515   -0.000000
 ---------------------------------------------------------------------

 SCF Done:  E(UHF) =  -1546.01976354     A.U. after    2 cycles

 The electronic state is 2-A'.
 Alpha  occ. eigenvalues --  -99.92486 -99.92479 -76.35040 -29.32404 -29.32375
 Alpha  occ. eigenvalues --  -29.32300 -11.57391 -10.49907 -10.49864  -9.69833
 Alpha  occ. eigenvalues --   -9.69812  -9.69150  -9.69109  -9.69085  -9.68970
 Alpha  occ. eigenvalues --   -5.68621  -2.31092  -2.30685  -2.28694  -1.40444
 Alpha  occ. eigenvalues --   -1.34159  -1.31846  -0.88947  -0.88941  -0.85686
 Alpha  occ. eigenvalues --   -0.69651  -0.62407  -0.59695  -0.57635  -0.56901
 Alpha  occ. eigenvalues --   -0.54627  -0.49338  -0.44771  -0.44703  -0.40194
 Alpha  occ. eigenvalues --   -0.37905  -0.37363  -0.27668  -0.27517  -0.25024
 Alpha  occ. eigenvalues --   -0.22816
 Alpha virt. eigenvalues --    0.04681   0.05400   0.05493   0.07740   0.08778
 Alpha virt. eigenvalues --    0.09841   0.11811   0.12118   0.13360   0.14159
 Alpha virt. eigenvalues --    0.14222   0.14585   0.15760   0.16390   0.17246

  Beta  occ. eigenvalues --  -99.92371 -99.92364 -76.34428 -29.32420 -29.32380
  Beta  occ. eigenvalues --  -29.32202 -11.57074 -10.49781 -10.49738  -9.69561
  Beta  occ. eigenvalues --   -9.69547  -9.69083  -9.68957  -9.68841  -9.68762
  Beta  occ. eigenvalues --   -5.67595  -2.30446  -2.30033  -2.25320  -1.39767
  Beta  occ. eigenvalues --   -1.33204  -1.30927  -0.88753  -0.88683  -0.82598
  Beta  occ. eigenvalues --   -0.67782  -0.61107  -0.58427  -0.57158  -0.55844
  Beta  occ. eigenvalues --   -0.54446  -0.49186  -0.44723  -0.44542  -0.37875
  Beta  occ. eigenvalues --   -0.37736  -0.28563  -0.27548  -0.27487  -0.22785
  Beta virt. eigenvalues --   -0.01286   0.05559   0.05795   0.05854   0.08159
  Beta virt. eigenvalues --    0.10133   0.10312   0.12079   0.13677   0.13840
  Beta virt. eigenvalues --    0.14829   0.15116   0.15146   0.15811   0.16564

 Mulliken charges and spin densities:
               1          2
     1  Si   1.917350   0.828567
     2  C   -1.040264   0.067401
     3  Cl  -0.786555   0.043309
     4  Cl  -0.786555   0.043309
     5  F    0.277254  -0.011175
     6  F    0.277254  -0.011175
     7  F    0.141515   0.039763
 Sum of Mulliken charges =  -0.00000   1.00000

 Dipole moment (field-independent basis, Debye):
    X=             -0.3180    Y=              3.4045    Z=             -0.0000  Tot=              3.4193
                          Isotropic Fermi Contact Couplings
        Atom                 a.u.       MegaHertz       Gauss      10(-4) cm-1
     1  Si(29)             0.71633    -636.62280    -227.16285    -212.35451
     2  C(13)              0.03749      42.14937      15.03994      14.05952
     3  Cl(35)             0.06969      30.55808      10.90388      10.19308
     4  Cl(35)             0.06969      30.55808      10.90388      10.19308
     5  F(19)             -0.00339     -14.26782      -5.09111      -4.75923
     6  F(19)             -0.00339     -14.26782      -5.09111      -4.75923
     7  F(19)              0.01001      42.12096      15.02981      14.05004
 --------------------------------------------------------

 Normal termination of Gaussian 16 at Tue Apr  8 23:46:29 2025.
