 Gaussian 16, Revision C.01,

 ----------------------------------------------------------------------
 #t hf aug-cc-pvdz symm=none int=(grid=ultrafine) guess=(read,tcheck) s
 table=(opt,rrhf)
 ----------------------------------------------------------------------
 -----
 title
 -----
 Symbolic Z-matrix:
 Charge =  0 Multiplicity = 1

 SCF Done:  E(RHF) =  -564.310698082     A.U. after   16 cycles
 Normal termination of Gaussian 16 at Tue Apr  8 22:41:54 2025.
 Gaussian 16:  ES64L-G16RevC.01  3-Jul-2019

 ----------------------------------------------------------------------
 #t hf aug-cc-pvdz iop(5/13=1,5/36=2,99/5=2) pseudo=read geom=check gue
 ss=(read,tcheck) scf=(maxcycle=1)
 ----------------------------------------------------------------------
 -----
 title
 -----
 Structure from the checkpoint file:  "BDE49_expt_1265_mol1.chk"
 Charge =  0 Multiplicity = 1

                         Standard orientation:
 ---------------------------------------------------------------------
 Center     Atomic      Atomic             Coordinates (Angstroms)
 Number     Number       Type             X           Y           Z
 ---------------------------------------------------------------------
      1          6           0       -0.291694   -0.145799   -0.435187
      2          7           0       -1.457786   -1.033384    0.018958
      3          7           0       -0.643232    1.288106   -0.056062
      4          8           0       -1.353016   -2.202394   -0.304122
      5          8           0       -2.369413   -0.524735    0.635533
      6          8           0       -0.334974    1.666615    1.057883
      7          8           0       -1.207480    1.938410   -0.917049
      8          1           0       -0.313678   -0.177435   -1.522158
      9          6           0        1.016809   -0.615033    0.170788
     10          6           0        2.235477    0.136855   -0.381892
     11          1           0        1.097502   -1.681728   -0.051321
     12          1           0        0.955923   -0.498487    1.255580
     13          6           0        3.545633   -0.394153    0.206023
     14          1           0        2.142908    1.203350   -0.155879
     15          1           0        2.256949    0.043852   -1.473746
     16          1           0        3.563063   -0.283321    1.293793
     17          1           0        4.401992    0.150529   -0.197599
     18          1           0        3.684175   -1.454209   -0.025292
 ---------------------------------------------------------------------

 SCF Done:  E(RHF) =  -566.796991275     A.U. after    2 cycles

 The electronic state is 1-A.
 Alpha  occ. eigenvalues --  -21.13190 -21.12537 -21.12444 -21.12262 -16.03084
 Alpha  occ. eigenvalues --  -16.02327 -11.56715 -11.46581 -11.42618 -11.38623
 Alpha  occ. eigenvalues --   -2.04348  -2.01075  -1.72838  -1.72214  -1.33888
 Alpha  occ. eigenvalues --   -1.20655  -1.04014  -1.01446  -0.88983  -0.84053
 Alpha  occ. eigenvalues --   -0.76372  -0.75328  -0.71836  -0.67522  -0.64400
 Alpha  occ. eigenvalues --   -0.63796  -0.62608  -0.60869  -0.57895  -0.55780
 Alpha  occ. eigenvalues --   -0.50732  -0.50084  -0.49458  -0.40200  -0.36385
 Alpha  occ. eigenvalues --   -0.35710  -0.33918  -0.33539  -0.32134
 Alpha virt. eigenvalues --    0.03233   0.04379   0.05000   0.05300   0.06006
 Alpha virt. eigenvalues --    0.06476   0.07224   0.08319   0.09854   0.10959
 Alpha virt. eigenvalues --    0.11557   0.12923   0.13291   0.13847   0.14239

 Mulliken charges:
               1
     1  C   -2.268813
     2  N    4.540757
     3  N    4.793611
     4  O   -2.949684
     5  O   -2.761387
     6  O   -3.054032
     7  O   -2.805901
     8  H    2.305417
     9  C   -0.930557
    10  C   -2.889843
    11  H    1.570074
    12  H    1.744303
    13  C   -3.858284
    14  H    1.529601
    15  H    1.400793
    16  H    1.277201
    17  H    1.074408
    18  H    1.282335
 Sum of Mulliken charges =  -0.00000

 Dipole moment (field-independent basis, Debye):
    X=              2.6362    Y=             -0.6913    Z=             -0.5078  Tot=              2.7722

 Test job not archived.
 1\1\GINC-SE105\SP\RHF\Aug-CC-pVDZ\C4H8N2O4\OHZDE\08-Apr-2025\0\\#t hf
 aug-cc-pvdz iop(5/13=1,5/36=2,99/5=2) pseudo=read geom=check guess=(re
 ad,tcheck) scf=(maxcycle=1)\\title\\0,1\C,0,-0.291694,-0.145799,-0.435
 187\N,0,-1.457786,-1.033384,0.018958\N,0,-0.643232,1.288106,-0.056062\
 O,0,-1.353016,-2.202394,-0.304122\O,0,-2.369413,-0.524735,0.635533\O,0
 ,-0.334974,1.666615,1.057883\O,0,-1.20748,1.93841,-0.917049\H,0,-0.313
 678,-0.177435,-1.522158\C,0,1.016809,-0.615033,0.170788\C,0,2.235477,0
 .136855,-0.381892\H,0,1.097502,-1.681728,-0.051321\H,0,0.955923,-0.498

 Normal termination of Gaussian 16 at Tue Apr  8 22:42:03 2025.
