 Gaussian 16, Revision C.01,

 ----------------------------------------------------------------------
 #t hf aug-cc-pvdz symm=none int=(grid=ultrafine) guess=(read,tcheck) s
 table=(opt,rrhf)
 ----------------------------------------------------------------------
 -----
 title
 -----
 Symbolic Z-matrix:
 Charge =  0 Multiplicity = 1

 SCF Done:  E(RHF) =  -583.509987399     A.U. after   12 cycles
 Normal termination of Gaussian 16 at Wed Apr  9 00:46:08 2025.
 Gaussian 16:  ES64L-G16RevC.01  3-Jul-2019

 ----------------------------------------------------------------------
 #t hf aug-cc-pvdz iop(5/13=1,5/36=2,99/5=2) pseudo=read geom=check gue
 ss=(read,tcheck) scf=(maxcycle=1)
 ----------------------------------------------------------------------
 -----
 title
 -----
 Structure from the checkpoint file:  "BDE49_nonexpt_782_mol1.chk"
 Charge =  0 Multiplicity = 1

                         Standard orientation:
 ---------------------------------------------------------------------
 Center     Atomic      Atomic             Coordinates (Angstroms)
 Number     Number       Type             X           Y           Z
 ---------------------------------------------------------------------
      1         14           0        0.391019    0.626551   -0.399294
      2          5           0       -1.376221   -0.299380    0.029671
      3          8           0       -2.355944   -0.587682   -0.887357
      4          8           0       -1.611564   -0.652874    1.326360
      5          6           0        1.862707   -0.332348    0.310362
      6          6           0        1.974832   -1.790568   -0.165241
      7          1           0        1.780089   -0.303806    1.403359
      8          1           0        2.779797    0.215194    0.061643
      9          1           0        2.062116   -1.852264   -1.254297
     10          1           0        1.096490   -2.372864    0.128629
     11          6           0        0.400403    2.401260    0.253090
     12          1           0        1.348405    2.899289    0.029546
     13          1           0        0.259071    2.413276    1.337607
     14          1           0       -0.402231    2.994861   -0.193475
     15          1           0        2.851503   -2.287256    0.261398
     16          1           0       -2.122890   -0.331446   -1.783349
     17          1           0       -2.473249   -1.076707    1.436640
     18          1           0        0.540150    0.681290   -1.887235
 ---------------------------------------------------------------------

 SCF Done:  E(RHF) =  -585.019784343     A.U. after    2 cycles

 The electronic state is 1-A.
 Alpha  occ. eigenvalues --  -76.18139 -21.06403 -21.05470 -11.39025 -11.34313
 Alpha  occ. eigenvalues --  -11.33916  -7.62969  -5.52088  -2.16175  -2.15490
 Alpha  occ. eigenvalues --   -2.14466  -1.80761  -1.65046  -1.14480  -1.02796
 Alpha  occ. eigenvalues --   -0.88172  -0.76984  -0.68841  -0.62481  -0.60030
 Alpha  occ. eigenvalues --   -0.56612  -0.55290  -0.55048  -0.52487  -0.48889
 Alpha  occ. eigenvalues --   -0.48217  -0.47945  -0.42773  -0.41980  -0.37313
 Alpha  occ. eigenvalues --   -0.36359  -0.32292
 Alpha virt. eigenvalues --    0.03641   0.04060   0.04313   0.04651   0.06456
 Alpha virt. eigenvalues --    0.06862   0.07122   0.07160   0.07424   0.08228
 Alpha virt. eigenvalues --    0.08725   0.08764   0.09297   0.09464   0.09812

 Mulliken charges:
               1
     1  Si   5.151038
     2  B    6.189849
     3  O   -4.123801
     4  O   -4.315771
     5  C   -3.907925
     6  C   -3.999041
     7  H    1.486668
     8  H    1.356412
     9  H    1.271768
    10  H    1.352768
    11  C   -5.378517
    12  H    1.263207
    13  H    1.358612
    14  H    1.213831
    15  H    1.105289
    16  H    1.273467
    17  H    1.143278
    18  H   -2.441134
 Sum of Mulliken charges =  -0.00000

 Dipole moment (field-independent basis, Debye):
    X=             -0.0110    Y=              0.1507    Z=             -0.0693  Tot=              0.1662

 Test job not archived.
 1\1\GINC-SE253\SP\RHF\Aug-CC-pVDZ\C3H11B1O2Si1\OHZDE\09-Apr-2025\0\\#t
  hf aug-cc-pvdz iop(5/13=1,5/36=2,99/5=2) pseudo=read geom=check guess
 =(read,tcheck) scf=(maxcycle=1)\\title\\0,1\Si,0,0.391019,0.626551,-0.
 399294\B,0,-1.376221,-0.29938,0.029671\O,0,-2.355944,-0.587683,-0.8873
 57\O,0,-1.611564,-0.652874,1.32636\C,0,1.862707,-0.332347,0.310362\C,0
 ,1.974832,-1.790567,-0.165241\H,0,1.780089,-0.303805,1.403359\H,0,2.77
 9797,0.215195,0.061643\H,0,2.062116,-1.852263,-1.254297\H,0,1.096491,-
 2.372864,0.128629\C,0,0.400402,2.40126,0.25309\H,0,1.348404,2.899289,0

 Normal termination of Gaussian 16 at Wed Apr  9 00:46:15 2025.
