 Gaussian 16, Revision C.01,

 ----------------------------------------------------------------------
 #t hf aug-cc-pvdz symm=none int=(grid=ultrafine) guess=(read,tcheck) s
 table=(opt,rrhf)
 ----------------------------------------------------------------------
 -----
 title
 -----
 Symbolic Z-matrix:
 Charge =  0 Multiplicity = 1

 SCF Done:  E(RHF) =  -1030.45859867     A.U. after   14 cycles

 1\1\GINC-SE334\Stability\RHF\Aug-CC-pVDZ\C6H14S2\OHZDE\08-Apr-2025\0\\
 #t hf aug-cc-pvdz symm=none int=(grid=ultrafine) guess=(read,tcheck) s
 table=(opt,rrhf)\\title\\0,1\S,0,-0.912256,-0.935908,-0.930604\S,0,0.4
 46671,-1.520404,0.536068\C,0,1.565364,-0.071153,0.747187\C,0,-2.378915
 ,-0.36131,0.030823\C,0,-2.24001,0.975508,0.759498\H,0,-2.643997,-1.161
 903,0.722679\H,0,-3.164523,-0.310315,-0.732082\C,0,2.476673,0.20898,-0
 .445523\H,0,2.153525,-0.34369,1.631204\H,0,0.96657,0.803303,1.008475\C
 ,0,3.413619,1.396356,-0.195343\H,0,1.858509,0.404698,-1.326851\H,0,3.0

 Normal termination of Gaussian 16 at Tue Apr  8 23:02:04 2025.
 Gaussian 16:  ES64L-G16RevC.01  3-Jul-2019

 ----------------------------------------------------------------------
 #t hf aug-cc-pvdz iop(5/13=1,5/36=2,99/5=2) pseudo=read geom=check gue
 ss=(read,tcheck) scf=(maxcycle=1)
 ----------------------------------------------------------------------
 -----
 title
 -----
 Structure from the checkpoint file:  "BDE49_expt_1958_mol1.chk"
 Charge =  0 Multiplicity = 1

                         Standard orientation:
 ---------------------------------------------------------------------
 Center     Atomic      Atomic             Coordinates (Angstroms)
 Number     Number       Type             X           Y           Z
 ---------------------------------------------------------------------
      1         16           0       -0.912256   -0.935908   -0.930604
      2         16           0        0.446671   -1.520404    0.536068
      3          6           0        1.565364   -0.071153    0.747187
      4          6           0       -2.378915   -0.361310    0.030823
      5          6           0       -2.240010    0.975508    0.759498
      6          1           0       -2.643997   -1.161903    0.722679
      7          1           0       -3.164523   -0.310315   -0.732082
      8          6           0        2.476673    0.208980   -0.445523
      9          1           0        2.153525   -0.343690    1.631204
     10          1           0        0.966570    0.803303    1.008475
     11          6           0        3.413619    1.396356   -0.195343
     12          1           0        1.858509    0.404698   -1.326851
     13          1           0        3.059883   -0.690221   -0.666842
     14          1           0        2.850802    2.314761   -0.002274
     15          1           0        4.054303    1.576676   -1.062369
     16          1           0        4.064095    1.217726    0.666471
     17          6           0       -2.038522    2.182527   -0.159053
     18          1           0       -1.420086    0.903843    1.481213
     19          1           0       -3.150394    1.118653    1.354712
     20          1           0       -1.132190    2.078579   -0.760282
     21          1           0       -1.954990    3.105308    0.420714
     22          1           0       -2.881414    2.298137   -0.847723
 ---------------------------------------------------------------------

 SCF Done:  E(RHF) =  -1032.15267367     A.U. after    2 cycles

 The electronic state is 1-A.
 Alpha  occ. eigenvalues --  -75.69436 -75.69256 -13.15179 -13.12426 -13.09865
 Alpha  occ. eigenvalues --  -13.08516 -13.06203 -13.04976 -11.42993 -11.42782
 Alpha  occ. eigenvalues --  -11.39498 -11.39437 -11.35914 -11.35671  -8.03255
 Alpha  occ. eigenvalues --   -8.03153  -1.28729  -1.22584  -1.14436  -1.05668
 Alpha  occ. eigenvalues --   -0.97502  -0.91020  -0.84339  -0.81355  -0.65185
 Alpha  occ. eigenvalues --   -0.63427  -0.62300  -0.58545  -0.56844  -0.55633
 Alpha  occ. eigenvalues --   -0.53786  -0.50890  -0.48317  -0.47587  -0.47289
 Alpha  occ. eigenvalues --   -0.47038  -0.42306  -0.39490  -0.32986  -0.23744
 Alpha  occ. eigenvalues --   -0.23129
 Alpha virt. eigenvalues --    0.03626   0.03730   0.04428   0.05464   0.05802
 Alpha virt. eigenvalues --    0.05910   0.06086   0.06346   0.06823   0.07144
 Alpha virt. eigenvalues --    0.07660   0.08332   0.09081   0.09594   0.10842

 Mulliken charges:
               1
     1  S    0.092082
     2  S    0.046779
     3  C   -3.524971
     4  C   -3.529935
     5  C   -3.006840
     6  H    1.526027
     7  H    1.592833
     8  C   -3.294769
     9  H    1.579331
    10  H    1.971878
    11  C   -3.719872
    12  H    1.671493
    13  H    1.538022
    14  H    1.288421
    15  H    1.190936
    16  H    1.295606
    17  C   -3.973096
    18  H    1.819939
    19  H    1.324508
    20  H    1.689750
    21  H    1.201180
    22  H    1.220699
 Sum of Mulliken charges =   0.00000

 Dipole moment (field-independent basis, Debye):
    X=              0.0467    Y=             -0.2841    Z=             -0.2629  Tot=              0.3899

 Test job not archived.
 1\1\GINC-SE334\SP\RHF\Aug-CC-pVDZ\C6H14S2\OHZDE\08-Apr-2025\0\\#t hf a
 ug-cc-pvdz iop(5/13=1,5/36=2,99/5=2) pseudo=read geom=check guess=(rea
 d,tcheck) scf=(maxcycle=1)\\title\\0,1\S,0,-0.912256,-0.935908,-0.9306
 04\S,0,0.446671,-1.520404,0.536068\C,0,1.565364,-0.071153,0.747187\C,0
 ,-2.378915,-0.36131,0.030823\C,0,-2.24001,0.975508,0.759498\H,0,-2.643
 997,-1.161903,0.722679\H,0,-3.164523,-0.310315,-0.732082\C,0,2.476673,
 0.20898,-0.445523\H,0,2.153525,-0.34369,1.631204\H,0,0.96657,0.803303,
 1.008475\C,0,3.413619,1.396356,-0.195343\H,0,1.858509,0.404698,-1.3268

 Normal termination of Gaussian 16 at Tue Apr  8 23:02:15 2025.
