 Gaussian 16, Revision C.01,

 ----------------------------------------------------------------------
 #t hf aug-cc-pvdz symm=none int=(grid=ultrafine) guess=(read,tcheck) s
 table=(opt,rrhf)
 ----------------------------------------------------------------------
 -----
 title
 -----
 Symbolic Z-matrix:
 Charge =  0 Multiplicity = 1

 SCF Done:  E(RHF) =  -884.009428367     A.U. after   12 cycles
 Normal termination of Gaussian 16 at Wed Apr  9 00:16:16 2025.
 Gaussian 16:  ES64L-G16RevC.01  3-Jul-2019

 ----------------------------------------------------------------------
 #t hf aug-cc-pvdz iop(5/13=1,5/36=2,99/5=2) pseudo=read geom=check gue
 ss=(read,tcheck) scf=(maxcycle=1)
 ----------------------------------------------------------------------
 -----
 title
 -----
 Structure from the checkpoint file:  "BDE49_nonexpt_2489_mol1.chk"
 Charge =  0 Multiplicity = 1

                         Standard orientation:
 ---------------------------------------------------------------------
 Center     Atomic      Atomic             Coordinates (Angstroms)
 Number     Number       Type             X           Y           Z
 ---------------------------------------------------------------------
      1          6           0        2.043669    0.669853    0.772673
      2          6           0        1.600322   -0.785561    0.603446
      3         16           0        0.403705   -1.090470   -0.783785
      4          1           0        1.159259   -1.172075    1.524109
      5          1           0        2.459329   -1.418704    0.367816
      6         14           0       -1.504949   -0.931073    0.212458
      7          6           0       -2.057929    0.816602    0.654788
      8          6           0        2.827433    1.228966   -0.416511
      9          1           0        2.667512    0.717966    1.674531
     10          1           0        1.169446    1.298442    0.969621
     11          1           0        3.731249    0.640230   -0.602924
     12          1           0        3.135070    2.261232   -0.231151
     13          1           0        2.225279    1.215054   -1.327879
     14          6           0       -2.223155    1.772467   -0.537937
     15          1           0       -1.353014    1.233089    1.383512
     16          1           0       -3.010317    0.711075    1.191443
     17          1           0       -1.282270    1.899898   -1.079356
     18          1           0       -2.556003    2.761963   -0.211705
     19          1           0       -2.962104    1.395608   -1.250933
     20          1           0       -1.458272   -1.745979    1.453174
     21          1           0       -2.457183   -1.529227   -0.752859
 ---------------------------------------------------------------------

 SCF Done:  E(RHF) =  -885.439312819     A.U. after    2 cycles

 The electronic state is 1-A.
 Alpha  occ. eigenvalues --  -76.22497 -75.66036 -13.11044 -13.06786 -13.03811
 Alpha  occ. eigenvalues --  -11.43175 -11.39703 -11.39409 -11.35608 -11.34993
 Alpha  occ. eigenvalues --   -8.00143  -5.56041  -2.19795  -2.18281  -2.18103
 Alpha  occ. eigenvalues --   -1.24455  -1.15181  -1.09121  -0.95564  -0.89508
 Alpha  occ. eigenvalues --   -0.83127  -0.71749  -0.63427  -0.61980  -0.61079
 Alpha  occ. eigenvalues --   -0.57478  -0.56471  -0.51219  -0.50109  -0.49057
 Alpha  occ. eigenvalues --   -0.47865  -0.47525  -0.46006  -0.40597  -0.39256
 Alpha  occ. eigenvalues --   -0.31221  -0.24905
 Alpha virt. eigenvalues --    0.03659   0.04236   0.04757   0.05202   0.05815
 Alpha virt. eigenvalues --    0.05900   0.06112   0.06507   0.07261   0.07389
 Alpha virt. eigenvalues --    0.07475   0.07991   0.09129   0.09533   0.10558

 Mulliken charges:
               1
     1  C   -3.264303
     2  C   -3.323471
     3  S   -1.220777
     4  H    1.377052
     5  H    1.592961
     6  Si   6.419434
     7  C   -4.143735
     8  C   -3.761614
     9  H    1.328356
    10  H    1.876940
    11  H    1.280320
    12  H    1.193454
    13  H    1.495523
    14  C   -3.638195
    15  H    1.638707
    16  H    1.345740
    17  H    1.355610
    18  H    1.193179
    19  H    1.296097
    20  H   -1.880459
    21  H   -2.160819
 Sum of Mulliken charges =  -0.00000

 Dipole moment (field-independent basis, Debye):
    X=              1.1911    Y=              0.6071    Z=             -0.4159  Tot=              1.4001

 Test job not archived.
 1\1\GINC-SE284\SP\RHF\Aug-CC-pVDZ\C5H14S1Si1\OHZDE\09-Apr-2025\0\\#t h
 f aug-cc-pvdz iop(5/13=1,5/36=2,99/5=2) pseudo=read geom=check guess=(
 read,tcheck) scf=(maxcycle=1)\\title\\0,1\C,0,2.043669,0.669853,0.7726
 73\C,0,1.600322,-0.785561,0.603446\S,0,0.403705,-1.09047,-0.783785\H,0
 ,1.159259,-1.172075,1.524109\H,0,2.459329,-1.418704,0.367816\Si,0,-1.5
 04949,-0.931073,0.212458\C,0,-2.057929,0.816602,0.654788\C,0,2.827433,
 1.228966,-0.416511\H,0,2.667512,0.717966,1.674531\H,0,1.169446,1.29844
 2,0.969621\H,0,3.731249,0.64023,-0.602924\H,0,3.13507,2.261232,-0.2311

 Normal termination of Gaussian 16 at Wed Apr  9 00:16:25 2025.
