 Gaussian 16, Revision C.01,

 ----------------------------------------------------------------------
 #t hf aug-cc-pvdz symm=none int=(grid=ultrafine) guess=(read,tcheck) s
 table=opt
 ----------------------------------------------------------------------
 -----
 title
 -----
 Symbolic Z-matrix:
 Charge =  0 Multiplicity = 2

 SCF Done:  E(UHF) =  -671.385860384     A.U. after   17 cycles
 Normal termination of Gaussian 16 at Wed Apr  9 00:10:14 2025.
 Gaussian 16:  ES64L-G16RevC.01  3-Jul-2019

 ----------------------------------------------------------------------
 #t hf aug-cc-pvdz iop(5/13=1,5/36=2,99/5=2) pseudo=read geom=check gue
 ss=(read,tcheck) scf=(maxcycle=1)
 ----------------------------------------------------------------------
 -----
 title
 -----
 Structure from the checkpoint file:  "BDE49_nonexpt_2277_mol2.chk"
 Charge =  0 Multiplicity = 2

                         Standard orientation:
 ---------------------------------------------------------------------
 Center     Atomic      Atomic             Coordinates (Angstroms)
 Number     Number       Type             X           Y           Z
 ---------------------------------------------------------------------
      1         14           0        1.831571   -0.886083    0.517412
      2          6           0        0.103729   -0.174027    0.043598
      3          6           0        0.320937    0.865392   -1.063395
      4          8           0        1.358123    1.749390   -0.618066
      5          1           0        0.609750    0.357500   -1.992370
      6          1           0       -0.605554    1.416799   -1.248701
      7          1           0        1.531002    2.393512   -1.310880
      8          6           0       -0.511936    0.485574    1.284030
      9          6           0       -0.791092   -1.328349   -0.474682
     10          8           0       -1.858314    0.903340    0.976157
     11          1           0        0.090780    1.351641    1.575134
     12          1           0       -0.531866   -0.228877    2.118186
     13          1           0       -2.229209    1.342674    1.746693
     14          8           0       -1.977434   -0.877568   -1.116701
     15          1           0       -1.024522   -2.003569    0.361329
     16          1           0       -0.255287   -1.916118   -1.225752
     17          1           0       -2.408161   -0.281932   -0.488387
     18          1           0        2.615416   -1.156001   -0.715210
     19          1           0        1.656828   -2.163303    1.267767
 ---------------------------------------------------------------------

 SCF Done:  E(UHF) =  -673.230751199     A.U. after    2 cycles

 The electronic state is 2-A.
 Alpha  occ. eigenvalues --  -76.22197 -21.08202 -21.07450 -21.04703 -11.45558
 Alpha  occ. eigenvalues --  -11.44696 -11.43215 -11.37352  -5.55544  -2.19601
 Alpha  occ. eigenvalues --   -2.18247  -2.17972  -1.73983  -1.70605  -1.68455
 Alpha  occ. eigenvalues --   -1.19490  -0.97763  -0.96103  -0.81354  -0.74822
 Alpha  occ. eigenvalues --   -0.68702  -0.65262  -0.63879  -0.61436  -0.58603
 Alpha  occ. eigenvalues --   -0.54455  -0.52915  -0.48052  -0.46773  -0.45403
 Alpha  occ. eigenvalues --   -0.42434  -0.40024  -0.36739  -0.34754  -0.32476
 Alpha  occ. eigenvalues --   -0.29996  -0.25813
 Alpha virt. eigenvalues --    0.03645   0.04498   0.04907   0.05435   0.05940
 Alpha virt. eigenvalues --    0.06086   0.06503   0.06956   0.07472   0.08498
 Alpha virt. eigenvalues --    0.09120   0.09591   0.10209   0.11105   0.12620

  Beta  occ. eigenvalues --  -76.21626 -21.08207 -21.07413 -21.04653 -11.45549
  Beta  occ. eigenvalues --  -11.44687 -11.43177 -11.37325  -5.54644  -2.18870
  Beta  occ. eigenvalues --   -2.17595  -2.14484  -1.73951  -1.70572  -1.68360
  Beta  occ. eigenvalues --   -1.19218  -0.97697  -0.95995  -0.80249  -0.72591
  Beta  occ. eigenvalues --   -0.68331  -0.64722  -0.63319  -0.61393  -0.58525
  Beta  occ. eigenvalues --   -0.54227  -0.52673  -0.47670  -0.46335  -0.45027
  Beta  occ. eigenvalues --   -0.42284  -0.39745  -0.35979  -0.34256  -0.32242
  Beta  occ. eigenvalues --   -0.29533
  Beta virt. eigenvalues --    0.03660   0.03948   0.04651   0.05110   0.05547
  Beta virt. eigenvalues --    0.06069   0.06243   0.06978   0.07310   0.08428
  Beta virt. eigenvalues --    0.08675   0.09191   0.10013   0.10622   0.11299

 Mulliken charges and spin densities:
               1          2
     1  Si   3.341977   1.308969
     2  C    1.086535  -0.236221
     3  C   -1.223325   0.014786
     4  O   -2.715393  -0.046670
     5  H    1.425381  -0.004726
     6  H    1.491387   0.004086
     7  H    0.794172  -0.006019
     8  C   -1.816528   0.100258
     9  C   -0.918745  -0.042558
    10  O   -2.923420  -0.004751
    11  H    1.587877  -0.047354
    12  H    1.425873  -0.016547
    13  H    0.919904   0.000752
    14  O   -2.822153   0.011752
    15  H    1.376537  -0.001848
    16  H    1.311811  -0.006648
    17  H    1.086260   0.001264
    18  H   -1.711210  -0.027810
    19  H   -1.716940  -0.000714
 Sum of Mulliken charges =  -0.00000   1.00000

 Dipole moment (field-independent basis, Debye):
    X=             -0.4079    Y=              1.8531    Z=              0.5894  Tot=              1.9869
                          Isotropic Fermi Contact Couplings
        Atom                 a.u.       MegaHertz       Gauss      10(-4) cm-1
     1  Si(29)             0.49754    -442.17816    -157.78016    -147.49476
     2  C(13)              0.00589       6.61915       2.36188       2.20791
     3  C(13)             -0.00110      -1.23633      -0.44115      -0.41239
     4  O(17)              0.00696      -4.21748      -1.50490      -1.40680
     5  H(1)               0.00013       0.59603       0.21268       0.19881
     6  H(1)               0.00071       3.15484       1.12572       1.05234
     7  H(1)               0.00021       0.93750       0.33452       0.31272
     8  C(13)              0.00203       2.28304       0.81465       0.76154

 Normal termination of Gaussian 16 at Wed Apr  9 00:10:25 2025.
