 Gaussian 16, Revision C.01,

 ----------------------------------------------------------------------
 #t hf aug-cc-pvdz symm=none int=(grid=ultrafine) guess=(read,tcheck) s
 table=(opt,rrhf)
 ----------------------------------------------------------------------
 -----
 title
 -----
 Symbolic Z-matrix:
 Charge =  0 Multiplicity = 1

 SCF Done:  E(RHF) =  -666.397043708     A.U. after   15 cycles
 Normal termination of Gaussian 16 at Tue Apr  8 23:39:15 2025.
 Gaussian 16:  ES64L-G16RevC.01  3-Jul-2019

 ----------------------------------------------------------------------
 #t hf aug-cc-pvdz iop(5/13=1,5/36=2,99/5=2) pseudo=read geom=check gue
 ss=(read,tcheck) scf=(maxcycle=1)
 ----------------------------------------------------------------------
 -----
 title
 -----
 Structure from the checkpoint file:  "BDE49_nonexpt_1552_mol1.chk"
 Charge =  0 Multiplicity = 1

                         Standard orientation:
 ---------------------------------------------------------------------
 Center     Atomic      Atomic             Coordinates (Angstroms)
 Number     Number       Type             X           Y           Z
 ---------------------------------------------------------------------
      1          6           0        0.960210   -0.044278   -0.113761
      2          7           0       -1.869985    0.129684    0.175252
      3          6           0       -1.913192   -0.939575    1.170817
      4          1           0       -1.386768   -1.842837    0.839107
      5          1           0       -2.956849   -1.198467    1.378095
      6          1           0       -1.461443   -0.596040    2.103758
      7          8           0        0.800219   -1.152628   -0.576991
      8          6           0        2.327669    0.487644    0.299753
      9          6           0       -2.674226   -0.136526   -1.016948
     10          1           0       -2.627360    0.718650   -1.693410
     11          1           0       -3.720676   -0.286746   -0.728755
     12          1           0       -2.334841   -1.027465   -1.562116
     13          6           0        3.490932   -0.399326   -0.141441
     14          1           0        2.311815    0.596780    1.392046
     15          1           0        2.429651    1.507661   -0.091540
     16          1           0        3.374875   -1.412031    0.247695
     17          1           0        4.441508    0.003965    0.215174
     18          1           0        3.535614   -0.472432   -1.230157
     19         15           0       -0.517778    1.135896   -0.001988
     20          1           0       -0.299085    1.476117    1.358575
 ---------------------------------------------------------------------

 SCF Done:  E(RHF) =  -668.146926756     A.U. after    2 cycles

 The electronic state is 1-A.
 Alpha  occ. eigenvalues -- -105.19664 -21.05425 -15.71498 -11.48232 -11.41241
 Alpha  occ. eigenvalues --  -11.38858 -11.38292 -11.36749  -2.77565  -1.71102
 Alpha  occ. eigenvalues --   -1.59484  -1.47017  -1.46836  -1.29837  -1.17905
 Alpha  occ. eigenvalues --   -1.03517  -0.95275  -0.88266  -0.75563  -0.69225
 Alpha  occ. eigenvalues --   -0.63157  -0.62241  -0.60016  -0.58996  -0.55513
 Alpha  occ. eigenvalues --   -0.54547  -0.51884  -0.50573  -0.49914  -0.48638
 Alpha  occ. eigenvalues --   -0.42630  -0.39920  -0.34464  -0.26849  -0.17859
 Alpha  occ. eigenvalues --   -0.02318
 Alpha virt. eigenvalues --    0.03630   0.05110   0.05619   0.05786   0.06087
 Alpha virt. eigenvalues --    0.06408   0.06918   0.06982   0.07422   0.07581
 Alpha virt. eigenvalues --    0.08225   0.08865   0.10866   0.11705   0.11925

 Mulliken charges:
               1
     1  C    2.883257
     2  N   -1.931667
     3  C   -3.813609
     4  H    1.538180
     5  H    1.344122
     6  H    1.479975
     7  O   -3.173833
     8  C   -4.431047
     9  C   -3.634495
    10  H    1.512521
    11  H    1.376463
    12  H    1.445600
    13  C   -3.762437
    14  H    1.562943
    15  H    1.549477
    16  H    1.383659
    17  H    1.070035
    18  H    1.324133
    19  P    3.290288
    20  H   -1.013564
 Sum of Mulliken charges =  -0.00000

 Dipole moment (field-independent basis, Debye):
    X=             -1.0711    Y=             -0.3923    Z=             -0.3167  Tot=              1.1838

 Test job not archived.
 1\1\GINC-SE345\SP\RHF\Aug-CC-pVDZ\C5H12N1O1P1\OHZDE\08-Apr-2025\0\\#t
 hf aug-cc-pvdz iop(5/13=1,5/36=2,99/5=2) pseudo=read geom=check guess=
 (read,tcheck) scf=(maxcycle=1)\\title\\0,1\C,0,-0.96021,0.044278,-0.11
 3761\N,0,1.869985,-0.129684,0.175252\C,0,1.913192,0.939575,1.170817\H,
 0,1.386768,1.842837,0.839107\H,0,2.956849,1.198467,1.378095\H,0,1.4614
 43,0.59604,2.103758\O,0,-0.800219,1.152628,-0.576991\C,0,-2.327669,-0.
 487644,0.299753\C,0,2.674226,0.136526,-1.016948\H,0,2.62736,-0.71865,-
 1.69341\H,0,3.720676,0.286746,-0.728755\H,0,2.334841,1.027465,-1.56211

 Normal termination of Gaussian 16 at Tue Apr  8 23:39:25 2025.
