 Gaussian 16, Revision C.01,

 ----------------------------------------------------------------------
 #t hf aug-cc-pvdz symm=none int=(grid=ultrafine) guess=(read,tcheck) s
 table=opt
 ----------------------------------------------------------------------
 -----
 title
 -----
 Symbolic Z-matrix:
 Charge =  0 Multiplicity = 2

 SCF Done:  E(UHF) =  -591.778744339     A.U. after   19 cycles
 Normal termination of Gaussian 16 at Wed Apr  9 00:35:53 2025.
 Gaussian 16:  ES64L-G16RevC.01  3-Jul-2019

 ----------------------------------------------------------------------
 #t hf aug-cc-pvdz iop(5/13=1,5/36=2,99/5=2) pseudo=read geom=check gue
 ss=(read,tcheck) scf=(maxcycle=1)
 ----------------------------------------------------------------------
 -----
 title
 -----
 Structure from the checkpoint file:  "BDE49_nonexpt_474_mol2.chk"
 Charge =  0 Multiplicity = 2

                         Standard orientation:
 ---------------------------------------------------------------------
 Center     Atomic      Atomic             Coordinates (Angstroms)
 Number     Number       Type             X           Y           Z
 ---------------------------------------------------------------------
      1          1           0       -2.465564    1.037358   -1.080982
      2          5           0       -1.561665    0.279145   -1.062732
      3         15           0       -0.087526   -0.022880    0.038541
      4          8           0       -0.654577   -0.788858    1.168385
      5          8           0        1.119720   -0.779191   -0.728370
      6          1           0        0.977032   -1.733057   -0.762674
      7          8           0        0.659976    1.364578    0.322258
      8          1           0        1.608798    1.270942    0.481017
 ---------------------------------------------------------------------

 SCF Done:  E(UHF) =  -592.988555029     A.U. after    2 cycles

 The electronic state is 2-A.
 Alpha  occ. eigenvalues -- -105.30152 -21.12194 -21.12146 -21.02414  -7.67795
 Alpha  occ. eigenvalues --   -2.92500  -1.97886  -1.88295  -1.80458  -1.56120
 Alpha  occ. eigenvalues --   -1.40454  -1.25867  -0.79872  -0.67578  -0.62917
 Alpha  occ. eigenvalues --   -0.52679  -0.44842  -0.43440  -0.38259  -0.35662
 Alpha  occ. eigenvalues --   -0.34200  -0.29996  -0.22033  -0.14856
 Alpha virt. eigenvalues --    0.02620   0.03613   0.04621   0.04789   0.06767
 Alpha virt. eigenvalues --    0.08221   0.10026   0.11289   0.13282   0.14012
 Alpha virt. eigenvalues --    0.15278   0.16785   0.20506   0.20691   0.21360

  Beta  occ. eigenvalues -- -105.30152 -21.12170 -21.12124 -21.02346  -7.66047
  Beta  occ. eigenvalues --   -2.92475  -1.97845  -1.88101  -1.80437  -1.55705
  Beta  occ. eigenvalues --   -1.40243  -1.25748  -0.75765  -0.66080  -0.62775
  Beta  occ. eigenvalues --   -0.52294  -0.44350  -0.43180  -0.35646  -0.34728
  Beta  occ. eigenvalues --   -0.29556  -0.24160  -0.15805
  Beta virt. eigenvalues --    0.03122   0.03512   0.03970   0.04822   0.06484
  Beta virt. eigenvalues --    0.08655   0.09394   0.10246   0.11760   0.13391
  Beta virt. eigenvalues --    0.14535   0.16159   0.17242   0.20898   0.21485

 Mulliken charges and spin densities:
               1          2
     1  H   -1.367796  -0.031724
     2  B    0.997517   1.009690
     3  P    6.537859   0.028873
     4  O   -2.593613   0.020880
     5  O   -2.600172   0.003824
     6  H    0.929050  -0.005300
     7  O   -2.764091  -0.029958
     8  H    0.861246   0.003715
 Sum of Mulliken charges =   0.00000   1.00000

 Dipole moment (field-independent basis, Debye):
    X=              2.5557    Y=              1.3046    Z=             -1.4188  Tot=              3.2010
                          Isotropic Fermi Contact Couplings
        Atom                 a.u.       MegaHertz       Gauss      10(-4) cm-1
     1  H(1)              -0.00932     -41.65614     -14.86395     -13.89499
     2  B(11)              0.07797     111.83831      39.90669      37.30524
     3  P(31)              0.00689      12.47477       4.45131       4.16113
     4  O(17)              0.00447      -2.70882      -0.96657      -0.90356
     5  O(17)             -0.00522       3.16449       1.12917       1.05556
     6  H(1)               0.00006       0.26306       0.09387       0.08775
     7  O(17)              0.02775     -16.82425      -6.00331      -5.61197
     8  H(1)               0.00234      10.45266       3.72977       3.48663

 Normal termination of Gaussian 16 at Wed Apr  9 00:35:56 2025.
