 Gaussian 16, Revision C.01,

 ----------------------------------------------------------------------
 #t hf aug-cc-pvdz symm=none int=(grid=ultrafine) guess=(read,tcheck) s
 table=(opt,rrhf)
 ----------------------------------------------------------------------
 -----
 title
 -----
 Symbolic Z-matrix:
 Charge =  0 Multiplicity = 1

 SCF Done:  E(RHF) =  -666.119647702     A.U. after   15 cycles
 Normal termination of Gaussian 16 at Tue Apr  8 23:36:25 2025.
 Gaussian 16:  ES64L-G16RevC.01  3-Jul-2019

 ----------------------------------------------------------------------
 #t hf aug-cc-pvdz iop(5/13=1,5/36=2,99/5=2) pseudo=read geom=check gue
 ss=(read,tcheck) scf=(maxcycle=1)
 ----------------------------------------------------------------------
 -----
 title
 -----
 Structure from the checkpoint file:  "BDE49_nonexpt_1482_mol1.chk"
 Charge =  0 Multiplicity = 1

                         Standard orientation:
 ---------------------------------------------------------------------
 Center     Atomic      Atomic             Coordinates (Angstroms)
 Number     Number       Type             X           Y           Z
 ---------------------------------------------------------------------
      1          6           0        2.289772   -0.142965   -0.010038
      2          6           0        1.787379    1.161109   -0.007570
      3          6           0        0.421177    1.415239   -0.002444
      4          6           0        1.357288   -1.183539   -0.012571
      5          6           0       -0.013649   -0.947801   -0.007627
      6          6           0       -0.506628    0.363663   -0.001082
      7          1           0        2.476141    2.000387   -0.011743
      8          1           0        0.065809    2.441627   -0.004089
      9          1           0        1.706880   -2.211452   -0.020817
     10          1           0       -0.700703   -1.784902   -0.013194
     11          7           0       -1.879034    0.665399    0.001322
     12         15           0       -3.168263   -0.465057    0.005109
     13          1           0       -2.082017    1.653673    0.003722
     14          6           0        3.774857   -0.414814    0.017714
     15          1           0        4.333989    0.371543   -0.495813
     16          1           0        4.014690   -1.365322   -0.465312
     17          1           0        4.154249   -0.466430    1.044755
     18          1           0       -3.980526    0.088404   -1.022864
     19          1           0       -3.972495    0.085184    1.041183
 ---------------------------------------------------------------------

 SCF Done:  E(RHF) =  -667.891455955     A.U. after    2 cycles

 The electronic state is 1-A.
 Alpha  occ. eigenvalues -- -105.20544 -15.74649 -11.50765 -11.44343 -11.42815
 Alpha  occ. eigenvalues --  -11.41472 -11.39666 -11.37939 -11.35283  -2.77485
 Alpha  occ. eigenvalues --   -1.58167  -1.46384  -1.44823  -1.36691  -1.24152
 Alpha  occ. eigenvalues --   -1.09545  -1.08558  -0.96698  -0.86991  -0.82325
 Alpha  occ. eigenvalues --   -0.73829  -0.69401  -0.64604  -0.59649  -0.56939
 Alpha  occ. eigenvalues --   -0.56876  -0.56278  -0.52433  -0.51013  -0.44860
 Alpha  occ. eigenvalues --   -0.43237  -0.42224  -0.32625  -0.30716  -0.26669
 Alpha  occ. eigenvalues --   -0.26039  -0.02897
 Alpha virt. eigenvalues --    0.03687   0.04907   0.05462   0.05810   0.06360
 Alpha virt. eigenvalues --    0.06610   0.07539   0.08110   0.08480   0.08941
 Alpha virt. eigenvalues --    0.09685   0.10455   0.10882   0.12091   0.13079

 Mulliken charges:
               1
     1  C    3.055906
     2  C   -0.765690
     3  C   -3.516674
     4  C   -0.174538
     5  C   -2.909834
     6  C    1.651323
     7  H    1.771378
     8  H    1.793475
     9  H    1.779135
    10  H    1.787728
    11  N   -3.414126
    12  P    1.660612
    13  H    0.676249
    14  C   -5.243936
    15  H    1.119980
    16  H    1.136525
    17  H    1.139597
    18  H   -0.774440
    19  H   -0.772668
 Sum of Mulliken charges =  -0.00000

 Dipole moment (field-independent basis, Debye):
    X=              1.7708    Y=             -1.2449    Z=              0.0211  Tot=              2.1647

 Test job not archived.
 1\1\GINC-SE070\SP\RHF\Aug-CC-pVDZ\C7H10N1P1\OHZDE\08-Apr-2025\0\\#t hf
  aug-cc-pvdz iop(5/13=1,5/36=2,99/5=2) pseudo=read geom=check guess=(r
 ead,tcheck) scf=(maxcycle=1)\\title\\0,1\C,0,2.289772,-0.142965,-0.010
 038\C,0,1.787379,1.161109,-0.00757\C,0,0.421177,1.415239,-0.002444\C,0
 ,1.357288,-1.183539,-0.012571\C,0,-0.013649,-0.947801,-0.007627\C,0,-0
 .506628,0.363663,-0.001082\H,0,2.476141,2.000387,-0.011743\H,0,0.06580
 9,2.441627,-0.004089\H,0,1.70688,-2.211452,-0.020817\H,0,-0.700703,-1.
 784902,-0.013194\N,0,-1.879034,0.665399,0.001322\P,0,-3.168263,-0.4650

 Normal termination of Gaussian 16 at Tue Apr  8 23:36:35 2025.
