 Gaussian 16, Revision C.01,

 ----------------------------------------------------------------------
 #t hf aug-cc-pvdz symm=none int=(grid=ultrafine) guess=(read,tcheck) s
 table=(opt,rrhf)
 ----------------------------------------------------------------------
 -----
 title
 -----
 Symbolic Z-matrix:
 Charge =  0 Multiplicity = 1

 SCF Done:  E(RHF) =  -1236.94065758     A.U. after   16 cycles
 Normal termination of Gaussian 16 at Tue Apr  8 23:27:58 2025.
 Gaussian 16:  ES64L-G16RevC.01  3-Jul-2019

 ----------------------------------------------------------------------
 #t hf aug-cc-pvdz iop(5/13=1,5/36=2,99/5=2) pseudo=read geom=check gue
 ss=(read,tcheck) scf=(maxcycle=1)
 ----------------------------------------------------------------------
 -----
 title
 -----
 Structure from the checkpoint file:  "BDE49_nonexpt_1260_mol1.chk"
 Charge =  0 Multiplicity = 1

                         Standard orientation:
 ---------------------------------------------------------------------
 Center     Atomic      Atomic             Coordinates (Angstroms)
 Number     Number       Type             X           Y           Z
 ---------------------------------------------------------------------
      1         17           0       -2.832379   -0.155317   -0.489155
      2          8           0       -0.242579   -2.371963   -0.237463
      3          8           0       -0.574236    2.488699   -0.005048
      4         15           0       -1.257839   -0.039823    0.868073
      5          7           0        1.080251    0.889791   -0.036431
      6          6           0       -0.199752    1.347971    0.148658
      7          6           0       -0.029095   -1.240992    0.097424
      8          6           0        1.361131   -0.561604   -0.004069
      9          6           0        2.131722    1.844840   -0.376516
     10          1           0        2.387782    1.796980   -1.438675
     11          1           0        1.758147    2.842613   -0.155919
     12          6           0        2.062465   -1.034896   -1.283948
     13          1           0        3.086911   -0.659709   -1.331619
     14          1           0        2.091351   -2.124550   -1.294641
     15          1           0        1.521737   -0.698756   -2.171150
     16          1           0        3.028908    1.651854    0.215511
     17          6           0        2.171207   -0.951730    1.249982
     18          1           0        3.157870   -0.482766    1.230120
     19          1           0        2.309838   -2.034231    1.282495
     20          1           0        1.662182   -0.637654    2.164348
 ---------------------------------------------------------------------

 SCF Done:  E(RHF) =  -1239.35296719     A.U. after    2 cycles

 The electronic state is 1-A.
 Alpha  occ. eigenvalues -- -105.24714 -99.90687 -21.09692 -21.05051 -15.77358
 Alpha  occ. eigenvalues --  -11.52855 -11.50802 -11.48592 -11.42652 -11.42067
 Alpha  occ. eigenvalues --  -11.39780 -10.47939  -9.67852  -9.67150  -9.67116
 Alpha  occ. eigenvalues --   -2.83311  -1.75305  -1.72967  -1.56366  -1.52637
 Alpha  occ. eigenvalues --   -1.52099  -1.46393  -1.24085  -1.21553  -1.05881
 Alpha  occ. eigenvalues --   -1.04705  -0.93056  -0.86837  -0.76332  -0.68549
 Alpha  occ. eigenvalues --   -0.66880  -0.64883  -0.61190  -0.60568  -0.59920
 Alpha  occ. eigenvalues --   -0.57152  -0.56720  -0.54990  -0.54742  -0.52560
 Alpha  occ. eigenvalues --   -0.50829  -0.50632  -0.50053  -0.46172  -0.45185
 Alpha  occ. eigenvalues --   -0.43200  -0.31610  -0.31467  -0.15663  -0.05887
 Alpha virt. eigenvalues --    0.03272   0.04611   0.04749   0.05130   0.05727
 Alpha virt. eigenvalues --    0.05828   0.07310   0.07640   0.08088   0.08213
 Alpha virt. eigenvalues --    0.08840   0.09599   0.10160   0.11161   0.12217

 Mulliken charges:
               1
     1  Cl  -1.471866
     2  O   -3.441975
     3  O   -3.246650
     4  P    5.270292
     5  N   -3.702933
     6  C    3.138108
     7  C    3.144845
     8  C    0.971736
     9  C   -3.995593
    10  H    1.439216
    11  H    1.384682
    12  C   -4.106077
    13  H    1.269773
    14  H    1.285565
    15  H    1.184918
    16  H    1.523419
    17  C   -4.494801
    18  H    1.250867
    19  H    1.191219
    20  H    1.405255
 Sum of Mulliken charges =   0.00000

 Dipole moment (field-independent basis, Debye):
    X=              2.1660    Y=             -0.3822    Z=              3.8911  Tot=              4.4697

 Test job not archived.
 1\1\GINC-SE362\SP\RHF\Aug-CC-pVDZ\C6H9Cl1N1O2P1\OHZDE\08-Apr-2025\0\\#
 t hf aug-cc-pvdz iop(5/13=1,5/36=2,99/5=2) pseudo=read geom=check gues
 s=(read,tcheck) scf=(maxcycle=1)\\title\\0,1\Cl,0,-2.832379,-0.155317,
 -0.489155\O,0,-0.242579,-2.371963,-0.237463\O,0,-0.574236,2.488699,-0.
 005048\P,0,-1.257839,-0.039823,0.868073\N,0,1.080251,0.889791,-0.03643
 1\C,0,-0.199752,1.347971,0.148658\C,0,-0.029095,-1.240992,0.097424\C,0
 ,1.361131,-0.561604,-0.004069\C,0,2.131722,1.84484,-0.376516\H,0,2.387
 782,1.79698,-1.438675\H,0,1.758147,2.842613,-0.155919\C,0,2.062465,-1.

 Normal termination of Gaussian 16 at Tue Apr  8 23:28:09 2025.
