 Gaussian 16, Revision C.01,

 ----------------------------------------------------------------------
 #t hf aug-cc-pvdz symm=none int=(grid=ultrafine) guess=(read,tcheck) s
 table=(opt,rrhf)
 ----------------------------------------------------------------------
 -----
 title
 -----
 Symbolic Z-matrix:
 Charge =  0 Multiplicity = 1

 SCF Done:  E(RHF) =  -324.802472782     A.U. after   15 cycles
 Normal termination of Gaussian 16 at Tue Apr  8 22:39:03 2025.
 Gaussian 16:  ES64L-G16RevC.01  3-Jul-2019

 ----------------------------------------------------------------------
 #t hf aug-cc-pvdz iop(5/13=1,5/36=2,99/5=2) pseudo=read geom=check gue
 ss=(read,tcheck) scf=(maxcycle=1)
 ----------------------------------------------------------------------
 -----
 title
 -----
 Structure from the checkpoint file:  "BDE49_expt_1192_mol1.chk"
 Charge =  0 Multiplicity = 1

                         Standard orientation:
 ---------------------------------------------------------------------
 Center     Atomic      Atomic             Coordinates (Angstroms)
 Number     Number       Type             X           Y           Z
 ---------------------------------------------------------------------
      1          6           0       -0.426814    0.254489    0.128674
      2          6           0       -1.903687    0.564606    0.285901
      3          7           0       -2.750100   -0.478449   -0.303586
      4          1           0       -2.092832    1.573907   -0.112070
      5          1           0       -2.142517    0.607391    1.355604
      6          1           0       -2.665439   -0.467052   -1.315680
      7          1           0       -3.725157   -0.308043   -0.081778
      8          6           0        0.500727    1.288793   -0.022242
      9          6           0        1.863512    1.017121   -0.124967
     10          6           0        2.317033   -0.299324   -0.085614
     11          6           0        1.398476   -1.338271    0.056101
     12          6           0        0.037360   -1.064177    0.163680
     13          1           0       -0.685074   -1.865235    0.262962
     14          1           0        0.153090    2.316860   -0.063150
     15          1           0        2.568909    1.832466   -0.243068
     16          1           0        3.376494   -0.514282   -0.170316
     17          1           0        1.743584   -2.366291    0.083408
 ---------------------------------------------------------------------

 SCF Done:  E(RHF) =  -326.378490545     A.U. after    2 cycles

 The electronic state is 1-A.
 Alpha  occ. eigenvalues --  -15.73162 -11.50426 -11.43176 -11.42126 -11.41285
 Alpha  occ. eigenvalues --  -11.39879 -11.39589 -11.35182  -1.37573  -1.28709
 Alpha  occ. eigenvalues --   -1.10116  -1.08197  -0.95056  -0.85588  -0.81954
 Alpha  occ. eigenvalues --   -0.70381  -0.66278  -0.63369  -0.61974  -0.56990
 Alpha  occ. eigenvalues --   -0.55180  -0.53420  -0.52326  -0.48032  -0.43600
 Alpha  occ. eigenvalues --   -0.42327  -0.35823  -0.32206  -0.31254
 Alpha virt. eigenvalues --    0.03591   0.04643   0.05123   0.05821   0.06167
 Alpha virt. eigenvalues --    0.06525   0.06703   0.07719   0.07923   0.10818
 Alpha virt. eigenvalues --    0.11870   0.12337   0.12966   0.13788   0.14257

 Mulliken charges:
               1
     1  C    4.121771
     2  C   -3.657633
     3  N   -2.530332
     4  H    1.159429
     5  H    1.127529
     6  H    0.637936
     7  H    0.637929
     8  C   -2.245600
     9  C   -1.632207
    10  C   -2.796721
    11  C   -1.572984
    12  C   -1.280128
    13  H    1.799564
    14  H    1.737722
    15  H    1.468150
    16  H    1.537822
    17  H    1.487752
 Sum of Mulliken charges =   0.00000

 Dipole moment (field-independent basis, Debye):
    X=             -0.7759    Y=              0.6663    Z=             -0.3466  Tot=              1.0798

 Test job not archived.
 1\1\GINC-SE343\SP\RHF\Aug-CC-pVDZ\C7H9N1\OHZDE\08-Apr-2025\0\\#t hf au
 g-cc-pvdz iop(5/13=1,5/36=2,99/5=2) pseudo=read geom=check guess=(read
 ,tcheck) scf=(maxcycle=1)\\title\\0,1\C,0,-0.426814,0.254489,0.128674\
 C,0,-1.903687,0.564606,0.285901\N,0,-2.7501,-0.478449,-0.303586\H,0,-2
 .092832,1.573907,-0.11207\H,0,-2.142517,0.607391,1.355604\H,0,-2.66543
 9,-0.467052,-1.31568\H,0,-3.725157,-0.308043,-0.081778\C,0,0.500727,1.
 288793,-0.022242\C,0,1.863512,1.017121,-0.124967\C,0,2.317033,-0.29932
 4,-0.085614\C,0,1.398476,-1.338271,0.056101\C,0,0.03736,-1.064177,0.16

 Normal termination of Gaussian 16 at Tue Apr  8 22:39:09 2025.
