 Gaussian 16, Revision C.01,

 ----------------------------------------------------------------------
 #t hf aug-cc-pvdz symm=none int=(grid=ultrafine) guess=(read,tcheck) s
 table=(opt,rrhf)
 ----------------------------------------------------------------------
 -----
 title
 -----
 Symbolic Z-matrix:
 Charge =  0 Multiplicity = 1

 SCF Done:  E(RHF) =  -103.301560188     A.U. after   12 cycles
 Normal termination of Gaussian 16 at Wed Apr  9 00:27:56 2025.
 Gaussian 16:  ES64L-G16RevC.01  3-Jul-2019

 ----------------------------------------------------------------------
 #t hf aug-cc-pvdz iop(5/13=1,5/36=2,99/5=2) pseudo=read geom=check gue
 ss=(read,tcheck) scf=(maxcycle=1)
 ----------------------------------------------------------------------
 -----
 title
 -----
 Structure from the checkpoint file:  "BDE49_nonexpt_292_mol1.chk"
 Charge =  0 Multiplicity = 1

                         Standard orientation:
 ---------------------------------------------------------------------
 Center     Atomic      Atomic             Coordinates (Angstroms)
 Number     Number       Type             X           Y           Z
 ---------------------------------------------------------------------
      1          5           0        1.349982    0.206448   -0.000113
      2          6           0       -0.023493   -0.484333   -0.000002
      3          6           0       -1.162851    0.229326    0.000035
      4          1           0       -0.109545   -1.570161    0.000042
      5          1           0       -1.139925    1.315577   -0.000005
      6          1           0       -2.148361   -0.230206    0.000101
      7          1           0        1.399297    1.399790    0.000122
      8          1           0        2.366688   -0.417199    0.000111
 ---------------------------------------------------------------------

 SCF Done:  E(RHF) =  -103.813920557     A.U. after    2 cycles

 The electronic state is 1-A.
 Alpha  occ. eigenvalues --  -11.42253 -11.35305  -7.60505  -1.16886  -0.89148
 Alpha  occ. eigenvalues --   -0.75351  -0.63059  -0.54450  -0.45280  -0.43207
 Alpha  occ. eigenvalues --   -0.37827
 Alpha virt. eigenvalues --    0.03585   0.03849   0.04290   0.04874   0.06451
 Alpha virt. eigenvalues --    0.07317   0.07881   0.10186   0.11294   0.13111
 Alpha virt. eigenvalues --    0.15273   0.15660   0.15737   0.17009   0.17125

 Mulliken charges:
               1
     1  B    7.378732
     2  C   -2.246334
     3  C   -2.678345
     4  H    1.440803
     5  H    1.309741
     6  H    1.311999
     7  H   -3.023929
     8  H   -3.492667
 Sum of Mulliken charges =   0.00000

 Dipole moment (field-independent basis, Debye):
    X=             -1.4241    Y=             -0.1081    Z=             -0.0003  Tot=              1.4282

 Test job not archived.
 1\1\GINC-SE049\SP\RHF\Aug-CC-pVDZ\C2H5B1\OHZDE\09-Apr-2025\0\\#t hf au
 g-cc-pvdz iop(5/13=1,5/36=2,99/5=2) pseudo=read geom=check guess=(read
 ,tcheck) scf=(maxcycle=1)\\title\\0,1\B,0,-1.349982,0.206448,0.000113\
 C,0,0.023493,-0.484333,0.000002\C,0,1.162851,0.229326,-0.000035\H,0,0.
 109545,-1.570161,-0.000042\H,0,1.139925,1.315577,0.000005\H,0,2.148361
 ,-0.230206,-0.000101\H,0,-1.399297,1.39979,-0.000122\H,0,-2.366688,-0.
 417199,-0.000111\\Version=ES64L-G16RevC.01\State=1-A\HF=-103.8139206\R
 MSD=4.677e-01\Dipole=0.5602968,-0.0425308,0.0001369\Quadrupole=-0.2789

 Normal termination of Gaussian 16 at Wed Apr  9 00:27:57 2025.
