 Gaussian 16, Revision C.01,

 ----------------------------------------------------------------------
 #t hf aug-cc-pvdz symm=none int=(grid=ultrafine) guess=(read,tcheck) s
 table=(opt,rrhf)
 ----------------------------------------------------------------------
 -----
 title
 -----
 Symbolic Z-matrix:
 Charge =  0 Multiplicity = 1

 SCF Done:  E(RHF) =  -1103.84996666     A.U. after   17 cycles
 Normal termination of Gaussian 16 at Tue Apr  8 23:02:46 2025.
 Gaussian 16:  ES64L-G16RevC.01  3-Jul-2019

 ----------------------------------------------------------------------
 #t hf aug-cc-pvdz iop(5/13=1,5/36=2,99/5=2) pseudo=read geom=check gue
 ss=(read,tcheck) scf=(maxcycle=1)
 ----------------------------------------------------------------------
 -----
 title
 -----
 Structure from the checkpoint file:  "BDE49_expt_1895_mol1.chk"
 Charge =  0 Multiplicity = 1

                         Standard orientation:
 ---------------------------------------------------------------------
 Center     Atomic      Atomic             Coordinates (Angstroms)
 Number     Number       Type             X           Y           Z
 ---------------------------------------------------------------------
      1          6           0       -3.304343    0.346102   -0.107294
      2          8           0       -2.877008    1.211164   -0.808270
      3          8           0       -2.566717   -0.299421    0.870594
      4          8           0       -1.224920    0.210890    0.930480
      5          6           0       -0.406931   -0.423151    0.002297
      6          8           0       -0.752864   -1.332083   -0.685266
      7          6           0       -4.681449   -0.262661   -0.122492
      8          1           0       -5.389917    0.489237   -0.466757
      9          1           0       -4.967089   -0.642783    0.857624
     10          1           0       -4.677770   -1.095670   -0.830072
     11          6           0        0.915989    0.266763    0.032725
     12          6           0        0.945657    1.668196    0.055108
     13          6           0        2.151705    2.355302    0.006952
     14          6           0        3.348063    1.644942   -0.049791
     15          6           0        3.339213    0.253457   -0.062158
     16          6           0        2.129482   -0.433423   -0.027329
     17          1           0        2.156325    3.438372    0.012728
     18          1           0        4.264011   -0.307245   -0.097634
     19          1           0        0.005968    2.203580    0.089308
     20          1           0        4.295420    2.170304   -0.084129
     21         17           0        2.180047   -2.180786   -0.018205
 ---------------------------------------------------------------------

 SCF Done:  E(RHF) =  -1106.90997676     A.U. after    2 cycles

 The electronic state is 1-A.
 Alpha  occ. eigenvalues --  -99.90156 -21.15256 -21.14970 -21.07608 -21.07518
 Alpha  occ. eigenvalues --  -11.56516 -11.54870 -11.54612 -11.48822 -11.47056
 Alpha  occ. eigenvalues --  -11.44731 -11.43843 -11.41314 -11.39621 -10.47534
 Alpha  occ. eigenvalues --   -9.67569  -9.66768  -9.66491  -2.03424  -1.75959
 Alpha  occ. eigenvalues --   -1.71577  -1.51874  -1.41196  -1.29370  -1.14643
 Alpha  occ. eigenvalues --   -1.11851  -1.10113  -0.94090  -0.89161  -0.82847
 Alpha  occ. eigenvalues --   -0.76638  -0.72490  -0.69710  -0.67632  -0.64724
 Alpha  occ. eigenvalues --   -0.63600  -0.62625  -0.61837  -0.61193  -0.59311
 Alpha  occ. eigenvalues --   -0.56342  -0.54709  -0.53360  -0.51257  -0.49826
 Alpha  occ. eigenvalues --   -0.49554  -0.48311  -0.47238  -0.43490  -0.37249
 Alpha  occ. eigenvalues --   -0.35330  -0.34780  -0.34219  -0.31267  -0.30751
 Alpha virt. eigenvalues --    0.02867   0.04574   0.05103   0.05263   0.06084
 Alpha virt. eigenvalues --    0.06395   0.07527   0.07933   0.08337   0.09366
 Alpha virt. eigenvalues --    0.09500   0.09926   0.11173   0.11500   0.12471

 Mulliken charges:
               1
     1  C    5.408285
     2  O   -3.165540
     3  O   -1.805945
     4  O   -1.888991
     5  C    4.736039
     6  O   -3.241427
     7  C   -4.258902
     8  H    1.169177
     9  H    1.406911
    10  H    1.246400
    11  C    5.054651
    12  C   -1.337236
    13  C   -3.059883
    14  C   -1.219049
    15  C   -2.111762
    16  C   -2.621989
    17  H    1.550271
    18  H    1.719808
    19  H    1.755297
    20  H    1.556993
    21  Cl  -0.893109
 Sum of Mulliken charges =  -0.00000

 Dipole moment (field-independent basis, Debye):
    X=              0.0422    Y=              2.3065    Z=              0.5858  Tot=              2.3801

 Test job not archived.
 1\1\GINC-SE058\SP\RHF\Aug-CC-pVDZ\C9H7Cl1O4\OHZDE\08-Apr-2025\0\\#t hf
  aug-cc-pvdz iop(5/13=1,5/36=2,99/5=2) pseudo=read geom=check guess=(r
 ead,tcheck) scf=(maxcycle=1)\\title\\0,1\C,0,-3.304343,0.346102,-0.107
 294\O,0,-2.877008,1.211164,-0.80827\O,0,-2.566717,-0.299421,0.870594\O
 ,0,-1.22492,0.21089,0.93048\C,0,-0.406931,-0.423151,0.002297\O,0,-0.75
 2864,-1.332083,-0.685266\C,0,-4.681449,-0.262661,-0.122492\H,0,-5.3899
 17,0.489237,-0.466757\H,0,-4.967089,-0.642783,0.857624\H,0,-4.67777,-1
 .09567,-0.830072\C,0,0.915989,0.266763,0.032725\C,0,0.945657,1.668196,

 Normal termination of Gaussian 16 at Tue Apr  8 23:03:03 2025.
