 Gaussian 16, Revision C.01,

 ----------------------------------------------------------------------
 #t hf aug-cc-pvdz symm=none int=(grid=ultrafine) guess=(read,tcheck) s
 table=opt
 ----------------------------------------------------------------------
 -----
 title
 -----
 Symbolic Z-matrix:
 Charge =  0 Multiplicity = 2

 SCF Done:  E(UHF) =  -1474.29626197     A.U. after   20 cycles
 Normal termination of Gaussian 16 at Tue Apr  8 23:50:25 2025.
 Gaussian 16:  ES64L-G16RevC.01  3-Jul-2019

 ----------------------------------------------------------------------
 #t hf aug-cc-pvdz iop(5/13=1,5/36=2,99/5=2) pseudo=read geom=check gue
 ss=(read,tcheck) scf=(maxcycle=1)
 ----------------------------------------------------------------------
 -----
 title
 -----
 Structure from the checkpoint file:  "BDE49_nonexpt_1813_mol2.chk"
 Charge =  0 Multiplicity = 2

                         Standard orientation:
 ---------------------------------------------------------------------
 Center     Atomic      Atomic             Coordinates (Angstroms)
 Number     Number       Type             X           Y           Z
 ---------------------------------------------------------------------
      1          6           0        0.661696   -0.608260   -0.249812
      2          8           0        0.884458   -1.709832    0.176519
      3         14           0       -1.128318    0.070154   -0.601190
      4          8           0        1.577741    0.292548   -0.631241
      5         17           0       -2.464595   -1.214551    0.319258
      6         17           0       -1.314890    1.966494    0.228107
      7          6           0        2.986318   -0.078997   -0.491218
      8          6           0        3.497277    0.232152    0.903789
      9          1           0        3.488188    0.519019   -1.250708
     10          1           0        3.085846   -1.138104   -0.730522
     11          1           0        3.338777    1.284181    1.149604
     12          1           0        4.569885    0.024958    0.954567
     13          1           0        2.995669   -0.386340    1.649736
 ---------------------------------------------------------------------

 SCF Done:  E(UHF) =  -1476.07721548     A.U. after    2 cycles

 The electronic state is 2-A.
 Alpha  occ. eigenvalues --  -99.90775 -99.90404 -76.33147 -21.10802 -21.07659
 Alpha  occ. eigenvalues --  -11.51006 -11.45637 -11.38114 -10.48145 -10.47798
 Alpha  occ. eigenvalues --   -9.68095  -9.67750  -9.67388  -9.67357  -9.67028
 Alpha  occ. eigenvalues --   -9.66958  -5.66566  -2.29061  -2.28616  -2.26609
 Alpha  occ. eigenvalues --   -1.85121  -1.68419  -1.32508  -1.29794  -1.14969
 Alpha  occ. eigenvalues --   -0.94247  -0.84512  -0.74114  -0.68861  -0.63046
 Alpha  occ. eigenvalues --   -0.60952  -0.60025  -0.58300  -0.57487  -0.55349
 Alpha  occ. eigenvalues --   -0.54517  -0.54048  -0.52687  -0.52087  -0.50015
 Alpha  occ. eigenvalues --   -0.42181  -0.37001  -0.33632  -0.28151
 Alpha virt. eigenvalues --    0.03602   0.04702   0.05074   0.05530   0.05666
 Alpha virt. eigenvalues --    0.05974   0.06412   0.06951   0.08917   0.09252
 Alpha virt. eigenvalues --    0.10593   0.11465   0.11732   0.12865   0.13324

  Beta  occ. eigenvalues --  -99.90666 -99.90294 -76.32559 -21.10777 -21.07518
  Beta  occ. eigenvalues --  -11.50726 -11.45634 -11.38114 -10.48025 -10.47678
  Beta  occ. eigenvalues --   -9.67863  -9.67506  -9.67315  -9.67090  -9.66920
  Beta  occ. eigenvalues --   -9.66740  -5.65590  -2.28424  -2.27974  -2.23304
  Beta  occ. eigenvalues --   -1.84956  -1.68154  -1.31541  -1.28927  -1.14914
  Beta  occ. eigenvalues --   -0.93697  -0.82094  -0.73141  -0.67874  -0.62586
  Beta  occ. eigenvalues --   -0.60195  -0.59619  -0.57532  -0.56232  -0.54873
  Beta  occ. eigenvalues --   -0.53995  -0.53568  -0.52532  -0.51979  -0.49680
  Beta  occ. eigenvalues --   -0.41283  -0.33420  -0.31381
  Beta virt. eigenvalues --    0.00020   0.03997   0.05081   0.05240   0.05655
  Beta virt. eigenvalues --    0.05975   0.06422   0.06626   0.06967   0.09420
  Beta virt. eigenvalues --    0.09826   0.10801   0.12089   0.12565   0.13263

 Mulliken charges and spin densities:
               1          2
     1  C    3.266174   0.063105
     2  O   -2.431468   0.051644
     3  Si   2.306339   0.856855
     4  O   -2.813065  -0.061975
     5  Cl  -0.754048   0.036830
     6  Cl  -0.820583   0.058550
     7  C   -1.996925   0.002484
     8  C   -3.684875  -0.000498
     9  H    1.398047  -0.001721
    10  H    1.662095  -0.005684
    11  H    1.414716   0.001337
    12  H    1.167620   0.000087
    13  H    1.285974  -0.001014
 Sum of Mulliken charges =  -0.00000   1.00000

 Dipole moment (field-independent basis, Debye):
    X=              2.8368    Y=              0.0744    Z=             -1.3637  Tot=              3.1484
                          Isotropic Fermi Contact Couplings
        Atom                 a.u.       MegaHertz       Gauss      10(-4) cm-1
     1  C(13)              0.04716      53.01241      18.91615      17.68304
     2  O(17)              0.01031      -6.24983      -2.23009      -2.08472
     3  Si(29)             0.75916    -674.68209    -240.74335    -225.04972
     4  O(17)              0.00402      -2.43934      -0.87042      -0.81368
     5  Cl(35)             0.07759      34.02075      12.13945      11.34810
     6  Cl(35)             0.06784      29.74739      10.61461       9.92266
     7  C(13)              0.00066       0.73920       0.26377       0.24657
     8  C(13)             -0.00079      -0.88701      -0.31651      -0.29588

 Normal termination of Gaussian 16 at Tue Apr  8 23:50:31 2025.
