 Gaussian 16, Revision C.01,

 ----------------------------------------------------------------------
 #t hf aug-cc-pvdz symm=none int=(grid=ultrafine) guess=(read,tcheck) s
 table=(opt,rrhf)
 ----------------------------------------------------------------------
 -----
 title
 -----
 Symbolic Z-matrix:
 Charge =  0 Multiplicity = 1

 SCF Done:  E(RHF) =  -607.848398164     A.U. after   15 cycles
 Normal termination of Gaussian 16 at Tue Apr  8 23:32:12 2025.
 Gaussian 16:  ES64L-G16RevC.01  3-Jul-2019

 ----------------------------------------------------------------------
 #t hf aug-cc-pvdz iop(5/13=1,5/36=2,99/5=2) pseudo=read geom=check gue
 ss=(read,tcheck) scf=(maxcycle=1)
 ----------------------------------------------------------------------
 -----
 title
 -----
 Structure from the checkpoint file:  "BDE49_nonexpt_1395_mol1.chk"
 Charge =  0 Multiplicity = 1

                         Standard orientation:
 ---------------------------------------------------------------------
 Center     Atomic      Atomic             Coordinates (Angstroms)
 Number     Number       Type             X           Y           Z
 ---------------------------------------------------------------------
      1          6           0       -0.076217   -0.680994    1.386461
      2          6           0       -0.076217    0.657380    1.273999
      3         15           0        0.211106   -1.800135   -0.000000
      4          6           0       -0.076217   -0.680994   -1.386461
      5          6           0       -0.076217    0.657380   -1.273999
      6          6           0       -0.017311    1.408427    0.000000
      7          1           0       -0.128901   -1.139407    2.370275
      8          1           0       -0.138803    1.290064    2.154648
      9          8           0        0.039813    2.630483    0.000000
     10          1           0       -1.016614   -2.510353   -0.000000
     11          1           0       -0.138803    1.290064   -2.154648
     12          1           0       -0.128901   -1.139407   -2.370275
 ---------------------------------------------------------------------

 SCF Done:  E(RHF) =  -609.234081256     A.U. after    2 cycles

 The electronic state is 1-A'.
 Alpha  occ. eigenvalues -- -105.19965 -21.04844 -11.50651 -11.45824 -11.45369
 Alpha  occ. eigenvalues --  -11.41576 -11.40134  -2.78551  -1.70373  -1.53811
 Alpha  occ. eigenvalues --   -1.52578  -1.45974  -1.22318  -1.11581  -0.94717
 Alpha  occ. eigenvalues --   -0.83629  -0.78521  -0.65423  -0.63606  -0.63148
 Alpha  occ. eigenvalues --   -0.55436  -0.52320  -0.48336  -0.39428  -0.35930
 Alpha  occ. eigenvalues --   -0.29191  -0.27209  -0.23846  -0.04115
 Alpha virt. eigenvalues --    0.03072   0.04586   0.05918   0.06580   0.07018
 Alpha virt. eigenvalues --    0.07807   0.08874   0.09268   0.10161   0.10845
 Alpha virt. eigenvalues --    0.12476   0.12746   0.13463   0.13602   0.14905

 Mulliken charges:
               1
     1  C   -1.977105
     2  C   -2.571478
     3  P    4.333316
     4  C   -1.977105
     5  C   -2.571478
     6  C    2.941275
     7  H    1.241816
     8  H    1.498944
     9  O   -3.724446
    10  H    0.065502
    11  H    1.498944
    12  H    1.241816
 Sum of Mulliken charges =   0.00000

 Dipole moment (field-independent basis, Debye):
    X=              1.9389    Y=             -4.8394    Z=             -0.0000  Tot=              5.2133

 Test job not archived.
 1\1\GINC-SE339\SP\RHF\Aug-CC-pVDZ\C5H5O1P1\OHZDE\08-Apr-2025\0\\#t hf
 aug-cc-pvdz iop(5/13=1,5/36=2,99/5=2) pseudo=read geom=check guess=(re
 ad,tcheck) scf=(maxcycle=1)\\title\\0,1\C,0,-0.076217,-0.680994,1.3864
 61\C,0,-0.076217,0.65738,1.273999\P,0,0.211106,-1.800135,0.\C,0,-0.076
 217,-0.680994,-1.386461\C,0,-0.076217,0.65738,-1.273999\C,0,-0.017311,
 1.408427,0.\H,0,-0.128901,-1.139407,2.370275\H,0,-0.138803,1.290064,2.
 154648\O,0,0.039813,2.630483,0.\H,0,-1.016614,-2.510353,0.\H,0,-0.1388
 03,1.290064,-2.154648\H,0,-0.128901,-1.139407,-2.370275\\Version=ES64L

 Normal termination of Gaussian 16 at Tue Apr  8 23:32:16 2025.
