 Gaussian 16, Revision C.01,

 ----------------------------------------------------------------------
 #t hf aug-cc-pvdz symm=none int=(grid=ultrafine) guess=(read,tcheck) s
 table=(opt,rrhf)
 ----------------------------------------------------------------------
 -----
 title
 -----
 Symbolic Z-matrix:
 Charge =  0 Multiplicity = 1

 SCF Done:  E(RHF) =  -916.960750254     A.U. after   14 cycles
 Normal termination of Gaussian 16 at Wed Apr  9 00:12:20 2025.
 Gaussian 16:  ES64L-G16RevC.01  3-Jul-2019

 ----------------------------------------------------------------------
 #t hf aug-cc-pvdz iop(5/13=1,5/36=2,99/5=2) pseudo=read geom=check gue
 ss=(read,tcheck) scf=(maxcycle=1)
 ----------------------------------------------------------------------
 -----
 title
 -----
 Structure from the checkpoint file:  "BDE49_nonexpt_2370_mol1.chk"
 Charge =  0 Multiplicity = 1

                         Standard orientation:
 ---------------------------------------------------------------------
 Center     Atomic      Atomic             Coordinates (Angstroms)
 Number     Number       Type             X           Y           Z
 ---------------------------------------------------------------------
      1         14           0       -1.078500   -1.150655   -0.389954
      2         14           0        1.090618   -1.128019    0.548439
      3          6           0        1.978631    0.489238   -0.031533
      4          1           0        1.912073   -2.310961    0.173883
      5          1           0        1.047981   -1.044527    2.027512
      6          8           0        1.377938    1.561194    0.042030
      7          7           0        3.247768    0.418046   -0.503965
      8          1           0        3.746592   -0.454011   -0.559553
      9          1           0        3.709839    1.268419   -0.798507
     10          6           0       -2.159450    0.410030   -0.011343
     11          1           0       -1.810264   -2.324464    0.131466
     12          1           0       -0.946860   -1.275064   -1.861997
     13          8           0       -3.371000    0.264055   -0.089057
     14          7           0       -1.551156    1.577322    0.302706
     15          1           0       -2.136648    2.391416    0.435494
     16          1           0       -0.539239    1.685444    0.275201
 ---------------------------------------------------------------------

 SCF Done:  E(RHF) =  -918.727006167     A.U. after    2 cycles

 The electronic state is 1-A.
 Alpha  occ. eigenvalues --  -76.24075 -76.23066 -21.05033 -21.01986 -15.80499
 Alpha  occ. eigenvalues --  -15.76130 -11.48585 -11.45760  -5.57712  -5.56649
 Alpha  occ. eigenvalues --   -2.21395  -2.20258  -2.19955  -2.19422  -2.18778
 Alpha  occ. eigenvalues --   -2.17949  -1.72276  -1.68625  -1.36225  -1.32423
 Alpha  occ. eigenvalues --   -0.89566  -0.85513  -0.79140  -0.73823  -0.71535
 Alpha  occ. eigenvalues --   -0.68072  -0.59715  -0.56353  -0.55386  -0.53266
 Alpha  occ. eigenvalues --   -0.49626  -0.49540  -0.47396  -0.45641  -0.38440
 Alpha  occ. eigenvalues --   -0.34556  -0.31088  -0.29910  -0.25473
 Alpha virt. eigenvalues --    0.02784   0.04614   0.04876   0.05314   0.05894
 Alpha virt. eigenvalues --    0.06577   0.07057   0.07559   0.07921   0.08522
 Alpha virt. eigenvalues --    0.08868   0.09731   0.10072   0.10615   0.11081

 Mulliken charges:
               1
     1  Si   4.546514
     2  Si   4.471141
     3  C    3.219597
     4  H   -1.742306
     5  H   -1.906066
     6  O   -2.809239
     7  N   -3.105310
     8  H    0.827989
     9  H    0.749066
    10  C    2.590500
    11  H   -1.718423
    12  H   -1.761890
    13  O   -2.665772
    14  N   -2.533788
    15  H    0.676499
    16  H    1.161488
 Sum of Mulliken charges =  -0.00000

 Dipole moment (field-independent basis, Debye):
    X=              3.8973    Y=              0.5186    Z=             -0.4030  Tot=              3.9522

 Test job not archived.
 1\1\GINC-SE184\SP\RHF\Aug-CC-pVDZ\C2H8N2O2Si2\OHZDE\09-Apr-2025\0\\#t
 hf aug-cc-pvdz iop(5/13=1,5/36=2,99/5=2) pseudo=read geom=check guess=
 (read,tcheck) scf=(maxcycle=1)\\title\\0,1\Si,0,-1.0785,-1.150655,-0.3
 89954\Si,0,1.090618,-1.128019,0.548439\C,0,1.978631,0.489238,-0.031533
 \H,0,1.912073,-2.310961,0.173883\H,0,1.047981,-1.044527,2.027512\O,0,1
 .377938,1.561194,0.04203\N,0,3.247768,0.418046,-0.503965\H,0,3.746592,
 -0.454011,-0.559553\H,0,3.709839,1.268419,-0.798507\C,0,-2.15945,0.410
 03,-0.011343\H,0,-1.810264,-2.324464,0.131466\H,0,-0.94686,-1.275064,-

 Normal termination of Gaussian 16 at Wed Apr  9 00:12:27 2025.
