 Gaussian 16, Revision C.01,

 ----------------------------------------------------------------------
 #t hf aug-cc-pvdz symm=none int=(grid=ultrafine) guess=(read,tcheck) s
 table=opt
 ----------------------------------------------------------------------
 -----
 title
 -----
 Symbolic Z-matrix:
 Charge =  0 Multiplicity = 2

 SCF Done:  E(UHF) =  -627.924003755     A.U. after   18 cycles
 Normal termination of Gaussian 16 at Tue Apr  8 23:06:15 2025.
 Gaussian 16:  ES64L-G16RevC.01  3-Jul-2019

 ----------------------------------------------------------------------
 #t hf aug-cc-pvdz iop(5/13=1,5/36=2,99/5=2) pseudo=read geom=check gue
 ss=(read,tcheck) scf=(maxcycle=1)
 ----------------------------------------------------------------------
 -----
 title
 -----
 Structure from the checkpoint file:  "BDE49_expt_385_mol2.chk"
 Charge =  0 Multiplicity = 2

                         Standard orientation:
 ---------------------------------------------------------------------
 Center     Atomic      Atomic             Coordinates (Angstroms)
 Number     Number       Type             X           Y           Z
 ---------------------------------------------------------------------
      1          8           0        0.166833    1.306327    0.087671
      2          6           0       -1.225378    1.159436   -0.192300
      3          6           0       -1.645553   -0.222980    0.311454
      4          1           0       -1.393581    1.241765   -1.271951
      5          1           0       -1.741829    1.969376    0.323562
      6         16           0       -0.206152   -1.286045   -0.099470
      7          1           0       -2.538101   -0.591551   -0.193173
      8          1           0       -1.802406   -0.229352    1.390842
      9          6           0        0.842691    0.162355   -0.268175
     10          6           0        2.275955    0.128548    0.136501
     11          1           0        2.393960    0.118721    1.230854
     12          1           0        2.790853    1.012101   -0.249871
     13          1           0        2.768571   -0.759102   -0.264984
 ---------------------------------------------------------------------

 SCF Done:  E(UHF) =  -629.213889847     A.U. after    2 cycles

 The electronic state is 2-A.
 Alpha  occ. eigenvalues --  -75.68122 -21.07307 -13.11693 -13.11210 -13.01527
 Alpha  occ. eigenvalues --  -11.45944 -11.43514 -11.39965 -11.37382  -8.02316
 Alpha  occ. eigenvalues --   -1.79793  -1.22067  -1.15293  -1.01699  -0.87363
 Alpha  occ. eigenvalues --   -0.78784  -0.67888  -0.66124  -0.60867  -0.58077
 Alpha  occ. eigenvalues --   -0.55365  -0.49818  -0.49004  -0.43793  -0.41690
 Alpha  occ. eigenvalues --   -0.35565  -0.27964  -0.18410
 Alpha virt. eigenvalues --    0.03615   0.04407   0.05532   0.05726   0.06037
 Alpha virt. eigenvalues --    0.06923   0.07360   0.08584   0.10464   0.12031
 Alpha virt. eigenvalues --    0.12593   0.13288   0.14323   0.15358   0.15831

  Beta  occ. eigenvalues --  -75.68070 -21.06918 -13.11718 -13.11322 -13.01066
  Beta  occ. eigenvalues --  -11.45776 -11.41829 -11.39932 -11.36969  -8.02248
  Beta  occ. eigenvalues --   -1.78472  -1.21407  -1.13026  -1.01392  -0.87191
  Beta  occ. eigenvalues --   -0.73878  -0.67224  -0.65695  -0.57814  -0.56583
  Beta  occ. eigenvalues --   -0.54844  -0.48728  -0.46385  -0.41280  -0.38191
  Beta  occ. eigenvalues --   -0.33926  -0.24260
  Beta virt. eigenvalues --    0.03378   0.04293   0.05450   0.05727   0.06001
  Beta virt. eigenvalues --    0.06876   0.07380   0.08629   0.10474   0.11801
  Beta virt. eigenvalues --    0.12206   0.12861   0.13470   0.14408   0.15609

 Mulliken charges and spin densities:
               1          2
     1  O   -3.086810   0.075807
     2  C   -1.452072  -0.017088
     3  C   -3.695931   0.026628
     4  H    1.580608  -0.026334
     5  H    1.367087   0.002444
     6  S    1.243695   0.002662
     7  H    1.338171   0.002515
     8  H    1.438302  -0.001289
     9  C    1.262815   1.234502
    10  C   -3.804072  -0.330395
    11  H    1.222832   0.034447
    12  H    1.309492  -0.001621
    13  H    1.275883  -0.002278
 Sum of Mulliken charges =   0.00000   1.00000

 Dipole moment (field-independent basis, Debye):
    X=             -0.8278    Y=             -0.4790    Z=              0.2534  Tot=              0.9894
                          Isotropic Fermi Contact Couplings
        Atom                 a.u.       MegaHertz       Gauss      10(-4) cm-1
     1  O(17)              0.03069     -18.60353      -6.63820      -6.20547
     2  C(13)             -0.00148      -1.66896      -0.59553      -0.55671
     3  C(13)              0.00064       0.71725       0.25593       0.23925
     4  H(1)               0.00038       1.70384       0.60797       0.56834
     5  H(1)              -0.00063      -2.82232      -1.00708      -0.94143
     6  S(33)              0.12791      43.93490      15.67706      14.65511
     7  H(1)              -0.00058      -2.58752      -0.92329      -0.86310
     8  H(1)               0.00196       8.76056       3.12599       2.92221

 Normal termination of Gaussian 16 at Tue Apr  8 23:06:19 2025.
