 Gaussian 16, Revision C.01,

 ----------------------------------------------------------------------
 #t hf aug-cc-pvdz symm=none int=(grid=ultrafine) guess=(read,tcheck) s
 table=opt
 ----------------------------------------------------------------------
 -----
 title
 -----
 Symbolic Z-matrix:
 Charge =  0 Multiplicity = 2

 SCF Done:  E(UHF) =  -234.765407930     A.U. after   16 cycles
 Normal termination of Gaussian 16 at Tue Apr  8 22:48:26 2025.
 Gaussian 16:  ES64L-G16RevC.01  3-Jul-2019

 ----------------------------------------------------------------------
 #t hf aug-cc-pvdz iop(5/13=1,5/36=2,99/5=2) pseudo=read geom=check gue
 ss=(read,tcheck) scf=(maxcycle=1)
 ----------------------------------------------------------------------
 -----
 title
 -----
 Structure from the checkpoint file:  "BDE49_expt_15_mol2.chk"
 Charge =  0 Multiplicity = 2

                         Standard orientation:
 ---------------------------------------------------------------------
 Center     Atomic      Atomic             Coordinates (Angstroms)
 Number     Number       Type             X           Y           Z
 ---------------------------------------------------------------------
      1          6           0       -3.180409    0.236993    0.075538
      2          6           0       -1.862010   -0.533534   -0.037909
      3          1           0       -3.286760    0.960702   -0.738683
      4          1           0       -3.234705    0.790951    1.017935
      5          1           0       -4.041647   -0.435566    0.036032
      6          6           0       -0.626298    0.370888    0.014312
      7          1           0       -1.852100   -1.104588   -0.974362
      8          1           0       -1.801627   -1.273790    0.769209
      9          6           0        0.700447   -0.392527   -0.101409
     10          1           0       -0.630507    0.941132    0.951139
     11          1           0       -0.685128    1.111151   -0.793782
     12          6           0        1.911910    0.478599   -0.066402
     13          1           0        0.686884   -0.983293   -1.036822
     14          1           0        0.764293   -1.143919    0.699850
     15          6           0        3.276409   -0.093111    0.114672
     16          1           0        1.815903    1.508018   -0.399281
     17          1           0        3.303784   -0.820828    0.935359
     18          1           0        4.019644    0.680464    0.323622
     19          1           0        3.621671   -0.634283   -0.783022
 ---------------------------------------------------------------------

 SCF Done:  E(UHF) =  -235.977665120     A.U. after    2 cycles

 The electronic state is 2-A.
 Alpha  occ. eigenvalues --  -11.41927 -11.41158 -11.38698 -11.37102 -11.35563
 Alpha  occ. eigenvalues --  -11.33710  -1.26551  -1.15522  -1.04130  -0.92901
 Alpha  occ. eigenvalues --   -0.83088  -0.80804  -0.65084  -0.60475  -0.59036
 Alpha  occ. eigenvalues --   -0.57791  -0.55005  -0.52759  -0.51679  -0.49237
 Alpha  occ. eigenvalues --   -0.46769  -0.45104  -0.44573  -0.39994  -0.28941
 Alpha virt. eigenvalues --    0.04147   0.04749   0.05413   0.05713   0.06034
 Alpha virt. eigenvalues --    0.06120   0.06423   0.06809   0.07530   0.08221
 Alpha virt. eigenvalues --    0.08376   0.09243   0.10447   0.11166   0.13245

  Beta  occ. eigenvalues --  -11.41743 -11.40911 -11.38375 -11.37185 -11.35039
  Beta  occ. eigenvalues --  -11.33185  -1.25273  -1.13296  -1.03832  -0.92278
  Beta  occ. eigenvalues --   -0.82513  -0.76848  -0.64392  -0.59845  -0.57710
  Beta  occ. eigenvalues --   -0.56697  -0.53505  -0.51866  -0.51568  -0.48548
  Beta  occ. eigenvalues --   -0.46239  -0.44898  -0.44379  -0.39537
  Beta virt. eigenvalues --    0.04150   0.04759   0.05278   0.05719   0.06045
  Beta virt. eigenvalues --    0.06139   0.06418   0.06832   0.07526   0.08130
  Beta virt. eigenvalues --    0.08312   0.09258   0.10065   0.11171   0.12146

 Mulliken charges and spin densities:
               1          2
     1  C   -4.309531   0.001952
     2  C   -3.168822  -0.010120
     3  H    1.311831  -0.000127
     4  H    1.290645   0.000281
     5  H    1.072692   0.000690
     6  C   -2.210557   0.079789
     7  H    1.424195   0.000214
     8  H    1.479510  -0.000479
     9  C   -2.903959  -0.550538
    10  H    1.561506  -0.002351
    11  H    1.582901  -0.004967
    12  C   -0.410211   1.808725
    13  H    1.417765   0.025495
    14  H    1.472629   0.008652
    15  C   -4.701941  -0.398157
    16  H    1.390890  -0.003783
    17  H    1.240592   0.013483
    18  H    1.207759  -0.002274
    19  H    1.252107   0.033516
 Sum of Mulliken charges =   0.00000   1.00000

 Dipole moment (field-independent basis, Debye):
    X=              0.0083    Y=             -0.1009    Z=             -0.1397  Tot=              0.1726
                          Isotropic Fermi Contact Couplings
        Atom                 a.u.       MegaHertz       Gauss      10(-4) cm-1
     1  C(13)             -0.00003      -0.03478      -0.01241      -0.01160
     2  C(13)             -0.00162      -1.82423      -0.65093      -0.60850
     3  H(1)               0.00001       0.03586       0.01280       0.01196
     4  H(1)               0.00006       0.26082       0.09307       0.08700
     5  H(1)               0.00004       0.16386       0.05847       0.05466
     6  C(13)              0.00782       8.79602       3.13864       2.93404
     7  H(1)               0.00017       0.76676       0.27360       0.25576
     8  H(1)               0.00010       0.45627       0.16281       0.15220

 Normal termination of Gaussian 16 at Tue Apr  8 22:48:33 2025.
