 Gaussian 16, Revision C.01,

 ----------------------------------------------------------------------
 #t hf aug-cc-pvdz symm=none int=(grid=ultrafine) guess=(read,tcheck) s
 table=(opt,rrhf)
 ----------------------------------------------------------------------
 -----
 title
 -----
 Symbolic Z-matrix:
 Charge =  0 Multiplicity = 1

 SCF Done:  E(RHF) =  -170.038694155     A.U. after   12 cycles
 Normal termination of Gaussian 16 at Tue Apr  8 22:54:34 2025.
 Gaussian 16:  ES64L-G16RevC.01  3-Jul-2019

 ----------------------------------------------------------------------
 #t hf aug-cc-pvdz iop(5/13=1,5/36=2,99/5=2) pseudo=read geom=check gue
 ss=(read,tcheck) scf=(maxcycle=1)
 ----------------------------------------------------------------------
 -----
 title
 -----
 Structure from the checkpoint file:  "BDE49_expt_1806_mol1.chk"
 Charge =  0 Multiplicity = 1

                         Standard orientation:
 ---------------------------------------------------------------------
 Center     Atomic      Atomic             Coordinates (Angstroms)
 Number     Number       Type             X           Y           Z
 ---------------------------------------------------------------------
      1          6           0        1.173032   -0.205079    0.000008
      2          8           0       -0.012106    0.575774    0.000009
      3          1           0        1.237700   -0.838757    0.892025
      4          1           0        1.996492    0.512307    0.000002
      5          1           0        1.237685   -0.838772   -0.891997
      6          7           0       -1.148285   -0.311995   -0.000037
      7          1           0       -1.687655   -0.013110   -0.811863
      8          1           0       -1.687563   -0.013426    0.811971
 ---------------------------------------------------------------------

 SCF Done:  E(RHF) =  -170.808326005     A.U. after    2 cycles

 The electronic state is 1-A.
 Alpha  occ. eigenvalues --  -21.05806 -15.77401 -11.39222  -1.77654  -1.18701
 Alpha  occ. eigenvalues --   -0.94132  -0.67193  -0.63639  -0.58201  -0.53011
 Alpha  occ. eigenvalues --   -0.48028  -0.34128  -0.30234
 Alpha virt. eigenvalues --    0.04013   0.05500   0.06113   0.06525   0.07209
 Alpha virt. eigenvalues --    0.11202   0.13920   0.15434   0.16435   0.17467
 Alpha virt. eigenvalues --    0.18895   0.20993   0.22337   0.23835   0.26626

 Mulliken charges:
               1
     1  C   -2.466781
     2  O   -2.344113
     3  H    1.242211
     4  H    1.239316
     5  H    1.242218
     6  N   -0.306744
     7  H    0.696955
     8  H    0.696938
 Sum of Mulliken charges =  -0.00000

 Dipole moment (field-independent basis, Debye):
    X=             -0.5281    Y=              0.4303    Z=              0.0002  Tot=              0.6812

 Test job not archived.
 1\1\GINC-SE332\SP\RHF\Aug-CC-pVDZ\C1H5N1O1\OHZDE\08-Apr-2025\0\\#t hf
 aug-cc-pvdz iop(5/13=1,5/36=2,99/5=2) pseudo=read geom=check guess=(re
 ad,tcheck) scf=(maxcycle=1)\\title\\0,1\C,0,-1.173032,-0.205079,-0.000
 008\O,0,0.012106,0.575774,-0.000009\H,0,-1.2377,-0.838757,-0.892025\H,
 0,-1.996492,0.512307,-0.000002\H,0,-1.237685,-0.838772,0.891997\N,0,1.
 148285,-0.311995,0.000037\H,0,1.687655,-0.01311,0.811863\H,0,1.687563,
 -0.013426,-0.811971\\Version=ES64L-G16RevC.01\State=1-A\HF=-170.808326
 \RMSD=4.824e-02\Dipole=0.2077645,0.1692861,-0.0000783\Quadrupole=2.001

 Normal termination of Gaussian 16 at Tue Apr  8 22:54:35 2025.
