 Gaussian 16, Revision C.01,

 ----------------------------------------------------------------------
 #t hf aug-cc-pvdz symm=none int=(grid=ultrafine) guess=(read,tcheck) s
 table=opt
 ----------------------------------------------------------------------
 -----
 title
 -----
 Symbolic Z-matrix:
 Charge =  0 Multiplicity = 2

 SCF Done:  E(UHF) =  -295.722804586     A.U. after   18 cycles
 Normal termination of Gaussian 16 at Wed Apr  9 00:35:06 2025.
 Gaussian 16:  ES64L-G16RevC.01  3-Jul-2019

 ----------------------------------------------------------------------
 #t hf aug-cc-pvdz iop(5/13=1,5/36=2,99/5=2) pseudo=read geom=check gue
 ss=(read,tcheck) scf=(maxcycle=1)
 ----------------------------------------------------------------------
 -----
 title
 -----
 Structure from the checkpoint file:  "BDE49_nonexpt_445_mol2.chk"
 Charge =  0 Multiplicity = 2

                         Standard orientation:
 ---------------------------------------------------------------------
 Center     Atomic      Atomic             Coordinates (Angstroms)
 Number     Number       Type             X           Y           Z
 ---------------------------------------------------------------------
      1          9           0       -2.936774    0.000037    0.023200
      2          7           0       -0.384715   -0.000162   -0.048751
      3          6           0        1.686858    1.304656    0.026700
      4          6           0        0.962229    0.000005   -0.109300
      5          6           0        1.687153   -1.304483    0.026708
      6          5           0       -1.632663   -0.000183    0.010634
      7          1           0        1.141912    2.108599   -0.474918
      8          1           0        2.691840    1.245330   -0.400097
      9          1           0        1.800614    1.602109    1.082317
     10          1           0        1.142402   -2.108547   -0.474929
     11          1           0        1.800948   -1.601918    1.082326
     12          1           0        2.692130   -1.244922   -0.400064
 ---------------------------------------------------------------------

 SCF Done:  E(UHF) =  -296.969780147     A.U. after    2 cycles

 The electronic state is 2-A.
 Alpha  occ. eigenvalues --  -29.29103 -15.67313 -11.42858 -11.37567 -11.35433
 Alpha  occ. eigenvalues --   -7.71697  -1.37022  -1.13577  -1.01216  -0.96329
 Alpha  occ. eigenvalues --   -0.87427  -0.65577  -0.64980  -0.64631  -0.58177
 Alpha  occ. eigenvalues --   -0.55133  -0.53643  -0.52402  -0.47567  -0.45856
 Alpha  occ. eigenvalues --   -0.36840  -0.26524  -0.18362
 Alpha virt. eigenvalues --    0.03353   0.03693   0.03742   0.05612   0.06339
 Alpha virt. eigenvalues --    0.06471   0.07229   0.07715   0.09019   0.09380
 Alpha virt. eigenvalues --    0.09885   0.13634   0.14344   0.14713   0.14905

  Beta  occ. eigenvalues --  -29.29002 -15.68218 -11.41199 -11.37875 -11.35087
  Beta  occ. eigenvalues --   -7.71195  -1.35985  -1.12044  -1.01158  -0.95994
  Beta  occ. eigenvalues --   -0.84819  -0.65391  -0.63548  -0.63041  -0.55439
  Beta  occ. eigenvalues --   -0.54618  -0.52779  -0.52038  -0.46825  -0.45554
  Beta  occ. eigenvalues --   -0.31766  -0.27486
  Beta virt. eigenvalues --    0.03325   0.03781   0.03843   0.05629   0.06392
  Beta virt. eigenvalues --    0.06401   0.07249   0.07670   0.09053   0.09527
  Beta virt. eigenvalues --    0.10467   0.13388   0.13939   0.14473   0.14892

 Mulliken charges and spin densities:
               1          2
     1  F    0.863576   0.088413
     2  N   -4.097595  -0.270713
     3  C   -3.829480  -0.366102
     4  C    4.122862   1.555345
     5  C   -3.829271  -0.366135
     6  B   -0.825249   0.262481
     7  H    1.315616   0.007012
     8  H    1.308705   0.006723
     9  H    1.173223   0.034622
    10  H    1.315653   0.007011
    11  H    1.173233   0.034625
    12  H    1.308728   0.006719
 Sum of Mulliken charges =  -0.00000   1.00000

 Dipole moment (field-independent basis, Debye):
    X=             -3.6536    Y=              0.0007    Z=              0.1155  Tot=              3.6554
                          Isotropic Fermi Contact Couplings
        Atom                 a.u.       MegaHertz       Gauss      10(-4) cm-1
     1  F(19)             -0.00175      -7.35830      -2.62562      -2.45447
     2  N(14)             -0.10237     -33.07759     -11.80291     -11.03350
     3  C(13)             -0.03300     -37.10358     -13.23948     -12.37642
     4  C(13)              0.14836     166.78424      59.51277      55.63323
     5  C(13)             -0.03300     -37.10357     -13.23948     -12.37642
     6  B(11)              0.02387      34.23531      12.21601      11.41967
     7  H(1)               0.00597      26.69166       9.52425       8.90338
     8  H(1)               0.00420      18.77418       6.69909       6.26239

 Normal termination of Gaussian 16 at Wed Apr  9 00:35:10 2025.
