 Gaussian 16, Revision C.01,

 ----------------------------------------------------------------------
 #t hf aug-cc-pvdz symm=none int=(grid=ultrafine) guess=(read,tcheck) s
 table=(opt,rrhf)
 ----------------------------------------------------------------------
 -----
 title
 -----
 Symbolic Z-matrix:
 Charge =  0 Multiplicity = 1

 SCF Done:  E(RHF) =  -776.392811616     A.U. after   15 cycles
 Normal termination of Gaussian 16 at Wed Apr  9 00:02:17 2025.
 Gaussian 16:  ES64L-G16RevC.01  3-Jul-2019

 ----------------------------------------------------------------------
 #t hf aug-cc-pvdz iop(5/13=1,5/36=2,99/5=2) pseudo=read geom=check gue
 ss=(read,tcheck) scf=(maxcycle=1)
 ----------------------------------------------------------------------
 -----
 title
 -----
 Structure from the checkpoint file:  "BDE49_nonexpt_2117_mol1.chk"
 Charge =  0 Multiplicity = 1

                         Standard orientation:
 ---------------------------------------------------------------------
 Center     Atomic      Atomic             Coordinates (Angstroms)
 Number     Number       Type             X           Y           Z
 ---------------------------------------------------------------------
      1          6           0        0.150861    1.529615    1.593826
      2         14           0       -0.000007    0.615997    0.000026
      3          1           0        0.196505    0.822788    2.424149
      4          1           0       -0.706232    2.192796    1.739847
      5          1           0        1.063901    2.129588    1.598530
      6          6           0       -0.150944    1.529867   -1.593623
      7          1           0       -0.196533    0.823175   -2.424064
      8          1           0        0.706099    2.193139   -1.739534
      9          1           0       -1.064030    2.129771   -1.598226
     10          7           0       -1.429812   -0.568443    0.174906
     11          7           0        1.429890   -0.568300   -0.175056
     12          8           0        1.337133   -1.394660   -1.078221
     13          8           0        2.397143   -0.437462    0.567999
     14          8           0       -2.397152   -0.437439   -0.568006
     15          8           0       -1.337081   -1.394803    1.078073
 ---------------------------------------------------------------------

 SCF Done:  E(RHF) =  -778.650180724     A.U. after    2 cycles

 The electronic state is 1-A.
 Alpha  occ. eigenvalues --  -76.31862 -21.11495 -21.11483 -21.11220 -21.11204
 Alpha  occ. eigenvalues --  -15.98177 -15.98157 -11.40660 -11.40546  -5.66092
 Alpha  occ. eigenvalues --   -2.30159  -2.30141  -2.30059  -1.99137  -1.99108
 Alpha  occ. eigenvalues --   -1.70188  -1.69928  -1.14301  -1.07319  -1.02226
 Alpha  occ. eigenvalues --   -0.97754  -0.75147  -0.71523  -0.68268  -0.66020
 Alpha  occ. eigenvalues --   -0.62995  -0.62242  -0.62194  -0.60744  -0.60210
 Alpha  occ. eigenvalues --   -0.59723  -0.57560  -0.46777  -0.35357  -0.34462
 Alpha  occ. eigenvalues --   -0.33504  -0.32930  -0.32394  -0.31936
 Alpha virt. eigenvalues --    0.01684   0.04180   0.04842   0.05892   0.06417
 Alpha virt. eigenvalues --    0.07059   0.08314   0.08697   0.09121   0.09543
 Alpha virt. eigenvalues --    0.10546   0.11179   0.12730   0.13060   0.14107

 Mulliken charges:
               1
     1  C   -5.649105
     2  Si   7.690666
     3  H    1.161111
     4  H    1.045507
     5  H    1.183249
     6  C   -5.649034
     7  H    1.161101
     8  H    1.045498
     9  H    1.183257
    10  N    2.874199
    11  N    2.874125
    12  O   -2.332521
    13  O   -2.127734
    14  O   -2.127728
    15  O   -2.332591
 Sum of Mulliken charges =  -0.00000

 Dipole moment (field-independent basis, Debye):
    X=             -0.0001    Y=              3.8351    Z=              0.0003  Tot=              3.8351

 Test job not archived.
 1\1\GINC-SE322\SP\RHF\Aug-CC-pVDZ\C2H6N2O4Si1\OHZDE\09-Apr-2025\0\\#t
 hf aug-cc-pvdz iop(5/13=1,5/36=2,99/5=2) pseudo=read geom=check guess=
 (read,tcheck) scf=(maxcycle=1)\\title\\0,1\C,0,-0.150861,1.529615,-1.5
 93826\Si,0,0.000007,0.615997,-0.000026\H,0,-0.196505,0.822788,-2.42414
 9\H,0,0.706232,2.192796,-1.739847\H,0,-1.063901,2.129588,-1.59853\C,0,
 0.150944,1.529867,1.593623\H,0,0.196533,0.823175,2.424064\H,0,-0.70609
 9,2.193139,1.739534\H,0,1.06403,2.129771,1.598226\N,0,1.429812,-0.5684
 43,-0.174906\N,0,-1.42989,-0.5683,0.175056\O,0,-1.337133,-1.39466,1.07

 Normal termination of Gaussian 16 at Wed Apr  9 00:02:24 2025.
