 Gaussian 16, Revision C.01,

 ----------------------------------------------------------------------
 #t hf aug-cc-pvdz symm=none int=(grid=ultrafine) guess=(read,tcheck) s
 table=(opt,rrhf)
 ----------------------------------------------------------------------
 -----
 title
 -----
 Symbolic Z-matrix:
 Charge =  0 Multiplicity = 1

 SCF Done:  E(RHF) =  -461.057646073     A.U. after   11 cycles
 Normal termination of Gaussian 16 at Wed Apr  9 00:30:59 2025.
 Gaussian 16:  ES64L-G16RevC.01  3-Jul-2019

 ----------------------------------------------------------------------
 #t hf aug-cc-pvdz iop(5/13=1,5/36=2,99/5=2) pseudo=read geom=check gue
 ss=(read,tcheck) scf=(maxcycle=1)
 ----------------------------------------------------------------------
 -----
 title
 -----
 Structure from the checkpoint file:  "BDE49_nonexpt_358_mol1.chk"
 Charge =  0 Multiplicity = 1

                         Standard orientation:
 ---------------------------------------------------------------------
 Center     Atomic      Atomic             Coordinates (Angstroms)
 Number     Number       Type             X           Y           Z
 ---------------------------------------------------------------------
      1          9           0        1.677458   -0.883714   -0.349639
      2          9           0        1.195842    1.171339    0.474916
      3          5           0        0.787235    0.046476   -0.065300
      4          6           0       -0.754757   -0.227099   -0.364940
      5          9           0       -1.227689   -1.015491    0.669730
      6          9           0       -1.472652    0.937670   -0.371201
      7          1           0       -0.964263   -0.758033   -1.298117
 ---------------------------------------------------------------------

 SCF Done:  E(RHF) =  -462.680572456     A.U. after    2 cycles

 The electronic state is 1-A.
 Alpha  occ. eigenvalues --  -29.29732 -29.29677 -29.28771 -29.28358 -11.50193
 Alpha  occ. eigenvalues --   -7.73321  -1.34238  -1.11356  -0.83443  -0.78564
 Alpha  occ. eigenvalues --   -0.72443  -0.72151  -0.53047  -0.49447  -0.48099
 Alpha  occ. eigenvalues --   -0.45549  -0.40013  -0.37431  -0.36410  -0.35524
 Alpha  occ. eigenvalues --   -0.30944  -0.29995  -0.23752  -0.21869
 Alpha virt. eigenvalues --    0.03050   0.04962   0.05773   0.06355   0.06970
 Alpha virt. eigenvalues --    0.11510   0.13678   0.14754   0.15580   0.19141
 Alpha virt. eigenvalues --    0.20824   0.21251   0.22199   0.22971   0.24206

 Mulliken charges:
               1
     1  F    0.035094
     2  F   -0.174317
     3  B    1.646177
     4  C   -3.205560
     5  F    0.111141
     6  F    0.231518
     7  H    1.355947
 Sum of Mulliken charges =  -0.00000

 Dipole moment (field-independent basis, Debye):
    X=              0.9464    Y=              0.5498    Z=              1.1818  Tot=              1.6107

 Test job not archived.
 1\1\GINC-SE212\SP\RHF\Aug-CC-pVDZ\C1H1B1F4\OHZDE\09-Apr-2025\0\\#t hf
 aug-cc-pvdz iop(5/13=1,5/36=2,99/5=2) pseudo=read geom=check guess=(re
 ad,tcheck) scf=(maxcycle=1)\\title\\0,1\F,0,-1.677458,-0.883714,0.3496
 39\F,0,-1.195842,1.171339,-0.474916\B,0,-0.787235,0.046476,0.0653\C,0,
 0.754757,-0.227099,0.36494\F,0,1.227689,-1.015491,-0.66973\F,0,1.47265
 2,0.93767,0.371201\H,0,0.964263,-0.758033,1.298117\\Version=ES64L-G16R
 evC.01\State=1-A\HF=-462.6805725\RMSD=2.390e-01\Dipole=-0.3723333,0.21
 62986,-0.464946\Quadrupole=0.8897172,1.5810621,-2.4707793,0.807166,-0.

 Normal termination of Gaussian 16 at Wed Apr  9 00:31:01 2025.
