 Gaussian 16, Revision C.01,

 ----------------------------------------------------------------------
 #t hf aug-cc-pvdz symm=none int=(grid=ultrafine) guess=(read,tcheck) s
 table=(opt,rrhf)
 ----------------------------------------------------------------------
 -----
 title
 -----
 Symbolic Z-matrix:
 Charge =  0 Multiplicity = 1

 SCF Done:  E(RHF) =  -573.587307542     A.U. after   11 cycles
 Normal termination of Gaussian 16 at Tue Apr  8 22:38:27 2025.
 Gaussian 16:  ES64L-G16RevC.01  3-Jul-2019

 ----------------------------------------------------------------------
 #t hf aug-cc-pvdz iop(5/13=1,5/36=2,99/5=2) pseudo=read geom=check gue
 ss=(read,tcheck) scf=(maxcycle=1)
 ----------------------------------------------------------------------
 -----
 title
 -----
 Structure from the checkpoint file:  "BDE49_expt_119_mol1.chk"
 Charge =  0 Multiplicity = 1

                         Standard orientation:
 ---------------------------------------------------------------------
 Center     Atomic      Atomic             Coordinates (Angstroms)
 Number     Number       Type             X           Y           Z
 ---------------------------------------------------------------------
      1          6           0       -0.603755    0.751692   -0.000000
      2          9           0       -0.234569    1.446937    1.102033
      3          6           0        0.120702   -0.602927    0.000000
      4          9           0       -0.234569    1.446937   -1.102033
      5          1           0       -1.686986    0.612043   -0.000000
      6          9           0       -0.234569   -1.303746    1.088715
      7          9           0        1.447754   -0.453564    0.000000
      8          9           0       -0.234569   -1.303746   -1.088715
 ---------------------------------------------------------------------

 SCF Done:  E(RHF) =  -575.600637390     A.U. after    2 cycles

 The electronic state is 1-A'.
 Alpha  occ. eigenvalues --  -29.33562 -29.33522 -29.33306 -29.32062 -29.32017
 Alpha  occ. eigenvalues --  -11.63246 -11.54987  -1.49538  -1.26356  -0.94900
 Alpha  occ. eigenvalues --   -0.93753  -0.83615  -0.79971  -0.75346  -0.50813
 Alpha  occ. eigenvalues --   -0.47926  -0.46326  -0.46039  -0.42550  -0.40828
 Alpha  occ. eigenvalues --   -0.38561  -0.37438  -0.33909  -0.32411  -0.28595
 Alpha  occ. eigenvalues --   -0.28449  -0.25803  -0.24457  -0.22891
 Alpha virt. eigenvalues --    0.04480   0.10033   0.10750   0.11135   0.12340
 Alpha virt. eigenvalues --    0.12850   0.12940   0.19948   0.20671   0.20683
 Alpha virt. eigenvalues --    0.22050   0.24745   0.24973   0.25601   0.26625

 Mulliken charges:
               1
     1  C   -2.741654
     2  F    0.481411
     3  C   -1.093165
     4  F    0.481411
     5  H    1.354691
     6  F    0.479344
     7  F    0.558618
     8  F    0.479344
 Sum of Mulliken charges =   0.00000

 Dipole moment (field-independent basis, Debye):
    X=              1.3113    Y=              0.3600    Z=             -0.0000  Tot=              1.3599

 Test job not archived.
 1\1\GINC-SE082\SP\RHF\Aug-CC-pVDZ\C2H1F5\OHZDE\08-Apr-2025\0\\#t hf au
 g-cc-pvdz iop(5/13=1,5/36=2,99/5=2) pseudo=read geom=check guess=(read
 ,tcheck) scf=(maxcycle=1)\\title\\0,1\C,0,-0.603755,0.751692,0.\F,0,-0
 .234569,1.446937,1.102033\C,0,0.120702,-0.602927,0.\F,0,-0.234569,1.44
 6937,-1.102033\H,0,-1.686986,0.612043,0.\F,0,-0.234569,-1.303746,1.088
 715\F,0,1.447754,-0.453564,0.\F,0,-0.234569,-1.303746,-1.088715\\Versi
 on=ES64L-G16RevC.01\State=1-A'\HF=-575.6006374\RMSD=1.681e-01\Dipole=0
 .5159211,0.1416493,0.\Quadrupole=-0.9437291,0.6166941,0.327035,0.08600

 Normal termination of Gaussian 16 at Tue Apr  8 22:38:30 2025.
