 Gaussian 16, Revision C.01,

 ----------------------------------------------------------------------
 #t hf aug-cc-pvdz symm=none int=(grid=ultrafine) guess=(read,tcheck) s
 table=(opt,rrhf)
 ----------------------------------------------------------------------
 -----
 title
 -----
 Symbolic Z-matrix:
 Charge =  0 Multiplicity = 1

 SCF Done:  E(RHF) =  -664.377528425     A.U. after   13 cycles
 Normal termination of Gaussian 16 at Tue Apr  8 23:24:03 2025.
 Gaussian 16:  ES64L-G16RevC.01  3-Jul-2019

 ----------------------------------------------------------------------
 #t hf aug-cc-pvdz iop(5/13=1,5/36=2,99/5=2) pseudo=read geom=check gue
 ss=(read,tcheck) scf=(maxcycle=1)
 ----------------------------------------------------------------------
 -----
 title
 -----
 Structure from the checkpoint file:  "BDE49_nonexpt_1217_mol1.chk"
 Charge =  0 Multiplicity = 1

                         Standard orientation:
 ---------------------------------------------------------------------
 Center     Atomic      Atomic             Coordinates (Angstroms)
 Number     Number       Type             X           Y           Z
 ---------------------------------------------------------------------
      1         16           0       -2.299315   -0.044102   -0.000034
      2          8           0       -0.718294   -0.745879    0.000001
      3          6           0        0.359529    0.082606    0.000042
      4          8           0        0.280272    1.283156    0.000015
      5          6           0        1.635431   -0.733206    0.000016
      6          6           0        2.892162    0.133979    0.000006
      7          1           0        1.601366   -1.393265   -0.872268
      8          1           0        1.601389   -1.393279    0.872289
      9          1           0        2.925068    0.777830   -0.880481
     10          1           0        3.784090   -0.496337   -0.000012
     11          1           0        2.925092    0.777814    0.880504
     12          1           0       -1.866516    1.234380    0.000009
 ---------------------------------------------------------------------

 SCF Done:  E(RHF) =  -665.780395811     A.U. after    2 cycles

 The electronic state is 1-A.
 Alpha  occ. eigenvalues --  -75.74788 -21.11067 -21.06410 -13.20582 -13.15590
 Alpha  occ. eigenvalues --  -13.06167 -11.53685 -11.42880 -11.37616  -8.08170
 Alpha  occ. eigenvalues --   -1.84783  -1.67634  -1.19676  -1.09064  -0.94450
 Alpha  occ. eigenvalues --   -0.75882  -0.68040  -0.65487  -0.58365  -0.55536
 Alpha  occ. eigenvalues --   -0.54759  -0.50287  -0.49092  -0.44239  -0.41186
 Alpha  occ. eigenvalues --   -0.38775  -0.31493  -0.23495
 Alpha virt. eigenvalues --    0.03105   0.04714   0.05606   0.06169   0.06256
 Alpha virt. eigenvalues --    0.06893   0.08450   0.10144   0.10668   0.11522
 Alpha virt. eigenvalues --    0.12897   0.13871   0.15038   0.15977   0.16110

 Mulliken charges:
               1
     1  S   -0.231938
     2  O   -2.839963
     3  C    5.315551
     4  O   -2.832594
     5  C   -3.574513
     6  C   -3.295687
     7  H    1.446453
     8  H    1.446485
     9  H    1.254481
    10  H    1.107839
    11  H    1.254472
    12  H    0.949414
 Sum of Mulliken charges =   0.00000

 Dipole moment (field-independent basis, Debye):
    X=             -0.3654    Y=             -1.6412    Z=             -0.0001  Tot=              1.6814

 Test job not archived.
 1\1\GINC-SE015\SP\RHF\Aug-CC-pVDZ\C3H6O2S1\OHZDE\08-Apr-2025\0\\#t hf
 aug-cc-pvdz iop(5/13=1,5/36=2,99/5=2) pseudo=read geom=check guess=(re
 ad,tcheck) scf=(maxcycle=1)\\title\\0,1\S,0,-2.299315,-0.044102,-0.000
 034\O,0,-0.718294,-0.745879,0.000001\C,0,0.359529,0.082606,0.000042\O,
 0,0.280272,1.283156,0.000015\C,0,1.635431,-0.733206,0.000016\C,0,2.892
 162,0.133979,0.000006\H,0,1.601366,-1.393265,-0.872268\H,0,1.601389,-1
 .393279,0.872289\H,0,2.925068,0.77783,-0.880481\H,0,3.78409,-0.496337,
 -0.000012\H,0,2.925092,0.777814,0.880504\H,0,-1.866516,1.23438,0.00000

 Normal termination of Gaussian 16 at Tue Apr  8 23:24:07 2025.
