 Gaussian 16, Revision C.01,

 ----------------------------------------------------------------------
 #t hf aug-cc-pvdz symm=none int=(grid=ultrafine) guess=(read,tcheck) s
 table=(opt,rrhf)
 ----------------------------------------------------------------------
 -----
 title
 -----
 Symbolic Z-matrix:
 Charge =  0 Multiplicity = 1

 SCF Done:  E(RHF) =  -405.147808474     A.U. after   11 cycles
 Normal termination of Gaussian 16 at Tue Apr  8 23:50:17 2025.
 Gaussian 16:  ES64L-G16RevC.01  3-Jul-2019

 ----------------------------------------------------------------------
 #t hf aug-cc-pvdz iop(5/13=1,5/36=2,99/5=2) pseudo=read geom=check gue
 ss=(read,tcheck) scf=(maxcycle=1)
 ----------------------------------------------------------------------
 -----
 title
 -----
 Structure from the checkpoint file:  "BDE49_nonexpt_1865_mol1.chk"
 Charge =  0 Multiplicity = 1

                         Standard orientation:
 ---------------------------------------------------------------------
 Center     Atomic      Atomic             Coordinates (Angstroms)
 Number     Number       Type             X           Y           Z
 ---------------------------------------------------------------------
      1          6           0       -0.640241    0.641467   -0.039458
      2         14           0        1.104557   -0.104839    0.008588
      3          8           0       -1.642472   -0.378238    0.112592
      4          1           0       -1.595360   -0.953610   -0.657213
      5          1           0        2.139689    0.921497   -0.271919
      6          1           0        1.183917   -1.160526   -1.033348
      7          1           0        1.366291   -0.721956    1.328126
      8          1           0       -0.799398    1.233860   -0.951556
      9          1           0       -0.777723    1.325584    0.801699
 ---------------------------------------------------------------------

 SCF Done:  E(RHF) =  -405.831107272     A.U. after    2 cycles

 The electronic state is 1-A.
 Alpha  occ. eigenvalues --  -76.21478 -21.07520 -11.38987  -5.55045  -2.18679
 Alpha  occ. eigenvalues --   -2.17267  -2.17159  -1.70221  -0.98093  -0.76055
 Alpha  occ. eigenvalues --   -0.64137  -0.55310  -0.52095  -0.47008  -0.46925
 Alpha  occ. eigenvalues --   -0.40389  -0.30041
 Alpha virt. eigenvalues --    0.03709   0.04831   0.05559   0.05925   0.07373
 Alpha virt. eigenvalues --    0.07822   0.08574   0.09556   0.09957   0.13285
 Alpha virt. eigenvalues --    0.14686   0.15496   0.16495   0.17454   0.19133

 Mulliken charges:
               1
     1  C   -2.132719
     2  Si   5.858903
     3  O   -2.256350
     4  H    0.829633
     5  H   -1.591904
     6  H   -1.656279
     7  H   -1.694222
     8  H    1.320150
     9  H    1.322787
 Sum of Mulliken charges =  -0.00000

 Dipole moment (field-independent basis, Debye):
    X=             -0.3031    Y=              0.4253    Z=             -0.4456  Tot=              0.6865

 Test job not archived.
 1\1\GINC-SE335\SP\RHF\Aug-CC-pVDZ\C1H6O1Si1\OHZDE\08-Apr-2025\0\\#t hf
  aug-cc-pvdz iop(5/13=1,5/36=2,99/5=2) pseudo=read geom=check guess=(r
 ead,tcheck) scf=(maxcycle=1)\\title\\0,1\C,0,-0.640241,0.641467,-0.039
 458\Si,0,1.104557,-0.104839,0.008588\O,0,-1.642472,-0.378238,0.112592\
 H,0,-1.59536,-0.95361,-0.657213\H,0,2.139688,0.921498,-0.271919\H,0,1.
 183917,-1.160526,-1.033348\H,0,1.366291,-0.721956,1.328126\H,0,-0.7993
 99,1.23386,-0.951556\H,0,-0.777724,1.325584,0.801699\\Version=ES64L-G1
 6RevC.01\State=1-A\HF=-405.8311073\RMSD=8.134e-02\Dipole=-0.1192677,0.

 Normal termination of Gaussian 16 at Tue Apr  8 23:50:19 2025.
