 Gaussian 16, Revision C.01,

 ----------------------------------------------------------------------
 #t hf aug-cc-pvdz symm=none int=(grid=ultrafine) guess=(read,tcheck) s
 table=opt
 ----------------------------------------------------------------------
 -----
 title
 -----
 Symbolic Z-matrix:
 Charge =  0 Multiplicity = 2

 SCF Done:  E(UHF) =  -751.576444579     A.U. after   18 cycles
 Normal termination of Gaussian 16 at Wed Apr  9 00:08:37 2025.
 Gaussian 16:  ES64L-G16RevC.01  3-Jul-2019

 ----------------------------------------------------------------------
 #t hf aug-cc-pvdz iop(5/13=1,5/36=2,99/5=2) pseudo=read geom=check gue
 ss=(read,tcheck) scf=(maxcycle=1)
 ----------------------------------------------------------------------
 -----
 title
 -----
 Structure from the checkpoint file:  "BDE49_nonexpt_226_mol2.chk"
 Charge =  0 Multiplicity = 2

                         Standard orientation:
 ---------------------------------------------------------------------
 Center     Atomic      Atomic             Coordinates (Angstroms)
 Number     Number       Type             X           Y           Z
 ---------------------------------------------------------------------
      1         17           0       -2.614773   -0.008202   -0.012679
      2          5           0       -1.019298   -0.645876   -0.247879
      3          6           0        0.293769   -0.015492    0.399402
      4          8           0        0.695452    0.976128   -0.524058
      5          8           0        1.311144   -0.940115    0.712255
      6          6           0        1.575679    1.957194    0.024598
      7          1           0        1.071503    2.540647    0.805006
      8          1           0        1.856690    2.619304   -0.793832
      9          1           0        2.471654    1.490789    0.444800
     10          6           0        1.823089   -1.673919   -0.399519
     11          1           0        2.530813   -2.394367    0.009026
     12          1           0        2.334212   -1.018149   -1.110168
     13          1           0        1.020142   -2.205696   -0.924469
     14          1           0        0.054631    0.441485    1.372112
 ---------------------------------------------------------------------

 SCF Done:  E(UHF) =  -753.103380236     A.U. after    2 cycles

 The electronic state is 2-A.
 Alpha  occ. eigenvalues --  -99.90527 -21.05934 -21.05320 -11.43727 -11.41077
 Alpha  occ. eigenvalues --  -11.40156 -10.47791  -9.67826  -9.67384  -9.67109
 Alpha  occ. eigenvalues --   -7.68535  -1.81952  -1.69493  -1.35479  -1.06234
 Alpha  occ. eigenvalues --   -0.98744  -0.90790  -0.76472  -0.68496  -0.64705
 Alpha  occ. eigenvalues --   -0.61284  -0.60613  -0.59292  -0.56958  -0.54955
 Alpha  occ. eigenvalues --   -0.51723  -0.50829  -0.44730  -0.38042  -0.35043
 Alpha  occ. eigenvalues --   -0.30452  -0.28933
 Alpha virt. eigenvalues --    0.03561   0.04217   0.04352   0.04707   0.05356
 Alpha virt. eigenvalues --    0.06167   0.06349   0.06728   0.07187   0.08674
 Alpha virt. eigenvalues --    0.09960   0.11270   0.13096   0.13859   0.14282

  Beta  occ. eigenvalues --  -99.90456 -21.05938 -21.05344 -11.43584 -11.41070
  Beta  occ. eigenvalues --  -11.40116 -10.47708  -9.67738  -9.67146  -9.67083
  Beta  occ. eigenvalues --   -7.66567  -1.81896  -1.69500  -1.34531  -1.05707
  Beta  occ. eigenvalues --   -0.98621  -0.89455  -0.73744  -0.68143  -0.64116
  Beta  occ. eigenvalues --   -0.61072  -0.59734  -0.59174  -0.55635  -0.54880
  Beta  occ. eigenvalues --   -0.51254  -0.49863  -0.44710  -0.37042  -0.31124
  Beta  occ. eigenvalues --   -0.30174
  Beta virt. eigenvalues --    0.02594   0.04175   0.04459   0.04860   0.05596
  Beta virt. eigenvalues --    0.06248   0.06359   0.06549   0.06901   0.08151
  Beta virt. eigenvalues --    0.09615   0.10184   0.12273   0.13809   0.14162

 Mulliken charges and spin densities:
               1          2
     1  Cl  -0.996875   0.032311
     2  B    0.815227   0.966890
     3  C    2.060532   0.040823
     4  O   -2.912673   0.008188
     5  O   -3.033618  -0.006091
     6  C   -2.993603  -0.011241
     7  H    1.324767   0.007001
     8  H    1.296861   0.000891
     9  H    1.392850  -0.000895
    10  C   -3.208557  -0.023406
    11  H    1.193039  -0.004044
    12  H    1.407762   0.000831
    13  H    1.557176   0.004985
    14  H    2.097114  -0.016244
 Sum of Mulliken charges =   0.00000   1.00000

 Dipole moment (field-independent basis, Debye):
    X=              1.4062    Y=              0.5720    Z=              0.2282  Tot=              1.5352
                          Isotropic Fermi Contact Couplings
        Atom                 a.u.       MegaHertz       Gauss      10(-4) cm-1
     1  Cl(35)             0.10563      46.31546      16.52651      15.44917
     2  B(11)              0.23644     339.13778     121.01279     113.12419
     3  C(13)              0.02369      26.62909       9.50192       8.88251
     4  O(17)             -0.00429       2.60310       0.92885       0.86830
     5  O(17)              0.00541      -3.28206      -1.17112      -1.09478
     6  C(13)              0.00174       1.95881       0.69895       0.65339
     7  H(1)               0.00044       1.96346       0.70061       0.65494
     8  H(1)               0.00058       2.59787       0.92698       0.86656

 1\1\GINC-SE095\SP\UHF\Aug-CC-pVDZ\C3H7B1Cl1O2(2)\OHZDE\09-Apr-2025\0\\
 #t hf aug-cc-pvdz iop(5/13=1,5/36=2,99/5=2) pseudo=read geom=check gue
 ss=(read,tcheck) scf=(maxcycle=1)\\title\\0,2\Cl,0,-2.614773,-0.008202
 ,-0.012679\B,0,-1.019298,-0.645876,-0.247879\C,0,0.293769,-0.015492,0.
 399402\O,0,0.695452,0.976128,-0.524058\O,0,1.311144,-0.940115,0.712255
 \C,0,1.575679,1.957194,0.024598\H,0,1.071503,2.540647,0.805006\H,0,1.8
 5669,2.619304,-0.793832\H,0,2.471654,1.490789,0.4448\C,0,1.823089,-1.6
 73919,-0.399519\H,0,2.530813,-2.394367,0.009026\H,0,2.334212,-1.018149

 Normal termination of Gaussian 16 at Wed Apr  9 00:08:42 2025.
