 Gaussian 16, Revision C.01,

 ----------------------------------------------------------------------
 #t hf aug-cc-pvdz symm=none int=(grid=ultrafine) guess=(read,tcheck) s
 table=opt
 ----------------------------------------------------------------------
 -----
 title
 -----
 Symbolic Z-matrix:
 Charge =  0 Multiplicity = 2

 SCF Done:  E(UHF) =  -135.959480901     A.U. after   14 cycles
 Normal termination of Gaussian 16 at Wed Apr  9 00:44:53 2025.
 Gaussian 16:  ES64L-G16RevC.01  3-Jul-2019

 ----------------------------------------------------------------------
 #t hf aug-cc-pvdz iop(5/13=1,5/36=2,99/5=2) pseudo=read geom=check gue
 ss=(read,tcheck) scf=(maxcycle=1)
 ----------------------------------------------------------------------
 -----
 title
 -----
 Structure from the checkpoint file:  "BDE49_nonexpt_767_mol2.chk"
 Charge =  0 Multiplicity = 2

                         Standard orientation:
 ---------------------------------------------------------------------
 Center     Atomic      Atomic             Coordinates (Angstroms)
 Number     Number       Type             X           Y           Z
 ---------------------------------------------------------------------
      1          5           0        0.000000   -0.523473   -0.000001
      2          7           0        1.259151    0.092090    0.000008
      3          7           0       -1.259151    0.092090   -0.000008
      4          1           0       -2.117006   -0.431725   -0.000017
      5          1           0       -1.398294    1.095779   -0.000009
      6          1           0        2.117006   -0.431725    0.000016
      7          1           0        1.398294    1.095779    0.000016
 ---------------------------------------------------------------------

 SCF Done:  E(UHF) =  -136.562091455     A.U. after    2 cycles

 The electronic state is 2-A.
 Alpha  occ. eigenvalues --  -15.71316 -15.71266  -7.61322  -1.35571  -1.23541
 Alpha  occ. eigenvalues --   -0.76900  -0.67109  -0.66598  -0.53405  -0.45713
 Alpha  occ. eigenvalues --   -0.33862  -0.29473
 Alpha virt. eigenvalues --    0.03501   0.03687   0.04980   0.04985   0.08372
 Alpha virt. eigenvalues --    0.09622   0.09658   0.11470   0.18245   0.18455
 Alpha virt. eigenvalues --    0.18799   0.19825   0.20423   0.21956   0.22856

  Beta  occ. eigenvalues --  -15.71349 -15.71298  -7.59462  -1.34433  -1.23366
  Beta  occ. eigenvalues --   -0.74674  -0.65937  -0.64416  -0.52632  -0.45333
  Beta  occ. eigenvalues --   -0.34647
  Beta virt. eigenvalues --    0.03268   0.03778   0.04353   0.05055   0.08398
  Beta virt. eigenvalues --    0.08695   0.09684   0.10303   0.16021   0.18394
  Beta virt. eigenvalues --    0.18828   0.19800   0.20575   0.20632   0.23034

 Mulliken charges and spin densities:
               1          2
     1  B    1.707120   1.049287
     2  N   -2.581503  -0.078641
     3  N   -2.581503  -0.078641
     4  H    1.050960   0.028018
     5  H    0.676983   0.025979
     6  H    1.050960   0.028018
     7  H    0.676983   0.025979
 Sum of Mulliken charges =  -0.00000   1.00000

 Dipole moment (field-independent basis, Debye):
    X=             -0.0000    Y=              1.5352    Z=              0.0000  Tot=              1.5352
                          Isotropic Fermi Contact Couplings
        Atom                 a.u.       MegaHertz       Gauss      10(-4) cm-1
     1  B(11)              0.26190     375.65548     134.04322     125.30518
     2  N(14)              0.05581      18.03232       6.43438       6.01494
     3  N(14)              0.05581      18.03232       6.43438       6.01494
     4  H(1)               0.00419      18.70952       6.67602       6.24083
     5  H(1)               0.01223      54.66612      19.50623      18.23466
     6  H(1)               0.00419      18.70952       6.67602       6.24083
     7  H(1)               0.01223      54.66612      19.50623      18.23466
 --------------------------------------------------------

 Normal termination of Gaussian 16 at Wed Apr  9 00:44:54 2025.
