 Gaussian 16, Revision C.01,

 ----------------------------------------------------------------------
 #t hf aug-cc-pvdz symm=none int=(grid=ultrafine) guess=(read,tcheck) s
 table=(opt,rrhf)
 ----------------------------------------------------------------------
 -----
 title
 -----
 Symbolic Z-matrix:
 Charge =  0 Multiplicity = 1

 SCF Done:  E(RHF) =  -2876.24404983     A.U. after   11 cycles
 Normal termination of Gaussian 16 at Wed Apr  9 00:09:39 2025.
 Gaussian 16:  ES64L-G16RevC.01  3-Jul-2019

 ----------------------------------------------------------------------
 #t hf aug-cc-pvdz iop(5/13=1,5/36=2,99/5=2) pseudo=read geom=check gue
 ss=(read,tcheck) scf=(maxcycle=1)
 ----------------------------------------------------------------------
 -----
 title
 -----
 Structure from the checkpoint file:  "BDE49_nonexpt_2317_mol1.chk"
 Charge =  0 Multiplicity = 1

                         Standard orientation:
 ---------------------------------------------------------------------
 Center     Atomic      Atomic             Coordinates (Angstroms)
 Number     Number       Type             X           Y           Z
 ---------------------------------------------------------------------
      1         14           0       -0.918351    1.155877    0.000000
      2         14           0        0.186116   -0.922043   -0.000000
      3         17           0       -0.370941   -1.986430    1.674780
      4         17           0       -0.370941    2.200526    1.693396
      5         17           0        2.226874   -0.679767    0.000000
      6         17           0       -0.370941    2.200526   -1.693396
      7         17           0       -0.370941   -1.986430   -1.674780
      8          1           0       -2.381594    1.003100   -0.000000
 ---------------------------------------------------------------------

 SCF Done:  E(RHF) =  -2877.74920058     A.U. after    2 cycles

 The electronic state is 1-A'.
 Alpha  occ. eigenvalues --  -99.91819 -99.91816 -99.91770 -99.91314 -99.91313
 Alpha  occ. eigenvalues --  -76.35812 -76.32840 -10.49297 -10.49282 -10.49187
 Alpha  occ. eigenvalues --  -10.48773 -10.48728  -9.69131  -9.69119  -9.69078
 Alpha  occ. eigenvalues --   -9.68635  -9.68611  -9.68607  -9.68605  -9.68478
 Alpha  occ. eigenvalues --   -9.68431  -9.68431  -9.68314  -9.68021  -9.67998
 Alpha  occ. eigenvalues --   -9.67964  -9.67869  -5.69442  -5.66365  -2.31287
 Alpha  occ. eigenvalues --   -2.31211  -2.29520  -2.28695  -2.27872  -2.26589
 Alpha  occ. eigenvalues --   -1.35138  -1.33020  -1.31128  -1.31076  -1.30411
 Alpha  occ. eigenvalues --   -0.84786  -0.77663  -0.63509  -0.63421  -0.61466
 Alpha  occ. eigenvalues --   -0.60903  -0.60557  -0.57672  -0.57642  -0.57552
 Alpha  occ. eigenvalues --   -0.55858  -0.54502  -0.54499  -0.53399  -0.52823
 Alpha  occ. eigenvalues --   -0.52743  -0.42040
 Alpha virt. eigenvalues --    0.03118   0.03201   0.03866   0.05023   0.05556
 Alpha virt. eigenvalues --    0.06540   0.07040   0.07834   0.07991   0.08022
 Alpha virt. eigenvalues --    0.09247   0.10879   0.11219   0.11477   0.12106

 Mulliken charges:
               1
     1  Si   4.017334
     2  Si   2.051695
     3  Cl  -0.799649
     4  Cl  -0.861729
     5  Cl  -0.766068
     6  Cl  -0.861729
     7  Cl  -0.799649
     8  H   -1.980204
 Sum of Mulliken charges =   0.00000

 Dipole moment (field-independent basis, Debye):
    X=             -0.9080    Y=              0.1386    Z=              0.0000  Tot=              0.9185

 Test job not archived.
 1\1\GINC-SE412\SP\RHF\Aug-CC-pVDZ\Cl5H1Si2\OHZDE\09-Apr-2025\0\\#t hf
 aug-cc-pvdz iop(5/13=1,5/36=2,99/5=2) pseudo=read geom=check guess=(re
 ad,tcheck) scf=(maxcycle=1)\\title\\0,1\Si,0,-0.918351,1.155877,0.\Si,
 0,0.186116,-0.922043,0.\Cl,0,-0.370941,-1.98643,1.67478\Cl,0,-0.370941
 ,2.200526,1.693396\Cl,0,2.226874,-0.679767,0.\Cl,0,-0.370941,2.200526,
 -1.693396\Cl,0,-0.370941,-1.98643,-1.67478\H,0,-2.381594,1.0031,0.\\Ve
 rsion=ES64L-G16RevC.01\State=1-A'\HF=-2877.7492006\RMSD=4.039e-02\Dipo
 le=-0.3572267,0.0545357,0.\Quadrupole=1.2175488,-1.8915456,0.6739968,0

 Normal termination of Gaussian 16 at Wed Apr  9 00:09:42 2025.
