 Gaussian 16, Revision C.01,

 ----------------------------------------------------------------------
 #t hf aug-cc-pvdz symm=none int=(grid=ultrafine) guess=(read,tcheck) s
 table=(opt,rrhf)
 ----------------------------------------------------------------------
 -----
 title
 -----
 Symbolic Z-matrix:
 Charge =  0 Multiplicity = 1

 SCF Done:  E(RHF) =  -1067.13892329     A.U. after   15 cycles
 Normal termination of Gaussian 16 at Wed Apr  9 00:49:45 2025.
 Gaussian 16:  ES64L-G16RevC.01  3-Jul-2019

 ----------------------------------------------------------------------
 #t hf aug-cc-pvdz iop(5/13=1,5/36=2,99/5=2) pseudo=read geom=check gue
 ss=(read,tcheck) scf=(maxcycle=1)
 ----------------------------------------------------------------------
 -----
 title
 -----
 Structure from the checkpoint file:  "BDE49_nonexpt_864_mol1.chk"
 Charge =  0 Multiplicity = 1

                         Standard orientation:
 ---------------------------------------------------------------------
 Center     Atomic      Atomic             Coordinates (Angstroms)
 Number     Number       Type             X           Y           Z
 ---------------------------------------------------------------------
      1          1           0        4.246539   -0.152016   -0.056767
      2         16           0       -2.159573   -1.479830    0.312368
      3         16           0       -1.997138    1.566450   -0.348055
      4          5           0       -1.148123   -0.002728    0.007728
      5          7           0        2.494412   -1.146046   -0.487377
      6          6           0        3.162538   -0.081504   -0.032437
      7          6           0        2.538371    1.066134    0.450885
      8          1           0        3.129192    1.902145    0.806048
      9          6           0        1.150340    1.108537    0.466943
     10          1           0        0.639215    1.987940    0.843591
     11          6           0        0.411039    0.002686    0.013632
     12          6           0        1.162234   -1.091064   -0.455116
     13          1           0        0.655013   -1.968287   -0.848473
     14          1           0       -3.262323    1.170679   -0.120720
     15          1           0       -1.167645   -2.319160    0.656869
 ---------------------------------------------------------------------

 SCF Done:  E(RHF) =  -1068.85189973     A.U. after    2 cycles

 The electronic state is 1-A.
 Alpha  occ. eigenvalues --  -75.70056 -75.69892 -15.74648 -13.17901 -13.17199
 Alpha  occ. eigenvalues --  -13.11869 -13.10147 -13.06333 -13.04277 -11.48865
 Alpha  occ. eigenvalues --  -11.45906 -11.44723 -11.41798 -11.38325  -8.04179
 Alpha  occ. eigenvalues --   -8.03680  -7.68971  -1.45893  -1.24469  -1.17738
 Alpha  occ. eigenvalues --   -1.11762  -1.10307  -0.90683  -0.89850  -0.75416
 Alpha  occ. eigenvalues --   -0.70535  -0.62207  -0.61848  -0.57864  -0.55990
 Alpha  occ. eigenvalues --   -0.55273  -0.51344  -0.47945  -0.40575  -0.38973
 Alpha  occ. eigenvalues --   -0.36633  -0.35624  -0.34392  -0.31259  -0.25716
 Alpha virt. eigenvalues --    0.02226   0.02950   0.03368   0.03934   0.05577
 Alpha virt. eigenvalues --    0.05936   0.07297   0.07823   0.08380   0.09151
 Alpha virt. eigenvalues --    0.09676   0.10322   0.11689   0.12319   0.12546

 Mulliken charges:
               1
     1  H    1.525888
     2  S   -2.989561
     3  S   -2.923626
     4  B    3.648252
     5  N   -3.466217
     6  C   -1.216149
     7  C   -0.821470
     8  H    1.426235
     9  C    0.120053
    10  H    1.836355
    11  C    0.572547
    12  C   -1.020363
    13  H    1.575822
    14  H    0.822312
    15  H    0.909923
 Sum of Mulliken charges =  -0.00000

 Dipole moment (field-independent basis, Debye):
    X=             -1.1865    Y=              2.5692    Z=              0.1983  Tot=              2.8369

 Test job not archived.
 1\1\GINC-SE332\SP\RHF\Aug-CC-pVDZ\C5H6B1N1S2\OHZDE\09-Apr-2025\0\\#t h
 f aug-cc-pvdz iop(5/13=1,5/36=2,99/5=2) pseudo=read geom=check guess=(
 read,tcheck) scf=(maxcycle=1)\\title\\0,1\H,0,4.246539,-0.152016,-0.05
 6767\S,0,-2.159573,-1.47983,0.312368\S,0,-1.997138,1.56645,-0.348055\B
 ,0,-1.148123,-0.002728,0.007728\N,0,2.494412,-1.146046,-0.487377\C,0,3
 .162538,-0.081504,-0.032437\C,0,2.538371,1.066134,0.450885\H,0,3.12919
 2,1.902145,0.806048\C,0,1.15034,1.108537,0.466943\H,0,0.639215,1.98794
 ,0.843591\C,0,0.411039,0.002686,0.013632\C,0,1.162234,-1.091064,-0.455

 Normal termination of Gaussian 16 at Wed Apr  9 00:49:52 2025.
