 Gaussian 16, Revision C.01,

 ----------------------------------------------------------------------
 #t hf aug-cc-pvdz symm=none int=(grid=ultrafine) guess=(read,tcheck) s
 table=(opt,rrhf)
 ----------------------------------------------------------------------
 -----
 title
 -----
 Symbolic Z-matrix:
 Charge =  0 Multiplicity = 1

 SCF Done:  E(RHF) =  -1191.42777852     A.U. after   12 cycles
 Normal termination of Gaussian 16 at Wed Apr  9 00:42:03 2025.
 Gaussian 16:  ES64L-G16RevC.01  3-Jul-2019

 ----------------------------------------------------------------------
 #t hf aug-cc-pvdz iop(5/13=1,5/36=2,99/5=2) pseudo=read geom=check gue
 ss=(read,tcheck) scf=(maxcycle=1)
 ----------------------------------------------------------------------
 -----
 title
 -----
 Structure from the checkpoint file:  "BDE49_nonexpt_671_mol1.chk"
 Charge =  0 Multiplicity = 1

                         Standard orientation:
 ---------------------------------------------------------------------
 Center     Atomic      Atomic             Coordinates (Angstroms)
 Number     Number       Type             X           Y           Z
 ---------------------------------------------------------------------
      1         17           0       -1.969906    1.523690   -0.000036
      2         17           0       -2.271773   -1.514716    0.000061
      3          8           0        0.104910   -0.267144   -0.000042
      4          7           0        2.430202    0.323379   -0.000035
      5          6           0        1.124703    0.831273   -0.000149
      6          6           0        2.832082   -0.367806    1.221793
      7          6           0        2.832183   -0.368153   -1.221638
      8          5           0       -1.207778   -0.093421   -0.000013
      9          1           0        3.916236   -0.501694    1.220281
     10          1           0        2.359264   -1.354330    1.330638
     11          1           0        2.567732    0.240316    2.089908
     12          1           0        2.359417   -1.354730   -1.330214
     13          1           0        3.916344   -0.501987   -1.220039
     14          1           0        2.567840    0.239695   -2.089946
     15          1           0        0.938019    1.424558    0.895042
     16          1           0        0.938081    1.424349   -0.895492
 ---------------------------------------------------------------------

 SCF Done:  E(RHF) =  -1193.18755114     A.U. after    2 cycles

 The electronic state is 1-A.
 Alpha  occ. eigenvalues --  -99.89404 -99.88721 -21.04218 -15.72690 -11.45785
 Alpha  occ. eigenvalues --  -11.39638 -11.39071 -10.46732 -10.45994  -9.66715
 Alpha  occ. eigenvalues --   -9.66258  -9.65990  -9.65968  -9.65519  -9.65348
 Alpha  occ. eigenvalues --   -7.72794  -1.79766  -1.43764  -1.35127  -1.28913
 Alpha  occ. eigenvalues --   -1.04839  -1.04479  -0.85352  -0.78312  -0.68835
 Alpha  occ. eigenvalues --   -0.67907  -0.66151  -0.62611  -0.60681  -0.58552
 Alpha  occ. eigenvalues --   -0.55753  -0.54477  -0.51956  -0.51740  -0.51285
 Alpha  occ. eigenvalues --   -0.50266  -0.49848  -0.41659  -0.40925  -0.32433
 Alpha virt. eigenvalues --    0.02990   0.04473   0.04594   0.04770   0.05485
 Alpha virt. eigenvalues --    0.05487   0.06524   0.06702   0.08097   0.08890
 Alpha virt. eigenvalues --    0.09315   0.10055   0.10828   0.11702   0.12401

 Mulliken charges:
               1
     1  Cl  -1.167303
     2  Cl  -1.328314
     3  O   -2.552833
     4  N   -3.111637
     5  C    0.282478
     6  C   -3.634727
     7  C   -3.634689
     8  B    3.303182
     9  H    1.358885
    10  H    1.459547
    11  H    1.390734
    12  H    1.459545
    13  H    1.358863
    14  H    1.390750
    15  H    1.712793
    16  H    1.712725
 Sum of Mulliken charges =  -0.00000

 Dipole moment (field-independent basis, Debye):
    X=              3.0694    Y=              0.2470    Z=             -0.0001  Tot=              3.0794

 Test job not archived.
 1\1\GINC-SE095\SP\RHF\Aug-CC-pVDZ\C3H8B1Cl2N1O1\OHZDE\09-Apr-2025\0\\#
 t hf aug-cc-pvdz iop(5/13=1,5/36=2,99/5=2) pseudo=read geom=check gues
 s=(read,tcheck) scf=(maxcycle=1)\\title\\0,1\Cl,0,1.969906,1.52369,0.0
 00036\Cl,0,2.271773,-1.514716,-0.000061\O,0,-0.10491,-0.267144,0.00004
 2\N,0,-2.430202,0.323379,0.000035\C,0,-1.124703,0.831273,0.000149\C,0,
 -2.832082,-0.367806,-1.221793\C,0,-2.832183,-0.368153,1.221638\B,0,1.2
 07778,-0.093421,0.000013\H,0,-3.916236,-0.501694,-1.220281\H,0,-2.3592
 64,-1.35433,-1.330638\H,0,-2.567732,0.240316,-2.089908\H,0,-2.359417,-

 Normal termination of Gaussian 16 at Wed Apr  9 00:42:10 2025.
