 Gaussian 16, Revision C.01,

 ----------------------------------------------------------------------
 #t hf aug-cc-pvdz symm=none int=(grid=ultrafine) guess=(read,tcheck) s
 table=(opt,rrhf)
 ----------------------------------------------------------------------
 -----
 title
 -----
 Symbolic Z-matrix:
 Charge =  0 Multiplicity = 1

 SCF Done:  E(RHF) =  -749.171882020     A.U. after   13 cycles
 Normal termination of Gaussian 16 at Wed Apr  9 00:11:38 2025.
 Gaussian 16:  ES64L-G16RevC.01  3-Jul-2019

 ----------------------------------------------------------------------
 #t hf aug-cc-pvdz iop(5/13=1,5/36=2,99/5=2) pseudo=read geom=check gue
 ss=(read,tcheck) scf=(maxcycle=1)
 ----------------------------------------------------------------------
 -----
 title
 -----
 Structure from the checkpoint file:  "BDE49_nonexpt_2387_mol1.chk"
 Charge =  0 Multiplicity = 1

                         Standard orientation:
 ---------------------------------------------------------------------
 Center     Atomic      Atomic             Coordinates (Angstroms)
 Number     Number       Type             X           Y           Z
 ---------------------------------------------------------------------
      1         14           0       -1.817810   -0.563359   -0.160416
      2         14           0       -0.237696    1.136179    0.249707
      3          1           0       -1.498862   -1.259220   -1.428430
      4          1           0       -3.154864    0.070028   -0.304046
      5          1           0       -1.873175   -1.526888    0.958097
      6          7           0        1.370051    0.699870   -0.370655
      7          1           0       -0.153454    1.451819    1.695653
      8          1           0       -0.548241    2.391133   -0.476154
      9          6           0        1.881689   -0.548941   -0.171028
     10          8           0        1.286190   -1.424757    0.426149
     11          1           0        2.886662   -0.707063   -0.603152
     12          1           0        1.949013    1.353317   -0.880472
 ---------------------------------------------------------------------

 SCF Done:  E(RHF) =  -750.223844829     A.U. after    2 cycles

 The electronic state is 1-A.
 Alpha  occ. eigenvalues --  -76.23785 -76.21298 -21.04378 -15.76287 -11.49084
 Alpha  occ. eigenvalues --   -5.57389  -5.54672  -2.21927  -2.19269  -2.18622
 Alpha  occ. eigenvalues --   -2.16791  -2.16692  -2.15865  -1.71410  -1.34188
 Alpha  occ. eigenvalues --   -0.88058  -0.79137  -0.73836  -0.70580  -0.55770
 Alpha  occ. eigenvalues --   -0.53247  -0.50055  -0.48219  -0.46584  -0.45876
 Alpha  occ. eigenvalues --   -0.37158  -0.33435  -0.30523
 Alpha virt. eigenvalues --    0.03303   0.04666   0.05109   0.05683   0.06836
 Alpha virt. eigenvalues --    0.07546   0.08049   0.08880   0.08970   0.09817
 Alpha virt. eigenvalues --    0.10062   0.10453   0.10886   0.11541   0.12377

 Mulliken charges:
               1
     1  Si   4.575660
     2  Si   4.000149
     3  H   -1.494655
     4  H   -1.611362
     5  H   -1.543165
     6  N   -2.449316
     7  H   -1.748657
     8  H   -1.699198
     9  C    2.071756
    10  O   -2.471032
    11  H    1.646409
    12  H    0.723410
 Sum of Mulliken charges =  -0.00000

 Dipole moment (field-independent basis, Debye):
    X=              1.3001    Y=              1.0982    Z=             -0.9518  Tot=              1.9500

 Test job not archived.
 1\1\GINC-SE342\SP\RHF\Aug-CC-pVDZ\C1H7N1O1Si2\OHZDE\09-Apr-2025\0\\#t
 hf aug-cc-pvdz iop(5/13=1,5/36=2,99/5=2) pseudo=read geom=check guess=
 (read,tcheck) scf=(maxcycle=1)\\title\\0,1\Si,0,-1.81781,-0.563359,-0.
 160416\Si,0,-0.237696,1.136179,0.249707\H,0,-1.498862,-1.25922,-1.4284
 3\H,0,-3.154864,0.070028,-0.304046\H,0,-1.873175,-1.526888,0.958097\N,
 0,1.370051,0.69987,-0.370655\H,0,-0.153454,1.451819,1.695653\H,0,-0.54
 8241,2.391133,-0.476154\C,0,1.881689,-0.548941,-0.171028\O,0,1.28619,-
 1.424757,0.426149\H,0,2.886662,-0.707063,-0.603152\H,0,1.949013,1.3533

 Normal termination of Gaussian 16 at Wed Apr  9 00:11:42 2025.
