 Gaussian 16, Revision C.01,

 ----------------------------------------------------------------------
 #t hf aug-cc-pvdz symm=none int=(grid=ultrafine) guess=(read,tcheck) s
 table=(opt,rrhf)
 ----------------------------------------------------------------------
 -----
 title
 -----
 Symbolic Z-matrix:
 Charge =  0 Multiplicity = 1

 SCF Done:  E(RHF) =  -693.163968744     A.U. after   12 cycles
 Normal termination of Gaussian 16 at Tue Apr  8 22:50:16 2025.
 Gaussian 16:  ES64L-G16RevC.01  3-Jul-2019

 ----------------------------------------------------------------------
 #t hf aug-cc-pvdz iop(5/13=1,5/36=2,99/5=2) pseudo=read geom=check gue
 ss=(read,tcheck) scf=(maxcycle=1)
 ----------------------------------------------------------------------
 -----
 title
 -----
 Structure from the checkpoint file:  "BDE49_expt_1670_mol1.chk"
 Charge =  0 Multiplicity = 1

                         Standard orientation:
 ---------------------------------------------------------------------
 Center     Atomic      Atomic             Coordinates (Angstroms)
 Number     Number       Type             X           Y           Z
 ---------------------------------------------------------------------
      1          6           0       -0.502870    0.508038    0.000000
      2          6           0        0.159574   -0.023200    1.267718
      3          6           0        0.159574   -1.562790    1.266765
      4          1           0       -0.357501    0.363395    2.149275
      5          1           0        1.189404    0.348109    1.309453
      6          6           0        0.816994   -2.127781   -0.000000
      7          1           0       -0.873449   -1.926818    1.333529
      8          1           0        0.674132   -1.926037    2.161347
      9          6           0        0.159574   -1.562790   -1.266765
     10          1           0        0.759828   -3.220615   -0.000000
     11          1           0        1.883392   -1.869547   -0.000000
     12          6           0        0.159574   -0.023200   -1.267718
     13          1           0       -0.873449   -1.926818   -1.333529
     14          1           0        0.674132   -1.926037   -2.161347
     15          1           0        1.189404    0.348109   -1.309453
     16          1           0       -0.357501    0.363395   -2.149275
     17         17           0       -0.473855    2.344593    0.000000
     18          1           0       -1.567367    0.265123    0.000000
 ---------------------------------------------------------------------

 SCF Done:  E(RHF) =  -694.614802967     A.U. after    2 cycles

 The electronic state is 1-A'.
 Alpha  occ. eigenvalues --  -99.86361 -11.46799 -11.44261 -11.43038 -11.39226
 Alpha  occ. eigenvalues --  -11.38387 -11.35196 -10.43594  -9.63611  -9.62873
 Alpha  occ. eigenvalues --   -9.62773  -1.37046  -1.24855  -1.11455  -1.08906
 Alpha  occ. eigenvalues --   -0.89830  -0.88276  -0.79798  -0.67706  -0.63966
 Alpha  occ. eigenvalues --   -0.62618  -0.62335  -0.54840  -0.54676  -0.53554
 Alpha  occ. eigenvalues --   -0.51788  -0.48249  -0.46118  -0.45466  -0.45122
 Alpha  occ. eigenvalues --   -0.40994  -0.40004
 Alpha virt. eigenvalues --    0.03774   0.05213   0.05301   0.05329   0.05486
 Alpha virt. eigenvalues --    0.05636   0.06028   0.06549   0.07171   0.08718
 Alpha virt. eigenvalues --    0.08937   0.09211   0.12390   0.13034   0.13262

 Mulliken charges:
               1
     1  C   -2.279853
     2  C   -2.578951
     3  C   -2.669082
     4  H    1.452083
     5  H    1.403710
     6  C   -2.578980
     7  H    1.371440
     8  H    1.299823
     9  C   -2.669082
    10  H    1.281451
    11  H    1.401419
    12  C   -2.578951
    13  H    1.371440
    14  H    1.299823
    15  H    1.403710
    16  H    1.452083
    17  Cl  -0.137556
    18  H    1.755475
 Sum of Mulliken charges =  -0.00000

 Dipole moment (field-independent basis, Debye):
    X=              0.2866    Y=             -3.1722    Z=             -0.0000  Tot=              3.1851

 Test job not archived.
 1\1\GINC-SE227\SP\RHF\Aug-CC-pVDZ\C6H11Cl1\OHZDE\08-Apr-2025\0\\#t hf
 aug-cc-pvdz iop(5/13=1,5/36=2,99/5=2) pseudo=read geom=check guess=(re
 ad,tcheck) scf=(maxcycle=1)\\title\\0,1\C,0,-0.50287,0.508038,0.\C,0,0
 .159574,-0.0232,1.267718\C,0,0.159574,-1.56279,1.266765\H,0,-0.357501,
 0.363395,2.149275\H,0,1.189404,0.348109,1.309453\C,0,0.816994,-2.12778
 1,0.\H,0,-0.873449,-1.926818,1.333529\H,0,0.674132,-1.926037,2.161347\
 C,0,0.159574,-1.56279,-1.266765\H,0,0.759828,-3.220615,0.\H,0,1.883392
 ,-1.869547,0.\C,0,0.159574,-0.0232,-1.267718\H,0,-0.873449,-1.926818,-

 Normal termination of Gaussian 16 at Tue Apr  8 22:50:21 2025.
