 Gaussian 16, Revision C.01,

 ----------------------------------------------------------------------
 #t hf aug-cc-pvdz symm=none int=(grid=ultrafine) guess=(read,tcheck) s
 table=opt
 ----------------------------------------------------------------------
 -----
 title
 -----
 Symbolic Z-matrix:
 Charge =  0 Multiplicity = 2

 SCF Done:  E(UHF) =  -267.385104627     A.U. after   16 cycles
 Normal termination of Gaussian 16 at Tue Apr  8 22:41:41 2025.
 Gaussian 16:  ES64L-G16RevC.01  3-Jul-2019

 ----------------------------------------------------------------------
 #t hf aug-cc-pvdz iop(5/13=1,5/36=2,99/5=2) pseudo=read geom=check gue
 ss=(read,tcheck) scf=(maxcycle=1)
 ----------------------------------------------------------------------
 -----
 title
 -----
 Structure from the checkpoint file:  "BDE49_expt_1353_mol2.chk"
 Charge =  0 Multiplicity = 2

                         Standard orientation:
 ---------------------------------------------------------------------
 Center     Atomic      Atomic             Coordinates (Angstroms)
 Number     Number       Type             X           Y           Z
 ---------------------------------------------------------------------
      1          6           0        0.893176   -0.067474    0.697107
      2          6           0       -0.610138    0.046063    0.469891
      3          6           0       -1.183966   -1.146703   -0.219036
      4          1           0       -2.259018   -1.270394   -0.255904
      5          1           0       -0.567860   -1.742877   -0.880401
      6          8           0       -0.891156    1.249954   -0.273405
      7          1           0       -1.098444    0.198400    1.437511
      8          1           0       -0.349146    1.186383   -1.070270
      9          8           0        1.500663   -0.149744   -0.595745
     10          1           0        1.119770   -0.957143    1.300413
     11          1           0        1.235111    0.826714    1.231812
     12          1           0        2.449094   -0.034081   -0.497730
 ---------------------------------------------------------------------

 SCF Done:  E(UHF) =  -268.564305779     A.U. after    2 cycles

 The electronic state is 2-A.
 Alpha  occ. eigenvalues --  -21.07911 -21.05682 -11.45294 -11.41686 -11.37262
 Alpha  occ. eigenvalues --   -1.73932  -1.67832  -1.14073  -0.98381  -0.82231
 Alpha  occ. eigenvalues --   -0.69868  -0.64025  -0.58681  -0.56332  -0.56190
 Alpha  occ. eigenvalues --   -0.48868  -0.43713  -0.41323  -0.33839  -0.33236
 Alpha  occ. eigenvalues --   -0.28930
 Alpha virt. eigenvalues --    0.03651   0.05459   0.05568   0.05943   0.06063
 Alpha virt. eigenvalues --    0.06565   0.07317   0.11507   0.11805   0.13581
 Alpha virt. eigenvalues --    0.14336   0.15420   0.16183   0.16352   0.18113

  Beta  occ. eigenvalues --  -21.07912 -21.05337 -11.45423 -11.41339 -11.35516
  Beta  occ. eigenvalues --   -1.73715  -1.67359  -1.11388  -0.94320  -0.80379
  Beta  occ. eigenvalues --   -0.69481  -0.63730  -0.57928  -0.55627  -0.54482
  Beta  occ. eigenvalues --   -0.48309  -0.42652  -0.39743  -0.33312  -0.30949
  Beta virt. eigenvalues --    0.03710   0.05454   0.05587   0.05964   0.06080
  Beta virt. eigenvalues --    0.06591   0.07045   0.09481   0.11557   0.13500
  Beta virt. eigenvalues --    0.14116   0.14790   0.15465   0.16426   0.17515

 Mulliken charges and spin densities:
               1          2
     1  C   -1.299977   0.003471
     2  C    0.407826  -0.267287
     3  C   -2.567466   1.412594
     4  H    1.340129  -0.062647
     5  H    1.401491  -0.068247
     6  O   -2.838910   0.018126
     7  H    1.602763  -0.001200
     8  H    0.796058  -0.034141
     9  O   -2.433232   0.002810
    10  H    1.423944  -0.005519
    11  H    1.350375   0.000829
    12  H    0.816998   0.001210
 Sum of Mulliken charges =  -0.00000   1.00000

 Dipole moment (field-independent basis, Debye):
    X=              1.0369    Y=             -0.2105    Z=              0.3022  Tot=              1.1003
                          Isotropic Fermi Contact Couplings
        Atom                 a.u.       MegaHertz       Gauss      10(-4) cm-1
     1  C(13)              0.00344       3.86201       1.37806       1.28823
     2  C(13)             -0.03170     -35.63745     -12.71633     -11.88737
     3  C(13)              0.12817     144.08623      51.41355      48.06199
     4  H(1)              -0.01734     -77.52664     -27.66343     -25.86010
     5  H(1)              -0.01783     -79.70265     -28.43989     -26.58594
     6  O(17)              0.03528     -21.38893      -7.63210      -7.13458
     7  H(1)               0.00569      25.42656       9.07283       8.48139
     8  H(1)              -0.00108      -4.81975      -1.71981      -1.60770

 Normal termination of Gaussian 16 at Tue Apr  8 22:41:44 2025.
