 Gaussian 16, Revision C.01,

 ----------------------------------------------------------------------
 #t hf aug-cc-pvdz symm=none int=(grid=ultrafine) guess=(read,tcheck) s
 table=(opt,rrhf)
 ----------------------------------------------------------------------
 -----
 title
 -----
 Symbolic Z-matrix:
 Charge =  0 Multiplicity = 1

 SCF Done:  E(RHF) =  -106.743032251     A.U. after   12 cycles
 Normal termination of Gaussian 16 at Wed Apr  9 00:39:19 2025.
 Gaussian 16:  ES64L-G16RevC.01  3-Jul-2019

 ----------------------------------------------------------------------
 #t hf aug-cc-pvdz iop(5/13=1,5/36=2,99/5=2) pseudo=read geom=check gue
 ss=(read,tcheck) scf=(maxcycle=1)
 ----------------------------------------------------------------------
 -----
 title
 -----
 Structure from the checkpoint file:  "BDE49_nonexpt_60_mol1.chk"
 Charge =  0 Multiplicity = 1

                         Standard orientation:
 ---------------------------------------------------------------------
 Center     Atomic      Atomic             Coordinates (Angstroms)
 Number     Number       Type             X           Y           Z
 ---------------------------------------------------------------------
      1          5           0        1.543862   -0.161885    0.000001
      2          5           0       -0.000697    0.460011   -0.000004
      3          7           0       -1.221039   -0.214007   -0.000003
      4          1           0       -1.311460   -1.218203   -0.000010
      5          1           0       -2.109097    0.263541    0.000008
      6          1           0       -0.061767    1.665349    0.000030
      7          1           0        2.156873   -0.351668   -1.011236
      8          1           0        2.156900   -0.351596    1.011237
 ---------------------------------------------------------------------

 SCF Done:  E(RHF) =  -107.252832969     A.U. after    2 cycles

 The electronic state is 1-A.
 Alpha  occ. eigenvalues --  -15.72897  -7.58551  -7.57213  -1.31680  -0.89420
 Alpha  occ. eigenvalues --   -0.73336  -0.66746  -0.51055  -0.47581  -0.40326
 Alpha  occ. eigenvalues --   -0.36887
 Alpha virt. eigenvalues --    0.01812   0.02359   0.03367   0.04524   0.07846
 Alpha virt. eigenvalues --    0.08260   0.08921   0.09740   0.10386   0.11993
 Alpha virt. eigenvalues --    0.12770   0.13325   0.13723   0.15221   0.15907

 Mulliken charges:
               1
     1  B    3.712611
     2  B    4.774874
     3  N   -2.464593
     4  H    0.876751
     5  H    0.870440
     6  H   -3.196700
     7  H   -2.286687
     8  H   -2.286695
 Sum of Mulliken charges =   0.00000

 Dipole moment (field-independent basis, Debye):
    X=             -1.6648    Y=             -0.8586    Z=             -0.0000  Tot=              1.8731

 Test job not archived.
 1\1\GINC-SE016\SP\RHF\Aug-CC-pVDZ\B2H5N1\OHZDE\09-Apr-2025\0\\#t hf au
 g-cc-pvdz iop(5/13=1,5/36=2,99/5=2) pseudo=read geom=check guess=(read
 ,tcheck) scf=(maxcycle=1)\\title\\0,1\B,0,-1.543862,-0.161885,-0.00000
 1\B,0,0.000697,0.460011,0.000004\N,0,1.221039,-0.214007,0.000003\H,0,1
 .31146,-1.218203,0.00001\H,0,2.109097,0.263541,-0.000008\H,0,0.061767,
 1.665349,-0.00003\H,0,-2.156873,-0.351668,1.011236\H,0,-2.1569,-0.3515
 96,-1.011237\\Version=ES64L-G16RevC.01\State=1-A\HF=-107.252833\RMSD=1
 .328e-01\Dipole=0.6549644,-0.3378155,0.0000044\Quadrupole=0.1592873,1.

 Normal termination of Gaussian 16 at Wed Apr  9 00:39:21 2025.
