 Gaussian 16, Revision C.01,

 ----------------------------------------------------------------------
 #t hf aug-cc-pvdz symm=none int=(grid=ultrafine) guess=(read,tcheck) s
 table=(opt,rrhf)
 ----------------------------------------------------------------------
 -----
 title
 -----
 Symbolic Z-matrix:
 Charge =  0 Multiplicity = 1

 SCF Done:  E(RHF) =  -765.607176258     A.U. after   17 cycles
 Normal termination of Gaussian 16 at Tue Apr  8 23:19:55 2025.
 Gaussian 16:  ES64L-G16RevC.01  3-Jul-2019

 ----------------------------------------------------------------------
 #t hf aug-cc-pvdz iop(5/13=1,5/36=2,99/5=2) pseudo=read geom=check gue
 ss=(read,tcheck) scf=(maxcycle=1)
 ----------------------------------------------------------------------
 -----
 title
 -----
 Structure from the checkpoint file:  "BDE49_nonexpt_1095_mol1.chk"
 Charge =  0 Multiplicity = 1

                         Standard orientation:
 ---------------------------------------------------------------------
 Center     Atomic      Atomic             Coordinates (Angstroms)
 Number     Number       Type             X           Y           Z
 ---------------------------------------------------------------------
      1          9           0        2.867204   -0.698513   -0.442724
      2          6           0        0.728078    0.004360    0.249819
      3          6           0        2.203194    0.190812    0.401013
      4          1           0        2.513674   -0.035053    1.425337
      5          1           0        2.487251    1.211419    0.140448
      6          7           0        0.001608    0.987597   -0.087931
      7          8           0       -1.262261    1.025001   -0.240676
      8         17           0       -2.268979   -0.600316    0.037361
      9          1           0        0.266073   -0.968606    0.419526
 ---------------------------------------------------------------------

 SCF Done:  E(RHF) =  -767.127759778     A.U. after    2 cycles

 The electronic state is 1-A.
 Alpha  occ. eigenvalues --  -99.93583 -29.27559 -21.20388 -15.85073 -11.50219
 Alpha  occ. eigenvalues --  -11.44933 -10.50122  -9.69888  -9.69475  -9.69239
 Alpha  occ. eigenvalues --   -1.89717  -1.34535  -1.26566  -1.14116  -0.86008
 Alpha  occ. eigenvalues --   -0.73960  -0.70256  -0.68494  -0.63566  -0.61366
 Alpha  occ. eigenvalues --   -0.55072  -0.53145  -0.50427  -0.45426  -0.39285
 Alpha  occ. eigenvalues --   -0.34343  -0.27283  -0.26911
 Alpha virt. eigenvalues --    0.02354   0.04523   0.05637   0.06441   0.09269
 Alpha virt. eigenvalues --    0.10209   0.11024   0.12343   0.13560   0.14280
 Alpha virt. eigenvalues --    0.15094   0.15685   0.16799   0.17797   0.18270

 Mulliken charges:
               1
     1  F    0.314994
     2  C    0.226828
     3  C   -2.654310
     4  H    1.279078
     5  H    1.363371
     6  N   -0.076483
     7  O   -2.111302
     8  Cl   0.030955
     9  H    1.626868
 Sum of Mulliken charges =  -0.00000

 Dipole moment (field-independent basis, Debye):
    X=              3.6297    Y=              0.6106    Z=             -0.4600  Tot=              3.7094

 Test job not archived.
 1\1\GINC-SE339\SP\RHF\Aug-CC-pVDZ\C2H3Cl1F1N1O1\OHZDE\08-Apr-2025\0\\#
 t hf aug-cc-pvdz iop(5/13=1,5/36=2,99/5=2) pseudo=read geom=check gues
 s=(read,tcheck) scf=(maxcycle=1)\\title\\0,1\F,0,2.867204,-0.698513,-0
 .442724\C,0,0.728078,0.00436,0.249819\C,0,2.203194,0.190812,0.401013\H
 ,0,2.513674,-0.035053,1.425337\H,0,2.487251,1.211419,0.140448\N,0,0.00
 1608,0.987597,-0.087931\O,0,-1.262261,1.025001,-0.240676\Cl,0,-2.26897
 9,-0.600316,0.037361\H,0,0.266073,-0.968606,0.419526\\Version=ES64L-G1
 6RevC.01\State=1-A\HF=-767.1277598\RMSD=1.827e-01\Dipole=1.4280407,0.2

 Normal termination of Gaussian 16 at Tue Apr  8 23:19:58 2025.
