 Gaussian 16, Revision C.01,

 ----------------------------------------------------------------------
 #t hf aug-cc-pvdz symm=none int=(grid=ultrafine) guess=(read,tcheck) s
 table=opt
 ----------------------------------------------------------------------
 -----
 title
 -----
 Symbolic Z-matrix:
 Charge =  0 Multiplicity = 2

 SCF Done:  E(UHF) =  -690.714845500     A.U. after   19 cycles
 Normal termination of Gaussian 16 at Wed Apr  9 00:32:20 2025.
 Gaussian 16:  ES64L-G16RevC.01  3-Jul-2019

 ----------------------------------------------------------------------
 #t hf aug-cc-pvdz iop(5/13=1,5/36=2,99/5=2) pseudo=read geom=check gue
 ss=(read,tcheck) scf=(maxcycle=1)
 ----------------------------------------------------------------------
 -----
 title
 -----
 Structure from the checkpoint file:  "BDE49_nonexpt_375_mol2.chk"
 Charge =  0 Multiplicity = 2

                         Standard orientation:
 ---------------------------------------------------------------------
 Center     Atomic      Atomic             Coordinates (Angstroms)
 Number     Number       Type             X           Y           Z
 ---------------------------------------------------------------------
      1          9           0        2.483686    0.020158    0.084893
      2          5           0        1.384567   -0.450515    0.597887
      3         15           0       -0.396064   -0.100119   -0.088439
      4          8           0       -0.803054   -1.141973   -1.043800
      5          8           0       -1.373550    0.026161    1.191763
      6          1           0       -1.789804   -0.818750    1.403389
      7          8           0       -0.362620    1.432912   -0.551756
      8          1           0       -1.231459    1.854881   -0.599939
 ---------------------------------------------------------------------

 SCF Done:  E(UHF) =  -692.250672285     A.U. after    2 cycles

 The electronic state is 2-A.
 Alpha  occ. eigenvalues -- -105.31094 -29.29523 -21.12849 -21.12658 -21.03236
 Alpha  occ. eigenvalues --   -7.72275  -2.93449  -1.98839  -1.89540  -1.81005
 Alpha  occ. eigenvalues --   -1.56113  -1.41077  -1.26566  -0.97482  -0.71800
 Alpha  occ. eigenvalues --   -0.62753  -0.55103  -0.52361  -0.47045  -0.45780
 Alpha  occ. eigenvalues --   -0.43785  -0.42870  -0.38048  -0.35717  -0.34556
 Alpha  occ. eigenvalues --   -0.30498  -0.19806  -0.09104
 Alpha virt. eigenvalues --    0.03410   0.04540   0.04629   0.05773   0.07465
 Alpha virt. eigenvalues --    0.10482   0.11084   0.12688   0.13598   0.14937
 Alpha virt. eigenvalues --    0.16131   0.20124   0.20751   0.20956   0.21180

  Beta  occ. eigenvalues -- -105.30977 -29.29230 -21.12750 -21.12698 -21.03179
  Beta  occ. eigenvalues --   -7.70397  -2.93133  -1.98631  -1.89304  -1.80384
  Beta  occ. eigenvalues --   -1.54292  -1.40814  -1.26250  -0.93985  -0.71321
  Beta  occ. eigenvalues --   -0.62575  -0.54394  -0.46438  -0.46073  -0.44885
  Beta  occ. eigenvalues --   -0.42953  -0.42659  -0.35590  -0.34928  -0.30302
  Beta  occ. eigenvalues --   -0.26907  -0.17072
  Beta virt. eigenvalues --    0.03459   0.04086   0.04775   0.05836   0.07243
  Beta virt. eigenvalues --    0.10726   0.11691   0.12556   0.13061   0.14903
  Beta virt. eigenvalues --    0.15741   0.16977   0.20601   0.21197   0.21310

 Mulliken charges and spin densities:
               1          2
     1  F    0.181275   0.014380
     2  B   -0.352991   0.924877
     3  P    6.563947   0.053760
     4  O   -2.801998   0.010490
     5  O   -2.559555  -0.000690
     6  H    0.879477   0.005101
     7  O   -2.774487  -0.019290
     8  H    0.864333   0.011371
 Sum of Mulliken charges =  -0.00000   1.00000

 Dipole moment (field-independent basis, Debye):
    X=              2.2237    Y=              4.1673    Z=             -0.3348  Tot=              4.7353
                          Isotropic Fermi Contact Couplings
        Atom                 a.u.       MegaHertz       Gauss      10(-4) cm-1
     1  F(19)              0.00818      34.42976      12.28539      11.48453
     2  B(11)              0.10036     143.94991      51.36491      48.01652
     3  P(31)              0.17129     310.22797     110.69705     103.48091
     4  O(17)              0.02943     -17.84273      -6.36673      -5.95169
     5  O(17)              0.00093      -0.56261      -0.20075      -0.18767
     6  H(1)               0.00011       0.46994       0.16769       0.15676
     7  O(17)              0.04682     -28.38096     -10.12703      -9.46687
     8  H(1)               0.00253      11.29816       4.03146       3.76866

 Normal termination of Gaussian 16 at Wed Apr  9 00:32:23 2025.
