 Gaussian 16, Revision C.01,

 ----------------------------------------------------------------------
 #t hf aug-cc-pvdz symm=none int=(grid=ultrafine) guess=(read,tcheck) s
 table=(opt,rrhf)
 ----------------------------------------------------------------------
 -----
 title
 -----
 Symbolic Z-matrix:
 Charge =  0 Multiplicity = 1

 SCF Done:  E(RHF) =  -975.019232284     A.U. after   11 cycles
 Normal termination of Gaussian 16 at Tue Apr  8 22:59:41 2025.
 Gaussian 16:  ES64L-G16RevC.01  3-Jul-2019

 ----------------------------------------------------------------------
 #t hf aug-cc-pvdz iop(5/13=1,5/36=2,99/5=2) pseudo=read geom=check gue
 ss=(read,tcheck) scf=(maxcycle=1)
 ----------------------------------------------------------------------
 -----
 title
 -----
 Structure from the checkpoint file:  "BDE49_expt_1946_mol1.chk"
 Charge =  0 Multiplicity = 1

                         Standard orientation:
 ---------------------------------------------------------------------
 Center     Atomic      Atomic             Coordinates (Angstroms)
 Number     Number       Type             X           Y           Z
 ---------------------------------------------------------------------
      1         14           0       -0.381933    0.000006   -0.000003
      2         17           0        1.706775   -0.000029    0.000014
      3          8           0       -0.909799    1.532794   -0.037031
      4          8           0       -0.909849   -0.798433   -1.308909
      5          8           0       -0.909880   -0.734317    1.345911
      6          1           0       -0.610485    2.109364   -0.744171
      7          1           0       -0.610671   -1.699168   -1.454628
      8          1           0       -0.610732   -0.410142    2.198838
 ---------------------------------------------------------------------

 SCF Done:  E(RHF) =  -976.339085576     A.U. after    2 cycles

 The electronic state is 1-A.
 Alpha  occ. eigenvalues --  -99.88494 -76.29829 -21.09769 -21.09769 -21.09742
 Alpha  occ. eigenvalues --  -10.45950  -9.65808  -9.65251  -9.65251  -5.64995
 Alpha  occ. eigenvalues --   -2.32288  -2.32288  -2.27060  -1.73128  -1.66061
 Alpha  occ. eigenvalues --   -1.66060  -1.28830  -0.75981  -0.63166  -0.63165
 Alpha  occ. eigenvalues --   -0.62806  -0.54952  -0.54952  -0.45026  -0.43635
 Alpha  occ. eigenvalues --   -0.43635  -0.41499  -0.40773  -0.40772
 Alpha virt. eigenvalues --    0.03224   0.06006   0.06006   0.07118   0.08272
 Alpha virt. eigenvalues --    0.08272   0.10521   0.13377   0.14938   0.14938
 Alpha virt. eigenvalues --    0.18460   0.19383   0.19383   0.21575   0.21575

 Mulliken charges:
               1
     1  Si   5.931545
     2  Cl  -0.883614
     3  O   -2.645015
     4  O   -2.645049
     5  O   -2.645037
     6  H    0.962389
     7  H    0.962386
     8  H    0.962395
 Sum of Mulliken charges =  -0.00000

 Dipole moment (field-independent basis, Debye):
    X=             -1.4235    Y=              0.0000    Z=              0.0001  Tot=              1.4235

 Test job not archived.
 1\1\GINC-SE071\SP\RHF\Aug-CC-pVDZ\Cl1H3O3Si1\OHZDE\08-Apr-2025\0\\#t h
 f aug-cc-pvdz iop(5/13=1,5/36=2,99/5=2) pseudo=read geom=check guess=(
 read,tcheck) scf=(maxcycle=1)\\title\\0,1\Si,0,0.381933,-0.000006,-0.0
 00003\Cl,0,-1.706775,0.000028,0.000014\O,0,0.909799,-1.532344,-0.05242
 2\O,0,0.909849,0.811537,-1.300825\O,0,0.909879,0.720765,1.353217\H,0,0
 .610486,-2.101784,-0.765316\H,0,0.61067,1.71369,-1.437491\H,0,0.610731
 ,0.388041,2.202846\\Version=ES64L-G16RevC.01\State=1-A\HF=-976.3390856
 \RMSD=4.638e-02\Dipole=0.5600524,-0.000014,0.000023\Quadrupole=-4.2341

 Normal termination of Gaussian 16 at Tue Apr  8 22:59:43 2025.
