 Gaussian 16, Revision C.01,

 ----------------------------------------------------------------------
 #t hf aug-cc-pvdz symm=none int=(grid=ultrafine) guess=(read,tcheck) s
 table=(opt,rrhf)
 ----------------------------------------------------------------------
 -----
 title
 -----
 Symbolic Z-matrix:
 Charge =  0 Multiplicity = 1

 SCF Done:  E(RHF) =  -634.716200491     A.U. after   16 cycles
 Normal termination of Gaussian 16 at Wed Apr  9 00:00:45 2025.
 Gaussian 16:  ES64L-G16RevC.01  3-Jul-2019

 ----------------------------------------------------------------------
 #t hf aug-cc-pvdz iop(5/13=1,5/36=2,99/5=2) pseudo=read geom=check gue
 ss=(read,tcheck) scf=(maxcycle=1)
 ----------------------------------------------------------------------
 -----
 title
 -----
 Structure from the checkpoint file:  "BDE49_nonexpt_2081_mol1.chk"
 Charge =  0 Multiplicity = 1

                         Standard orientation:
 ---------------------------------------------------------------------
 Center     Atomic      Atomic             Coordinates (Angstroms)
 Number     Number       Type             X           Y           Z
 ---------------------------------------------------------------------
      1         14           0       -3.250769   -0.198556   -0.000001
      2          6           0       -1.389844   -0.006897   -0.000001
      3          6           0       -0.779505    1.262943   -0.000000
      4          6           0        0.597016    1.407577    0.000001
      5          6           0        1.423198    0.274792    0.000001
      6          6           0       -0.544063   -1.121485   -0.000002
      7          1           0       -0.968375   -2.120416   -0.000003
      8          6           0        0.846429   -0.996992   -0.000001
      9          1           0        1.459295   -1.888406   -0.000001
     10          1           0       -1.391675    2.159908   -0.000000
     11          8           0        2.761440    0.520306    0.000002
     12          6           0        3.655529   -0.583902    0.000002
     13          1           0        3.527767   -1.204272    0.894056
     14          1           0        4.656385   -0.155492    0.000003
     15          1           0        3.527768   -1.204271   -0.894053
     16          1           0        1.064216    2.385098    0.000002
     17          1           0       -3.860190    0.435402    1.195242
     18          1           0       -3.588316   -1.641865   -0.000018
     19          1           0       -3.860191    0.435432   -1.195228
 ---------------------------------------------------------------------

 SCF Done:  E(RHF) =  -636.495800031     A.U. after    2 cycles

 The electronic state is 1-A.
 Alpha  occ. eigenvalues --  -76.21017 -21.07891 -11.52692 -11.45905 -11.43315
 Alpha  occ. eigenvalues --  -11.41997 -11.40505 -11.40363 -11.36354  -5.54524
 Alpha  occ. eigenvalues --   -2.19362  -2.17960  -2.16570  -1.79299  -1.31899
 Alpha  occ. eigenvalues --   -1.10114  -1.08759  -0.99125  -0.87499  -0.83808
 Alpha  occ. eigenvalues --   -0.76899  -0.68477  -0.64271  -0.62863  -0.62780
 Alpha  occ. eigenvalues --   -0.58584  -0.57535  -0.52635  -0.52523  -0.47200
 Alpha  occ. eigenvalues --   -0.47091  -0.45377  -0.40942  -0.40508  -0.38792
 Alpha  occ. eigenvalues --   -0.33589  -0.26960
 Alpha virt. eigenvalues --    0.03208   0.04838   0.05156   0.05594   0.05767
 Alpha virt. eigenvalues --    0.06420   0.06859   0.07088   0.07160   0.08219
 Alpha virt. eigenvalues --    0.09212   0.09583   0.10432   0.11358   0.11580

 Mulliken charges:
               1
     1  Si   5.594830
     2  C   -2.203637
     3  C   -0.502383
     4  C   -3.278629
     5  C    5.908046
     6  C   -1.038742
     7  H    1.833093
     8  C   -2.553565
     9  H    1.915676
    10  H    1.865954
    11  O   -4.692036
    12  C   -3.805073
    13  H    1.390817
    14  H    1.399395
    15  H    1.390816
    16  H    1.870300
    17  H   -1.705199
    18  H   -1.684475
    19  H   -1.705187
 Sum of Mulliken charges =   0.00000

 Dipole moment (field-independent basis, Debye):
    X=              2.5483    Y=             -0.3074    Z=              0.0000  Tot=              2.5668

 Test job not archived.
 1\1\GINC-SE082\SP\RHF\Aug-CC-pVDZ\C7H10O1Si1\OHZDE\09-Apr-2025\0\\#t h
 f aug-cc-pvdz iop(5/13=1,5/36=2,99/5=2) pseudo=read geom=check guess=(
 read,tcheck) scf=(maxcycle=1)\\title\\0,1\Si,0,-3.250769,-0.198556,-0.
 000001\C,0,-1.389844,-0.006897,-0.000001\C,0,-0.779505,1.262943,0.\C,0
 ,0.597016,1.407577,0.000001\C,0,1.423198,0.274792,0.000001\C,0,-0.5440
 63,-1.121485,-0.000002\H,0,-0.968375,-2.120416,-0.000003\C,0,0.846429,
 -0.996992,-0.000001\H,0,1.459295,-1.888406,-0.000001\H,0,-1.391675,2.1
 59908,0.\O,0,2.76144,0.520306,0.000002\C,0,3.655529,-0.583902,0.000002

 Normal termination of Gaussian 16 at Wed Apr  9 00:00:55 2025.
