 Gaussian 16, Revision C.01,

 ----------------------------------------------------------------------
 #t hf aug-cc-pvdz symm=none int=(grid=ultrafine) guess=(read,tcheck) s
 table=opt
 ----------------------------------------------------------------------
 -----
 title
 -----
 Symbolic Z-matrix:
 Charge =  0 Multiplicity = 2

 SCF Done:  E(UHF) =  -498.031283813     A.U. after   15 cycles

 1\1\GINC-SE128\Stability\UHF\Aug-CC-pVDZ\C4H10P1\OHZDE\08-Apr-2025\0\\
 #t hf aug-cc-pvdz symm=none int=(grid=ultrafine) guess=(read,tcheck) s
 table=opt\\title\\0,2\P,0,0.,0.618722,-0.000004\C,0,-1.418166,-0.59146
 9,0.000006\C,0,1.418166,-0.591469,0.\C,0,2.78876,0.096032,-0.000005\H,
 0,1.318982,-1.243727,-0.877115\H,0,1.318984,-1.243717,0.877123\H,0,2.9
 15665,0.730103,-0.881899\H,0,3.597304,-0.640563,-0.000003\H,0,2.915668
 ,0.730112,0.881881\C,0,-2.78876,0.096032,0.000006\H,0,-1.318981,-1.243
 717,0.877129\H,0,-1.318985,-1.243727,-0.877109\H,0,-2.915664,0.730113,

 Normal termination of Gaussian 16 at Tue Apr  8 23:01:04 2025.
 Gaussian 16:  ES64L-G16RevC.01  3-Jul-2019

 ----------------------------------------------------------------------
 #t hf aug-cc-pvdz iop(5/13=1,5/36=2,99/5=2) pseudo=read geom=check gue
 ss=(read,tcheck) scf=(maxcycle=1)
 ----------------------------------------------------------------------
 -----
 title
 -----
 Structure from the checkpoint file:  "BDE49_expt_1950_mol2.chk"
 Charge =  0 Multiplicity = 2

                         Standard orientation:
 ---------------------------------------------------------------------
 Center     Atomic      Atomic             Coordinates (Angstroms)
 Number     Number       Type             X           Y           Z
 ---------------------------------------------------------------------
      1         15           0        0.000000   -0.618722   -0.000004
      2          6           0        1.418166    0.591469    0.000006
      3          6           0       -1.418166    0.591469   -0.000000
      4          6           0       -2.788760   -0.096032   -0.000005
      5          1           0       -1.318982    1.243727   -0.877115
      6          1           0       -1.318984    1.243717    0.877123
      7          1           0       -2.915665   -0.730103   -0.881899
      8          1           0       -3.597304    0.640563   -0.000003
      9          1           0       -2.915668   -0.730112    0.881881
     10          6           0        2.788760   -0.096032    0.000006
     11          1           0        1.318981    1.243717    0.877129
     12          1           0        1.318985    1.243727   -0.877109
     13          1           0        2.915664   -0.730113    0.881893
     14          1           0        3.597304    0.640563    0.000012
     15          1           0        2.915668   -0.730103   -0.881888
 ---------------------------------------------------------------------

 SCF Done:  E(UHF) =  -499.029227922     A.U. after    2 cycles

 The electronic state is 2-A.
 Alpha  occ. eigenvalues -- -105.15657 -11.40167 -11.39378 -11.35554 -11.35469
 Alpha  occ. eigenvalues --   -2.74156  -1.48120  -1.44607  -1.43825  -1.14501
 Alpha  occ. eigenvalues --   -1.10938  -0.88310  -0.85911  -0.65467  -0.61681
 Alpha  occ. eigenvalues --   -0.60698  -0.56158  -0.53661  -0.50854  -0.49620
 Alpha  occ. eigenvalues --   -0.48334  -0.48103  -0.17934  -0.05632   0.03280
 Alpha virt. eigenvalues --    0.04607   0.04744   0.06040   0.06413   0.06587
 Alpha virt. eigenvalues --    0.06775   0.07085   0.07669   0.08012   0.08776
 Alpha virt. eigenvalues --    0.10185   0.11469   0.12366   0.14818   0.15009

  Beta  occ. eigenvalues -- -105.15030 -11.40227 -11.39437 -11.35620 -11.35536
  Beta  occ. eigenvalues --   -2.72243  -1.46112  -1.43367  -1.19962  -1.14333
  Beta  occ. eigenvalues --   -1.10848  -0.87941  -0.85805  -0.62587  -0.61143
  Beta  occ. eigenvalues --   -0.60307  -0.56210  -0.52738  -0.49954  -0.49202
  Beta  occ. eigenvalues --   -0.48062  -0.47977  -0.19071  -0.03433
  Beta virt. eigenvalues --    0.04635   0.04787   0.06065   0.06423   0.06589
  Beta virt. eigenvalues --    0.06683   0.06769   0.07090   0.08057   0.08822
  Beta virt. eigenvalues --    0.10670   0.10943   0.11531   0.12422   0.14815

 Mulliken charges and spin densities:
               1          2
     1  P    4.858730   1.442169
     2  C   -4.800871  -0.242350
     3  C   -4.800871  -0.242350
     4  C   -3.624199  -0.110679
     5  H    1.330468  -0.044054
     6  H    1.330468  -0.044055
     7  H    1.162905   0.121524
     8  H    1.008959  -0.022997
     9  H    1.162905   0.121526
    10  C   -3.624199  -0.110679
    11  H    1.330467  -0.044054
    12  H    1.330469  -0.044055
    13  H    1.162904   0.121525
    14  H    1.008960  -0.022997
    15  H    1.162904   0.121525
 Sum of Mulliken charges =  -0.00000   1.00000

 Dipole moment (field-independent basis, Debye):
    X=             -0.0000    Y=              0.2646    Z=             -0.0000  Tot=              0.2646
                          Isotropic Fermi Contact Couplings
        Atom                 a.u.       MegaHertz       Gauss      10(-4) cm-1
     1  P(31)              0.29603     536.13032     191.30463     178.83382
     2  C(13)             -0.00036      -0.40834      -0.14571      -0.13621
     3  C(13)             -0.00036      -0.40834      -0.14571      -0.13621
     4  C(13)             -0.00175      -1.97252      -0.70385      -0.65796
     5  H(1)               0.00503      22.50332       8.02975       7.50630
     6  H(1)               0.00503      22.50332       8.02974       7.50630
     7  H(1)              -0.00024      -1.06664      -0.38060      -0.35579
     8  H(1)              -0.00040      -1.77343      -0.63280      -0.59155

 Normal termination of Gaussian 16 at Tue Apr  8 23:01:10 2025.
