 Gaussian 16, Revision C.01,

 ----------------------------------------------------------------------
 #t hf aug-cc-pvdz symm=none int=(grid=ultrafine) guess=(read,tcheck) s
 table=(opt,rrhf)
 ----------------------------------------------------------------------
 -----
 title
 -----
 Symbolic Z-matrix:
 Charge =  0 Multiplicity = 1

 SCF Done:  E(RHF) =  -624.190645429     A.U. after   15 cycles
 Normal termination of Gaussian 16 at Tue Apr  8 23:39:16 2025.
 Gaussian 16:  ES64L-G16RevC.01  3-Jul-2019

 ----------------------------------------------------------------------
 #t hf aug-cc-pvdz iop(5/13=1,5/36=2,99/5=2) pseudo=read geom=check gue
 ss=(read,tcheck) scf=(maxcycle=1)
 ----------------------------------------------------------------------
 -----
 title
 -----
 Structure from the checkpoint file:  "BDE49_nonexpt_1575_mol1.chk"
 Charge =  0 Multiplicity = 1

                         Standard orientation:
 ---------------------------------------------------------------------
 Center     Atomic      Atomic             Coordinates (Angstroms)
 Number     Number       Type             X           Y           Z
 ---------------------------------------------------------------------
      1          6           0        1.104838    0.248824   -0.096834
      2         15           0       -0.199056   -1.106990   -0.181289
      3          8           0        0.999166    1.340245   -0.596209
      4          8           0        2.236178   -0.180125    0.513974
      5          7           0       -1.660933   -0.272541   -0.284884
      6          6           0       -2.028800    0.881947    0.537843
      7          1           0       -3.088574    1.106162    0.394539
      8          1           0       -1.438661    1.774048    0.306154
      9          1           0       -1.881986    0.631340    1.591636
     10          1           0        2.887808    0.536757    0.442268
     11          1           0       -0.168567   -1.355803    1.212422
     12          1           0       -2.036617   -0.245457   -1.221678
 ---------------------------------------------------------------------

 SCF Done:  E(RHF) =  -625.613136604     A.U. after    2 cycles

 The electronic state is 1-A.
 Alpha  occ. eigenvalues -- -105.20949 -21.12712 -21.06073 -15.74021 -11.49759
 Alpha  occ. eigenvalues --  -11.39304  -2.79011  -1.82709  -1.65961  -1.59555
 Alpha  occ. eigenvalues --   -1.47859  -1.47074  -1.25739  -0.96117  -0.83342
 Alpha  occ. eigenvalues --   -0.71448  -0.62801  -0.60534  -0.59436  -0.55138
 Alpha  occ. eigenvalues --   -0.54815  -0.52009  -0.39053  -0.37683  -0.34457
 Alpha  occ. eigenvalues --   -0.27907  -0.21475  -0.03127
 Alpha virt. eigenvalues --    0.03785   0.05420   0.06130   0.06842   0.07442
 Alpha virt. eigenvalues --    0.07749   0.09419   0.11222   0.11826   0.12282
 Alpha virt. eigenvalues --    0.13261   0.13515   0.14858   0.15484   0.16021

 Mulliken charges:
               1
     1  C    3.045640
     2  P    2.990502
     3  O   -2.708058
     4  O   -2.722409
     5  N   -1.976011
     6  C   -3.367916
     7  H    1.210718
     8  H    1.394950
     9  H    1.414684
    10  H    0.902791
    11  H   -0.790772
    12  H    0.605880
 Sum of Mulliken charges =   0.00000

 Dipole moment (field-independent basis, Debye):
    X=             -0.8352    Y=             -0.3616    Z=             -0.6097  Tot=              1.0955

 Test job not archived.
 1\1\GINC-SE366\SP\RHF\Aug-CC-pVDZ\C2H6N1O2P1\OHZDE\08-Apr-2025\0\\#t h
 f aug-cc-pvdz iop(5/13=1,5/36=2,99/5=2) pseudo=read geom=check guess=(
 read,tcheck) scf=(maxcycle=1)\\title\\0,1\C,0,1.104838,0.248824,-0.096
 834\P,0,-0.199056,-1.10699,-0.181289\O,0,0.999166,1.340245,-0.596209\O
 ,0,2.236178,-0.180125,0.513974\N,0,-1.660933,-0.272541,-0.284884\C,0,-
 2.0288,0.881947,0.537843\H,0,-3.088574,1.106162,0.394539\H,0,-1.438661
 ,1.774048,0.306154\H,0,-1.881986,0.63134,1.591636\H,0,2.887808,0.53675
 7,0.442268\H,0,-0.168567,-1.355803,1.212422\H,0,-2.036617,-0.245457,-1

 Normal termination of Gaussian 16 at Tue Apr  8 23:39:20 2025.
