 Gaussian 16, Revision C.01,

 ----------------------------------------------------------------------
 #t hf aug-cc-pvdz symm=none int=(grid=ultrafine) guess=(read,tcheck) s
 table=(opt,rrhf)
 ----------------------------------------------------------------------
 -----
 title
 -----
 Symbolic Z-matrix:
 Charge =  0 Multiplicity = 1

 SCF Done:  E(RHF) =  -1682.64762117     A.U. after   13 cycles
 Normal termination of Gaussian 16 at Tue Apr  8 22:52:25 2025.
 Gaussian 16:  ES64L-G16RevC.01  3-Jul-2019

 ----------------------------------------------------------------------
 #t hf aug-cc-pvdz iop(5/13=1,5/36=2,99/5=2) pseudo=read geom=check gue
 ss=(read,tcheck) scf=(maxcycle=1)
 ----------------------------------------------------------------------
 -----
 title
 -----
 Structure from the checkpoint file:  "BDE49_expt_1719_mol1.chk"
 Charge =  0 Multiplicity = 1

                         Standard orientation:
 ---------------------------------------------------------------------
 Center     Atomic      Atomic             Coordinates (Angstroms)
 Number     Number       Type             X           Y           Z
 ---------------------------------------------------------------------
      1          6           0       -0.435068    0.765251    0.000003
      2          8           0       -0.459737    1.961443   -0.000019
      3          6           0        0.888369   -0.065814    0.000002
      4          8           0       -1.481219   -0.049722    0.000004
      5         17           0        0.929069   -1.099880   -1.470356
      6         17           0        0.929104   -1.099815    1.470405
      7         17           0        2.290850    1.022768   -0.000039
      8          6           0       -2.792022    0.587242   -0.000006
      9          6           0       -3.828054   -0.515088   -0.000003
     10          1           0       -2.860372    1.224187   -0.884239
     11          1           0       -2.860379    1.224199    0.884217
     12          1           0       -3.727887   -1.144383   -0.886369
     13          1           0       -4.828557   -0.075185   -0.000010
     14          1           0       -3.727894   -1.144370    0.886373
 ---------------------------------------------------------------------

 SCF Done:  E(RHF) =  -1684.73246033     A.U. after    2 cycles

 The electronic state is 1-A.
 Alpha  occ. eigenvalues --  -99.92334 -99.92332 -99.91712 -21.11470 -21.08380
 Alpha  occ. eigenvalues --  -11.58835 -11.54019 -11.46282 -11.38883 -10.49778
 Alpha  occ. eigenvalues --  -10.49524 -10.49047  -9.69593  -9.69556  -9.69030
 Alpha  occ. eigenvalues --   -9.68857  -9.68755  -9.68712  -9.68608  -9.68150
 Alpha  occ. eigenvalues --   -9.68047  -1.87502  -1.70036  -1.45529  -1.31204
 Alpha  occ. eigenvalues --   -1.30856  -1.16307  -1.04387  -0.92036  -0.81210
 Alpha  occ. eigenvalues --   -0.73208  -0.72469  -0.70339  -0.67547  -0.60748
 Alpha  occ. eigenvalues --   -0.58890  -0.57273  -0.56246  -0.54419  -0.53513
 Alpha  occ. eigenvalues --   -0.51714  -0.51617  -0.50344  -0.50079  -0.49521
 Alpha  occ. eigenvalues --   -0.44023  -0.34763  -0.33316
 Alpha virt. eigenvalues --    0.00286   0.03432   0.04801   0.05450   0.05686
 Alpha virt. eigenvalues --    0.06232   0.06316   0.06761   0.07588   0.09150
 Alpha virt. eigenvalues --    0.09926   0.11451   0.12014   0.13643   0.13845

 Mulliken charges:
               1
     1  C    6.146681
     2  O   -2.976537
     3  C   -1.765321
     4  O   -2.820988
     5  Cl   0.191090
     6  Cl   0.191088
     7  Cl   0.211949
     8  C   -2.661975
     9  C   -3.474170
    10  H    1.637034
    11  H    1.637040
    12  H    1.293381
    13  H    1.097346
    14  H    1.293383
 Sum of Mulliken charges =  -0.00000

 Dipole moment (field-independent basis, Debye):
    X=             -3.1672    Y=              0.1285    Z=             -0.0000  Tot=              3.1698

 Test job not archived.
 1\1\GINC-SE120\SP\RHF\Aug-CC-pVDZ\C4H5Cl3O2\OHZDE\08-Apr-2025\0\\#t hf
  aug-cc-pvdz iop(5/13=1,5/36=2,99/5=2) pseudo=read geom=check guess=(r
 ead,tcheck) scf=(maxcycle=1)\\title\\0,1\C,0,-0.435068,0.765251,0.0000
 03\O,0,-0.459737,1.961443,-0.000019\C,0,0.888369,-0.065814,0.000002\O,
 0,-1.481219,-0.049722,0.000004\Cl,0,0.929069,-1.09988,-1.470356\Cl,0,0
 .929104,-1.099815,1.470405\Cl,0,2.29085,1.022768,-0.000039\C,0,-2.7920
 22,0.587242,-0.000006\C,0,-3.828054,-0.515088,-0.000003\H,0,-2.860372,
 1.224187,-0.884239\H,0,-2.860379,1.224199,0.884217\H,0,-3.727887,-1.14

 Normal termination of Gaussian 16 at Tue Apr  8 22:52:32 2025.
