 Gaussian 16, Revision C.01,

 ----------------------------------------------------------------------
 #t hf aug-cc-pvdz symm=none int=(grid=ultrafine) guess=(read,tcheck) s
 table=opt
 ----------------------------------------------------------------------
 -----
 title
 -----
 Symbolic Z-matrix:
 Charge =  0 Multiplicity = 2

 SCF Done:  E(UHF) =  -177.473458157     A.U. after   15 cycles
 Normal termination of Gaussian 16 at Tue Apr  8 22:31:19 2025.
 Gaussian 16:  ES64L-G16RevC.01  3-Jul-2019

 ----------------------------------------------------------------------
 #t hf aug-cc-pvdz iop(5/13=1,5/36=2,99/5=2) pseudo=read geom=check gue
 ss=(read,tcheck) scf=(maxcycle=1)
 ----------------------------------------------------------------------
 -----
 title
 -----
 Structure from the checkpoint file:  "BDE49_expt_1025_mol2.chk"
 Charge =  0 Multiplicity = 2

                         Standard orientation:
 ---------------------------------------------------------------------
 Center     Atomic      Atomic             Coordinates (Angstroms)
 Number     Number       Type             X           Y           Z
 ---------------------------------------------------------------------
      1          6           0       -1.193719   -0.172195    0.012277
      2          1           0       -1.258785   -1.004072   -0.696143
      3          1           0       -2.006880    0.526459   -0.196992
      4          1           0       -1.356281   -0.588944    1.018946
      5          6           0        0.110988    0.516212   -0.100851
      6          9           0        1.202424   -0.280557    0.017804
      7          1           0        0.296517    1.527474    0.245395
 ---------------------------------------------------------------------

 SCF Done:  E(UHF) =  -178.188649126     A.U. after    2 cycles

 The electronic state is 2-A.
 Alpha  occ. eigenvalues --  -29.27096 -11.44670 -11.37909  -1.22477  -0.95919
 Alpha  occ. eigenvalues --   -0.69750  -0.61826  -0.59251  -0.53437  -0.45746
 Alpha  occ. eigenvalues --   -0.37789  -0.25993  -0.18372
 Alpha virt. eigenvalues --    0.03925   0.05418   0.06309   0.06702   0.11543
 Alpha virt. eigenvalues --    0.12099   0.13193   0.14514   0.14983   0.16939
 Alpha virt. eigenvalues --    0.17793   0.22482   0.25224   0.27854   0.28737

  Beta  occ. eigenvalues --  -29.26727 -11.42568 -11.37753  -1.17532  -0.93286
  Beta  occ. eigenvalues --   -0.67986  -0.58083  -0.56634  -0.52985  -0.37490
  Beta  occ. eigenvalues --   -0.33351  -0.25977
  Beta virt. eigenvalues --    0.03880   0.05473   0.06309   0.06670   0.10534
  Beta virt. eigenvalues --    0.12041   0.12682   0.14471   0.15014   0.16498
  Beta virt. eigenvalues --    0.17842   0.19837   0.23287   0.25505   0.28120

 Mulliken charges and spin densities:
               1          2
     1  C   -3.674194  -0.324246
     2  H    1.217363   0.000321
     3  H    1.248971  -0.004482
     4  H    1.234386   0.044697
     5  C   -1.813839   1.189852
     6  F    0.441985   0.137372
     7  H    1.345329  -0.043512
 Sum of Mulliken charges =   0.00000   1.00000

 Dipole moment (field-independent basis, Debye):
    X=              0.9380    Y=             -0.7659    Z=              0.4348  Tot=              1.2867
                          Isotropic Fermi Contact Couplings
        Atom                 a.u.       MegaHertz       Gauss      10(-4) cm-1
     1  C(13)             -0.02124     -23.87392      -8.51881      -7.96348
     2  H(1)               0.00840      37.56690      13.40480      12.53097
     3  H(1)               0.00216       9.64954       3.44320       3.21874
     4  H(1)               0.01847      82.57589      29.46513      27.54435
     5  C(13)              0.16203     182.15463      64.99730      60.76024
     6  F(19)              0.02545     107.09423      38.21388      35.72279
     7  H(1)              -0.01324     -59.17195     -21.11402     -19.73764
 --------------------------------------------------------

 Normal termination of Gaussian 16 at Tue Apr  8 22:31:21 2025.
