 Gaussian 16, Revision C.01,

 ----------------------------------------------------------------------
 #t hf aug-cc-pvdz symm=none int=(grid=ultrafine) guess=(read,tcheck) s
 table=(opt,rrhf)
 ----------------------------------------------------------------------
 -----
 title
 -----
 Symbolic Z-matrix:
 Charge =  0 Multiplicity = 1

 SCF Done:  E(RHF) =  -636.331990222     A.U. after   16 cycles
 Normal termination of Gaussian 16 at Wed Apr  9 00:46:18 2025.
 Gaussian 16:  ES64L-G16RevC.01  3-Jul-2019

 ----------------------------------------------------------------------
 #t hf aug-cc-pvdz iop(5/13=1,5/36=2,99/5=2) pseudo=read geom=check gue
 ss=(read,tcheck) scf=(maxcycle=1)
 ----------------------------------------------------------------------
 -----
 title
 -----
 Structure from the checkpoint file:  "BDE49_nonexpt_770_mol1.chk"
 Charge =  0 Multiplicity = 1

                         Standard orientation:
 ---------------------------------------------------------------------
 Center     Atomic      Atomic             Coordinates (Angstroms)
 Number     Number       Type             X           Y           Z
 ---------------------------------------------------------------------
      1          6           0        0.132799    0.061064   -0.097139
      2          6           0        0.917752    1.219476   -0.210646
      3          6           0        2.300985    1.149029   -0.101226
      4          6           0        2.931122   -0.078694    0.105370
      5          6           0        2.162747   -1.234526    0.202922
      6          6           0        0.773977   -1.168610    0.101685
      7          5           0       -2.504275    1.569432    0.548806
      8          1           0        2.890653    2.055221   -0.184059
      9          1           0        4.010799   -0.131761    0.184597
     10          1           0        2.641418   -2.194672    0.360811
     11          1           0        0.196607   -2.081379    0.185546
     12          1           0        0.441649    2.178147   -0.382543
     13         15           0       -1.669813    0.186822   -0.276318
     14          6           0       -2.422788   -1.471876   -0.037539
     15          1           0       -2.132605   -1.923433    0.913002
     16          1           0       -2.155708   -2.144978   -0.853849
     17          1           0       -3.505430   -1.335794   -0.043548
     18          1           0       -1.916428    2.583765    0.741498
     19          1           0       -3.681950    1.490220    0.698728
 ---------------------------------------------------------------------

 SCF Done:  E(RHF) =  -637.971781073     A.U. after    2 cycles

 The electronic state is 1-A.
 Alpha  occ. eigenvalues -- -105.15842 -11.52018 -11.43944 -11.43374 -11.41234
 Alpha  occ. eigenvalues --  -11.40899 -11.38821 -11.36653  -7.60611  -2.75226
 Alpha  occ. eigenvalues --   -1.57087  -1.51638  -1.40857  -1.33069  -1.09441
 Alpha  occ. eigenvalues --   -1.08987  -1.01816  -0.86619  -0.85691  -0.80379
 Alpha  occ. eigenvalues --   -0.71042  -0.65225  -0.60846  -0.59061  -0.57468
 Alpha  occ. eigenvalues --   -0.57360  -0.56425  -0.50759  -0.49171  -0.48527
 Alpha  occ. eigenvalues --   -0.45102  -0.34268  -0.33366  -0.21030  -0.12455
 Alpha  occ. eigenvalues --   -0.04608
 Alpha virt. eigenvalues --    0.02918   0.03920   0.04671   0.05309   0.05646
 Alpha virt. eigenvalues --    0.06013   0.06570   0.07285   0.07742   0.08222
 Alpha virt. eigenvalues --    0.09150   0.10023   0.10587   0.10978   0.11647

 Mulliken charges:
               1
     1  C    0.467389
     2  C   -3.576223
     3  C   -0.918693
     4  C   -2.693107
     5  C   -1.402916
     6  C   -2.416360
     7  B    5.639807
     8  H    1.527589
     9  H    1.505054
    10  H    1.545085
    11  H    1.854340
    12  H    1.937007
    13  P    5.374948
    14  C   -6.476349
    15  H    1.065526
    16  H    1.272165
    17  H    1.305020
    18  H   -2.828214
    19  H   -3.182067
 Sum of Mulliken charges =   0.00000

 Dipole moment (field-independent basis, Debye):
    X=              4.3578    Y=             -5.7999    Z=             -5.2758  Tot=              8.9702

 Test job not archived.
 1\1\GINC-SE458\SP\RHF\Aug-CC-pVDZ\C7H10B1P1\OHZDE\09-Apr-2025\0\\#t hf
  aug-cc-pvdz iop(5/13=1,5/36=2,99/5=2) pseudo=read geom=check guess=(r
 ead,tcheck) scf=(maxcycle=1)\\title\\0,1\C,0,0.132799,0.061064,-0.0971
 39\C,0,0.917752,1.219476,-0.210646\C,0,2.300985,1.149029,-0.101226\C,0
 ,2.931122,-0.078694,0.10537\C,0,2.162747,-1.234526,0.202922\C,0,0.7739
 77,-1.16861,0.101685\B,0,-2.504275,1.569432,0.548806\H,0,2.890653,2.05
 5221,-0.184059\H,0,4.010799,-0.131761,0.184597\H,0,2.641418,-2.194672,
 0.360811\H,0,0.196607,-2.081379,0.185546\H,0,0.441649,2.178147,-0.3825

 Normal termination of Gaussian 16 at Wed Apr  9 00:46:27 2025.
