 Gaussian 16, Revision C.01,

 ----------------------------------------------------------------------
 #t hf aug-cc-pvdz symm=none int=(grid=ultrafine) guess=(read,tcheck) s
 table=(opt,rrhf)
 ----------------------------------------------------------------------
 -----
 title
 -----
 Symbolic Z-matrix:
 Charge =  0 Multiplicity = 1

 SCF Done:  E(RHF) =  -701.001739144     A.U. after   15 cycles
 Normal termination of Gaussian 16 at Wed Apr  9 00:21:07 2025.
 Gaussian 16:  ES64L-G16RevC.01  3-Jul-2019

 ----------------------------------------------------------------------
 #t hf aug-cc-pvdz iop(5/13=1,5/36=2,99/5=2) pseudo=read geom=check gue
 ss=(read,tcheck) scf=(maxcycle=1)
 ----------------------------------------------------------------------
 -----
 title
 -----
 Structure from the checkpoint file:  "BDE49_nonexpt_2621_mol1.chk"
 Charge =  0 Multiplicity = 1

                         Standard orientation:
 ---------------------------------------------------------------------
 Center     Atomic      Atomic             Coordinates (Angstroms)
 Number     Number       Type             X           Y           Z
 ---------------------------------------------------------------------
      1          9           0       -1.733707    0.591362    0.000681
      2          7           0        0.867453    0.129966   -0.000128
      3         16           0       -0.743955   -0.708688   -0.000420
      4          8           0        1.763550   -0.689204    0.000622
      5          8           0        0.915758    1.327577   -0.000436
 ---------------------------------------------------------------------

 SCF Done:  E(RHF) =  -702.413249232     A.U. after    2 cycles

 The electronic state is 1-A.
 Alpha  occ. eigenvalues --  -75.84895 -29.33532 -21.14847 -21.13780 -16.05027
 Alpha  occ. eigenvalues --  -13.30604 -13.25272 -13.14805  -8.18700  -2.04243
 Alpha  occ. eigenvalues --   -1.74855  -1.30451  -0.97522  -0.76583  -0.71650
 Alpha  occ. eigenvalues --   -0.68124  -0.63229  -0.47161  -0.43869  -0.37310
 Alpha  occ. eigenvalues --   -0.35798  -0.35154  -0.32540  -0.23008
 Alpha virt. eigenvalues --    0.05676   0.08214   0.08593   0.10946   0.14532
 Alpha virt. eigenvalues --    0.14660   0.15541   0.17476   0.19568   0.21772
 Alpha virt. eigenvalues --    0.22768   0.24420   0.24987   0.26952   0.27488

 Mulliken charges:
               1
     1  F   -0.111610
     2  N    4.018529
     3  S    1.114538
     4  O   -2.503908
     5  O   -2.517549
 Sum of Mulliken charges =  -0.00000

 Dipole moment (field-independent basis, Debye):
    X=             -4.2366    Y=              0.8732    Z=              0.0014  Tot=              4.3257

 Test job not archived.
 1\1\GINC-SE016\SP\RHF\Aug-CC-pVDZ\F1N1O2S1\OHZDE\09-Apr-2025\0\\#t hf
 aug-cc-pvdz iop(5/13=1,5/36=2,99/5=2) pseudo=read geom=check guess=(re
 ad,tcheck) scf=(maxcycle=1)\\title\\0,1\F,0,1.733707,0.591363,-0.00068
 1\N,0,-0.867453,0.129966,0.000128\S,0,0.743955,-0.708688,0.00042\O,0,-
 1.76355,-0.689205,-0.000622\O,0,-0.915759,1.327577,0.000436\\Version=E
 S64L-G16RevC.01\State=1-A\HF=-702.4132492\RMSD=8.558e-02\Dipole=1.6668
 061,0.3435593,-0.0005688\Quadrupole=1.6809396,-0.3895256,-1.291414,0.5
 014613,-0.0020035,-0.0021706\PG=C01 [X(F1N1O2S1)]\\@

 Normal termination of Gaussian 16 at Wed Apr  9 00:21:08 2025.
