 Gaussian 16, Revision C.01,

 ----------------------------------------------------------------------
 #t hf aug-cc-pvdz symm=none int=(grid=ultrafine) guess=(read,tcheck) s
 table=(opt,rrhf)
 ----------------------------------------------------------------------
 -----
 title
 -----
 Symbolic Z-matrix:
 Charge =  0 Multiplicity = 1

 SCF Done:  E(RHF) =  -823.859046540     A.U. after   11 cycles
 Normal termination of Gaussian 16 at Tue Apr  8 22:45:58 2025.
 Gaussian 16:  ES64L-G16RevC.01  3-Jul-2019

 ----------------------------------------------------------------------
 #t hf aug-cc-pvdz iop(5/13=1,5/36=2,99/5=2) pseudo=read geom=check gue
 ss=(read,tcheck) scf=(maxcycle=1)
 ----------------------------------------------------------------------
 -----
 title
 -----
 Structure from the checkpoint file:  "BDE49_expt_1526_mol1.chk"
 Charge =  0 Multiplicity = 1

                         Standard orientation:
 ---------------------------------------------------------------------
 Center     Atomic      Atomic             Coordinates (Angstroms)
 Number     Number       Type             X           Y           Z
 ---------------------------------------------------------------------
      1          6           0       -1.204347    0.695324    0.000000
      2          6           0        0.000000    1.390630    0.000000
      3          6           0        1.204347    0.695324    0.000000
      4          6           0       -1.204347   -0.695325    0.000000
      5          6           0        0.000000   -1.390630    0.000000
      6          6           0        1.204347   -0.695324    0.000000
      7          9           0       -2.359353    1.362211    0.000000
      8          9           0        0.000000    2.724327    0.000000
      9          9           0        2.359352    1.362212    0.000000
     10          9           0        2.359352   -1.362212    0.000000
     11          9           0       -2.359353   -1.362211    0.000000
     12          9           0        0.000000   -2.724327    0.000000
 ---------------------------------------------------------------------

 SCF Done:  E(RHF) =  -826.885076715     A.U. after    2 cycles

 The electronic state is 1-A'.
 Alpha  occ. eigenvalues --  -29.33827 -29.33728 -29.33728 -29.33682 -29.33682
 Alpha  occ. eigenvalues --  -29.33674 -11.62855 -11.55578 -11.55578 -11.53139
 Alpha  occ. eigenvalues --  -11.53138 -11.48287  -1.50282  -1.30503  -1.30503
 Alpha  occ. eigenvalues --   -1.11176  -1.11176  -0.93383  -0.93358  -0.79282
 Alpha  occ. eigenvalues --   -0.78261  -0.78260  -0.69709  -0.66980  -0.66979
 Alpha  occ. eigenvalues --   -0.57714  -0.57714  -0.45376  -0.45291  -0.45291
 Alpha  occ. eigenvalues --   -0.43983  -0.43010  -0.43010  -0.41197  -0.41197
 Alpha  occ. eigenvalues --   -0.38388  -0.32998  -0.32997  -0.32112  -0.32111
 Alpha  occ. eigenvalues --   -0.31286  -0.29123  -0.28898  -0.20337  -0.20337
 Alpha virt. eigenvalues --    0.07750   0.10161   0.10161   0.11371   0.11371
 Alpha virt. eigenvalues --    0.11410   0.11887   0.11887   0.12094   0.13565
 Alpha virt. eigenvalues --    0.13715   0.13715   0.14140   0.14870   0.14870

 Mulliken charges:
               1
     1  C   -1.153043
     2  C   -1.153296
     3  C   -1.153028
     4  C   -1.153099
     5  C   -1.153226
     6  C   -1.153087
     7  F    1.153174
     8  F    1.153035
     9  F    1.153177
    10  F    1.153179
    11  F    1.153181
    12  F    1.153031
 Sum of Mulliken charges =  -0.00000

 Dipole moment (field-independent basis, Debye):
    X=             -0.0000    Y=              0.0000    Z=              0.0000  Tot=              0.0000

 Test job not archived.
 1\1\GINC-SE250\SP\RHF\Aug-CC-pVDZ\C6F6\OHZDE\08-Apr-2025\0\\#t hf aug-
 cc-pvdz iop(5/13=1,5/36=2,99/5=2) pseudo=read geom=check guess=(read,t
 check) scf=(maxcycle=1)\\title\\0,1\C,0,-1.204347,-0.695324,0.\C,0,0.,
 -1.39063,0.\C,0,1.204347,-0.695324,0.\C,0,-1.204347,0.695325,0.\C,0,0.
 ,1.39063,0.\C,0,1.204347,0.695324,0.\F,0,-2.359353,-1.362211,0.\F,0,0.
 ,-2.724327,0.\F,0,2.359352,-1.362212,0.\F,0,2.359352,1.362212,0.\F,0,-
 2.359353,1.362211,0.\F,0,0.,2.724327,0.\\Version=ES64L-G16RevC.01\Stat
 e=1-A'\HF=-826.8850767\RMSD=1.095e+00\Dipole=-0.0000014,-0.0000004,0.\

 Normal termination of Gaussian 16 at Tue Apr  8 22:46:09 2025.
