 Gaussian 16, Revision C.01,

 ----------------------------------------------------------------------
 #t hf aug-cc-pvdz symm=none int=(grid=ultrafine) guess=(read,tcheck) s
 table=(opt,rrhf)
 ----------------------------------------------------------------------
 -----
 title
 -----
 Symbolic Z-matrix:
 Charge =  0 Multiplicity = 1

 SCF Done:  E(RHF) =  -1071.54743857     A.U. after   16 cycles
 Normal termination of Gaussian 16 at Tue Apr  8 23:48:16 2025.
 Gaussian 16:  ES64L-G16RevC.01  3-Jul-2019

 ----------------------------------------------------------------------
 #t hf aug-cc-pvdz iop(5/13=1,5/36=2,99/5=2) pseudo=read geom=check gue
 ss=(read,tcheck) scf=(maxcycle=1)
 ----------------------------------------------------------------------
 -----
 title
 -----
 Structure from the checkpoint file:  "BDE49_nonexpt_1777_mol1.chk"
 Charge =  0 Multiplicity = 1

                         Standard orientation:
 ---------------------------------------------------------------------
 Center     Atomic      Atomic             Coordinates (Angstroms)
 Number     Number       Type             X           Y           Z
 ---------------------------------------------------------------------
      1          6           0        0.264416    1.205823   -0.331027
      2          6           0        1.630335    1.213673   -0.080177
      3          6           0        2.320236   -0.000012    0.046647
      4          6           0        1.630297   -1.213644   -0.080487
      5          6           0        0.264379   -1.205688   -0.331335
      6          6           0       -0.443344    0.000095   -0.459320
      7          1           0       -0.253788    2.153803   -0.429235
      8          1           0        2.168448    2.148388    0.016746
      9         14           0       -2.281862    0.000169   -0.791066
     10          1           0       -0.253854   -2.153627   -0.429785
     11         17           0       -3.351268   -0.000204    0.999668
     12          1           0        2.168381   -2.148400    0.016198
     13          6           0        3.728467   -0.000067    0.301932
     14          7           0        4.865181   -0.000113    0.507209
     15          1           0       -2.668282   -1.221544   -1.520862
     16          1           0       -2.668265    1.222191   -1.520353
 ---------------------------------------------------------------------

 SCF Done:  E(RHF) =  -1073.44106158     A.U. after    2 cycles

 The electronic state is 1-A.
 Alpha  occ. eigenvalues --  -99.89084 -76.27610 -15.77123 -11.55937 -11.48548
 Alpha  occ. eigenvalues --  -11.47232 -11.45215 -11.44597 -11.44330 -11.40144
 Alpha  occ. eigenvalues --  -10.46466  -9.66386  -9.65780  -9.65736  -5.61194
 Alpha  occ. eigenvalues --   -2.25651  -2.24202  -2.23293  -1.39982  -1.30046
 Alpha  occ. eigenvalues --   -1.29168  -1.14566  -1.13198  -0.93308  -0.90558
 Alpha  occ. eigenvalues --   -0.80133  -0.78092  -0.67431  -0.62885  -0.62071
 Alpha  occ. eigenvalues --   -0.61602  -0.57313  -0.56085  -0.55392  -0.54302
 Alpha  occ. eigenvalues --   -0.51667  -0.49992  -0.48173  -0.47554  -0.43919
 Alpha  occ. eigenvalues --   -0.42837  -0.36569  -0.35640
 Alpha virt. eigenvalues --    0.02415   0.04324   0.04666   0.04861   0.06331
 Alpha virt. eigenvalues --    0.06485   0.06631   0.07213   0.07782   0.08666
 Alpha virt. eigenvalues --    0.09537   0.09613   0.11120   0.11295   0.11593

 Mulliken charges:
               1
     1  C   -1.997941
     2  C   -2.204187
     3  C    5.435296
     4  C   -2.204124
     5  C   -1.997559
     6  C   -1.535562
     7  H    1.907104
     8  H    1.776804
     9  Si   4.696504
    10  H    1.907101
    11  Cl  -0.965011
    12  H    1.776791
    13  C   -1.053957
    14  N   -2.168235
    15  H   -1.686497
    16  H   -1.686527
 Sum of Mulliken charges =   0.00000

 Dipole moment (field-independent basis, Debye):
    X=             -1.8040    Y=              0.0004    Z=             -1.6882  Tot=              2.4707

 Test job not archived.
 1\1\GINC-SE396\SP\RHF\Aug-CC-pVDZ\C7H6Cl1N1Si1\OHZDE\08-Apr-2025\0\\#t
  hf aug-cc-pvdz iop(5/13=1,5/36=2,99/5=2) pseudo=read geom=check guess
 =(read,tcheck) scf=(maxcycle=1)\\title\\0,1\C,0,0.264416,1.205823,-0.3
 31027\C,0,1.630335,1.213673,-0.080177\C,0,2.320236,-0.000012,0.046647\
 C,0,1.630297,-1.213644,-0.080487\C,0,0.264379,-1.205688,-0.331335\C,0,
 -0.443344,0.000095,-0.45932\H,0,-0.253788,2.153803,-0.429235\H,0,2.168
 448,2.148388,0.016746\Si,0,-2.281862,0.000169,-0.791066\H,0,-0.253854,
 -2.153627,-0.429785\Cl,0,-3.351268,-0.000204,0.999668\H,0,2.168381,-2.

 Normal termination of Gaussian 16 at Tue Apr  8 23:48:23 2025.
