 Gaussian 16, Revision C.01,

 ----------------------------------------------------------------------
 #t hf aug-cc-pvdz symm=none int=(grid=ultrafine) guess=(read,tcheck) s
 table=(opt,rrhf)
 ----------------------------------------------------------------------
 -----
 title
 -----
 Symbolic Z-matrix:
 Charge =  0 Multiplicity = 1

 SCF Done:  E(RHF) =  -627.080344325     A.U. after   15 cycles
 Normal termination of Gaussian 16 at Tue Apr  8 23:35:45 2025.
 Gaussian 16:  ES64L-G16RevC.01  3-Jul-2019

 ----------------------------------------------------------------------
 #t hf aug-cc-pvdz iop(5/13=1,5/36=2,99/5=2) pseudo=read geom=check gue
 ss=(read,tcheck) scf=(maxcycle=1)
 ----------------------------------------------------------------------
 -----
 title
 -----
 Structure from the checkpoint file:  "BDE49_nonexpt_1480_mol1.chk"
 Charge =  0 Multiplicity = 1

                         Standard orientation:
 ---------------------------------------------------------------------
 Center     Atomic      Atomic             Coordinates (Angstroms)
 Number     Number       Type             X           Y           Z
 ---------------------------------------------------------------------
      1          6           0       -2.730952   -0.394462    0.000004
      2          6           0       -2.345912    0.944492    0.000006
      3          6           0       -1.000944    1.294959    0.000002
      4          6           0       -1.742399   -1.375966   -0.000003
      5          6           0       -0.392752   -1.038274   -0.000007
      6          6           0       -0.001672    0.308758   -0.000005
      7          1           0       -3.779402   -0.667064    0.000007
      8          1           0       -3.096573    1.727286    0.000011
      9          1           0       -0.715663    2.342866    0.000004
     10          1           0       -2.020287   -2.424381   -0.000004
     11          1           0        0.357626   -1.818950   -0.000012
     12          7           0        1.343392    0.709420   -0.000010
     13         15           0        2.714039   -0.323373    0.000004
     14          1           0        1.473829    1.709940   -0.000009
     15          1           0        3.476951    0.288959    1.032105
     16          1           0        3.476969    0.288961   -1.032082
 ---------------------------------------------------------------------

 SCF Done:  E(RHF) =  -628.646458373     A.U. after    2 cycles

 The electronic state is 1-A.
 Alpha  occ. eigenvalues -- -105.20760 -15.74971 -11.51635 -11.44737 -11.42516
 Alpha  occ. eigenvalues --  -11.39730 -11.39651 -11.35591  -2.77707  -1.58311
 Alpha  occ. eigenvalues --   -1.46605  -1.45054  -1.36309  -1.22848  -1.08813
 Alpha  occ. eigenvalues --   -1.03884  -0.86849  -0.84449  -0.73973  -0.70859
 Alpha  occ. eigenvalues --   -0.66678  -0.59169  -0.57486  -0.55381  -0.53367
 Alpha  occ. eigenvalues --   -0.46925  -0.44356  -0.43470  -0.32817  -0.31017
 Alpha  occ. eigenvalues --   -0.27527  -0.26237  -0.03092
 Alpha virt. eigenvalues --    0.03660   0.05145   0.05379   0.06025   0.06388
 Alpha virt. eigenvalues --    0.07787   0.07850   0.08437   0.09859   0.10369
 Alpha virt. eigenvalues --    0.11988   0.12461   0.13164   0.13416   0.14161

 Mulliken charges:
               1
     1  C   -2.710809
     2  C   -0.218020
     3  C   -3.106701
     4  C   -0.230505
     5  C   -1.933409
     6  C    2.709512
     7  H    1.545791
     8  H    1.464228
     9  H    1.684110
    10  H    1.506643
    11  H    1.782763
    12  N   -3.354896
    13  P    1.697210
    14  H    0.676724
    15  H   -0.756316
    16  H   -0.756326
 Sum of Mulliken charges =  -0.00000

 Dipole moment (field-independent basis, Debye):
    X=             -1.2852    Y=             -1.3523    Z=             -0.0000  Tot=              1.8656

 Test job not archived.
 1\1\GINC-SE365\SP\RHF\Aug-CC-pVDZ\C6H8N1P1\OHZDE\08-Apr-2025\0\\#t hf
 aug-cc-pvdz iop(5/13=1,5/36=2,99/5=2) pseudo=read geom=check guess=(re
 ad,tcheck) scf=(maxcycle=1)\\title\\0,1\C,0,-2.730952,-0.394462,0.0000
 04\C,0,-2.345912,0.944492,0.000006\C,0,-1.000944,1.294959,0.000002\C,0
 ,-1.742399,-1.375966,-0.000003\C,0,-0.392752,-1.038274,-0.000007\C,0,-
 0.001672,0.308758,-0.000005\H,0,-3.779402,-0.667064,0.000007\H,0,-3.09
 6573,1.727286,0.000011\H,0,-0.715663,2.342866,0.000004\H,0,-2.020287,-
 2.424381,-0.000004\H,0,0.357626,-1.81895,-0.000012\N,0,1.343392,0.7094

 Normal termination of Gaussian 16 at Tue Apr  8 23:35:50 2025.
