 Gaussian 16, Revision C.01,

 ----------------------------------------------------------------------
 #t hf aug-cc-pvdz symm=none int=(grid=ultrafine) guess=(read,tcheck) s
 table=opt
 ----------------------------------------------------------------------
 -----
 title
 -----
 Symbolic Z-matrix:
 Charge =  0 Multiplicity = 2

 SCF Done:  E(UHF) =  -613.993358388     A.U. after   22 cycles
 Normal termination of Gaussian 16 at Wed Apr  9 00:33:00 2025.
 Gaussian 16:  ES64L-G16RevC.01  3-Jul-2019

 ----------------------------------------------------------------------
 #t hf aug-cc-pvdz iop(5/13=1,5/36=2,99/5=2) pseudo=read geom=check gue
 ss=(read,tcheck) scf=(maxcycle=1)
 ----------------------------------------------------------------------
 -----
 title
 -----
 Structure from the checkpoint file:  "BDE49_nonexpt_388_mol2.chk"
 Charge =  0 Multiplicity = 2

                         Standard orientation:
 ---------------------------------------------------------------------
 Center     Atomic      Atomic             Coordinates (Angstroms)
 Number     Number       Type             X           Y           Z
 ---------------------------------------------------------------------
      1          9           0       -1.672561   -1.084592   -0.000000
      2          5           0       -1.506209    0.204872    0.000002
      3          6           0        1.212223   -0.204890   -0.000001
      4          7           0        1.992255   -1.059549    0.000002
      5         16           0        0.085310    1.086447   -0.000001
 ---------------------------------------------------------------------

 SCF Done:  E(UHF) =  -615.020965758     A.U. after    2 cycles

 The electronic state is 2-A.
 Alpha  occ. eigenvalues --  -75.76956 -29.30454 -15.78870 -13.24018 -13.18007
 Alpha  occ. eigenvalues --  -13.09901 -11.45959  -8.11182  -7.75276  -1.35122
 Alpha  occ. eigenvalues --   -1.23436  -0.97988  -0.72522  -0.56644  -0.55684
 Alpha  occ. eigenvalues --   -0.52613  -0.49279  -0.48178  -0.46164  -0.40696
 Alpha  occ. eigenvalues --   -0.30879  -0.26288
 Alpha virt. eigenvalues --    0.02842   0.03366   0.03378   0.07030   0.09891
 Alpha virt. eigenvalues --    0.10564   0.11242   0.12035   0.13618   0.14360
 Alpha virt. eigenvalues --    0.15087   0.16008   0.16247   0.19753   0.20197

  Beta  occ. eigenvalues --  -75.76864 -29.30190 -15.78767 -13.23942 -13.17651
  Beta  occ. eigenvalues --  -13.09921 -11.45906  -8.11029  -7.73157  -1.34616
  Beta  occ. eigenvalues --   -1.22080  -0.94837  -0.71084  -0.55925  -0.52384
  Beta  occ. eigenvalues --   -0.52212  -0.47585  -0.45911  -0.44264  -0.36823
  Beta  occ. eigenvalues --   -0.30857
  Beta virt. eigenvalues --    0.00379   0.03263   0.03487   0.06124   0.08279
  Beta virt. eigenvalues --    0.10727   0.11544   0.11755   0.12119   0.13761
  Beta virt. eigenvalues --    0.14477   0.15462   0.16211   0.18393   0.20374

 Mulliken charges and spin densities:
               1          2
     1  F    0.412893  -0.104515
     2  B    0.745373   0.990600
     3  C    0.548956   0.133634
     4  N   -1.931464   0.006765
     5  S    0.224242  -0.026484
 Sum of Mulliken charges =  -0.00000   1.00000

 Dipole moment (field-independent basis, Debye):
    X=             -2.7603    Y=             -0.4884    Z=             -0.0000  Tot=              2.8032
                          Isotropic Fermi Contact Couplings
        Atom                 a.u.       MegaHertz       Gauss      10(-4) cm-1
     1  F(19)              0.03929     165.29956      58.98299      55.13800
     2  B(11)              0.21429     307.36590     109.67580     102.52623
     3  C(13)              0.02572      28.91556      10.31779       9.64519
     4  N(14)              0.01332       4.30462       1.53599       1.43587
     5  S(33)              0.63235     217.19470      77.50047      72.44835
 --------------------------------------------------------
       Center         ----  Spin Dipole Couplings  ----
                      3XX-RR        3YY-RR        3ZZ-RR

 Normal termination of Gaussian 16 at Wed Apr  9 00:33:03 2025.
