 Gaussian 16, Revision C.01,

 ----------------------------------------------------------------------
 #t hf aug-cc-pvdz symm=none int=(grid=ultrafine) guess=(read,tcheck) s
 table=(opt,rrhf)
 ----------------------------------------------------------------------
 -----
 title
 -----
 Symbolic Z-matrix:
 Charge =  0 Multiplicity = 1

 SCF Done:  E(RHF) =  -932.371421127     A.U. after   16 cycles
 Normal termination of Gaussian 16 at Tue Apr  8 23:16:48 2025.
 Gaussian 16:  ES64L-G16RevC.01  3-Jul-2019

 ----------------------------------------------------------------------
 #t hf aug-cc-pvdz iop(5/13=1,5/36=2,99/5=2) pseudo=read geom=check gue
 ss=(read,tcheck) scf=(maxcycle=1)
 ----------------------------------------------------------------------
 -----
 title
 -----
 Structure from the checkpoint file:  "BDE49_nonexpt_1016_mol1.chk"
 Charge =  0 Multiplicity = 1

                         Standard orientation:
 ---------------------------------------------------------------------
 Center     Atomic      Atomic             Coordinates (Angstroms)
 Number     Number       Type             X           Y           Z
 ---------------------------------------------------------------------
      1         17           0       -1.517383   -0.158309   -0.008634
      2         16           0        1.449756   -0.169647   -0.095977
      3          8           0        0.121951    0.742930    0.060618
      4          1           0        1.623802   -0.537832    1.197463
 ---------------------------------------------------------------------

 SCF Done:  E(RHF) =  -933.152799952     A.U. after    2 cycles

 The electronic state is 1-A.
 Alpha  occ. eigenvalues --  -99.94714 -75.76190 -21.16089 -13.23925 -13.14715
 Alpha  occ. eigenvalues --  -13.08285 -10.51203  -9.70888  -9.70334  -9.70274
 Alpha  occ. eigenvalues --   -8.09974  -1.78305  -1.27322  -1.05324  -0.62622
 Alpha  occ. eigenvalues --   -0.59798  -0.58301  -0.52521  -0.45229  -0.38006
 Alpha  occ. eigenvalues --   -0.29176
 Alpha virt. eigenvalues --    0.01446   0.03012   0.06870   0.09570   0.10973
 Alpha virt. eigenvalues --    0.13536   0.14651   0.14955   0.16501   0.18720
 Alpha virt. eigenvalues --    0.21847   0.23325   0.23658   0.26108   0.28113

 Mulliken charges:
               1
     1  Cl   0.179010
     2  S    0.465162
     3  O   -1.591213
     4  H    0.947042
 Sum of Mulliken charges =   0.00000

 Dipole moment (field-independent basis, Debye):
    X=              4.6490    Y=              0.0911    Z=             -0.7963  Tot=              4.7176

 Test job not archived.
 1\1\GINC-SE435\SP\RHF\Aug-CC-pVDZ\Cl1H1O1S1\OHZDE\08-Apr-2025\0\\#t hf
  aug-cc-pvdz iop(5/13=1,5/36=2,99/5=2) pseudo=read geom=check guess=(r
 ead,tcheck) scf=(maxcycle=1)\\title\\0,1\Cl,0,-1.517383,-0.158309,-0.0
 08634\S,0,1.449756,-0.169647,-0.095977\O,0,0.121951,0.74293,0.060618\H
 ,0,1.623802,-0.537832,1.197463\\Version=ES64L-G16RevC.01\State=1-A\HF=
 -933.1528\RMSD=6.379e-02\Dipole=1.8290441,0.0358464,-0.313307\Quadrupo
 le=1.6703389,-1.2937544,-0.3765844,-0.7924831,-0.7931216,-0.39552\PG=C
 01 [X(Cl1H1O1S1)]\\@

 Normal termination of Gaussian 16 at Tue Apr  8 23:16:49 2025.
