 Gaussian 16, Revision C.01,

 ----------------------------------------------------------------------
 #t hf aug-cc-pvdz symm=none int=(grid=ultrafine) guess=(read,tcheck) s
 table=(opt,rrhf)
 ----------------------------------------------------------------------
 -----
 title
 -----
 Symbolic Z-matrix:
 Charge =  0 Multiplicity = 1

 SCF Done:  E(RHF) =  -1375.27959462     A.U. after   13 cycles
 Normal termination of Gaussian 16 at Wed Apr  9 00:51:29 2025.
 Gaussian 16:  ES64L-G16RevC.01  3-Jul-2019

 ----------------------------------------------------------------------
 #t hf aug-cc-pvdz iop(5/13=1,5/36=2,99/5=2) pseudo=read geom=check gue
 ss=(read,tcheck) scf=(maxcycle=1)
 ----------------------------------------------------------------------
 -----
 title
 -----
 Structure from the checkpoint file:  "BDE49_nonexpt_888_mol1.chk"
 Charge =  0 Multiplicity = 1

                         Standard orientation:
 ---------------------------------------------------------------------
 Center     Atomic      Atomic             Coordinates (Angstroms)
 Number     Number       Type             X           Y           Z
 ---------------------------------------------------------------------
      1         16           0        0.186483   -1.154966   -0.585788
      2          5           0        1.441644    0.033483   -0.065671
      3         16           0        1.093694    1.820281    0.053977
      4          6           0       -1.348348   -0.173711   -0.896404
      5          6           0       -2.232374    0.071104    0.337059
      6          6           0       -3.368380    1.035069   -0.039464
      7          1           0       -2.980616    1.988065   -0.410086
      8          1           0       -3.999421    1.245290    0.828204
      9          1           0       -4.007882    0.605205   -0.817886
     10          6           0       -2.785798   -1.233894    0.920983
     11          1           0       -1.615300    0.556752    1.101086
     12          1           0       -3.424514   -1.746421    0.193005
     13          1           0       -3.389661   -1.033679    1.809961
     14          1           0       -1.983831   -1.917550    1.207826
     15          1           0       -1.893809   -0.754732   -1.645254
     16          1           0       -1.055346    0.766438   -1.366442
     17         16           0        3.114651   -0.566039    0.343569
     18          1           0        2.329748    2.216186    0.404843
     19          1           0        2.904570   -1.872787    0.101907
 ---------------------------------------------------------------------

 SCF Done:  E(RHF) =  -1376.89675266     A.U. after    2 cycles

 The electronic state is 1-A.
 Alpha  occ. eigenvalues --  -75.69916 -75.69564 -75.68248 -13.17667 -13.16788
 Alpha  occ. eigenvalues --  -13.15548 -13.11896 -13.11113 -13.08051 -13.05268
 Alpha  occ. eigenvalues --  -13.04733 -13.03896 -11.43775 -11.41092 -11.38711
 Alpha  occ. eigenvalues --  -11.35560  -8.03945  -8.03462  -8.02289  -7.67730
 Alpha  occ. eigenvalues --   -1.30170  -1.22064  -1.11764  -1.09970  -1.00367
 Alpha  occ. eigenvalues --   -0.95957  -0.81540  -0.66908  -0.65359  -0.60686
 Alpha  occ. eigenvalues --   -0.59009  -0.55989  -0.54030  -0.53616  -0.50693
 Alpha  occ. eigenvalues --   -0.47304  -0.46018  -0.45094  -0.39446  -0.37306
 Alpha  occ. eigenvalues --   -0.34072  -0.32063  -0.25475  -0.24096
 Alpha virt. eigenvalues --    0.02265   0.02372   0.02769   0.03248   0.05894
 Alpha virt. eigenvalues --    0.06087   0.06447   0.06600   0.06831   0.08458
 Alpha virt. eigenvalues --    0.08873   0.09331   0.09955   0.10358   0.11143

 Mulliken charges:
               1
     1  S   -0.818356
     2  B    4.717258
     3  S   -2.535808
     4  C   -3.944207
     5  C   -1.296494
     6  C   -4.159957
     7  H    1.334724
     8  H    1.256459
     9  H    1.290551
    10  C   -3.920400
    11  H    1.914608
    12  H    1.304762
    13  H    1.255366
    14  H    1.442525
    15  H    1.493269
    16  H    1.563002
    17  S   -2.851238
    18  H    0.909813
    19  H    1.044120
 Sum of Mulliken charges =   0.00000

 Dipole moment (field-independent basis, Debye):
    X=             -1.3014    Y=              0.6118    Z=             -0.0711  Tot=              1.4397

 Test job not archived.
 1\1\GINC-SE212\SP\RHF\Aug-CC-pVDZ\C4H11B1S3\OHZDE\09-Apr-2025\0\\#t hf
  aug-cc-pvdz iop(5/13=1,5/36=2,99/5=2) pseudo=read geom=check guess=(r
 ead,tcheck) scf=(maxcycle=1)\\title\\0,1\S,0,0.186483,-1.154966,-0.585
 788\B,0,1.441644,0.033483,-0.065671\S,0,1.093694,1.820281,0.053977\C,0
 ,-1.348348,-0.173711,-0.896404\C,0,-2.232374,0.071104,0.337059\C,0,-3.
 36838,1.035069,-0.039464\H,0,-2.980616,1.988065,-0.410086\H,0,-3.99942
 1,1.24529,0.828204\H,0,-4.007882,0.605205,-0.817886\C,0,-2.785798,-1.2
 33894,0.920983\H,0,-1.6153,0.556752,1.101086\H,0,-3.424514,-1.746421,0

 Normal termination of Gaussian 16 at Wed Apr  9 00:51:39 2025.
