 Gaussian 16, Revision C.01,

 ----------------------------------------------------------------------
 #t hf aug-cc-pvdz symm=none int=(grid=ultrafine) guess=(read,tcheck) s
 table=(opt,rrhf)
 ----------------------------------------------------------------------
 -----
 title
 -----
 Symbolic Z-matrix:
 Charge =  0 Multiplicity = 1

 SCF Done:  E(RHF) =  -1448.98856476     A.U. after   14 cycles
 Normal termination of Gaussian 16 at Wed Apr  9 00:51:59 2025.
 Gaussian 16:  ES64L-G16RevC.01  3-Jul-2019

 ----------------------------------------------------------------------
 #t hf aug-cc-pvdz iop(5/13=1,5/36=2,99/5=2) pseudo=read geom=check gue
 ss=(read,tcheck) scf=(maxcycle=1)
 ----------------------------------------------------------------------
 -----
 title
 -----
 Structure from the checkpoint file:  "BDE49_nonexpt_905_mol1.chk"
 Charge =  0 Multiplicity = 1

                         Standard orientation:
 ---------------------------------------------------------------------
 Center     Atomic      Atomic             Coordinates (Angstroms)
 Number     Number       Type             X           Y           Z
 ---------------------------------------------------------------------
      1          6           0       -2.614334   -0.540838   -0.000165
      2          6           0       -1.272231    0.185976   -0.000174
      3         16           0        0.136012   -0.975388   -0.000320
      4          8           0       -1.180751    1.386328   -0.000031
      5          5           0        1.721881   -0.037951   -0.000045
      6         16           0        1.970548    1.746282    0.000284
      7          6           0       -3.389607   -0.164878   -1.274841
      8          1           0       -3.558366    0.913196   -1.313201
      9          1           0       -4.358717   -0.669400   -1.282283
     10          1           0       -2.846520   -0.459754   -2.176077
     11          6           0       -3.388797   -0.166128    1.275377
     12          1           0       -2.423546   -1.617655   -0.000743
     13          1           0       -3.557518    0.911912    1.314909
     14          1           0       -2.845160   -0.461909    2.175985
     15          1           0       -4.357919   -0.670628    1.282931
     16         16           0        3.235428   -1.054490   -0.000095
     17          1           0        2.642268   -2.261602   -0.000330
     18          1           0        0.660082    2.067712    0.000202
 ---------------------------------------------------------------------

 SCF Done:  E(RHF) =  -1450.85902411     A.U. after    2 cycles

 The electronic state is 1-A.
 Alpha  occ. eigenvalues --  -75.70839 -75.69983 -75.68850 -21.08467 -13.18352
 Alpha  occ. eigenvalues --  -13.17269 -13.15123 -13.12858 -13.10496 -13.09131
 Alpha  occ. eigenvalues --  -13.05146 -13.04625 -13.03028 -11.53271 -11.44523
 Alpha  occ. eigenvalues --  -11.40387 -11.38439  -8.05088  -8.03932  -8.02782
 Alpha  occ. eigenvalues --   -7.68730  -1.74947  -1.27526  -1.23464  -1.12731
 Alpha  occ. eigenvalues --   -1.09898  -1.02245  -0.93006  -0.75844  -0.70559
 Alpha  occ. eigenvalues --   -0.64208  -0.62119  -0.59459  -0.55809  -0.55648
 Alpha  occ. eigenvalues --   -0.53908  -0.51113  -0.49011  -0.48591  -0.45039
 Alpha  occ. eigenvalues --   -0.44715  -0.38523  -0.37680  -0.32337  -0.26800
 Alpha  occ. eigenvalues --   -0.26230  -0.24784
 Alpha virt. eigenvalues --    0.02346   0.02589   0.02903   0.03359   0.05280
 Alpha virt. eigenvalues --    0.05513   0.06006   0.06406   0.07058   0.07640
 Alpha virt. eigenvalues --    0.09003   0.09241   0.09786   0.10341   0.11368

 Mulliken charges:
               1
     1  C   -1.755101
     2  C    2.514677
     3  S   -0.877862
     4  O   -3.145028
     5  B    4.367211
     6  S   -2.533890
     7  C   -4.022309
     8  H    1.368375
     9  H    1.262412
    10  H    1.284635
    11  C   -4.022371
    12  H    2.101390
    13  H    1.368159
    14  H    1.284724
    15  H    1.262556
    16  S   -2.579711
    17  H    0.939591
    18  H    1.182541
 Sum of Mulliken charges =  -0.00000

 Dipole moment (field-independent basis, Debye):
    X=              0.7704    Y=             -0.2478    Z=              0.0003  Tot=              0.8092

 Test job not archived.
 1\1\GINC-SE116\SP\RHF\Aug-CC-pVDZ\C4H9B1O1S3\OHZDE\09-Apr-2025\0\\#t h
 f aug-cc-pvdz iop(5/13=1,5/36=2,99/5=2) pseudo=read geom=check guess=(
 read,tcheck) scf=(maxcycle=1)\\title\\0,1\C,0,-2.614334,-0.540838,-0.0
 00165\C,0,-1.272231,0.185976,-0.000174\S,0,0.136012,-0.975388,-0.00032
 \O,0,-1.180751,1.386328,-0.000031\B,0,1.721881,-0.037951,-0.000045\S,0
 ,1.970548,1.746282,0.000284\C,0,-3.389607,-0.164878,-1.274841\H,0,-3.5
 58366,0.913196,-1.313201\H,0,-4.358717,-0.6694,-1.282283\H,0,-2.84652,
 -0.459754,-2.176077\C,0,-3.388797,-0.166128,1.275377\H,0,-2.423546,-1.

 Normal termination of Gaussian 16 at Wed Apr  9 00:52:10 2025.
