 Gaussian 16, Revision C.01,

 ----------------------------------------------------------------------
 #t hf aug-cc-pvdz symm=none int=(grid=ultrafine) guess=(read,tcheck) s
 table=(opt,rrhf)
 ----------------------------------------------------------------------
 -----
 title
 -----
 Symbolic Z-matrix:
 Charge =  0 Multiplicity = 1

 SCF Done:  E(RHF) =  -315.494727667     A.U. after   14 cycles
 Normal termination of Gaussian 16 at Wed Apr  9 00:44:43 2025.
 Gaussian 16:  ES64L-G16RevC.01  3-Jul-2019

 ----------------------------------------------------------------------
 #t hf aug-cc-pvdz iop(5/13=1,5/36=2,99/5=2) pseudo=read geom=check gue
 ss=(read,tcheck) scf=(maxcycle=1)
 ----------------------------------------------------------------------
 -----
 title
 -----
 Structure from the checkpoint file:  "BDE49_nonexpt_73_mol1.chk"
 Charge =  0 Multiplicity = 1

                         Standard orientation:
 ---------------------------------------------------------------------
 Center     Atomic      Atomic             Coordinates (Angstroms)
 Number     Number       Type             X           Y           Z
 ---------------------------------------------------------------------
      1          5           0        0.407731    0.710992    1.157568
      2          5           0       -0.407632   -0.709179    1.158675
      3          6           0       -1.703609   -1.052427    0.300396
      4          7           0       -2.361803   -0.276984   -0.475978
      5          6           0        1.704266    1.052582    0.299465
      6          7           0        2.362114    0.276050   -0.476117
      7          6           0       -1.959823    1.083558   -0.702606
      8          1           0       -2.771173    1.751462   -0.397243
      9          1           0       -1.804373    1.234610   -1.775250
     10          1           0       -1.038046    1.396436   -0.170537
     11          6           0        1.959075   -1.084304   -0.701996
     12          1           0        1.804143   -1.235997   -1.774626
     13          1           0        1.036703   -1.395988   -0.170259
     14          1           0        2.769651   -1.752702   -0.395660
     15          1           0       -2.123380   -2.060390    0.378223
     16          1           0        2.124659    2.060347    0.376494
     17          1           0       -0.075522   -1.572836    1.921831
     18          1           0        0.075210    1.576081    1.918921
 ---------------------------------------------------------------------

 SCF Done:  E(RHF) =  -316.995870077     A.U. after    2 cycles

 The electronic state is 1-A.
 Alpha  occ. eigenvalues --  -15.75308 -15.75298 -11.40517 -11.40391 -11.39487
 Alpha  occ. eigenvalues --  -11.39161  -7.61895  -7.60377  -1.39339  -1.38618
 Alpha  occ. eigenvalues --   -1.05283  -1.05021  -0.97582  -0.84648  -0.74941
 Alpha  occ. eigenvalues --   -0.70227  -0.65725  -0.64863  -0.60303  -0.59963
 Alpha  occ. eigenvalues --   -0.54751  -0.53249  -0.51446  -0.50533  -0.42139
 Alpha  occ. eigenvalues --   -0.41290  -0.39404  -0.35004  -0.33625
 Alpha virt. eigenvalues --    0.02766   0.02968   0.03045   0.03324   0.06331
 Alpha virt. eigenvalues --    0.06548   0.06659   0.07053   0.07674   0.07764
 Alpha virt. eigenvalues --    0.07967   0.08441   0.08722   0.09513   0.09836

 Mulliken charges:
               1
     1  B    6.032097
     2  B    6.031781
     3  C   -1.629918
     4  N   -2.548728
     5  C   -1.632481
     6  N   -2.548281
     7  C   -3.649039
     8  H    1.304828
     9  H    1.336277
    10  H    2.015571
    11  C   -3.649945
    12  H    1.335709
    13  H    2.019182
    14  H    1.304799
    15  H    1.492717
    16  H    1.491731
    17  H   -4.353107
    18  H   -4.353194
 Sum of Mulliken charges =  -0.00000

 Dipole moment (field-independent basis, Debye):
    X=             -0.0000    Y=             -0.0002    Z=             -0.3380  Tot=              0.3380

 Test job not archived.
 1\1\GINC-SE419\SP\RHF\Aug-CC-pVDZ\C4H10B2N2\OHZDE\09-Apr-2025\0\\#t hf
  aug-cc-pvdz iop(5/13=1,5/36=2,99/5=2) pseudo=read geom=check guess=(r
 ead,tcheck) scf=(maxcycle=1)\\title\\0,1\B,0,-0.407731,-0.710992,1.157
 568\B,0,0.407632,0.709179,1.158675\C,0,1.703609,1.052427,0.300396\N,0,
 2.361803,0.276984,-0.475978\C,0,-1.704266,-1.052582,0.299465\N,0,-2.36
 2114,-0.27605,-0.476117\C,0,1.959823,-1.083558,-0.702606\H,0,2.771173,
 -1.751462,-0.397243\H,0,1.804373,-1.23461,-1.77525\H,0,1.038046,-1.396
 436,-0.170537\C,0,-1.959075,1.084304,-0.701996\H,0,-1.804143,1.235997,

 Normal termination of Gaussian 16 at Wed Apr  9 00:44:50 2025.
