 Gaussian 16, Revision C.01,

 ----------------------------------------------------------------------
 #t hf aug-cc-pvdz symm=none int=(grid=ultrafine) guess=(read,tcheck) s
 table=(opt,rrhf)
 ----------------------------------------------------------------------
 -----
 title
 -----
 Symbolic Z-matrix:
 Charge =  0 Multiplicity = 1

 SCF Done:  E(RHF) =  -603.609438124     A.U. after   15 cycles
 Normal termination of Gaussian 16 at Wed Apr  9 00:41:41 2025.
 Gaussian 16:  ES64L-G16RevC.01  3-Jul-2019

 ----------------------------------------------------------------------
 #t hf aug-cc-pvdz iop(5/13=1,5/36=2,99/5=2) pseudo=read geom=check gue
 ss=(read,tcheck) scf=(maxcycle=1)
 ----------------------------------------------------------------------
 -----
 title
 -----
 Structure from the checkpoint file:  "BDE49_nonexpt_634_mol1.chk"
 Charge =  0 Multiplicity = 1

                         Standard orientation:
 ---------------------------------------------------------------------
 Center     Atomic      Atomic             Coordinates (Angstroms)
 Number     Number       Type             X           Y           Z
 ---------------------------------------------------------------------
      1          9           0       -1.108545    2.140172    0.000002
      2          9           0        2.992571   -1.437043   -0.000001
      3          8           0       -3.002787    0.101960   -0.000007
      4          1           0       -2.795908    1.042015   -0.000010
      5          8           0       -2.046890   -2.041327    0.000014
      6          1           0       -2.976524   -2.292758    0.000022
      7          6           0       -0.414348   -0.136461   -0.000006
      8          6           0       -0.093391    1.219341    0.000000
      9          6           0        1.201670    1.709679    0.000006
     10          1           0        1.372560    2.778514    0.000010
     11          6           0        2.256703    0.802542    0.000005
     12          1           0        3.287161    1.134314    0.000009
     13          6           0        1.967846   -0.555446   -0.000001
     14          6           0        0.668314   -1.030704   -0.000006
     15          1           0        0.486205   -2.097817   -0.000011
     16          5           0       -1.890616   -0.686237   -0.000015
 ---------------------------------------------------------------------

 SCF Done:  E(RHF) =  -606.071957741     A.U. after    2 cycles

 The electronic state is 1-A.
 Alpha  occ. eigenvalues --  -29.30112 -29.28953 -21.06086 -21.06044 -11.55983
 Alpha  occ. eigenvalues --  -11.50507 -11.46826 -11.45154 -11.43128 -11.39215
 Alpha  occ. eigenvalues --   -7.67636  -1.82630  -1.66290  -1.40212  -1.20695
 Alpha  occ. eigenvalues --   -1.13849  -0.98775  -0.93011  -0.81715  -0.77709
 Alpha  occ. eigenvalues --   -0.72865  -0.66430  -0.66188  -0.63286  -0.58457
 Alpha  occ. eigenvalues --   -0.58300  -0.53380  -0.52435  -0.50217  -0.47878
 Alpha  occ. eigenvalues --   -0.44113  -0.41876  -0.40014  -0.37025  -0.36968
 Alpha  occ. eigenvalues --   -0.36004  -0.31880  -0.28836  -0.27389  -0.20487
 Alpha virt. eigenvalues --    0.03458   0.04921   0.05437   0.05734   0.05967
 Alpha virt. eigenvalues --    0.06525   0.07772   0.08577   0.09183   0.09892
 Alpha virt. eigenvalues --    0.11125   0.12699   0.13107   0.13149   0.13529

 Mulliken charges:
               1
     1  F    0.728889
     2  F    0.611645
     3  O   -4.573327
     4  H    1.548000
     5  O   -4.266296
     6  H    1.099296
     7  C   -4.589790
     8  C    5.711142
     9  C   -3.850790
    10  H    1.787811
    11  C   -3.918475
    12  H    1.714936
    13  C    2.708657
    14  C   -1.525675
    15  H    2.133603
    16  B    4.680373
 Sum of Mulliken charges =  -0.00000

 Dipole moment (field-independent basis, Debye):
    X=              0.5322    Y=              1.2862    Z=              0.0000  Tot=              1.3920

 Test job not archived.
 1\1\GINC-SE102\SP\RHF\Aug-CC-pVDZ\C6H5B1F2O2\OHZDE\09-Apr-2025\0\\#t h
 f aug-cc-pvdz iop(5/13=1,5/36=2,99/5=2) pseudo=read geom=check guess=(
 read,tcheck) scf=(maxcycle=1)\\title\\0,1\F,0,1.108545,2.140172,-0.000
 002\F,0,-2.992571,-1.437043,0.000001\O,0,3.002787,0.10196,0.000007\H,0
 ,2.795908,1.042015,0.00001\O,0,2.04689,-2.041327,-0.000014\H,0,2.97652
 4,-2.292758,-0.000022\C,0,0.414348,-0.136461,0.000006\C,0,0.093391,1.2
 19341,0.\C,0,-1.20167,1.709679,-0.000006\H,0,-1.37256,2.778514,-0.0000
 1\C,0,-2.256703,0.802542,-0.000005\H,0,-3.287161,1.134315,-0.000009\C,

 Normal termination of Gaussian 16 at Wed Apr  9 00:41:50 2025.
