 Gaussian 16, Revision C.01,

 ----------------------------------------------------------------------
 #t hf aug-cc-pvdz symm=none int=(grid=ultrafine) guess=(read,tcheck) s
 table=(opt,rrhf)
 ----------------------------------------------------------------------
 -----
 title
 -----
 Symbolic Z-matrix:
 Charge =  0 Multiplicity = 1

 SCF Done:  E(RHF) =  -1002.59202972     A.U. after   13 cycles
 Normal termination of Gaussian 16 at Tue Apr  8 23:40:36 2025.
 Gaussian 16:  ES64L-G16RevC.01  3-Jul-2019

 ----------------------------------------------------------------------
 #t hf aug-cc-pvdz iop(5/13=1,5/36=2,99/5=2) pseudo=read geom=check gue
 ss=(read,tcheck) scf=(maxcycle=1)
 ----------------------------------------------------------------------
 -----
 title
 -----
 Structure from the checkpoint file:  "BDE49_nonexpt_1621_mol1.chk"
 Charge =  0 Multiplicity = 1

                         Standard orientation:
 ---------------------------------------------------------------------
 Center     Atomic      Atomic             Coordinates (Angstroms)
 Number     Number       Type             X           Y           Z
 ---------------------------------------------------------------------
      1          7           0        1.900085   -1.296879    0.229928
      2         15           0        1.197355   -0.042208   -0.693754
      3          1           0        1.921580   -2.193321   -0.237405
      4          1           0        1.611180   -1.395229    1.196970
      5          6           0        1.718756    1.434119    0.289434
      6         15           0       -0.925616   -0.120589   -0.044110
      7          1           0        2.786880    1.588216    0.122739
      8          1           0        1.528955    1.314915    1.357565
      9          1           0        1.174082    2.308882   -0.071808
     10          8           0       -1.718301   -1.262601   -0.535360
     11          8           0       -1.557816    1.315884   -0.464471
     12          1           0       -2.185519    1.206222   -1.189863
     13          8           0       -0.834495   -0.003249    1.567803
     14          1           0       -1.641468   -0.314577    1.999895
 ---------------------------------------------------------------------

 SCF Done:  E(RHF) =  -1004.38591079     A.U. after    2 cycles

 The electronic state is 1-A.
 Alpha  occ. eigenvalues -- -105.29490-105.20104 -21.11413 -21.11125 -21.01821
 Alpha  occ. eigenvalues --  -15.75673 -11.38122  -2.91463  -2.78922  -1.95497
 Alpha  occ. eigenvalues --   -1.88432  -1.79204  -1.57754  -1.55144  -1.49780
 Alpha  occ. eigenvalues --   -1.39706  -1.37307  -1.24978  -1.18675  -1.00545
 Alpha  occ. eigenvalues --   -0.71689  -0.66548  -0.63986  -0.60530  -0.57609
 Alpha  occ. eigenvalues --   -0.56923  -0.52114  -0.45057  -0.42869  -0.40110
 Alpha  occ. eigenvalues --   -0.33736  -0.33352  -0.29532  -0.25818  -0.19106
 Alpha  occ. eigenvalues --   -0.07383   0.04302
 Alpha virt. eigenvalues --    0.05330   0.05782   0.06047   0.06235   0.06934
 Alpha virt. eigenvalues --    0.07315   0.07655   0.10949   0.11529   0.11957
 Alpha virt. eigenvalues --    0.12472   0.12538   0.14388   0.15305   0.16317

 Mulliken charges:
               1
     1  N   -2.627162
     2  P    4.904278
     3  H    0.429496
     4  H    0.278539
     5  C   -5.713601
     6  P   10.633325
     7  H    0.257101
     8  H    1.359605
     9  H    1.194252
    10  O   -3.013312
    11  O   -2.933373
    12  H   -0.303888
    13  O   -3.034773
    14  H   -1.430485
 Sum of Mulliken charges =   0.00000

 Dipole moment (field-independent basis, Debye):
    X=             16.5743    Y=             -2.6670    Z=            -17.4086  Tot=             24.1843

 Test job not archived.
 1\1\GINC-SE460\SP\RHF\Aug-CC-pVDZ\C1H7N1O3P2\OHZDE\08-Apr-2025\0\\#t h
 f aug-cc-pvdz iop(5/13=1,5/36=2,99/5=2) pseudo=read geom=check guess=(
 read,tcheck) scf=(maxcycle=1)\\title\\0,1\N,0,1.900085,-1.296879,0.229
 928\P,0,1.197355,-0.042208,-0.693754\H,0,1.92158,-2.193321,-0.237405\H
 ,0,1.61118,-1.395229,1.19697\C,0,1.718756,1.434119,0.289434\P,0,-0.925
 616,-0.120589,-0.04411\H,0,2.78688,1.588216,0.122739\H,0,1.528955,1.31
 4915,1.357565\H,0,1.174082,2.308882,-0.071808\O,0,-1.718301,-1.262601,
 -0.53536\O,0,-1.557816,1.315884,-0.464471\H,0,-2.185519,1.206222,-1.18

 Normal termination of Gaussian 16 at Tue Apr  8 23:40:41 2025.
