 Gaussian 16, Revision C.01,

 ----------------------------------------------------------------------
 #t hf aug-cc-pvdz symm=none int=(grid=ultrafine) guess=(read,tcheck) s
 table=(opt,rrhf)
 ----------------------------------------------------------------------
 -----
 title
 -----
 Symbolic Z-matrix:
 Charge =  0 Multiplicity = 1

 SCF Done:  E(RHF) =  -1617.22790706     A.U. after   16 cycles
 Normal termination of Gaussian 16 at Tue Apr  8 23:28:24 2025.
 Gaussian 16:  ES64L-G16RevC.01  3-Jul-2019

 ----------------------------------------------------------------------
 #t hf aug-cc-pvdz iop(5/13=1,5/36=2,99/5=2) pseudo=read geom=check gue
 ss=(read,tcheck) scf=(maxcycle=1)
 ----------------------------------------------------------------------
 -----
 title
 -----
 Structure from the checkpoint file:  "BDE49_nonexpt_1241_mol1.chk"
 Charge =  0 Multiplicity = 1

                         Standard orientation:
 ---------------------------------------------------------------------
 Center     Atomic      Atomic             Coordinates (Angstroms)
 Number     Number       Type             X           Y           Z
 ---------------------------------------------------------------------
      1         17           0        1.720739    2.071111   -0.157171
      2         16           0        0.440645   -0.949301    0.486748
      3          8           0        0.531397   -2.317728   -0.011205
      4          8           0        0.787411   -0.622398    1.859780
      5         15           0        1.754584    0.137080   -0.977606
      6          6           0       -1.209571   -0.336523    0.169433
      7          6           0       -1.715996    0.695011    0.959166
      8          1           0       -1.116833    1.100305    1.763815
      9          6           0       -2.999125    1.168393    0.700060
     10          1           0       -3.409715    1.966860    1.306689
     11          6           0       -3.754399    0.613407   -0.332314
     12          1           0       -4.753366    0.985732   -0.528628
     13          6           0       -3.236410   -0.422103   -1.109829
     14          1           0       -3.831835   -0.857729   -1.903485
     15          6           0       -1.955073   -0.905853   -0.862606
     16          1           0       -1.541130   -1.722401   -1.440189
     17          6           0        3.309226   -0.500149   -0.218695
     18          1           0        3.369983   -1.568242   -0.442810
     19          1           0        3.327534   -0.345251    0.860487
     20          1           0        4.151359    0.012368   -0.687747
 ---------------------------------------------------------------------

 SCF Done:  E(RHF) =  -1619.85588380     A.U. after    2 cycles

 The electronic state is 1-A.
 Alpha  occ. eigenvalues -- -105.26407 -99.90510 -75.88433 -21.05053 -21.04900
 Alpha  occ. eigenvalues --  -13.50741 -13.39248 -13.36171 -11.54198 -11.46131
 Alpha  occ. eigenvalues --  -11.45897 -11.44010 -11.43077 -11.40143 -11.39186
 Alpha  occ. eigenvalues --  -10.47766  -9.67674  -9.67053  -9.66973  -8.23448
 Alpha  occ. eigenvalues --   -2.83873  -1.82639  -1.65347  -1.55418  -1.52818
 Alpha  occ. eigenvalues --   -1.49927  -1.36852  -1.24310  -1.14587  -1.11885
 Alpha  occ. eigenvalues --   -1.03618  -0.97612  -0.89277  -0.84895  -0.74642
 Alpha  occ. eigenvalues --   -0.71832  -0.65839  -0.61547  -0.60990  -0.60329
 Alpha  occ. eigenvalues --   -0.59799  -0.59001  -0.55888  -0.54162  -0.53690
 Alpha  occ. eigenvalues --   -0.50743  -0.48564  -0.48119  -0.44623  -0.40122
 Alpha  occ. eigenvalues --   -0.39234  -0.38154  -0.35763  -0.35662  -0.35184
 Alpha  occ. eigenvalues --   -0.19117  -0.06182
 Alpha virt. eigenvalues --    0.03176   0.04405   0.04969   0.05099   0.06366
 Alpha virt. eigenvalues --    0.06784   0.07389   0.07962   0.08181   0.08932
 Alpha virt. eigenvalues --    0.09227   0.09884   0.10339   0.11738   0.12492

 Mulliken charges:
               1
     1  Cl  -1.439648
     2  S    4.770591
     3  O   -2.738613
     4  O   -2.791119
     5  P    4.872729
     6  C    3.482049
     7  C   -3.729640
     8  H    1.811035
     9  C   -0.388646
    10  H    1.530213
    11  C   -2.881678
    12  H    1.549908
    13  C   -0.676724
    14  H    1.525470
    15  C   -4.400127
    16  H    1.887749
    17  C   -5.987653
    18  H    1.186398
    19  H    1.231165
    20  H    1.186540
 Sum of Mulliken charges =   0.00000

 Dipole moment (field-independent basis, Debye):
    X=             -1.3327    Y=              0.2967    Z=             -4.8144  Tot=              5.0042

 Test job not archived.
 1\1\GINC-SE329\SP\RHF\Aug-CC-pVDZ\C7H8Cl1O2P1S1\OHZDE\08-Apr-2025\0\\#
 t hf aug-cc-pvdz iop(5/13=1,5/36=2,99/5=2) pseudo=read geom=check gues
 s=(read,tcheck) scf=(maxcycle=1)\\title\\0,1\Cl,0,1.720739,2.071111,-0
 .157171\S,0,0.440645,-0.949301,0.486748\O,0,0.531397,-2.317728,-0.0112
 05\O,0,0.787411,-0.622398,1.85978\P,0,1.754584,0.13708,-0.977606\C,0,-
 1.209571,-0.336523,0.169433\C,0,-1.715996,0.695011,0.959166\H,0,-1.116
 833,1.100305,1.763815\C,0,-2.999125,1.168393,0.70006\H,0,-3.409715,1.9
 6686,1.306689\C,0,-3.754399,0.613407,-0.332314\H,0,-4.753366,0.985732,

 Normal termination of Gaussian 16 at Tue Apr  8 23:28:39 2025.
