 Gaussian 16, Revision C.01,

 ----------------------------------------------------------------------
 #t hf aug-cc-pvdz symm=none int=(grid=ultrafine) guess=(read,tcheck) s
 table=(opt,rrhf)
 ----------------------------------------------------------------------
 -----
 title
 -----
 Symbolic Z-matrix:
 Charge =  0 Multiplicity = 1

 SCF Done:  E(RHF) =  -759.197160721     A.U. after   13 cycles
 Normal termination of Gaussian 16 at Tue Apr  8 23:40:58 2025.
 Gaussian 16:  ES64L-G16RevC.01  3-Jul-2019

 ----------------------------------------------------------------------
 #t hf aug-cc-pvdz iop(5/13=1,5/36=2,99/5=2) pseudo=read geom=check gue
 ss=(read,tcheck) scf=(maxcycle=1)
 ----------------------------------------------------------------------
 -----
 title
 -----
 Structure from the checkpoint file:  "BDE49_nonexpt_1611_mol1.chk"
 Charge =  0 Multiplicity = 1

                         Standard orientation:
 ---------------------------------------------------------------------
 Center     Atomic      Atomic             Coordinates (Angstroms)
 Number     Number       Type             X           Y           Z
 ---------------------------------------------------------------------
      1          6           0        1.260049    0.848665    0.207562
      2          8           0        0.321014   -0.143248   -0.295450
      3         15           0       -1.231396    0.032021   -0.046924
      4          8           0       -1.838397    1.311642   -0.422346
      5          8           0       -1.823555   -1.250515   -0.789730
      6          6           0        2.638969    0.515604   -0.333690
      7          1           0        1.242773    0.809566    1.301178
      8          1           0        0.927918    1.836512   -0.120102
      9          6           0        3.172731   -0.839493    0.136355
     10          1           0        3.314044    1.319330   -0.017758
     11          1           0        2.600402    0.549527   -1.427222
     12          1           0        3.260275   -0.872364    1.226760
     13          1           0        4.161730   -1.036748   -0.284365
     14          1           0        2.505548   -1.647001   -0.170709
     15          8           0       -1.364126   -0.361950    1.497406
     16          1           0       -2.176363   -0.011940    1.881718
     17          1           0       -2.155364   -1.023285   -1.666030
 ---------------------------------------------------------------------

 SCF Done:  E(RHF) =  -761.241298190     A.U. after    2 cycles

 The electronic state is 1-A.
 Alpha  occ. eigenvalues -- -105.32149 -21.11703 -21.11623 -21.07779 -21.02315
 Alpha  occ. eigenvalues --  -11.45828 -11.40271 -11.36042  -2.95684  -2.00797
 Alpha  occ. eigenvalues --   -1.92695  -1.91934  -1.75074  -1.42965  -1.40619
 Alpha  occ. eigenvalues --   -1.25972  -1.18046  -0.98171  -0.84455  -0.70803
 Alpha  occ. eigenvalues --   -0.66097  -0.62225  -0.60602  -0.58403  -0.55508
 Alpha  occ. eigenvalues --   -0.51674  -0.49376  -0.48321  -0.46376  -0.44840
 Alpha  occ. eigenvalues --   -0.41158  -0.38456  -0.34375  -0.33920  -0.29015
 Alpha  occ. eigenvalues --   -0.26730  -0.16269
 Alpha virt. eigenvalues --    0.03748   0.05093   0.05327   0.05712   0.06252
 Alpha virt. eigenvalues --    0.06383   0.06808   0.07436   0.08314   0.11177
 Alpha virt. eigenvalues --    0.11573   0.12400   0.13613   0.14263   0.15054

 Mulliken charges:
               1
     1  C   -1.348914
     2  O   -3.994558
     3  P    9.265444
     4  O   -2.825513
     5  O   -2.503403
     6  C   -3.546347
     7  H    1.634895
     8  H    1.468471
     9  C   -3.608264
    10  H    1.322640
    11  H    1.385349
    12  H    1.284238
    13  H    1.152809
    14  H    1.374386
    15  O   -2.628231
    16  H    0.770993
    17  H    0.796004
 Sum of Mulliken charges =  -0.00000

 Dipole moment (field-independent basis, Debye):
    X=              1.4465    Y=             -1.9720    Z=              0.5726  Tot=              2.5117

 Test job not archived.
 1\1\GINC-SE252\SP\RHF\Aug-CC-pVDZ\C3H9O4P1\OHZDE\08-Apr-2025\0\\#t hf
 aug-cc-pvdz iop(5/13=1,5/36=2,99/5=2) pseudo=read geom=check guess=(re
 ad,tcheck) scf=(maxcycle=1)\\title\\0,1\C,0,1.260049,0.848665,0.207562
 \O,0,0.321014,-0.143248,-0.29545\P,0,-1.231396,0.032021,-0.046924\O,0,
 -1.838397,1.311642,-0.422346\O,0,-1.823555,-1.250515,-0.78973\C,0,2.63
 8969,0.515604,-0.33369\H,0,1.242773,0.809566,1.301178\H,0,0.927918,1.8
 36512,-0.120102\C,0,3.172731,-0.839493,0.136355\H,0,3.314044,1.31933,-
 0.017758\H,0,2.600402,0.549527,-1.427222\H,0,3.260275,-0.872364,1.2267

 Normal termination of Gaussian 16 at Tue Apr  8 23:41:05 2025.
