 Gaussian 16, Revision C.01,

 ----------------------------------------------------------------------
 #t hf aug-cc-pvdz symm=none int=(grid=ultrafine) guess=(read,tcheck) s
 table=opt
 ----------------------------------------------------------------------
 -----
 title
 -----
 Symbolic Z-matrix:
 Charge =  0 Multiplicity = 2

 SCF Done:  E(UHF) =  -369.659869125     A.U. after   16 cycles
 Normal termination of Gaussian 16 at Wed Apr  9 00:17:46 2025.
 Gaussian 16:  ES64L-G16RevC.01  3-Jul-2019

 ----------------------------------------------------------------------
 #t hf aug-cc-pvdz iop(5/13=1,5/36=2,99/5=2) pseudo=read geom=check gue
 ss=(read,tcheck) scf=(maxcycle=1)
 ----------------------------------------------------------------------
 -----
 title
 -----
 Structure from the checkpoint file:  "BDE49_nonexpt_252_mol2.chk"
 Charge =  0 Multiplicity = 2

                         Standard orientation:
 ---------------------------------------------------------------------
 Center     Atomic      Atomic             Coordinates (Angstroms)
 Number     Number       Type             X           Y           Z
 ---------------------------------------------------------------------
      1          5           0        1.375627    1.116574    0.000000
      2          8           0        0.841688    0.812993    1.202003
      3          8           0        0.841688    0.812993   -1.202003
      4          6           0       -0.611433   -0.743345   -0.000000
      5          6           0       -0.425633    0.094955   -1.265215
      6          6           0       -0.425633    0.094955    1.265215
      7          6           0       -0.425633   -0.722585    2.545071
      8          1           0        0.367019   -1.474607    2.517314
      9          1           0       -1.385440   -1.229817    2.678910
     10          1           0       -0.251691   -0.073762    3.405516
     11          1           0       -1.212940    0.856234    1.316997
     12          1           0        0.115680   -1.564335   -0.000000
     13          1           0       -1.610911   -1.190885   -0.000000
     14          6           0       -0.425633   -0.722585   -2.545071
     15          1           0       -1.212940    0.856234   -1.316997
     16          1           0        0.367019   -1.474607   -2.517314
     17          1           0       -0.251691   -0.073762   -3.405516
     18          1           0       -1.385440   -1.229817   -2.678910
 ---------------------------------------------------------------------

 SCF Done:  E(UHF) =  -371.339890303     A.U. after    2 cycles

 The electronic state is 2-A'.
 Alpha  occ. eigenvalues --  -21.02480 -21.02436 -11.47523 -11.46384 -11.41930
 Alpha  occ. eigenvalues --  -11.38868 -11.36703  -7.65313  -1.84013  -1.69279
 Alpha  occ. eigenvalues --   -1.24017  -1.11421  -1.02267  -0.87792  -0.85415
 Alpha  occ. eigenvalues --   -0.71588  -0.65067  -0.64704  -0.62427  -0.57807
 Alpha  occ. eigenvalues --   -0.55419  -0.53715  -0.52743  -0.51417  -0.51320
 Alpha  occ. eigenvalues --   -0.46334  -0.45272  -0.43102  -0.34415  -0.32477
 Alpha  occ. eigenvalues --   -0.29038
 Alpha virt. eigenvalues --    0.03535   0.04837   0.04839   0.05347   0.05708
 Alpha virt. eigenvalues --    0.05845   0.06018   0.06065   0.06391   0.07826
 Alpha virt. eigenvalues --    0.08197   0.08845   0.09044   0.12152   0.13295

  Beta  occ. eigenvalues --  -21.02362 -21.02319 -11.47439 -11.46260 -11.41923
  Beta  occ. eigenvalues --  -11.38866 -11.36691  -7.63181  -1.83359  -1.68932
  Beta  occ. eigenvalues --   -1.23633  -1.11233  -1.02259  -0.87437  -0.84477
  Beta  occ. eigenvalues --   -0.70439  -0.64846  -0.64676  -0.61898  -0.57043
  Beta  occ. eigenvalues --   -0.55320  -0.52571  -0.52296  -0.51219  -0.50927
  Beta  occ. eigenvalues --   -0.46230  -0.43527  -0.40739  -0.33930  -0.32968
  Beta virt. eigenvalues --    0.03419   0.04397   0.04848   0.05354   0.05500
  Beta virt. eigenvalues --    0.05725   0.05915   0.06070   0.06438   0.07858
  Beta virt. eigenvalues --    0.08074   0.08654   0.08942   0.09094   0.12936

 Mulliken charges and spin densities:
               1          2
     1  B    3.010612   1.313544
     2  O   -3.675430  -0.178154
     3  O   -3.675430  -0.178154
     4  C   -3.525405  -0.145297
     5  C    1.074870   0.120368
     6  C    1.074870   0.120368
     7  C   -3.880957  -0.019775
     8  H    1.235001  -0.001222
     9  H    1.264817   0.003694
    10  H    1.104042  -0.001039
    11  H    1.688935  -0.000642
    12  H    1.377175  -0.025837
    13  H    1.515065   0.011130
    14  C   -3.880957  -0.019775
    15  H    1.688935  -0.000642
    16  H    1.235001  -0.001222
    17  H    1.104042  -0.001039
    18  H    1.264817   0.003694
 Sum of Mulliken charges =   0.00000   1.00000

 Dipole moment (field-independent basis, Debye):
    X=             -2.3144    Y=             -1.3595    Z=              0.0000  Tot=              2.6842
                          Isotropic Fermi Contact Couplings
        Atom                 a.u.       MegaHertz       Gauss      10(-4) cm-1
     1  B(11)              0.38480     551.94172     196.94653     184.10794
     2  O(17)              0.17410    -105.53834     -37.65870     -35.20380
     3  O(17)              0.17410    -105.53834     -37.65870     -35.20380
     4  C(13)             -0.00205      -2.30340      -0.82191      -0.76833
     5  C(13)              0.03072      34.53822      12.32410      11.52071
     6  C(13)              0.03072      34.53822      12.32410      11.52071
     7  C(13)             -0.00101      -1.13344      -0.40444      -0.37808
     8  H(1)               0.00009       0.39307       0.14026       0.13111

 Normal termination of Gaussian 16 at Wed Apr  9 00:17:51 2025.
