 Gaussian 16, Revision C.01,

 ----------------------------------------------------------------------
 #t hf aug-cc-pvdz symm=none int=(grid=ultrafine) guess=(read,tcheck) s
 table=(opt,rrhf)
 ----------------------------------------------------------------------
 -----
 title
 -----
 Symbolic Z-matrix:
 Charge =  0 Multiplicity = 1

 SCF Done:  E(RHF) =  -870.804488564     A.U. after   20 cycles
 Normal termination of Gaussian 16 at Tue Apr  8 22:57:46 2025.
 Gaussian 16:  ES64L-G16RevC.01  3-Jul-2019

 ----------------------------------------------------------------------
 #t hf aug-cc-pvdz iop(5/13=1,5/36=2,99/5=2) pseudo=read geom=check gue
 ss=(read,tcheck) scf=(maxcycle=1)
 ----------------------------------------------------------------------
 -----
 title
 -----
 Structure from the checkpoint file:  "BDE49_expt_1830_mol1.chk"
 Charge =  0 Multiplicity = 1

                         Standard orientation:
 ---------------------------------------------------------------------
 Center     Atomic      Atomic             Coordinates (Angstroms)
 Number     Number       Type             X           Y           Z
 ---------------------------------------------------------------------
      1          7           0       -3.259536   -0.579541    0.783671
      2          8           0       -2.453202   -0.902451    1.559264
      3         16           0       -2.585484    0.287183   -0.826337
      4          6           0       -0.854418    0.292736   -0.503807
      5          6           0       -0.251943    1.380763    0.151687
      6          6           0        1.101721    1.371657    0.433525
      7          6           0        1.890784    0.267957    0.077137
      8          6           0        1.300864   -0.826440   -0.564508
      9          6           0       -0.062584   -0.807787   -0.845523
     10          1           0       -0.856795    2.234573    0.431624
     11          1           0        1.578986    2.205642    0.933219
     12          8           0        3.206893    0.358423    0.396800
     13          1           0       -0.517240   -1.656068   -1.342596
     14          1           0        1.886338   -1.690983   -0.845945
     15          6           0        4.066943   -0.727995    0.071378
     16          1           0        3.760350   -1.647001    0.581917
     17          1           0        5.055854   -0.435289    0.418952
     18          1           0        4.099270   -0.902145   -1.009337
 ---------------------------------------------------------------------

 SCF Done:  E(RHF) =  -873.171295602     A.U. after    2 cycles

 The electronic state is 1-A.
 Alpha  occ. eigenvalues --  -75.70771 -21.16885 -21.08845 -15.91826 -13.20478
 Alpha  occ. eigenvalues --  -13.09062 -13.08411 -11.54144 -11.47627 -11.44817
 Alpha  occ. eigenvalues --  -11.43877 -11.42504 -11.41563 -11.38068  -8.04629
 Alpha  occ. eigenvalues --   -1.90722  -1.80253  -1.34970  -1.17863  -1.11315
 Alpha  occ. eigenvalues --   -1.07216  -0.99971  -0.91951  -0.88852  -0.82260
 Alpha  occ. eigenvalues --   -0.70242  -0.65770  -0.64470  -0.63546  -0.62495
 Alpha  occ. eigenvalues --   -0.60258  -0.59283  -0.57547  -0.56275  -0.53594
 Alpha  occ. eigenvalues --   -0.52971  -0.47486  -0.43079  -0.40927  -0.39387
 Alpha  occ. eigenvalues --   -0.34749  -0.28883  -0.25487  -0.23750
 Alpha virt. eigenvalues --    0.03119   0.04577   0.05187   0.05790   0.06029
 Alpha virt. eigenvalues --    0.06554   0.07637   0.08312   0.08820   0.09126
 Alpha virt. eigenvalues --    0.10411   0.10860   0.11721   0.12823   0.13280

 Mulliken charges:
               1
     1  N    1.353513
     2  O   -1.820762
     3  S    0.780010
     4  C    2.946795
     5  C   -2.517432
     6  C   -3.756523
     7  C    4.915393
     8  C   -3.012680
     9  C   -2.184058
    10  H    1.831965
    11  H    1.949922
    12  O   -4.703843
    13  H    1.827657
    14  H    1.932236
    15  C   -3.729548
    16  H    1.381516
    17  H    1.416319
    18  H    1.389518
 Sum of Mulliken charges =   0.00000

 Dipole moment (field-independent basis, Debye):
    X=              3.3709    Y=             -0.1724    Z=             -0.3712  Tot=              3.3956

 Test job not archived.
 1\1\GINC-SE054\SP\RHF\Aug-CC-pVDZ\C7H7N1O2S1\OHZDE\08-Apr-2025\0\\#t h
 f aug-cc-pvdz iop(5/13=1,5/36=2,99/5=2) pseudo=read geom=check guess=(
 read,tcheck) scf=(maxcycle=1)\\title\\0,1\N,0,-3.259536,-0.579541,0.78
 3671\O,0,-2.453202,-0.902451,1.559264\S,0,-2.585484,0.287183,-0.826337
 \C,0,-0.854418,0.292736,-0.503807\C,0,-0.251943,1.380763,0.151687\C,0,
 1.101721,1.371657,0.433525\C,0,1.890784,0.267957,0.077137\C,0,1.300864
 ,-0.82644,-0.564508\C,0,-0.062584,-0.807787,-0.845523\H,0,-0.856795,2.
 234573,0.431624\H,0,1.578986,2.205642,0.933219\O,0,3.206893,0.358423,0

 Normal termination of Gaussian 16 at Tue Apr  8 22:57:56 2025.
