 Gaussian 16, Revision C.01,

 ----------------------------------------------------------------------
 #t hf aug-cc-pvdz symm=none int=(grid=ultrafine) guess=(read,tcheck) s
 table=(opt,rrhf)
 ----------------------------------------------------------------------
 -----
 title
 -----
 Symbolic Z-matrix:
 Charge =  0 Multiplicity = 1

 SCF Done:  E(RHF) =  -660.885401359     A.U. after   15 cycles
 Normal termination of Gaussian 16 at Tue Apr  8 23:34:11 2025.
 Gaussian 16:  ES64L-G16RevC.01  3-Jul-2019

 ----------------------------------------------------------------------
 #t hf aug-cc-pvdz iop(5/13=1,5/36=2,99/5=2) pseudo=read geom=check gue
 ss=(read,tcheck) scf=(maxcycle=1)
 ----------------------------------------------------------------------
 -----
 title
 -----
 Structure from the checkpoint file:  "BDE49_nonexpt_1455_mol1.chk"
 Charge =  0 Multiplicity = 1

                         Standard orientation:
 ---------------------------------------------------------------------
 Center     Atomic      Atomic             Coordinates (Angstroms)
 Number     Number       Type             X           Y           Z
 ---------------------------------------------------------------------
      1          6           0        1.327458    0.004741    0.028311
      2         15           0       -0.013036   -1.291686   -0.239009
      3          6           0       -1.317109    0.051545    0.036720
      4          7           0       -0.720752    1.280917   -0.080188
      5          6           0        0.723808    1.412659   -0.108420
      6          8           0       -2.496928   -0.136098    0.216479
      7          1           0        1.102411    2.025265    0.716326
      8          1           0        1.082510    1.850439   -1.048123
      9          8           0        2.493045   -0.188094    0.238833
     10          1           0       -1.318047    2.092712    0.007600
     11          1           0        0.000051   -1.779685    1.088477
 ---------------------------------------------------------------------

 SCF Done:  E(RHF) =  -662.434955323     A.U. after    2 cycles

 The electronic state is 1-A.
 Alpha  occ. eigenvalues -- -105.21122 -21.09157 -21.05208 -15.78936 -11.51845
 Alpha  occ. eigenvalues --  -11.50453 -11.45063  -2.79276  -1.74546  -1.72589
 Alpha  occ. eigenvalues --   -1.52596  -1.48713  -1.47728  -1.41350  -1.07920
 Alpha  occ. eigenvalues --   -0.91076  -0.74988  -0.72029  -0.67820  -0.67519
 Alpha  occ. eigenvalues --   -0.55144  -0.54347  -0.53694  -0.46906  -0.46329
 Alpha  occ. eigenvalues --   -0.38813  -0.33510  -0.23299  -0.16112  -0.05366
 Alpha virt. eigenvalues --    0.03119   0.05380   0.05816   0.06942   0.07220
 Alpha virt. eigenvalues --    0.08617   0.09110   0.10522   0.12213   0.12713
 Alpha virt. eigenvalues --    0.12868   0.13532   0.13760   0.13928   0.15367

 Mulliken charges:
               1
     1  C    1.820355
     2  P    3.311280
     3  C    2.787270
     4  N   -2.591906
     5  C   -2.301930
     6  O   -3.082589
     7  H    1.427656
     8  H    1.373345
     9  O   -3.007976
    10  H    0.682944
    11  H   -0.418449
 Sum of Mulliken charges =   0.00000

 Dipole moment (field-independent basis, Debye):
    X=              0.5748    Y=             -2.2212    Z=             -3.1543  Tot=              3.9005

 Test job not archived.
 1\1\GINC-SE340\SP\RHF\Aug-CC-pVDZ\C3H4N1O2P1\OHZDE\08-Apr-2025\0\\#t h
 f aug-cc-pvdz iop(5/13=1,5/36=2,99/5=2) pseudo=read geom=check guess=(
 read,tcheck) scf=(maxcycle=1)\\title\\0,1\C,0,1.327458,0.004741,0.0283
 11\P,0,-0.013036,-1.291686,-0.239009\C,0,-1.317109,0.051545,0.03672\N,
 0,-0.720752,1.280917,-0.080188\C,0,0.723808,1.412659,-0.10842\O,0,-2.4
 96928,-0.136098,0.216479\H,0,1.102411,2.025265,0.716326\H,0,1.08251,1.
 850439,-1.048123\O,0,2.493045,-0.188094,0.238833\H,0,-1.318047,2.09271
 2,0.0076\H,0,0.000051,-1.779685,1.088477\\Version=ES64L-G16RevC.01\Sta

 Normal termination of Gaussian 16 at Tue Apr  8 23:34:15 2025.
