 Gaussian 16, Revision C.01,

 ----------------------------------------------------------------------
 #t hf aug-cc-pvdz symm=none int=(grid=ultrafine) guess=(read,tcheck) s
 table=opt
 ----------------------------------------------------------------------
 -----
 title
 -----
 Symbolic Z-matrix:
 Charge =  0 Multiplicity = 2

 SCF Done:  E(UHF) =  -345.696420434     A.U. after   15 cycles

 1\1\GINC-SE393\Stability\UHF\Aug-CC-pVDZ\H4N1Si1\OHZDE\08-Apr-2025\0\\
 #t hf aug-cc-pvdz symm=none int=(grid=ultrafine) guess=(read,tcheck) s
 table=opt\\title\\0,2\Si,0,-0.621558,0.,-0.111418\N,0,1.099951,0.,0.09
 1601\H,0,-1.134672,-1.221247,0.573471\H,0,-1.134671,1.221249,0.573468\
 H,0,1.635752,-0.831889,-0.11415\H,0,1.635751,0.83189,-0.114147\\Versio
 n=ES64L-G16RevC.01\HF=-345.6964204\S2=0.756463\S2-1=0.\S2A=0.75002\RMS
 D=3.942e-09\Dipole=0.4629762,0.0000005,-0.2526465\Quadrupole=1.231186,
 0.7846796,-2.0158655,0.,-1.0432701,0.000004\PG=Unknown\\@

 Normal termination of Gaussian 16 at Tue Apr  8 23:52:17 2025.
 Gaussian 16:  ES64L-G16RevC.01  3-Jul-2019

 ----------------------------------------------------------------------
 #t hf aug-cc-pvdz iop(5/13=1,5/36=2,99/5=2) pseudo=read geom=check gue
 ss=(read,tcheck) scf=(maxcycle=1)
 ----------------------------------------------------------------------
 -----
 title
 -----
 Structure from the checkpoint file:  "BDE49_nonexpt_1900_mol2.chk"
 Charge =  0 Multiplicity = 2

                         Standard orientation:
 ---------------------------------------------------------------------
 Center     Atomic      Atomic             Coordinates (Angstroms)
 Number     Number       Type             X           Y           Z
 ---------------------------------------------------------------------
      1         14           0       -0.621558   -0.000000   -0.111418
      2          7           0        1.099951   -0.000000    0.091601
      3          1           0       -1.134672   -1.221247    0.573471
      4          1           0       -1.134671    1.221249    0.573468
      5          1           0        1.635752   -0.831889   -0.114150
      6          1           0        1.635751    0.831890   -0.114147
 ---------------------------------------------------------------------

 SCF Done:  E(UHF) =  -346.104450269     A.U. after    2 cycles

 The electronic state is 2-A.
 Alpha  occ. eigenvalues --  -76.22922 -15.74091  -5.56426  -2.20780  -2.18111
 Alpha  occ. eigenvalues --   -2.16814  -1.26095  -0.75227  -0.65345  -0.50435
 Alpha  occ. eigenvalues --   -0.47077  -0.43424  -0.25781
 Alpha virt. eigenvalues --    0.03756   0.05355   0.05605   0.07338   0.08159
 Alpha virt. eigenvalues --    0.08261   0.09926   0.14162   0.16492   0.18148
 Alpha virt. eigenvalues --    0.18208   0.20040   0.21103   0.21628   0.23840

  Beta  occ. eigenvalues --  -76.22440 -15.73555  -5.55651  -2.20182  -2.17622
  Beta  occ. eigenvalues --   -2.13779  -1.24688  -0.71522  -0.65102  -0.49203
  Beta  occ. eigenvalues --   -0.45567  -0.38945
  Beta virt. eigenvalues --    0.03447   0.05178   0.05686   0.05962   0.08049
  Beta virt. eigenvalues --    0.08356   0.10113   0.10221   0.16082   0.17231
  Beta virt. eigenvalues --    0.18785   0.19928   0.20814   0.22398   0.22753

 Mulliken charges and spin densities:
               1          2
     1  Si   3.714644   0.812224
     2  N   -2.192358   0.137686
     3  H   -1.407173   0.034265
     4  H   -1.407173   0.034265
     5  H    0.646030  -0.009220
     6  H    0.646030  -0.009220
 Sum of Mulliken charges =  -0.00000   1.00000

 Dipole moment (field-independent basis, Debye):
    X=              1.3175    Y=              0.0000    Z=             -0.8534  Tot=              1.5697
                          Isotropic Fermi Contact Couplings
        Atom                 a.u.       MegaHertz       Gauss      10(-4) cm-1
     1  Si(29)             0.49051    -435.93256    -155.55158    -145.41145
     2  N(14)              0.04365      14.10387       5.03261       4.70455
     3  H(1)               0.01411      63.07354      22.50621      21.03907
     4  H(1)               0.01411      63.07316      22.50607      21.03894
     5  H(1)              -0.00249     -11.13365      -3.97276      -3.71379
     6  H(1)              -0.00249     -11.13369      -3.97278      -3.71380
 --------------------------------------------------------
       Center         ----  Spin Dipole Couplings  ----

 Normal termination of Gaussian 16 at Tue Apr  8 23:52:19 2025.
