 Gaussian 16, Revision C.01,

 ----------------------------------------------------------------------
 #t hf aug-cc-pvdz symm=none int=(grid=ultrafine) guess=(read,tcheck) s
 table=(opt,rrhf)
 ----------------------------------------------------------------------
 -----
 title
 -----
 Symbolic Z-matrix:
 Charge =  0 Multiplicity = 1

 SCF Done:  E(RHF) =  -882.581707248     A.U. after   17 cycles
 Normal termination of Gaussian 16 at Tue Apr  8 23:36:19 2025.
 Gaussian 16:  ES64L-G16RevC.01  3-Jul-2019

 ----------------------------------------------------------------------
 #t hf aug-cc-pvdz iop(5/13=1,5/36=2,99/5=2) pseudo=read geom=check gue
 ss=(read,tcheck) scf=(maxcycle=1)
 ----------------------------------------------------------------------
 -----
 title
 -----
 Structure from the checkpoint file:  "BDE49_nonexpt_1470_mol1.chk"
 Charge =  0 Multiplicity = 1

                         Standard orientation:
 ---------------------------------------------------------------------
 Center     Atomic      Atomic             Coordinates (Angstroms)
 Number     Number       Type             X           Y           Z
 ---------------------------------------------------------------------
      1          7           0       -1.370973   -0.643218    0.360798
      2          6           0       -0.588296    0.348408    1.095029
      3         15           0        1.371666    0.659360   -1.045082
      4          7           0       -2.642309   -0.294658   -0.074212
      5          1           0       -1.383677   -1.602439    0.680669
      6          7           0        2.446243   -0.378857    0.086240
      7          8           0       -2.883794    0.899494   -0.179290
      8          8           0       -3.386414   -1.220609   -0.349549
      9          8           0        2.578734   -0.022482    1.250020
     10          8           0        3.016335   -1.319965   -0.436701
     11          6           0        0.169214    1.327465    0.188116
     12          1           0        0.118099   -0.213261    1.706597
     13          1           0        0.720846    2.036802    0.810339
     14          1           0       -0.544182    1.912474   -0.401265
     15          1           0       -1.240840    0.917669    1.764008
     16          1           0        0.639632   -0.471260   -1.468604
 ---------------------------------------------------------------------

 SCF Done:  E(RHF) =  -885.100621995     A.U. after    2 cycles

 The electronic state is 1-A.
 Alpha  occ. eigenvalues -- -105.25695 -21.11074 -21.10935 -21.10876 -21.10556
 Alpha  occ. eigenvalues --  -16.04208 -15.99023 -15.82924 -11.48707 -11.42139
 Alpha  occ. eigenvalues --   -2.83112  -2.03395  -1.99834  -1.72091  -1.70303
 Alpha  occ. eigenvalues --   -1.55770  -1.51783  -1.51624  -1.46560  -1.16576
 Alpha  occ. eigenvalues --   -0.99967  -0.94108  -0.87571  -0.76505  -0.75325
 Alpha  occ. eigenvalues --   -0.73747  -0.70678  -0.66489  -0.62914  -0.62422
 Alpha  occ. eigenvalues --   -0.61377  -0.57295  -0.56459  -0.55194  -0.41798
 Alpha  occ. eigenvalues --   -0.39087  -0.34307  -0.34077  -0.33277  -0.32640
 Alpha  occ. eigenvalues --   -0.26885  -0.24755  -0.06102
 Alpha virt. eigenvalues --    0.03806   0.05108   0.05356   0.05786   0.06557
 Alpha virt. eigenvalues --    0.06844   0.08686   0.09635   0.10329   0.11785
 Alpha virt. eigenvalues --    0.11982   0.13103   0.13387   0.13638   0.14755

 Mulliken charges:
               1
     1  N   -0.985758
     2  C   -3.350184
     3  P    3.702559
     4  N    5.200041
     5  H    0.751207
     6  N    4.083676
     7  O   -2.914025
     8  O   -2.792956
     9  O   -2.530595
    10  O   -2.698118
    11  C   -3.218819
    12  H    1.669516
    13  H    1.323542
    14  H    1.494248
    15  H    1.426835
    16  H   -1.161168
 Sum of Mulliken charges =  -0.00000

 Dipole moment (field-independent basis, Debye):
    X=              0.9566    Y=              2.1147    Z=             -0.3721  Tot=              2.3506

 Test job not archived.
 1\1\GINC-SE329\SP\RHF\Aug-CC-pVDZ\C2H6N3O4P1\OHZDE\08-Apr-2025\0\\#t h
 f aug-cc-pvdz iop(5/13=1,5/36=2,99/5=2) pseudo=read geom=check guess=(
 read,tcheck) scf=(maxcycle=1)\\title\\0,1\N,0,1.370973,0.643218,0.3607
 98\C,0,0.588296,-0.348408,1.095029\P,0,-1.371666,-0.65936,-1.045082\N,
 0,2.642309,0.294658,-0.074212\H,0,1.383677,1.602439,0.680669\N,0,-2.44
 6243,0.378857,0.08624\O,0,2.883794,-0.899494,-0.17929\O,0,3.386414,1.2
 20609,-0.349549\O,0,-2.578734,0.022482,1.25002\O,0,-3.016335,1.319965,
 -0.436701\C,0,-0.169214,-1.327465,0.188116\H,0,-0.118099,0.213261,1.70

 Normal termination of Gaussian 16 at Tue Apr  8 23:36:26 2025.
