 Gaussian 16, Revision C.01,

 ----------------------------------------------------------------------
 #t hf aug-cc-pvdz symm=none int=(grid=ultrafine) guess=(read,tcheck) s
 table=(opt,rrhf)
 ----------------------------------------------------------------------
 -----
 title
 -----
 Symbolic Z-matrix:
 Charge =  0 Multiplicity = 1

 SCF Done:  E(RHF) =  -492.237607680     A.U. after   18 cycles
 Normal termination of Gaussian 16 at Wed Apr  9 00:53:47 2025.
 Gaussian 16:  ES64L-G16RevC.01  3-Jul-2019

 ----------------------------------------------------------------------
 #t hf aug-cc-pvdz iop(5/13=1,5/36=2,99/5=2) pseudo=read geom=check gue
 ss=(read,tcheck) scf=(maxcycle=1)
 ----------------------------------------------------------------------
 -----
 title
 -----
 Structure from the checkpoint file:  "BDE49_nonexpt_963_mol1.chk"
 Charge =  0 Multiplicity = 1

                         Standard orientation:
 ---------------------------------------------------------------------
 Center     Atomic      Atomic             Coordinates (Angstroms)
 Number     Number       Type             X           Y           Z
 ---------------------------------------------------------------------
      1          9           0        2.424829   -1.232998    0.000000
      2          7           0        1.499268   -0.246660    0.000000
      3          7           0        1.896617    1.028136    0.000001
      4          7           0        0.824503    1.759877   -0.000001
      5          6           0        0.150263   -0.414162    0.000000
      6          6           0       -0.276901    0.928237    0.000000
      7          6           0       -1.649080    1.222013    0.000000
      8          1           0       -1.987643    2.250465    0.000000
      9          6           0       -2.528052    0.156632    0.000000
     10          1           0       -3.595187    0.343161    0.000000
     11          6           0       -2.071579   -1.184695    0.000000
     12          1           0       -2.802240   -1.984960    0.000000
     13          6           0       -0.726201   -1.503887    0.000000
     14          1           0       -0.371795   -2.525979    0.000000
 ---------------------------------------------------------------------

 SCF Done:  E(RHF) =  -494.379206587     A.U. after    2 cycles

 The electronic state is 1-A.
 Alpha  occ. eigenvalues --  -29.35000 -15.88174 -15.83463 -15.78519 -11.54816
 Alpha  occ. eigenvalues --  -11.47864 -11.46131 -11.44430 -11.43677 -11.39883
 Alpha  occ. eigenvalues --   -1.74151  -1.39336  -1.35109  -1.16137  -1.12275
 Alpha  occ. eigenvalues --   -0.96491  -0.93987  -0.88478  -0.77938  -0.72748
 Alpha  occ. eigenvalues --   -0.70892  -0.65172  -0.63475  -0.61021  -0.52049
 Alpha  occ. eigenvalues --   -0.52047  -0.51197  -0.48274  -0.47369  -0.44003
 Alpha  occ. eigenvalues --   -0.41602  -0.36412  -0.33987  -0.31906  -0.24502
 Alpha virt. eigenvalues --    0.03148   0.04915   0.04936   0.06281   0.08113
 Alpha virt. eigenvalues --    0.09816   0.11776   0.12024   0.12473   0.12674
 Alpha virt. eigenvalues --    0.12944   0.13314   0.13356   0.13988   0.14302

 Mulliken charges:
               1
     1  F   -0.141601
     2  N   -0.437510
     3  N   -0.588298
     4  N   -2.488997
     5  C    2.654292
     6  C    2.990019
     7  C   -1.631979
     8  H    1.653299
     9  C   -1.756929
    10  H    1.512323
    11  C   -1.283201
    12  H    1.449180
    13  C   -3.492237
    14  H    1.561639
 Sum of Mulliken charges =   0.00000

 Dipole moment (field-independent basis, Debye):
    X=             -0.6874    Y=             -3.9064    Z=              0.0000  Tot=              3.9664

 Test job not archived.
 1\1\GINC-SE365\SP\RHF\Aug-CC-pVDZ\C6H4F1N3\OHZDE\09-Apr-2025\0\\#t hf
 aug-cc-pvdz iop(5/13=1,5/36=2,99/5=2) pseudo=read geom=check guess=(re
 ad,tcheck) scf=(maxcycle=1)\\title\\0,1\F,0,2.424829,-1.232998,0.\N,0,
 1.499268,-0.24666,0.\N,0,1.896617,1.028136,0.000001\N,0,0.824503,1.759
 877,-0.000001\C,0,0.150263,-0.414162,0.\C,0,-0.276901,0.928237,0.\C,0,
 -1.64908,1.222013,0.\H,0,-1.987643,2.250465,0.\C,0,-2.528052,0.156632,
 0.\H,0,-3.595187,0.343162,0.\C,0,-2.071579,-1.184695,0.\H,0,-2.80224,-
 1.98496,0.\C,0,-0.726201,-1.503887,0.\H,0,-0.371795,-2.525979,0.\\Vers

 Normal termination of Gaussian 16 at Wed Apr  9 00:53:52 2025.
