 Gaussian 16, Revision C.01,

 ----------------------------------------------------------------------
 #t hf aug-cc-pvdz symm=none int=(grid=ultrafine) guess=(read,tcheck) s
 table=(opt,rrhf)
 ----------------------------------------------------------------------
 -----
 title
 -----
 Symbolic Z-matrix:
 Charge =  0 Multiplicity = 1

 SCF Done:  E(RHF) =  -285.770639260     A.U. after   15 cycles
 Normal termination of Gaussian 16 at Tue Apr  8 23:09:10 2025.
 Gaussian 16:  ES64L-G16RevC.01  3-Jul-2019

 ----------------------------------------------------------------------
 #t hf aug-cc-pvdz iop(5/13=1,5/36=2,99/5=2) pseudo=read geom=check gue
 ss=(read,tcheck) scf=(maxcycle=1)
 ----------------------------------------------------------------------
 -----
 title
 -----
 Structure from the checkpoint file:  "BDE49_expt_456_mol1.chk"
 Charge =  0 Multiplicity = 1

                         Standard orientation:
 ---------------------------------------------------------------------
 Center     Atomic      Atomic             Coordinates (Angstroms)
 Number     Number       Type             X           Y           Z
 ---------------------------------------------------------------------
      1          6           0       -1.170049   -1.200112    0.003312
      2          6           0        0.220258   -1.205810   -0.004393
      3          6           0        0.938401   -0.000000   -0.007498
      4          6           0       -1.878917    0.000000    0.007314
      5          6           0       -1.170049    1.200112    0.003312
      6          6           0        0.220258    1.205810   -0.004392
      7          1           0       -1.703062   -2.144836    0.007240
      8          1           0        0.759673   -2.147964   -0.012718
      9          1           0        0.759673    2.147964   -0.012716
     10          1           0       -2.962227    0.000000    0.013990
     11          1           0       -1.703062    2.144836    0.007240
     12          7           0        2.333050   -0.000000   -0.076073
     13          1           0        2.779119    0.836097    0.271767
     14          1           0        2.779119   -0.836094    0.271777
 ---------------------------------------------------------------------

 SCF Done:  E(RHF) =  -287.143953490     A.U. after    2 cycles

 The electronic state is 1-A.
 Alpha  occ. eigenvalues --  -15.75655 -11.51078 -11.44042 -11.42156 -11.39408
 Alpha  occ. eigenvalues --  -11.39406 -11.35346  -1.40587  -1.25966  -1.08597
 Alpha  occ. eigenvalues --   -1.04622  -0.86452  -0.84186  -0.70667  -0.66969
 Alpha  occ. eigenvalues --   -0.65902  -0.57787  -0.57353  -0.53560  -0.52509
 Alpha  occ. eigenvalues --   -0.45719  -0.43730  -0.42414  -0.32673  -0.27086
 Alpha virt. eigenvalues --    0.03511   0.04868   0.04923   0.05946   0.06173
 Alpha virt. eigenvalues --    0.07357   0.08616   0.11507   0.11641   0.12762
 Alpha virt. eigenvalues --    0.13508   0.13788   0.14506   0.14571   0.14829

 Mulliken charges:
               1
     1  C    0.084472
     2  C   -2.728903
     3  C    2.835794
     4  C   -2.635383
     5  C    0.084469
     6  C   -2.728937
     7  H    1.502174
     8  H    1.653163
     9  H    1.653162
    10  H    1.520936
    11  H    1.502175
    12  N   -3.997214
    13  H    0.627050
    14  H    0.627042
 Sum of Mulliken charges =   0.00000

 Dipole moment (field-independent basis, Debye):
    X=              1.1323    Y=              0.0000    Z=              0.7738  Tot=              1.3714

 Test job not archived.
 1\1\GINC-SE118\SP\RHF\Aug-CC-pVDZ\C6H7N1\OHZDE\08-Apr-2025\0\\#t hf au
 g-cc-pvdz iop(5/13=1,5/36=2,99/5=2) pseudo=read geom=check guess=(read
 ,tcheck) scf=(maxcycle=1)\\title\\0,1\C,0,-1.170049,-1.200112,0.003312
 \C,0,0.220258,-1.20581,-0.004393\C,0,0.938401,0.,-0.007498\C,0,-1.8789
 17,0.,0.007314\C,0,-1.170049,1.200112,0.003312\C,0,0.220258,1.20581,-0
 .004392\H,0,-1.703062,-2.144836,0.00724\H,0,0.759673,-2.147964,-0.0127
 18\H,0,0.759673,2.147964,-0.012716\H,0,-2.962227,0.,0.01399\H,0,-1.703
 062,2.144836,0.00724\N,0,2.33305,0.,-0.076073\H,0,2.779119,0.836097,0.

 Normal termination of Gaussian 16 at Tue Apr  8 23:09:14 2025.
