 Gaussian 16, Revision C.01,

 ----------------------------------------------------------------------
 #t hf aug-cc-pvdz symm=none int=(grid=ultrafine) guess=(read,tcheck) s
 table=opt
 ----------------------------------------------------------------------
 -----
 title
 -----
 Symbolic Z-matrix:
 Charge =  0 Multiplicity = 2

 SCF Done:  E(UHF) =  -653.024904762     A.U. after   18 cycles

 1\1\GINC-SE339\Stability\UHF\Aug-CC-pVDZ\C8H16P1\OHZDE\08-Apr-2025\0\\
 #t hf aug-cc-pvdz symm=none int=(grid=ultrafine) guess=(read,tcheck) s
 table=opt\\title\\0,2\P,0,0.293367,-1.64122,0.\C,0,-0.329201,-0.587454
 ,1.41624\C,0,0.107983,0.884352,1.275496\C,0,-0.389712,1.583696,0.\C,0,
 0.107983,-1.184262,2.760778\C,0,0.010641,3.064172,0.\H,0,-0.230054,-2.
 218171,2.870981\H,0,1.198174,-1.180266,2.858274\H,0,-0.303182,-0.60544
 7,3.594426\H,0,-0.375837,3.579893,0.88393\H,0,-0.375837,3.579893,-0.88
 393\C,0,0.107983,0.884352,-1.275496\C,0,-0.329201,-0.587454,-1.41624\C

 Normal termination of Gaussian 16 at Tue Apr  8 23:29:59 2025.
 Gaussian 16:  ES64L-G16RevC.01  3-Jul-2019

 ----------------------------------------------------------------------
 #t hf aug-cc-pvdz iop(5/13=1,5/36=2,99/5=2) pseudo=read geom=check gue
 ss=(read,tcheck) scf=(maxcycle=1)
 ----------------------------------------------------------------------
 -----
 title
 -----
 Structure from the checkpoint file:  "BDE49_nonexpt_1255_mol2.chk"
 Charge =  0 Multiplicity = 2

                         Standard orientation:
 ---------------------------------------------------------------------
 Center     Atomic      Atomic             Coordinates (Angstroms)
 Number     Number       Type             X           Y           Z
 ---------------------------------------------------------------------
      1         15           0        0.293367   -1.641220    0.000000
      2          6           0       -0.329201   -0.587454    1.416240
      3          6           0        0.107983    0.884352    1.275496
      4          6           0       -0.389712    1.583696   -0.000000
      5          6           0        0.107983   -1.184262    2.760778
      6          6           0        0.010641    3.064172   -0.000000
      7          1           0       -0.230054   -2.218171    2.870981
      8          1           0        1.198174   -1.180266    2.858274
      9          1           0       -0.303182   -0.605447    3.594426
     10          1           0       -0.375837    3.579893    0.883930
     11          1           0       -0.375837    3.579893   -0.883930
     12          6           0        0.107983    0.884352   -1.275496
     13          6           0       -0.329201   -0.587454   -1.416240
     14          6           0        0.107983   -1.184262   -2.760778
     15          1           0       -0.230054   -2.218171   -2.870981
     16          1           0        1.198174   -1.180266   -2.858274
     17          1           0       -0.303182   -0.605447   -3.594426
     18          1           0        1.100403    3.175745   -0.000000
     19          1           0       -1.427556   -0.619925    1.362531
     20          1           0        1.204721    0.941145    1.313496
     21          1           0       -0.255877    1.438600    2.150931
     22          1           0       -1.488453    1.532052   -0.000000
     23          1           0        1.204721    0.941145   -1.313496
     24          1           0       -0.255877    1.438600   -2.150931
     25          1           0       -1.427556   -0.619925   -1.362531
 ---------------------------------------------------------------------

 SCF Done:  E(UHF) =  -654.818891080     A.U. after    2 cycles

 The electronic state is 2-A'.
 Alpha  occ. eigenvalues -- -105.15727 -11.44140 -11.43763 -11.40944 -11.39679
 Alpha  occ. eigenvalues --  -11.38880 -11.37273 -11.36162 -11.34337  -2.73833
 Alpha  occ. eigenvalues --   -1.48828  -1.46954  -1.44896  -1.28941  -1.15385
 Alpha  occ. eigenvalues --   -1.12057  -0.99426  -0.99242  -0.86225  -0.80812
 Alpha  occ. eigenvalues --   -0.79981  -0.69082  -0.62900  -0.61153  -0.59118
 Alpha  occ. eigenvalues --   -0.56802  -0.56225  -0.55259  -0.53304  -0.52554
 Alpha  occ. eigenvalues --   -0.52367  -0.50293  -0.48732  -0.45411  -0.44488
 Alpha  occ. eigenvalues --   -0.40152  -0.39989  -0.16238  -0.05112   0.02427
 Alpha virt. eigenvalues --    0.04592   0.05020   0.05171   0.05176   0.05552
 Alpha virt. eigenvalues --    0.06130   0.06197   0.06822   0.07361   0.07399
 Alpha virt. eigenvalues --    0.07972   0.08292   0.08500   0.08616   0.09436

  Beta  occ. eigenvalues -- -105.15104 -11.44158 -11.43738 -11.41010 -11.39678
  Beta  occ. eigenvalues --  -11.38881 -11.37280 -11.36192 -11.34343  -2.71926
  Beta  occ. eigenvalues --   -1.46826  -1.45680  -1.28833  -1.21607  -1.15218
  Beta  occ. eigenvalues --   -1.11980  -0.99329  -0.99174  -0.85923  -0.80747
  Beta  occ. eigenvalues --   -0.79669  -0.67504  -0.62664  -0.60667  -0.58670
  Beta  occ. eigenvalues --   -0.56846  -0.55978  -0.55246  -0.53263  -0.52545
  Beta  occ. eigenvalues --   -0.50407  -0.50275  -0.48343  -0.45113  -0.44411
  Beta  occ. eigenvalues --   -0.40097  -0.39812  -0.17365  -0.02862
  Beta virt. eigenvalues --    0.04503   0.04994   0.05170   0.05187   0.05472
  Beta virt. eigenvalues --    0.05558   0.06200   0.06666   0.06978   0.07407
  Beta virt. eigenvalues --    0.08012   0.08245   0.08437   0.08504   0.09171

 Mulliken charges and spin densities:
               1          2
     1  P    4.524201   1.496800
     2  C   -1.471477  -0.471865
     3  C   -3.847043  -0.277628
     4  C   -0.884085   0.605613
     5  C   -4.593381  -0.186714
     6  C   -4.734811  -0.249368
     7  H    1.298974   0.035814
     8  H    1.254727   0.095906
     9  H    1.048869   0.071396
    10  H    1.191410   0.034768
    11  H    1.191410   0.034768
    12  C   -3.847043  -0.277628
    13  C   -1.471477  -0.471865
    14  C   -4.593381  -0.186714
    15  H    1.298974   0.035814
    16  H    1.254727   0.095906
    17  H    1.048869   0.071396
    18  H    1.478288  -0.148225
    19  H    1.467505  -0.025668
    20  H    1.096590   0.237887
    21  H    1.679389  -0.132576
    22  H    1.365282   0.532538
    23  H    1.096590   0.237887
    24  H    1.679389  -0.132576
    25  H    1.467505  -0.025668
 Sum of Mulliken charges =  -0.00000   1.00000

 Dipole moment (field-independent basis, Debye):
    X=              0.0917    Y=             -2.1339    Z=             -0.0000  Tot=              2.1359
                          Isotropic Fermi Contact Couplings
        Atom                 a.u.       MegaHertz       Gauss      10(-4) cm-1
     1  P(31)              0.28615     518.25042     184.92464     172.86973
     2  C(13)             -0.00213      -2.38990      -0.85277      -0.79718
     3  C(13)              0.02200      24.72677       8.82313       8.24796
     4  C(13)              0.00233       2.61863       0.93439       0.87348
     5  C(13)             -0.00092      -1.03799      -0.37038      -0.34624
     6  C(13)              0.00217       2.43662       0.86945       0.81277
     7  H(1)              -0.00025      -1.10619      -0.39472      -0.36899
     8  H(1)              -0.00018      -0.78342      -0.27954      -0.26132

 Normal termination of Gaussian 16 at Tue Apr  8 23:30:10 2025.
