 Gaussian 16, Revision C.01,

 ----------------------------------------------------------------------
 #t hf aug-cc-pvdz symm=none int=(grid=ultrafine) guess=(read,tcheck) s
 table=(opt,rrhf)
 ----------------------------------------------------------------------
 -----
 title
 -----
 Symbolic Z-matrix:
 Charge =  0 Multiplicity = 1

 SCF Done:  E(RHF) =  -1255.14259776     A.U. after   14 cycles

 1\1\GINC-SE106\Stability\RHF\Aug-CC-pVDZ\Cl1H1S2\OHZDE\09-Apr-2025\0\\
 #t hf aug-cc-pvdz symm=none int=(grid=ultrafine) guess=(read,tcheck) s
 table=(opt,rrhf)\\title\\0,1\Cl,0,-1.683895,-0.389492,-0.003626\S,0,1.
 64857,-0.39229,-0.088636\S,0,0.027235,0.846489,0.01572\H,0,1.813319,-0
 .645815,1.228308\\Version=ES64L-G16RevC.01\HF=-1255.1425978\RMSD=6.618
 e-09\Dipole=0.6181789,-0.0196862,0.3627258\Quadrupole=0.4211705,-0.201
 8339,-0.2193366,-0.9698523,1.4811883,-0.7052429\PG=Unknown\\@
 The archive entry for this job was punched.

 Normal termination of Gaussian 16 at Wed Apr  9 00:16:03 2025.
 Gaussian 16:  ES64L-G16RevC.01  3-Jul-2019

 ----------------------------------------------------------------------
 #t hf aug-cc-pvdz iop(5/13=1,5/36=2,99/5=2) pseudo=read geom=check gue
 ss=(read,tcheck) scf=(maxcycle=1)
 ----------------------------------------------------------------------
 -----
 title
 -----
 Structure from the checkpoint file:  "BDE49_nonexpt_2524_mol1.chk"
 Charge =  0 Multiplicity = 1

                         Standard orientation:
 ---------------------------------------------------------------------
 Center     Atomic      Atomic             Coordinates (Angstroms)
 Number     Number       Type             X           Y           Z
 ---------------------------------------------------------------------
      1         17           0       -1.683895   -0.389492   -0.003626
      2         16           0        1.648570   -0.392290   -0.088636
      3         16           0        0.027235    0.846489    0.015720
      4          1           0        1.813319   -0.645815    1.228308
 ---------------------------------------------------------------------

 SCF Done:  E(RHF) =  -1255.83244017     A.U. after    2 cycles

 The electronic state is 1-A.
 Alpha  occ. eigenvalues --  -99.91188 -75.77482 -75.74619 -13.16698 -13.13882
 Alpha  occ. eigenvalues --  -13.10971 -13.09879 -13.08489 -13.06013 -10.48249
 Alpha  occ. eigenvalues --   -9.67943  -9.67324  -9.67280  -8.11065  -8.08485
 Alpha  occ. eigenvalues --   -1.34622  -1.20719  -0.99127  -0.59262  -0.56241
 Alpha  occ. eigenvalues --   -0.55527  -0.51937  -0.38065  -0.31033  -0.27782
 Alpha virt. eigenvalues --    0.01989   0.02816   0.05900   0.09432   0.10043
 Alpha virt. eigenvalues --    0.12453   0.13446   0.14672   0.15173   0.16068
 Alpha virt. eigenvalues --    0.17134   0.17697   0.20720   0.21722   0.23457

 Mulliken charges:
               1
     1  Cl  -0.307537
     2  S   -0.963651
     3  S    0.045547
     4  H    1.225640
 Sum of Mulliken charges =  -0.00000

 Dipole moment (field-independent basis, Debye):
    X=              3.7291    Y=              1.6162    Z=             -0.7792  Tot=              4.1383

 Test job not archived.
 1\1\GINC-SE106\SP\RHF\Aug-CC-pVDZ\Cl1H1S2\OHZDE\09-Apr-2025\0\\#t hf a
 ug-cc-pvdz iop(5/13=1,5/36=2,99/5=2) pseudo=read geom=check guess=(rea
 d,tcheck) scf=(maxcycle=1)\\title\\0,1\Cl,0,-1.683895,-0.389492,-0.003
 626\S,0,1.64857,-0.39229,-0.088636\S,0,0.027235,0.846489,0.01572\H,0,1
 .813319,-0.645815,1.228308\\Version=ES64L-G16RevC.01\State=1-A\HF=-125
 5.8324402\RMSD=7.362e-02\Dipole=1.4671377,0.6358656,-0.3065748\Quadrup
 ole=0.4568512,1.2433297,-1.7001809,-1.8715198,-0.7912141,-0.1036004\PG
 =C01 [X(Cl1H1S2)]\\@

 Normal termination of Gaussian 16 at Wed Apr  9 00:16:05 2025.
