 Gaussian 16, Revision C.01,

 ----------------------------------------------------------------------
 #t hf aug-cc-pvdz symm=none int=(grid=ultrafine) guess=(read,tcheck) s
 table=(opt,rrhf)
 ----------------------------------------------------------------------
 -----
 title
 -----
 Symbolic Z-matrix:
 Charge =  0 Multiplicity = 1

 SCF Done:  E(RHF) =  -1208.03402975     A.U. after   13 cycles
 Normal termination of Gaussian 16 at Wed Apr  9 00:06:36 2025.
 Gaussian 16:  ES64L-G16RevC.01  3-Jul-2019

 ----------------------------------------------------------------------
 #t hf aug-cc-pvdz iop(5/13=1,5/36=2,99/5=2) pseudo=read geom=check gue
 ss=(read,tcheck) scf=(maxcycle=1)
 ----------------------------------------------------------------------
 -----
 title
 -----
 Structure from the checkpoint file:  "BDE49_nonexpt_223_mol1.chk"
 Charge =  0 Multiplicity = 1

                         Standard orientation:
 ---------------------------------------------------------------------
 Center     Atomic      Atomic             Coordinates (Angstroms)
 Number     Number       Type             X           Y           Z
 ---------------------------------------------------------------------
      1         17           0       -1.391525    1.514229   -0.007958
      2          5           0       -0.505068    0.000000   -0.019594
      3         17           0       -1.391526   -1.514228   -0.007957
      4          6           0        1.106611    0.000000   -0.021543
      5          8           0        1.664444   -1.092831   -0.693110
      6          1           0        1.298410   -1.891592   -0.297368
      7          8           0        1.444636   -0.000007    1.348602
      8          1           0        2.412504   -0.000005    1.393371
      9          8           0        1.664447    1.092836   -0.693100
     10          1           0        1.298408    1.891593   -0.297357
 ---------------------------------------------------------------------

 SCF Done:  E(RHF) =  -1209.71226121     A.U. after    2 cycles

 The electronic state is 1-A.
 Alpha  occ. eigenvalues --  -99.92026 -99.92010 -21.09934 -21.09548 -21.09526
 Alpha  occ. eigenvalues --  -11.48673 -10.49430 -10.49206  -9.69393  -9.69190
 Alpha  occ. eigenvalues --   -9.68860  -9.68843  -9.68711  -9.68585  -7.73173
 Alpha  occ. eigenvalues --   -1.87160  -1.68596  -1.67218  -1.41680  -1.31852
 Alpha  occ. eigenvalues --   -0.97249  -0.81521  -0.73586  -0.66841  -0.65643
 Alpha  occ. eigenvalues --   -0.59252  -0.57659  -0.56179  -0.54492  -0.53948
 Alpha  occ. eigenvalues --   -0.52770  -0.50310  -0.39298  -0.38968  -0.32849
 Alpha  occ. eigenvalues --   -0.31784
 Alpha virt. eigenvalues --    0.03508   0.04005   0.04164   0.04547   0.04735
 Alpha virt. eigenvalues --    0.06657   0.08299   0.09790   0.10777   0.12816
 Alpha virt. eigenvalues --    0.13194   0.15253   0.15352   0.16277   0.16582

 Mulliken charges:
               1
     1  Cl  -1.251150
     2  B    3.317317
     3  Cl  -1.251151
     4  C    6.165698
     5  O   -3.094029
     6  H    0.737944
     7  O   -2.769391
     8  H    0.500851
     9  O   -3.094034
    10  H    0.737945
 Sum of Mulliken charges =   0.00000

 Dipole moment (field-independent basis, Debye):
    X=              0.6870    Y=              0.0000    Z=              0.3262  Tot=              0.7605

 Test job not archived.
 1\1\GINC-SE435\SP\RHF\Aug-CC-pVDZ\C1H3B1Cl2O3\OHZDE\09-Apr-2025\0\\#t
 hf aug-cc-pvdz iop(5/13=1,5/36=2,99/5=2) pseudo=read geom=check guess=
 (read,tcheck) scf=(maxcycle=1)\\title\\0,1\Cl,0,-1.391526,1.514228,-0.
 007958\B,0,-0.505068,0.,-0.019594\Cl,0,-1.391525,-1.514229,-0.007957\C
 ,0,1.106611,0.000001,-0.021543\O,0,1.664445,-1.09283,-0.69311\H,0,1.29
 8411,-1.891591,-0.297368\O,0,1.444636,-0.000006,1.348602\H,0,2.412504,
 -0.000003,1.393371\O,0,1.664446,1.092837,-0.6931\H,0,1.298407,1.891594
 ,-0.297357\\Version=ES64L-G16RevC.01\State=1-A\HF=-1209.7122612\RMSD=5

 Normal termination of Gaussian 16 at Wed Apr  9 00:06:39 2025.
