 Gaussian 16, Revision C.01,

 ----------------------------------------------------------------------
 #t hf aug-cc-pvdz symm=none int=(grid=ultrafine) guess=(read,tcheck) s
 table=(opt,rrhf)
 ----------------------------------------------------------------------
 -----
 title
 -----
 Symbolic Z-matrix:
 Charge =  0 Multiplicity = 1

 SCF Done:  E(RHF) =  -860.522256651     A.U. after   13 cycles
 Normal termination of Gaussian 16 at Tue Apr  8 23:43:38 2025.
 Gaussian 16:  ES64L-G16RevC.01  3-Jul-2019

 ----------------------------------------------------------------------
 #t hf aug-cc-pvdz iop(5/13=1,5/36=2,99/5=2) pseudo=read geom=check gue
 ss=(read,tcheck) scf=(maxcycle=1)
 ----------------------------------------------------------------------
 -----
 title
 -----
 Structure from the checkpoint file:  "BDE49_nonexpt_1690_mol1.chk"
 Charge =  0 Multiplicity = 1

                         Standard orientation:
 ---------------------------------------------------------------------
 Center     Atomic      Atomic             Coordinates (Angstroms)
 Number     Number       Type             X           Y           Z
 ---------------------------------------------------------------------
      1         15           0       -1.394070   -0.811563   -0.176516
      2          6           0       -2.411680    0.739351    0.091627
      3          1           0       -2.115329    1.573194   -0.545424
      4          1           0       -2.309117    1.042836    1.135343
      5          1           0       -3.463269    0.510542   -0.090564
      6         14           0        0.721615   -0.009659    0.041839
      7          6           0        1.200149    1.493961   -0.935395
      8          1           0        0.600923    2.360975   -0.648152
      9          1           0        1.074567    1.320394   -2.006505
     10          1           0        2.251288    1.731398   -0.747144
     11          8           0        1.737349   -1.224147   -0.438040
     12          1           0       -1.388327   -0.830852   -1.595263
     13          1           0        1.509105   -2.130942   -0.220990
     14          8           0        0.916303    0.417799    1.629480
     15          1           0        0.688569   -0.217967    2.311777
 ---------------------------------------------------------------------

 SCF Done:  E(RHF) =  -861.916366878     A.U. after    2 cycles

 The electronic state is 1-A.
 Alpha  occ. eigenvalues -- -105.15894 -76.23897 -21.07292 -21.07234 -11.37699
 Alpha  occ. eigenvalues --  -11.34659  -5.58353  -2.73428  -2.26036  -2.22678
 Alpha  occ. eigenvalues --   -2.20047  -1.67891  -1.63736  -1.45496  -1.43675
 Alpha  occ. eigenvalues --   -1.41402  -1.03640  -1.00633  -0.72409  -0.66366
 Alpha  occ. eigenvalues --   -0.61305  -0.56891  -0.56416  -0.55500  -0.54451
 Alpha  occ. eigenvalues --   -0.49225  -0.45577  -0.41420  -0.40951  -0.35398
 Alpha  occ. eigenvalues --   -0.23474  -0.12330  -0.02205
 Alpha virt. eigenvalues --    0.03624   0.04851   0.06085   0.06204   0.06706
 Alpha virt. eigenvalues --    0.06853   0.07424   0.07751   0.07977   0.09288
 Alpha virt. eigenvalues --    0.09678   0.10199   0.11427   0.11578   0.13076

 Mulliken charges:
               1
     1  P    1.997842
     2  C   -5.603993
     3  H    1.325688
     4  H    1.269672
     5  H    1.245205
     6  Si   6.249669
     7  C   -5.354684
     8  H    1.299211
     9  H    1.231238
    10  H    1.359843
    11  O   -3.150070
    12  H   -0.987453
    13  H    1.189152
    14  O   -3.177242
    15  H    1.105922
 Sum of Mulliken charges =  -0.00000

 Dipole moment (field-independent basis, Debye):
    X=             -2.5012    Y=             -1.9078    Z=              1.5742  Tot=              3.5176

 Test job not archived.
 1\1\GINC-SE403\SP\RHF\Aug-CC-pVDZ\C2H9O2P1Si1\OHZDE\08-Apr-2025\0\\#t
 hf aug-cc-pvdz iop(5/13=1,5/36=2,99/5=2) pseudo=read geom=check guess=
 (read,tcheck) scf=(maxcycle=1)\\title\\0,1\P,0,-1.39407,-0.811563,-0.1
 76516\C,0,-2.41168,0.739351,0.091627\H,0,-2.115329,1.573194,-0.545424\
 H,0,-2.309117,1.042836,1.135343\H,0,-3.463269,0.510542,-0.090564\Si,0,
 0.721615,-0.009659,0.041839\C,0,1.200149,1.493961,-0.935395\H,0,0.6009
 23,2.360975,-0.648152\H,0,1.074567,1.320394,-2.006505\H,0,2.251288,1.7
 31398,-0.747144\O,0,1.737349,-1.224147,-0.43804\H,0,-1.388327,-0.83085

 Normal termination of Gaussian 16 at Tue Apr  8 23:43:44 2025.
