 Gaussian 16, Revision C.01,

 ----------------------------------------------------------------------
 #t hf aug-cc-pvdz symm=none int=(grid=ultrafine) guess=(read,tcheck) s
 table=(opt,rrhf)
 ----------------------------------------------------------------------
 -----
 title
 -----
 Symbolic Z-matrix:
 Charge =  0 Multiplicity = 1

 SCF Done:  E(RHF) =  -859.715491676     A.U. after   14 cycles
 Normal termination of Gaussian 16 at Wed Apr  9 00:12:12 2025.
 Gaussian 16:  ES64L-G16RevC.01  3-Jul-2019

 ----------------------------------------------------------------------
 #t hf aug-cc-pvdz iop(5/13=1,5/36=2,99/5=2) pseudo=read geom=check gue
 ss=(read,tcheck) scf=(maxcycle=1)
 ----------------------------------------------------------------------
 -----
 title
 -----
 Structure from the checkpoint file:  "BDE49_nonexpt_2399_mol1.chk"
 Charge =  0 Multiplicity = 1

                         Standard orientation:
 ---------------------------------------------------------------------
 Center     Atomic      Atomic             Coordinates (Angstroms)
 Number     Number       Type             X           Y           Z
 ---------------------------------------------------------------------
      1         14           0       -2.138083   -0.690999   -0.226215
      2         14           0       -0.673773    1.097596    0.244694
      3          1           0       -3.497366   -0.131970   -0.425505
      4          1           0       -2.165588   -1.659769    0.889359
      5          1           0       -1.703870   -1.360452   -1.473937
      6          8           0        0.916671    0.860068   -0.411689
      7          1           0       -0.543256    1.385044    1.687886
      8          1           0       -1.022642    2.331502   -0.488210
      9          7           0        1.607856   -0.275233    0.010548
     10          8           0        1.009087   -0.998487    0.789863
     11          8           0        2.704707   -0.402842   -0.443441
 ---------------------------------------------------------------------

 SCF Done:  E(RHF) =  -861.176961698     A.U. after    2 cycles

 The electronic state is 1-A.
 Alpha  occ. eigenvalues --  -76.27275 -76.23495 -21.13672 -21.13536 -21.12480
 Alpha  occ. eigenvalues --  -16.06828  -5.60665  -5.56904  -2.25991  -2.22587
 Alpha  occ. eigenvalues --   -2.21735  -2.19021  -2.18977  -2.17983  -2.08682
 Alpha  occ. eigenvalues --   -1.74783  -1.72933  -0.94975  -0.81327  -0.75736
 Alpha  occ. eigenvalues --   -0.73525  -0.70449  -0.66902  -0.52141  -0.50145
 Alpha  occ. eigenvalues --   -0.48284  -0.47905  -0.43465  -0.38379  -0.36493
 Alpha  occ. eigenvalues --   -0.34755  -0.32477
 Alpha virt. eigenvalues --    0.03930   0.04185   0.05270   0.06403   0.07097
 Alpha virt. eigenvalues --    0.07721   0.07904   0.08797   0.09275   0.09430
 Alpha virt. eigenvalues --    0.09795   0.12051   0.12864   0.13279   0.14398

 Mulliken charges:
               1
     1  Si   4.400740
     2  Si   5.043016
     3  H   -1.514758
     4  H   -1.527293
     5  H   -1.488010
     6  O   -2.807150
     7  H   -1.765777
     8  H   -1.736389
     9  N    6.521729
    10  O   -2.430721
    11  O   -2.695387
 Sum of Mulliken charges =   0.00000

 Dipole moment (field-independent basis, Debye):
    X=             -1.1910    Y=              0.5370    Z=             -0.2019  Tot=              1.3219

 Test job not archived.
 1\1\GINC-SE322\SP\RHF\Aug-CC-pVDZ\H5N1O3Si2\OHZDE\09-Apr-2025\0\\#t hf
  aug-cc-pvdz iop(5/13=1,5/36=2,99/5=2) pseudo=read geom=check guess=(r
 ead,tcheck) scf=(maxcycle=1)\\title\\0,1\Si,0,-2.138083,-0.690999,-0.2
 26215\Si,0,-0.673773,1.097596,0.244694\H,0,-3.497366,-0.13197,-0.42550
 5\H,0,-2.165588,-1.659769,0.889359\H,0,-1.70387,-1.360452,-1.473937\O,
 0,0.916671,0.860068,-0.411689\H,0,-0.543256,1.385044,1.687886\H,0,-1.0
 22642,2.331502,-0.48821\N,0,1.607856,-0.275233,0.010548\O,0,1.009087,-
 0.998487,0.789863\O,0,2.704707,-0.402842,-0.443441\\Version=ES64L-G16R

 Normal termination of Gaussian 16 at Wed Apr  9 00:12:16 2025.
