 Gaussian 16, Revision C.01,

 ----------------------------------------------------------------------
 #t hf aug-cc-pvdz symm=none int=(grid=ultrafine) guess=(read,tcheck) s
 table=(opt,rrhf)
 ----------------------------------------------------------------------
 -----
 title
 -----
 Symbolic Z-matrix:
 Charge =  0 Multiplicity = 1

 SCF Done:  E(RHF) =  -587.609590608     A.U. after   20 cycles
 Normal termination of Gaussian 16 at Tue Apr  8 23:53:25 2025.
 Gaussian 16:  ES64L-G16RevC.01  3-Jul-2019

 ----------------------------------------------------------------------
 #t hf aug-cc-pvdz iop(5/13=1,5/36=2,99/5=2) pseudo=read geom=check gue
 ss=(read,tcheck) scf=(maxcycle=1)
 ----------------------------------------------------------------------
 -----
 title
 -----
 Structure from the checkpoint file:  "BDE49_nonexpt_1921_mol1.chk"
 Charge =  0 Multiplicity = 1

                         Standard orientation:
 ---------------------------------------------------------------------
 Center     Atomic      Atomic             Coordinates (Angstroms)
 Number     Number       Type             X           Y           Z
 ---------------------------------------------------------------------
      1          6           0        0.715334   -0.602115    0.217396
      2         14           0       -0.492025    0.845326   -0.000983
      3          7           0       -2.253167    0.190534    0.033905
      4          8           0       -2.362958   -1.011404   -0.040788
      5          1           0       -0.377978    1.485017   -1.326816
      6          1           0       -0.412730    1.844354    1.082435
      7          7           0        1.962231   -0.308628   -0.510894
      8          8           0        2.899445   -0.046841    0.202259
      9          1           0        0.224677   -1.450780   -0.274329
     10          1           0        0.907037   -0.807847    1.275244
 ---------------------------------------------------------------------

 SCF Done:  E(RHF) =  -589.017415738     A.U. after    2 cycles

 The electronic state is 1-A.
 Alpha  occ. eigenvalues --  -76.26960 -21.14705 -21.13335 -15.87825 -15.85083
 Alpha  occ. eigenvalues --  -11.40795  -5.60654  -2.24805  -2.23632  -2.22726
 Alpha  occ. eigenvalues --   -1.86931  -1.85551  -1.19808  -1.02425  -0.89128
 Alpha  occ. eigenvalues --   -0.75781  -0.67914  -0.62356  -0.59790  -0.57944
 Alpha  occ. eigenvalues --   -0.54924  -0.53963  -0.50856  -0.49197  -0.43031
 Alpha  occ. eigenvalues --   -0.29355  -0.26079
 Alpha virt. eigenvalues --    0.04060   0.04813   0.05740   0.06202   0.07041
 Alpha virt. eigenvalues --    0.07339   0.09261   0.09819   0.11356   0.12114
 Alpha virt. eigenvalues --    0.12250   0.13840   0.14036   0.15395   0.15937

 Mulliken charges:
               1
     1  C   -3.217944
     2  Si   5.590089
     3  N    0.410736
     4  O   -1.474691
     5  H   -1.741189
     6  H   -1.729816
     7  N    1.037677
     8  O   -1.967138
     9  H    1.548401
    10  H    1.543875
 Sum of Mulliken charges =  -0.00000

 Dipole moment (field-independent basis, Debye):
    X=              0.5067    Y=             -0.5861    Z=              0.9419  Tot=              1.2196

 Test job not archived.
 1\1\GINC-SE247\SP\RHF\Aug-CC-pVDZ\C1H4N2O2Si1\OHZDE\08-Apr-2025\0\\#t
 hf aug-cc-pvdz iop(5/13=1,5/36=2,99/5=2) pseudo=read geom=check guess=
 (read,tcheck) scf=(maxcycle=1)\\title\\0,1\C,0,-0.715334,-0.602115,-0.
 217396\Si,0,0.492025,0.845326,0.000983\N,0,2.253167,0.190534,-0.033905
 \O,0,2.362958,-1.011404,0.040788\H,0,0.377978,1.485017,1.326816\H,0,0.
 41273,1.844354,-1.082435\N,0,-1.962231,-0.308628,0.510894\O,0,-2.89944
 5,-0.046841,-0.202259\H,0,-0.224677,-1.45078,0.274329\H,0,-0.907037,-0
 .807847,-1.275244\\Version=ES64L-G16RevC.01\State=1-A\HF=-589.0174157\

 Normal termination of Gaussian 16 at Tue Apr  8 23:53:28 2025.
