 Gaussian 16, Revision C.01,

 ----------------------------------------------------------------------
 #t hf aug-cc-pvdz symm=none int=(grid=ultrafine) guess=(read,tcheck) s
 table=(opt,rrhf)
 ----------------------------------------------------------------------
 -----
 title
 -----
 Symbolic Z-matrix:
 Charge =  0 Multiplicity = 1

 SCF Done:  E(RHF) =  -1032.83668026     A.U. after   14 cycles
 Normal termination of Gaussian 16 at Tue Apr  8 23:17:49 2025.
 Gaussian 16:  ES64L-G16RevC.01  3-Jul-2019

 ----------------------------------------------------------------------
 #t hf aug-cc-pvdz iop(5/13=1,5/36=2,99/5=2) pseudo=read geom=check gue
 ss=(read,tcheck) scf=(maxcycle=1)
 ----------------------------------------------------------------------
 -----
 title
 -----
 Structure from the checkpoint file:  "BDE49_nonexpt_1024_mol1.chk"
 Charge =  0 Multiplicity = 1

                         Standard orientation:
 ---------------------------------------------------------------------
 Center     Atomic      Atomic             Coordinates (Angstroms)
 Number     Number       Type             X           Y           Z
 ---------------------------------------------------------------------
      1         17           0        1.702964   -0.420436    0.066709
      2          8           0        0.616093    0.846555   -0.435147
      3          6           0       -0.542350    0.882780    0.327182
      4         17           0       -1.720773   -0.444952   -0.061931
      5          1           0       -1.018953    1.819231    0.039625
      6          1           0       -0.352925    0.823258    1.397231
 ---------------------------------------------------------------------

 SCF Done:  E(RHF) =  -1033.81983410     A.U. after    2 cycles

 The electronic state is 1-A.
 Alpha  occ. eigenvalues --  -99.95430 -99.89206 -21.14590 -11.49148 -10.52162
 Alpha  occ. eigenvalues --  -10.46499  -9.71998  -9.71176  -9.71069  -9.66270
 Alpha  occ. eigenvalues --   -9.65599  -9.65579  -1.82071  -1.32668  -1.26390
 Alpha  occ. eigenvalues --   -0.97946  -0.72824  -0.67641  -0.65184  -0.57927
 Alpha  occ. eigenvalues --   -0.56672  -0.52052  -0.49751  -0.46068  -0.38299
 Alpha virt. eigenvalues --    0.02199   0.03372   0.05814   0.06955   0.08747
 Alpha virt. eigenvalues --    0.10665   0.13310   0.13511   0.14229   0.15095
 Alpha virt. eigenvalues --    0.16058   0.17728   0.18727   0.19371   0.20858

 Mulliken charges:
               1
     1  Cl   0.593659
     2  O   -1.755174
     3  C   -1.969342
     4  Cl   0.077557
     5  H    1.387386
     6  H    1.665914
 Sum of Mulliken charges =   0.00000

 Dipole moment (field-independent basis, Debye):
    X=             -0.1638    Y=              2.7942    Z=              0.3588  Tot=              2.8219

 Test job not archived.
 1\1\GINC-SE177\SP\RHF\Aug-CC-pVDZ\C1H2Cl2O1\OHZDE\08-Apr-2025\0\\#t hf
  aug-cc-pvdz iop(5/13=1,5/36=2,99/5=2) pseudo=read geom=check guess=(r
 ead,tcheck) scf=(maxcycle=1)\\title\\0,1\Cl,0,1.702964,-0.420436,0.066
 709\O,0,0.616093,0.846555,-0.435147\C,0,-0.54235,0.88278,0.327182\Cl,0
 ,-1.720773,-0.444952,-0.061931\H,0,-1.018953,1.819231,0.039625\H,0,-0.
 352925,0.823258,1.397231\\Version=ES64L-G16RevC.01\State=1-A\HF=-1033.
 8198341\RMSD=4.992e-02\Dipole=-0.0644509,1.0993309,0.1411467\Quadrupol
 e=-2.4939783,2.6755006,-0.1815223,-1.4758151,0.0069786,0.1363208\PG=C0

 Normal termination of Gaussian 16 at Tue Apr  8 23:17:52 2025.
