 Gaussian 16, Revision C.01,

 ----------------------------------------------------------------------
 #t hf aug-cc-pvdz symm=none int=(grid=ultrafine) guess=(read,tcheck) s
 table=(opt,rrhf)
 ----------------------------------------------------------------------
 -----
 title
 -----
 Symbolic Z-matrix:
 Charge =  0 Multiplicity = 1

 SCF Done:  E(RHF) =  -853.654955316     A.U. after   16 cycles
 Normal termination of Gaussian 16 at Tue Apr  8 22:40:31 2025.
 Gaussian 16:  ES64L-G16RevC.01  3-Jul-2019

 ----------------------------------------------------------------------
 #t hf aug-cc-pvdz iop(5/13=1,5/36=2,99/5=2) pseudo=read geom=check gue
 ss=(read,tcheck) scf=(maxcycle=1)
 ----------------------------------------------------------------------
 -----
 title
 -----
 Structure from the checkpoint file:  "BDE49_expt_1237_mol1.chk"
 Charge =  0 Multiplicity = 1

                         Standard orientation:
 ---------------------------------------------------------------------
 Center     Atomic      Atomic             Coordinates (Angstroms)
 Number     Number       Type             X           Y           Z
 ---------------------------------------------------------------------
      1          6           0        1.587329    0.336184    0.000000
      2          6           0        1.217745   -1.004485    0.000000
      3          6           0       -0.128851   -1.338246    0.000000
      4          6           0        0.618135    1.337523    0.000000
      5          6           0       -0.726660    0.999112    0.000000
      6          6           0       -1.124394   -0.349489    0.000000
      7          9           0        2.872824    0.666790    0.000000
      8          9           0        2.155592   -1.952089    0.000000
      9          9           0       -0.458940   -2.624915    0.000000
     10          9           0        0.996160    2.616543    0.000000
     11          9           0       -1.613582    1.986507    0.000000
     12          7           0       -2.484009   -0.854546    0.000000
     13          8           0       -3.355029   -0.017161   -0.000001
 ---------------------------------------------------------------------

 SCF Done:  E(RHF) =  -856.875767281     A.U. after    2 cycles

 The electronic state is 1-A.
 Alpha  occ. eigenvalues --  -29.35112 -29.34317 -29.34062 -29.34040 -29.33965
 Alpha  occ. eigenvalues --  -21.15252 -15.89915 -11.63374 -11.57291 -11.56383
 Alpha  occ. eigenvalues --  -11.54006 -11.51964 -11.47952  -1.88855  -1.50092
 Alpha  occ. eigenvalues --   -1.31388  -1.30363  -1.14936  -1.10952  -1.00476
 Alpha  occ. eigenvalues --   -0.94222  -0.84491  -0.79165  -0.78731  -0.72863
 Alpha  occ. eigenvalues --   -0.69876  -0.67160  -0.63579  -0.59561  -0.58385
 Alpha  occ. eigenvalues --   -0.55588  -0.50466  -0.45947  -0.45781  -0.44291
 Alpha  occ. eigenvalues --   -0.43932  -0.43029  -0.41622  -0.40122  -0.37640
 Alpha  occ. eigenvalues --   -0.33207  -0.33117  -0.32343  -0.31928  -0.29554
 Alpha  occ. eigenvalues --   -0.26079  -0.24810  -0.20606
 Alpha virt. eigenvalues --    0.06715   0.07484   0.10079   0.10235   0.10667
 Alpha virt. eigenvalues --    0.11051   0.11232   0.11285   0.11512   0.12053
 Alpha virt. eigenvalues --    0.12187   0.13416   0.13801   0.14270   0.14500

 Mulliken charges:
               1
     1  C    0.404596
     2  C   -1.343848
     3  C    2.485290
     4  C   -1.848199
     5  C    1.829954
     6  C   -5.369466
     7  F    1.112121
     8  F    1.226561
     9  F    1.065556
    10  F    1.186309
    11  F    1.232536
    12  N    0.296776
    13  O   -2.278187
 Sum of Mulliken charges =   0.00000

 Dipole moment (field-independent basis, Debye):
    X=              3.7575    Y=              1.6998    Z=             -0.0000  Tot=              4.1240

 Test job not archived.
 1\1\GINC-SE365\SP\RHF\Aug-CC-pVDZ\C6F5N1O1\OHZDE\08-Apr-2025\0\\#t hf
 aug-cc-pvdz iop(5/13=1,5/36=2,99/5=2) pseudo=read geom=check guess=(re
 ad,tcheck) scf=(maxcycle=1)\\title\\0,1\C,0,-1.587329,0.336184,0.\C,0,
 -1.217745,-1.004485,0.\C,0,0.128851,-1.338246,0.\C,0,-0.618135,1.33752
 3,0.\C,0,0.72666,0.999112,0.\C,0,1.124394,-0.349489,0.\F,0,-2.872824,0
 .66679,0.\F,0,-2.155592,-1.952089,0.\F,0,0.45894,-2.624915,0.\F,0,-0.9
 9616,2.616543,0.\F,0,1.613582,1.986507,0.\N,0,2.484009,-0.854546,0.\O,
 0,3.355029,-0.017161,0.000001\\Version=ES64L-G16RevC.01\State=1-A\HF=-

 Normal termination of Gaussian 16 at Tue Apr  8 22:40:37 2025.
