 Gaussian 16, Revision C.01,

 ----------------------------------------------------------------------
 #t hf aug-cc-pvdz symm=none int=(grid=ultrafine) guess=(read,tcheck) s
 table=opt
 ----------------------------------------------------------------------
 -----
 title
 -----
 Symbolic Z-matrix:
 Charge =  0 Multiplicity = 2

 SCF Done:  E(UHF) =  -200.895263964     A.U. after   18 cycles
 Normal termination of Gaussian 16 at Tue Apr  8 23:34:03 2025.
 Gaussian 16:  ES64L-G16RevC.01  3-Jul-2019

 ----------------------------------------------------------------------
 #t hf aug-cc-pvdz iop(5/13=1,5/36=2,99/5=2) pseudo=read geom=check gue
 ss=(read,tcheck) scf=(maxcycle=1)
 ----------------------------------------------------------------------
 -----
 title
 -----
 Structure from the checkpoint file:  "BDE49_nonexpt_144_mol2.chk"
 Charge =  0 Multiplicity = 2

                         Standard orientation:
 ---------------------------------------------------------------------
 Center     Atomic      Atomic             Coordinates (Angstroms)
 Number     Number       Type             X           Y           Z
 ---------------------------------------------------------------------
      1          5           0        1.723044   -0.101320   -0.091314
      2          5           0        0.080691   -0.013098   -0.002472
      3          8           0       -0.644672    1.161260    0.012099
      4          1           0       -0.118357    1.963505   -0.014533
      5          8           0       -0.624281   -1.186600    0.007388
      6          1           0       -1.575991   -1.029738    0.009285
      7          1           0        2.827296   -0.158956    0.318288
 ---------------------------------------------------------------------

 SCF Done:  E(UHF) =  -201.700567132     A.U. after    2 cycles

 The electronic state is 2-A.
 Alpha  occ. eigenvalues --  -21.06506 -21.05237  -7.63069  -7.62673  -1.80999
 Alpha  occ. eigenvalues --   -1.64931  -0.86249  -0.71323  -0.62803  -0.55746
 Alpha  occ. eigenvalues --   -0.49098  -0.43168  -0.38798  -0.36559  -0.27476
 Alpha virt. eigenvalues --    0.01176   0.02654   0.04225   0.04649   0.07963
 Alpha virt. eigenvalues --    0.08513   0.09569   0.10019   0.10443   0.10759
 Alpha virt. eigenvalues --    0.12175   0.13561   0.19760   0.20730   0.22078

  Beta  occ. eigenvalues --  -21.06413 -21.05125  -7.62776  -7.61658  -1.80766
  Beta  occ. eigenvalues --   -1.64712  -0.81529  -0.69837  -0.62543  -0.55549
  Beta  occ. eigenvalues --   -0.47300  -0.43019  -0.37984  -0.35758
  Beta virt. eigenvalues --    0.01601   0.02608   0.03120   0.04741   0.08118
  Beta virt. eigenvalues --    0.08658   0.08912   0.10212   0.10647   0.11012
  Beta virt. eigenvalues --    0.11257   0.12359   0.14264   0.20056   0.22146

 Mulliken charges and spin densities:
               1          2
     1  B   -2.326835   0.988686
     2  B    7.221022  -0.026353
     3  O   -3.299612   0.048192
     4  H    1.277303  -0.003984
     5  O   -3.463478   0.051875
     6  H    1.253626   0.002382
     7  H   -0.662027  -0.060797
 Sum of Mulliken charges =  -0.00000   1.00000

 Dipole moment (field-independent basis, Debye):
    X=             -0.0792    Y=              1.0903    Z=              0.3716  Tot=              1.1546
                          Isotropic Fermi Contact Couplings
        Atom                 a.u.       MegaHertz       Gauss      10(-4) cm-1
     1  B(11)              0.07530     108.00502      38.53888      36.02660
     2  B(11)             -0.02077     -29.79150     -10.63035      -9.93737
     3  O(17)              0.00522      -3.16666      -1.12994      -1.05628
     4  H(1)              -0.00046      -2.03605      -0.72651      -0.67915
     5  O(17)              0.00226      -1.36747      -0.48795      -0.45614
     6  H(1)              -0.00086      -3.85148      -1.37430      -1.28472
     7  H(1)              -0.01471     -65.76893     -23.46799     -21.93815
 --------------------------------------------------------

 Normal termination of Gaussian 16 at Tue Apr  8 23:34:05 2025.
