 Gaussian 16, Revision C.01,

 ----------------------------------------------------------------------
 #t hf aug-cc-pvdz symm=none int=(grid=ultrafine) guess=(read,tcheck) s
 table=opt
 ----------------------------------------------------------------------
 -----
 title
 -----
 Symbolic Z-matrix:
 Charge =  0 Multiplicity = 2

 SCF Done:  E(UHF) =  -1307.52155482     A.U. after   14 cycles
 Normal termination of Gaussian 16 at Tue Apr  8 23:49:22 2025.
 Gaussian 16:  ES64L-G16RevC.01  3-Jul-2019

 ----------------------------------------------------------------------
 #t hf aug-cc-pvdz iop(5/13=1,5/36=2,99/5=2) pseudo=read geom=check gue
 ss=(read,tcheck) scf=(maxcycle=1)
 ----------------------------------------------------------------------
 -----
 title
 -----
 Structure from the checkpoint file:  "BDE49_nonexpt_1823_mol2.chk"
 Charge =  0 Multiplicity = 2

                         Standard orientation:
 ---------------------------------------------------------------------
 Center     Atomic      Atomic             Coordinates (Angstroms)
 Number     Number       Type             X           Y           Z
 ---------------------------------------------------------------------
      1         14           0        0.000006    0.391836    0.462110
      2         17           0        1.699479   -0.637070   -0.109860
      3          9           0       -0.000108    1.797334   -0.303825
      4         17           0       -1.699427   -0.637149   -0.109852
 ---------------------------------------------------------------------

 SCF Done:  E(UHF) =  -1308.47124927     A.U. after    2 cycles

 The electronic state is 2-A.
 Alpha  occ. eigenvalues --  -99.91717 -99.91716 -76.36201 -29.30747 -10.49182
 Alpha  occ. eigenvalues --  -10.49136  -9.69154  -9.69142  -9.68312  -9.68259
 Alpha  occ. eigenvalues --   -9.68246  -9.68217  -5.70499  -2.33892  -2.31328
 Alpha  occ. eigenvalues --   -2.29151  -1.34063  -1.31458  -0.90243  -0.67095
 Alpha  occ. eigenvalues --   -0.63033  -0.59302  -0.56861  -0.56370  -0.54087
 Alpha  occ. eigenvalues --   -0.43889  -0.37557  -0.37258  -0.29205
 Alpha virt. eigenvalues --    0.05398   0.05406   0.05550   0.08167   0.10001
 Alpha virt. eigenvalues --    0.12189   0.12801   0.13321   0.14389   0.14701
 Alpha virt. eigenvalues --    0.15553   0.16488   0.17927   0.20312   0.22837

  Beta  occ. eigenvalues --  -99.91564 -99.91563 -76.35558 -29.30435 -10.49012
  Beta  occ. eigenvalues --  -10.48966  -9.68675  -9.68671  -9.68226  -9.68141
  Beta  occ. eigenvalues --   -9.68024  -9.67991  -5.69384  -2.33160  -2.30688
  Beta  occ. eigenvalues --   -2.25952  -1.32704  -1.30185  -0.86977  -0.65614
  Beta  occ. eigenvalues --   -0.61232  -0.57705  -0.56404  -0.55361  -0.53814
  Beta  occ. eigenvalues --   -0.38744  -0.37244  -0.36956
  Beta virt. eigenvalues --    0.00417   0.05656   0.05767   0.07115   0.08519
  Beta virt. eigenvalues --    0.10853   0.12277   0.13990   0.14778   0.15479
  Beta virt. eigenvalues --    0.15851   0.16014   0.16854   0.18093   0.20624

 Mulliken charges and spin densities:
               1          2
     1  Si   2.086940   0.875059
     2  Cl  -0.719104   0.067990
     3  F   -0.648745  -0.011034
     4  Cl  -0.719091   0.067985
 Sum of Mulliken charges =  -0.00000   1.00000

 Dipole moment (field-independent basis, Debye):
    X=             -0.0001    Y=              3.5253    Z=             -0.1082  Tot=              3.5269
                          Isotropic Fermi Contact Couplings
        Atom                 a.u.       MegaHertz       Gauss      10(-4) cm-1
     1  Si(29)             0.88093    -782.90401    -279.35962    -261.14867
     2  Cl(35)             0.11737      51.46035      18.36233      17.16532
     3  F(19)              0.06295     264.85761      94.50778      88.34699
     4  Cl(35)             0.11735      51.45537      18.36056      17.16367
 --------------------------------------------------------
       Center         ----  Spin Dipole Couplings  ----
                      3XX-RR        3YY-RR        3ZZ-RR
 --------------------------------------------------------

 Normal termination of Gaussian 16 at Tue Apr  8 23:49:24 2025.
