 Gaussian 16, Revision C.01,

 ----------------------------------------------------------------------
 #t hf aug-cc-pvdz symm=none int=(grid=ultrafine) guess=(read,tcheck) s
 table=(opt,rrhf)
 ----------------------------------------------------------------------
 -----
 title
 -----
 Symbolic Z-matrix:
 Charge =  0 Multiplicity = 1

 SCF Done:  E(RHF) =  -672.716788858     A.U. after   14 cycles
 Normal termination of Gaussian 16 at Tue Apr  8 23:20:51 2025.
 Gaussian 16:  ES64L-G16RevC.01  3-Jul-2019

 ----------------------------------------------------------------------
 #t hf aug-cc-pvdz iop(5/13=1,5/36=2,99/5=2) pseudo=read geom=check gue
 ss=(read,tcheck) scf=(maxcycle=1)
 ----------------------------------------------------------------------
 -----
 title
 -----
 Structure from the checkpoint file:  "BDE49_nonexpt_1116_mol1.chk"
 Charge =  0 Multiplicity = 1

                         Standard orientation:
 ---------------------------------------------------------------------
 Center     Atomic      Atomic             Coordinates (Angstroms)
 Number     Number       Type             X           Y           Z
 ---------------------------------------------------------------------
      1          9           0        1.692285   -0.707261    0.148897
      2          8           0        1.127053    0.484113   -0.438324
      3          6           0        0.001066    0.782835    0.301820
      4         17           0       -1.423077   -0.277610   -0.058525
      5          1           0       -0.251666    1.793781   -0.020740
      6          1           0        0.190585    0.721029    1.371260
 ---------------------------------------------------------------------

 SCF Done:  E(RHF) =  -673.780402926     A.U. after    2 cycles

 The electronic state is 1-A.
 Alpha  occ. eigenvalues --  -99.90010 -29.31248 -21.18841 -11.50007 -10.47298
 Alpha  occ. eigenvalues --   -9.67068  -9.66378  -9.66370  -1.85064  -1.32607
 Alpha  occ. eigenvalues --   -1.01053  -0.77701  -0.68449  -0.67460  -0.57305
 Alpha  occ. eigenvalues --   -0.51465  -0.49690  -0.47424  -0.37151  -0.28610
 Alpha  occ. eigenvalues --   -0.24557
 Alpha virt. eigenvalues --    0.03223   0.05500   0.06644   0.10157   0.11402
 Alpha virt. eigenvalues --    0.14051   0.14777   0.15236   0.17318   0.18368
 Alpha virt. eigenvalues --    0.20937   0.21152   0.24123   0.24761   0.25046

 Mulliken charges:
               1
     1  F    0.071357
     2  O   -1.255981
     3  C   -1.899221
     4  Cl   0.023570
     5  H    1.477806
     6  H    1.582468
 Sum of Mulliken charges =   0.00000

 Dipole moment (field-independent basis, Debye):
    X=              2.0694    Y=              0.2746    Z=              0.9878  Tot=              2.3094

 Test job not archived.
 1\1\GINC-SE132\SP\RHF\Aug-CC-pVDZ\C1H2Cl1F1O1\OHZDE\08-Apr-2025\0\\#t
 hf aug-cc-pvdz iop(5/13=1,5/36=2,99/5=2) pseudo=read geom=check guess=
 (read,tcheck) scf=(maxcycle=1)\\title\\0,1\F,0,1.692285,-0.707261,0.14
 8897\O,0,1.127053,0.484113,-0.438324\C,0,0.001066,0.782835,0.30182\Cl,
 0,-1.423077,-0.27761,-0.058525\H,0,-0.251666,1.793781,-0.02074\H,0,0.1
 90585,0.721029,1.37126\\Version=ES64L-G16RevC.01\State=1-A\HF=-673.780
 4029\RMSD=5.697e-02\Dipole=0.8141587,0.1080448,0.3886126\Quadrupole=-0
 .4949049,0.8587112,-0.3638063,-0.746396,0.639095,0.5131683\PG=C01 [X(C

 Normal termination of Gaussian 16 at Tue Apr  8 23:20:53 2025.
