 Gaussian 16, Revision C.01,

 ----------------------------------------------------------------------
 #t hf aug-cc-pvdz symm=none int=(grid=ultrafine) guess=(read,tcheck) s
 table=(opt,rrhf)
 ----------------------------------------------------------------------
 -----
 title
 -----
 Symbolic Z-matrix:
 Charge =  0 Multiplicity = 1

 SCF Done:  E(RHF) =  -424.418110931     A.U. after   11 cycles
 Normal termination of Gaussian 16 at Wed Apr  9 00:00:32 2025.
 Gaussian 16:  ES64L-G16RevC.01  3-Jul-2019

 ----------------------------------------------------------------------
 #t hf aug-cc-pvdz iop(5/13=1,5/36=2,99/5=2) pseudo=read geom=check gue
 ss=(read,tcheck) scf=(maxcycle=1)
 ----------------------------------------------------------------------
 -----
 title
 -----
 Structure from the checkpoint file:  "BDE49_nonexpt_2108_mol1.chk"
 Charge =  0 Multiplicity = 1

                         Standard orientation:
 ---------------------------------------------------------------------
 Center     Atomic      Atomic             Coordinates (Angstroms)
 Number     Number       Type             X           Y           Z
 ---------------------------------------------------------------------
      1          7           0       -0.686066    1.543150   -0.208101
      2         14           0        0.002186    0.059008    0.357618
      3          1           0       -0.347479    2.426006    0.146928
      4          1           0       -0.973535    1.636498   -1.172179
      5          6           0       -1.127741   -1.341711   -0.174319
      6          1           0       -1.211890   -1.391279   -1.265162
      7          6           0        1.755937   -0.296416   -0.232210
      8          1           0        1.797670   -0.405878   -1.320929
      9          1           0        2.136511   -1.223077    0.210767
     10          1           0        2.440932    0.509708    0.047971
     11          1           0       -2.132467   -1.210670    0.235054
     12          1           0       -0.743071   -2.307198    0.167573
     13          1           0        0.036014    0.166489    1.839201
 ---------------------------------------------------------------------

 SCF Done:  E(RHF) =  -425.275611777     A.U. after    2 cycles

 The electronic state is 1-A.
 Alpha  occ. eigenvalues --  -76.19682 -15.71703 -11.33674 -11.33514  -5.53768
 Alpha  occ. eigenvalues --   -2.18815  -2.17088  -2.16022  -1.24364  -1.04466
 Alpha  occ. eigenvalues --   -1.00221  -0.69720  -0.63837  -0.56126  -0.55968
 Alpha  occ. eigenvalues --   -0.53908  -0.53855  -0.47550  -0.43476  -0.40569
 Alpha  occ. eigenvalues --   -0.35114
 Alpha virt. eigenvalues --    0.03205   0.05210   0.05490   0.05791   0.06872
 Alpha virt. eigenvalues --    0.07103   0.07320   0.07385   0.08106   0.09287
 Alpha virt. eigenvalues --    0.09786   0.11819   0.13080   0.15584   0.17139

 Mulliken charges:
               1
     1  N   -2.417571
     2  Si   5.844415
     3  H    0.678351
     4  H    0.653840
     5  C   -5.147014
     6  H    1.272152
     7  C   -5.131519
     8  H    1.271007
     9  H    1.238678
    10  H    1.253267
    11  H    1.260885
    12  H    1.262860
    13  H   -2.039351
 Sum of Mulliken charges =  -0.00000

 Dipole moment (field-independent basis, Debye):
    X=              0.2346    Y=              0.4696    Z=             -1.0360  Tot=              1.1614

 Test job not archived.
 1\1\GINC-SE069\SP\RHF\Aug-CC-pVDZ\C2H9N1Si1\OHZDE\09-Apr-2025\0\\#t hf
  aug-cc-pvdz iop(5/13=1,5/36=2,99/5=2) pseudo=read geom=check guess=(r
 ead,tcheck) scf=(maxcycle=1)\\title\\0,1\N,0,-0.686068,1.543149,-0.208
 101\Si,0,0.002186,0.059008,0.357618\H,0,-0.347482,2.426006,0.146928\H,
 0,-0.973537,1.636497,-1.172179\C,0,-1.127739,-1.341712,-0.174319\H,0,-
 1.211888,-1.39128,-1.265162\C,0,1.755937,-0.296414,-0.23221\H,0,1.7976
 71,-0.405876,-1.320929\H,0,2.136512,-1.223075,0.210767\H,0,2.440932,0.
 509711,0.047971\H,0,-2.132466,-1.210672,0.235054\H,0,-0.743068,-2.3071

 Normal termination of Gaussian 16 at Wed Apr  9 00:00:35 2025.
