 Gaussian 16, Revision C.01,

 ----------------------------------------------------------------------
 #t hf aug-cc-pvdz symm=none int=(grid=ultrafine) guess=(read,tcheck) s
 table=opt
 ----------------------------------------------------------------------
 -----
 title
 -----
 Symbolic Z-matrix:
 Charge =  0 Multiplicity = 2

 SCF Done:  E(UHF) =  -445.624527023     A.U. after   15 cycles

 1\1\GINC-SE141\Stability\UHF\Aug-CC-pVDZ\C4H9Si1\OHZDE\08-Apr-2025\0\\
 #t hf aug-cc-pvdz symm=none int=(grid=ultrafine) guess=(read,tcheck) s
 table=opt\\title\\0,2\Si,0,-1.333717,-0.035433,-0.094248\C,0,-0.02768,
 -1.414272,0.10128\C,0,-0.086602,1.407134,-0.158832\C,0,1.239086,0.7521
 21,0.304808\H,0,-0.379695,2.255799,0.46379\H,0,0.012278,1.780866,-1.18
 3176\C,0,1.302555,-0.694584,-0.22822\H,0,1.266464,0.727973,1.400508\H,
 0,2.110309,1.329429,-0.021547\H,0,1.440828,-0.668113,-1.315658\H,0,2.1
 63781,-1.228361,0.185702\H,0,-0.192579,-2.292111,-0.526206\H,0,-0.0350

 Normal termination of Gaussian 16 at Tue Apr  8 23:42:37 2025.
 Gaussian 16:  ES64L-G16RevC.01  3-Jul-2019

 ----------------------------------------------------------------------
 #t hf aug-cc-pvdz iop(5/13=1,5/36=2,99/5=2) pseudo=read geom=check gue
 ss=(read,tcheck) scf=(maxcycle=1)
 ----------------------------------------------------------------------
 -----
 title
 -----
 Structure from the checkpoint file:  "BDE49_nonexpt_1655_mol2.chk"
 Charge =  0 Multiplicity = 2

                         Standard orientation:
 ---------------------------------------------------------------------
 Center     Atomic      Atomic             Coordinates (Angstroms)
 Number     Number       Type             X           Y           Z
 ---------------------------------------------------------------------
      1         14           0       -1.333717   -0.035433   -0.094248
      2          6           0       -0.027679   -1.414272    0.101280
      3          6           0       -0.086603    1.407134   -0.158832
      4          6           0        1.239086    0.752122    0.304808
      5          1           0       -0.379696    2.255799    0.463790
      6          1           0        0.012277    1.780866   -1.183176
      7          6           0        1.302555   -0.694583   -0.228220
      8          1           0        1.266464    0.727974    1.400508
      9          1           0        2.110309    1.329430   -0.021547
     10          1           0        1.440828   -0.668112   -1.315658
     11          1           0        2.163782   -1.228360    0.185702
     12          1           0       -0.192578   -2.292111   -0.526206
     13          1           0       -0.035054   -1.757407    1.142760
     14          1           0       -2.278450    0.045586    1.059076
 ---------------------------------------------------------------------

 SCF Done:  E(UHF) =  -446.573764180     A.U. after    2 cycles

 The electronic state is 2-A.
 Alpha  occ. eigenvalues --  -76.20453 -11.41582 -11.39120 -11.35141 -11.33772
 Alpha  occ. eigenvalues --   -5.54085  -2.17822  -2.17305  -2.15687  -1.25059
 Alpha  occ. eigenvalues --   -1.04651  -0.93294  -0.80772  -0.69982  -0.63546
 Alpha  occ. eigenvalues --   -0.61872  -0.58263  -0.51724  -0.47328  -0.45254
 Alpha  occ. eigenvalues --   -0.44157  -0.41522  -0.36519  -0.25689
 Alpha virt. eigenvalues --    0.03760   0.05385   0.05695   0.05868   0.06085
 Alpha virt. eigenvalues --    0.06237   0.06330   0.06456   0.06764   0.09197
 Alpha virt. eigenvalues --    0.09669   0.10498   0.13090   0.13814   0.13987

  Beta  occ. eigenvalues --  -76.19920 -11.41557 -11.39079 -11.35078 -11.33725
  Beta  occ. eigenvalues --   -5.53249  -2.16975  -2.16691  -2.12496  -1.24736
  Beta  occ. eigenvalues --   -1.04408  -0.92580  -0.80638  -0.67124  -0.63354
  Beta  occ. eigenvalues --   -0.60206  -0.57958  -0.51013  -0.47101  -0.45137
  Beta  occ. eigenvalues --   -0.43953  -0.40390  -0.35764
  Beta virt. eigenvalues --    0.03542   0.04747   0.05564   0.05924   0.05977
  Beta virt. eigenvalues --    0.06209   0.06277   0.06453   0.06591   0.08079
  Beta virt. eigenvalues --    0.09294   0.10256   0.11399   0.13341   0.13989

 Mulliken charges and spin densities:
               1          2
     1  Si   3.685394   0.976494
     2  C   -3.679862  -0.023448
     3  C   -3.616578  -0.007890
     4  C   -2.798356   0.047448
     5  H    1.304626  -0.007522
     6  H    1.409792  -0.034285
     7  C   -2.516066  -0.004529
     8  H    1.364395  -0.002730
     9  H    1.267970   0.007711
    10  H    1.377328  -0.003255
    11  H    1.260554   0.002874
    12  H    1.274730  -0.018355
    13  H    1.387747  -0.002759
    14  H   -1.721672   0.070246
 Sum of Mulliken charges =  -0.00000   1.00000

 Dipole moment (field-independent basis, Debye):
    X=              0.8835    Y=              0.0030    Z=             -0.2010  Tot=              0.9061
                          Isotropic Fermi Contact Couplings
        Atom                 a.u.       MegaHertz       Gauss      10(-4) cm-1
     1  Si(29)             0.44301    -393.71571    -140.48755    -131.32942
     2  C(13)              0.01713      19.25202       6.86960       6.42178
     3  C(13)              0.01554      17.46585       6.23225       5.82598
     4  C(13)              0.00911      10.24319       3.65502       3.41676
     5  H(1)               0.00114       5.07389       1.81049       1.69247
     6  H(1)               0.00279      12.45756       4.44517       4.15539
     7  C(13)              0.00264       2.96668       1.05858       0.98958
     8  H(1)              -0.00018      -0.81002      -0.28904      -0.27019

 Normal termination of Gaussian 16 at Tue Apr  8 23:42:43 2025.
