 Gaussian 16, Revision C.01,

 ----------------------------------------------------------------------
 #t hf aug-cc-pvdz symm=none int=(grid=ultrafine) guess=(read,tcheck) s
 table=(opt,rrhf)
 ----------------------------------------------------------------------
 -----
 title
 -----
 Symbolic Z-matrix:
 Charge =  0 Multiplicity = 1

 SCF Done:  E(RHF) =  -351.477836727     A.U. after   12 cycles
 Normal termination of Gaussian 16 at Wed Apr  9 00:35:14 2025.
 Gaussian 16:  ES64L-G16RevC.01  3-Jul-2019

 ----------------------------------------------------------------------
 #t hf aug-cc-pvdz iop(5/13=1,5/36=2,99/5=2) pseudo=read geom=check gue
 ss=(read,tcheck) scf=(maxcycle=1)
 ----------------------------------------------------------------------
 -----
 title
 -----
 Structure from the checkpoint file:  "BDE49_nonexpt_441_mol1.chk"
 Charge =  0 Multiplicity = 1

                         Standard orientation:
 ---------------------------------------------------------------------
 Center     Atomic      Atomic             Coordinates (Angstroms)
 Number     Number       Type             X           Y           Z
 ---------------------------------------------------------------------
      1          9           0        2.410098    0.000000   -0.097316
      2          7           0        0.354814   -1.224767    0.040960
      3          7           0        0.354814    1.224767    0.040961
      4          6           0       -1.095244   -1.273061    0.193902
      5          6           0       -1.724991   -0.000000   -0.384547
      6          6           0       -1.095244    1.273061    0.193901
      7          5           0        1.056930    0.000000   -0.002994
      8          1           0        0.848811   -2.101453    0.059316
      9          1           0        0.848811    2.101453    0.059319
     10          1           0       -1.497673    2.144760   -0.332571
     11          1           0       -1.382954    1.378237    1.250715
     12          1           0       -2.800967   -0.000000   -0.186656
     13          1           0       -1.585456   -0.000001   -1.470433
     14          1           0       -1.382952   -1.378235    1.250716
     15          1           0       -1.497674   -2.144760   -0.332568
 ---------------------------------------------------------------------

 SCF Done:  E(RHF) =  -353.008889737     A.U. after    2 cycles

 The electronic state is 1-A.
 Alpha  occ. eigenvalues --  -29.21318 -15.69100 -15.69047 -11.43199 -11.42440
 Alpha  occ. eigenvalues --  -11.36421  -7.63503  -1.46158  -1.30129  -1.17202
 Alpha  occ. eigenvalues --   -0.94976  -0.93056  -0.77834  -0.74620  -0.64955
 Alpha  occ. eigenvalues --   -0.61755  -0.59029  -0.58040  -0.57735  -0.51521
 Alpha  occ. eigenvalues --   -0.46926  -0.44616  -0.43647  -0.33465  -0.32056
 Alpha  occ. eigenvalues --   -0.29384  -0.28581
 Alpha virt. eigenvalues --    0.03459   0.04314   0.04967   0.05734   0.06309
 Alpha virt. eigenvalues --    0.06541   0.06709   0.07002   0.07381   0.08756
 Alpha virt. eigenvalues --    0.09462   0.11309   0.12774   0.13170   0.14214

 Mulliken charges:
               1
     1  F   -1.491144
     2  N   -3.098421
     3  N   -3.098423
     4  C   -1.570220
     5  C   -2.128674
     6  C   -1.570216
     7  B    2.621256
     8  H    1.041968
     9  H    1.041968
    10  H    1.365654
    11  H    1.438423
    12  H    1.348988
    13  H    1.294762
    14  H    1.438425
    15  H    1.365654
 Sum of Mulliken charges =  -0.00000

 Dipole moment (field-independent basis, Debye):
    X=              1.1800    Y=             -0.0000    Z=             -0.0028  Tot=              1.1800

 Test job not archived.
 1\1\GINC-SE222\SP\RHF\Aug-CC-pVDZ\C3H8B1F1N2\OHZDE\09-Apr-2025\0\\#t h
 f aug-cc-pvdz iop(5/13=1,5/36=2,99/5=2) pseudo=read geom=check guess=(
 read,tcheck) scf=(maxcycle=1)\\title\\0,1\F,0,-2.410098,0.,-0.097316\N
 ,0,-0.354814,1.224767,0.04096\N,0,-0.354814,-1.224767,0.040961\C,0,1.0
 95244,1.273061,0.193902\C,0,1.724991,0.,-0.384547\C,0,1.095244,-1.2730
 61,0.193901\B,0,-1.05693,0.,-0.002994\H,0,-0.848811,2.101453,0.059316\
 H,0,-0.848811,-2.101453,0.059319\H,0,1.497673,-2.14476,-0.332571\H,0,1
 .382954,-1.378237,1.250715\H,0,2.800967,0.,-0.186656\H,0,1.585456,0.00

 Normal termination of Gaussian 16 at Wed Apr  9 00:35:19 2025.
