 Gaussian 16, Revision C.01,

 ----------------------------------------------------------------------
 #t hf aug-cc-pvdz symm=none int=(grid=ultrafine) guess=(read,tcheck) s
 table=opt
 ----------------------------------------------------------------------
 -----
 title
 -----
 Symbolic Z-matrix:
 Charge =  0 Multiplicity = 2

 SCF Done:  E(UHF) =  -99.3810917930     A.U. after    9 cycles
 Normal termination of Gaussian 16 at Tue Apr  8 22:44:36 2025.
 Gaussian 16:  ES64L-G16RevC.01  3-Jul-2019

 ----------------------------------------------------------------------
 #t hf aug-cc-pvdz iop(5/13=1,5/36=2,99/5=2) pseudo=read geom=check gue
 ss=(read,tcheck) scf=(maxcycle=1)
 ----------------------------------------------------------------------
 -----
 title
 -----
 Structure from the checkpoint file:  "BDE49_expt_1496_mol3.chk"
 Charge =  0 Multiplicity = 2

                         Standard orientation:
 ---------------------------------------------------------------------
 Center     Atomic      Atomic             Coordinates (Angstroms)
 Number     Number       Type             X           Y           Z
 ---------------------------------------------------------------------
      1          9           0        0.000000    0.000000    0.000000
 ---------------------------------------------------------------------

 SCF Done:  E(UHF) =  -99.6531993053     A.U. after    2 cycles

 Unable to determine electronic state:  an orbital has unidentified symmetry.
 Alpha  occ. eigenvalues --  -29.38789  -0.65587  -0.41912  -0.33744  -0.33744
 Alpha virt. eigenvalues --    0.22540   0.24856   0.24856   0.36925   0.69898
 Alpha virt. eigenvalues --    0.70948   0.70948   0.74989   0.74989   1.89433
 Alpha virt. eigenvalues --    1.98098   1.98098   3.30741   3.38195   3.38195

  Beta  occ. eigenvalues --  -29.34474  -0.54105  -0.30727  -0.30727
  Beta virt. eigenvalues --    0.08502   0.25855   0.25855   0.40824   0.48936
  Beta virt. eigenvalues --    0.75287   0.75287   0.77242   0.77242   0.78304
  Beta virt. eigenvalues --    2.02052   2.02052   2.27391   3.44413   3.46606

 Mulliken charges and spin densities:
               1          2
     1  F   -0.000000   1.000000
 Sum of Mulliken charges =  -0.00000   1.00000

 Dipole moment (field-independent basis, Debye):
    X=             -0.0000    Y=             -0.0000    Z=             -0.0000  Tot=              0.0000
                          Isotropic Fermi Contact Couplings
        Atom                 a.u.       MegaHertz       Gauss      10(-4) cm-1
     1  F(19)              0.30945    1302.00764     464.58870     434.30300
 --------------------------------------------------------
       Center         ----  Spin Dipole Couplings  ----
                      3XX-RR        3YY-RR        3ZZ-RR
 --------------------------------------------------------
     1   Atom        0.376139     -0.108162     -0.267977
 --------------------------------------------------------
                        XY            XZ            YZ

 Normal termination of Gaussian 16 at Tue Apr  8 22:44:38 2025.
