 Gaussian 16, Revision C.01,

 ----------------------------------------------------------------------
 #t hf aug-cc-pvdz symm=none int=(grid=ultrafine) guess=(read,tcheck) s
 table=(opt,rrhf)
 ----------------------------------------------------------------------
 -----
 title
 -----
 Symbolic Z-matrix:
 Charge =  0 Multiplicity = 1

 SCF Done:  E(RHF) =  -913.346051709     A.U. after   14 cycles
 Normal termination of Gaussian 16 at Wed Apr  9 00:26:59 2025.
 Gaussian 16:  ES64L-G16RevC.01  3-Jul-2019

 ----------------------------------------------------------------------
 #t hf aug-cc-pvdz iop(5/13=1,5/36=2,99/5=2) pseudo=read geom=check gue
 ss=(read,tcheck) scf=(maxcycle=1)
 ----------------------------------------------------------------------
 -----
 title
 -----
 Structure from the checkpoint file:  "BDE49_nonexpt_2742_mol1.chk"
 Charge =  0 Multiplicity = 1

                         Standard orientation:
 ---------------------------------------------------------------------
 Center     Atomic      Atomic             Coordinates (Angstroms)
 Number     Number       Type             X           Y           Z
 ---------------------------------------------------------------------
      1         16           0       -1.757033    0.012285   -0.596880
      2         16           0       -0.466464   -0.178676    1.034852
      3          6           0        1.241707   -0.040500    0.314408
      4          6           0        1.522617    1.343392   -0.265715
      5          1           0        0.903700    1.526838   -1.148103
      6          1           0        2.570078    1.415825   -0.575584
      7          1           0        1.324976    2.130594    0.464445
      8          6           0        1.558288   -1.173231   -0.659454
      9          1           0        1.830566   -0.174756    1.230634
     10          1           0        0.923914   -1.109332   -1.547138
     11          1           0        1.403919   -2.149716   -0.197146
     12          1           0        2.600726   -1.106406   -0.987397
     13          1           0       -1.917596    1.351246   -0.582694
 ---------------------------------------------------------------------

 SCF Done:  E(RHF) =  -914.422898849     A.U. after    2 cycles

 The electronic state is 1-A.
 Alpha  occ. eigenvalues --  -75.71099 -75.70096 -13.15185 -13.12680 -13.09514
 Alpha  occ. eigenvalues --  -13.08153 -13.05525 -13.05061 -11.43714 -11.38760
 Alpha  occ. eigenvalues --  -11.36529  -8.04825  -8.03932  -1.28390  -1.15246
 Alpha  occ. eigenvalues --   -1.01166  -0.98566  -0.81653  -0.64072  -0.60370
 Alpha  occ. eigenvalues --   -0.57225  -0.54656  -0.51556  -0.48787  -0.47355
 Alpha  occ. eigenvalues --   -0.40585  -0.35027  -0.25277  -0.24343
 Alpha virt. eigenvalues --    0.02868   0.03640   0.04809   0.05757   0.06394
 Alpha virt. eigenvalues --    0.06770   0.06889   0.07610   0.08240   0.11456
 Alpha virt. eigenvalues --    0.11966   0.13278   0.14171   0.14705   0.15188

 Mulliken charges:
               1
     1  S   -1.429665
     2  S    0.097023
     3  C   -1.281723
     4  C   -3.946895
     5  H    1.328518
     6  H    1.235519
     7  H    1.303151
     8  C   -4.077162
     9  H    1.673976
    10  H    1.367039
    11  H    1.298060
    12  H    1.219794
    13  H    1.212365
 Sum of Mulliken charges =  -0.00000

 Dipole moment (field-independent basis, Debye):
    X=              0.2597    Y=             -0.9524    Z=              0.3203  Tot=              1.0379

 Test job not archived.
 1\1\GINC-SE109\SP\RHF\Aug-CC-pVDZ\C3H8S2\OHZDE\09-Apr-2025\0\\#t hf au
 g-cc-pvdz iop(5/13=1,5/36=2,99/5=2) pseudo=read geom=check guess=(read
 ,tcheck) scf=(maxcycle=1)\\title\\0,1\S,0,-1.757033,0.012285,-0.59688\
 S,0,-0.466464,-0.178676,1.034852\C,0,1.241707,-0.0405,0.314408\C,0,1.5
 22617,1.343392,-0.265715\H,0,0.9037,1.526838,-1.148103\H,0,2.570078,1.
 415825,-0.575584\H,0,1.324976,2.130594,0.464445\C,0,1.558288,-1.173231
 ,-0.659454\H,0,1.830566,-0.174756,1.230634\H,0,0.923914,-1.109332,-1.5
 47138\H,0,1.403919,-2.149716,-0.197146\H,0,2.600726,-1.106406,-0.98739

 Normal termination of Gaussian 16 at Wed Apr  9 00:27:03 2025.
