 Gaussian 16, Revision C.01,

 ----------------------------------------------------------------------
 #t hf aug-cc-pvdz symm=none int=(grid=ultrafine) guess=(read,tcheck) s
 table=(opt,rrhf)
 ----------------------------------------------------------------------
 -----
 title
 -----
 Symbolic Z-matrix:
 Charge =  0 Multiplicity = 1

 SCF Done:  E(RHF) =  -886.573532743     A.U. after   14 cycles
 Normal termination of Gaussian 16 at Wed Apr  9 00:21:38 2025.
 Gaussian 16:  ES64L-G16RevC.01  3-Jul-2019

 ----------------------------------------------------------------------
 #t hf aug-cc-pvdz iop(5/13=1,5/36=2,99/5=2) pseudo=read geom=check gue
 ss=(read,tcheck) scf=(maxcycle=1)
 ----------------------------------------------------------------------
 -----
 title
 -----
 Structure from the checkpoint file:  "BDE49_nonexpt_2626_mol1.chk"
 Charge =  0 Multiplicity = 1

                         Standard orientation:
 ---------------------------------------------------------------------
 Center     Atomic      Atomic             Coordinates (Angstroms)
 Number     Number       Type             X           Y           Z
 ---------------------------------------------------------------------
      1          9           0       -1.685642    0.919296    0.257201
      2         16           0       -1.065919   -0.536798   -0.314417
      3         14           0        0.948240   -0.310181    0.383941
      4          9           0        1.836518    0.676706   -0.517902
      5          1           0        0.928304    0.241605    1.745737
      6          1           0        1.493166   -1.674328    0.256068
 ---------------------------------------------------------------------

 SCF Done:  E(RHF) =  -887.626327313     A.U. after    2 cycles

 The electronic state is 1-A.
 Alpha  occ. eigenvalues --  -76.29912 -75.76497 -29.28791 -29.28310 -13.19735
 Alpha  occ. eigenvalues --  -13.13504 -13.08899  -8.10530  -5.64255  -2.28916
 Alpha  occ. eigenvalues --   -2.25253  -2.24938  -1.20573  -0.89300  -0.67714
 Alpha  occ. eigenvalues --   -0.61207  -0.54485  -0.48421  -0.42830  -0.36666
 Alpha  occ. eigenvalues --   -0.35565  -0.34609  -0.34216  -0.24897  -0.20492
 Alpha virt. eigenvalues --    0.04227   0.04598   0.06357   0.07284   0.09650
 Alpha virt. eigenvalues --    0.09900   0.11854   0.13449   0.14565   0.15683
 Alpha virt. eigenvalues --    0.17101   0.19096   0.22221   0.24850   0.25146

 Mulliken charges:
               1
     1  F   -0.277184
     2  S   -1.086340
     3  Si   5.809621
     4  F   -0.926471
     5  H   -1.772091
     6  H   -1.747536
 Sum of Mulliken charges =  -0.00000

 Dipole moment (field-independent basis, Debye):
    X=             -0.5261    Y=              3.4267    Z=             -0.9527  Tot=              3.5954

 Test job not archived.
 1\1\GINC-SE159\SP\RHF\Aug-CC-pVDZ\F2H2S1Si1\OHZDE\09-Apr-2025\0\\#t hf
  aug-cc-pvdz iop(5/13=1,5/36=2,99/5=2) pseudo=read geom=check guess=(r
 ead,tcheck) scf=(maxcycle=1)\\title\\0,1\F,0,-1.685642,0.919296,0.2572
 01\S,0,-1.065919,-0.536798,-0.314417\Si,0,0.94824,-0.310181,0.383941\F
 ,0,1.836518,0.676706,-0.517902\H,0,0.928304,0.241605,1.745737\H,0,1.49
 3166,-1.674328,0.256068\\Version=ES64L-G16RevC.01\State=1-A\HF=-887.62
 63273\RMSD=9.074e-02\Dipole=-0.2069876,1.3481616,-0.374817\Quadrupole=
 3.9762764,-1.6371941,-2.3390823,-0.2553687,-1.0358737,0.1607408\PG=C01

 Normal termination of Gaussian 16 at Wed Apr  9 00:21:40 2025.
