 Gaussian 16, Revision C.01,

 ----------------------------------------------------------------------
 #t hf aug-cc-pvdz symm=none int=(grid=ultrafine) guess=(read,tcheck) s
 table=(opt,rrhf)
 ----------------------------------------------------------------------
 -----
 title
 -----
 Symbolic Z-matrix:
 Charge =  0 Multiplicity = 1

 SCF Done:  E(RHF) =  -154.987784352     A.U. after   12 cycles
 Normal termination of Gaussian 16 at Tue Apr  8 22:54:33 2025.
 Gaussian 16:  ES64L-G16RevC.01  3-Jul-2019

 ----------------------------------------------------------------------
 #t hf aug-cc-pvdz iop(5/13=1,5/36=2,99/5=2) pseudo=read geom=check gue
 ss=(read,tcheck) scf=(maxcycle=1)
 ----------------------------------------------------------------------
 -----
 title
 -----
 Structure from the checkpoint file:  "BDE49_expt_1812_mol1.chk"
 Charge =  0 Multiplicity = 1

                         Standard orientation:
 ---------------------------------------------------------------------
 Center     Atomic      Atomic             Coordinates (Angstroms)
 Number     Number       Type             X           Y           Z
 ---------------------------------------------------------------------
      1          7           0        0.680597   -0.000002   -0.142110
      2          9           0       -0.740414   -0.000014    0.017603
      3          1           0        0.949640    0.811373    0.418137
      4          1           0        0.949907   -0.811234    0.418208
 ---------------------------------------------------------------------

 SCF Done:  E(RHF) =  -155.577917300     A.U. after    2 cycles

 The electronic state is 1-A.
 Alpha  occ. eigenvalues --  -29.26257 -15.82836  -1.36617  -0.70098  -0.69961
 Alpha  occ. eigenvalues --   -0.52710  -0.36938  -0.25642  -0.21704
 Alpha virt. eigenvalues --    0.04161   0.05534   0.14134   0.15407   0.19770
 Alpha virt. eigenvalues --    0.19976   0.26100   0.26439   0.29233   0.31339
 Alpha virt. eigenvalues --    0.31797   0.39927   0.40386   0.41537   0.50421

 Mulliken charges:
               1
     1  N   -1.383173
     2  F   -0.007678
     3  H    0.695382
     4  H    0.695470
 Sum of Mulliken charges =  -0.00000

 Dipole moment (field-independent basis, Debye):
    X=             -0.2881    Y=              0.0001    Z=              1.3312  Tot=              1.3620

 Test job not archived.
 1\1\GINC-SE424\SP\RHF\Aug-CC-pVDZ\F1H2N1\OHZDE\08-Apr-2025\0\\#t hf au
 g-cc-pvdz iop(5/13=1,5/36=2,99/5=2) pseudo=read geom=check guess=(read
 ,tcheck) scf=(maxcycle=1)\\title\\0,1\N,0,-0.680597,0.000002,-0.14211\
 F,0,0.740414,0.000014,0.017603\H,0,-0.94964,-0.811373,0.418137\H,0,-0.
 949907,0.811234,0.418208\\Version=ES64L-G16RevC.01\State=1-A\HF=-155.5
 779173\RMSD=2.643e-02\Dipole=0.1133509,-0.0000227,0.5237186\Quadrupole
 =-0.4515021,1.106544,-0.655042,-0.0002165,-1.2498437,-0.0000289\PG=C01
  [X(F1H2N1)]\\@

 Normal termination of Gaussian 16 at Tue Apr  8 22:54:34 2025.
