 Gaussian 16, Revision C.01,

 ----------------------------------------------------------------------
 #t hf aug-cc-pvdz symm=none int=(grid=ultrafine) guess=(read,tcheck) s
 table=(opt,rrhf)
 ----------------------------------------------------------------------
 -----
 title
 -----
 Symbolic Z-matrix:
 Charge =  0 Multiplicity = 1

 SCF Done:  E(RHF) =  -415.480769209     A.U. after   14 cycles
 Normal termination of Gaussian 16 at Tue Apr  8 23:02:51 2025.
 Gaussian 16:  ES64L-G16RevC.01  3-Jul-2019

 ----------------------------------------------------------------------
 #t hf aug-cc-pvdz iop(5/13=1,5/36=2,99/5=2) pseudo=read geom=check gue
 ss=(read,tcheck) scf=(maxcycle=1)
 ----------------------------------------------------------------------
 -----
 title
 -----
 Structure from the checkpoint file:  "BDE49_expt_255_mol1.chk"
 Charge =  0 Multiplicity = 1

                         Standard orientation:
 ---------------------------------------------------------------------
 Center     Atomic      Atomic             Coordinates (Angstroms)
 Number     Number       Type             X           Y           Z
 ---------------------------------------------------------------------
      1          6           0        1.366837   -0.141477   -0.007128
      2          6           0       -1.237125    0.052564    0.021286
      3          8           0       -1.237968    1.260369    0.007073
      4          8           0        2.328148   -0.835384   -0.185125
      5          8           0       -2.383153   -0.616502   -0.183501
      6          1           0       -2.233100   -1.569425   -0.156654
      7          6           0       -0.001617   -0.782664    0.305410
      8          1           0       -0.027116   -1.744186   -0.210261
      9          1           0       -0.002564   -1.000577    1.380739
     10          8           0        1.416478    1.190511   -0.012822
     11          1           0        0.506173    1.551702    0.063764
 ---------------------------------------------------------------------

 SCF Done:  E(RHF) =  -417.206928729     A.U. after    2 cycles

 The electronic state is 1-A.
 Alpha  occ. eigenvalues --  -21.16852 -21.11815 -21.09427 -21.05976 -11.57712
 Alpha  occ. eigenvalues --  -11.54486 -11.45256  -1.88128  -1.82217  -1.70388
 Alpha  occ. eigenvalues --   -1.66379  -1.18325  -0.87059  -0.81746  -0.73089
 Alpha  occ. eigenvalues --   -0.70486  -0.68552  -0.57568  -0.56666  -0.54912
 Alpha  occ. eigenvalues --   -0.52141  -0.49569  -0.46328  -0.38304  -0.34628
 Alpha  occ. eigenvalues --   -0.33489  -0.30361
 Alpha virt. eigenvalues --    0.02028   0.04366   0.05773   0.07328   0.09036
 Alpha virt. eigenvalues --    0.10125   0.10445   0.10720   0.11775   0.11935
 Alpha virt. eigenvalues --    0.13018   0.14310   0.15198   0.15721   0.17236

 Mulliken charges:
               1
     1  C    5.322114
     2  C    5.292694
     3  O   -2.887559
     4  O   -3.057771
     5  O   -3.021587
     6  H    0.921054
     7  C   -3.611546
     8  H    1.371445
     9  H    1.466753
    10  O   -3.005995
    11  H    1.210397
 Sum of Mulliken charges =  -0.00000

 Dipole moment (field-independent basis, Debye):
    X=             -2.5164    Y=             -1.3433    Z=              0.5219  Tot=              2.8998

 Test job not archived.
 1\1\GINC-SE163\SP\RHF\Aug-CC-pVDZ\C3H4O4\OHZDE\08-Apr-2025\0\\#t hf au
 g-cc-pvdz iop(5/13=1,5/36=2,99/5=2) pseudo=read geom=check guess=(read
 ,tcheck) scf=(maxcycle=1)\\title\\0,1\C,0,1.366837,-0.141477,-0.007128
 \C,0,-1.237125,0.052564,0.021286\O,0,-1.237968,1.260369,0.007073\O,0,2
 .328148,-0.835384,-0.185125\O,0,-2.383153,-0.616502,-0.183501\H,0,-2.2
 331,-1.569425,-0.156654\C,0,-0.001617,-0.782664,0.30541\H,0,-0.027116,
 -1.744186,-0.210261\H,0,-0.002564,-1.000577,1.380739\O,0,1.416478,1.19
 0511,-0.012822\H,0,0.506173,1.551702,0.063764\\Version=ES64L-G16RevC.0

 Normal termination of Gaussian 16 at Tue Apr  8 23:02:55 2025.
