 Gaussian 16, Revision C.01,

 ----------------------------------------------------------------------
 #t hf aug-cc-pvdz symm=none int=(grid=ultrafine) guess=(read,tcheck) s
 table=opt
 ----------------------------------------------------------------------
 -----
 title
 -----
 Symbolic Z-matrix:
 Charge =  0 Multiplicity = 2

 SCF Done:  E(UHF) =  -376.341685988     A.U. after   19 cycles
 Normal termination of Gaussian 16 at Tue Apr  8 23:06:26 2025.
 Gaussian 16:  ES64L-G16RevC.01  3-Jul-2019

 ----------------------------------------------------------------------
 #t hf aug-cc-pvdz iop(5/13=1,5/36=2,99/5=2) pseudo=read geom=check gue
 ss=(read,tcheck) scf=(maxcycle=1)
 ----------------------------------------------------------------------
 -----
 title
 -----
 Structure from the checkpoint file:  "BDE49_expt_371_mol2.chk"
 Charge =  0 Multiplicity = 2

                         Standard orientation:
 ---------------------------------------------------------------------
 Center     Atomic      Atomic             Coordinates (Angstroms)
 Number     Number       Type             X           Y           Z
 ---------------------------------------------------------------------
      1          7           0        2.794185    0.192710   -0.119914
      2          6           0        1.695961   -0.609879   -0.199741
      3          6           0        0.425979   -0.036722    0.128361
      4          1           0        1.812048   -1.651487   -0.456369
      5          8           0        0.269110    1.148341    0.416001
      6          8           0       -0.587822   -0.940808    0.086139
      7          6           0       -1.891153   -0.391671    0.397142
      8          7           0       -2.377188    0.447074   -0.661819
      9          1           0       -1.800038    0.113985    1.363601
     10          1           0       -2.526207   -1.270606    0.496225
     11          1           0        2.604509    1.178846    0.002157
     12          1           0        3.642853   -0.061858   -0.596904
     13          1           0       -2.110014    1.412908   -0.522092
     14          1           0       -3.377165    0.369090   -0.786184
 ---------------------------------------------------------------------

 SCF Done:  E(UHF) =  -377.992774078     A.U. after    2 cycles

 The electronic state is 2-A.
 Alpha  occ. eigenvalues --  -21.07172 -21.03491 -15.77872 -15.73183 -11.51080
 Alpha  occ. eigenvalues --  -11.43129 -11.41640  -1.82674  -1.65433  -1.37784
 Alpha  occ. eigenvalues --   -1.31258  -1.04634  -0.92556  -0.77018  -0.71891
 Alpha  occ. eigenvalues --   -0.69315  -0.64676  -0.62035  -0.59298  -0.56992
 Alpha  occ. eigenvalues --   -0.53061  -0.51593  -0.46066  -0.42727  -0.34662
 Alpha  occ. eigenvalues --   -0.32844  -0.29851  -0.24170
 Alpha virt. eigenvalues --    0.03543   0.05028   0.05210   0.05922   0.06514
 Alpha virt. eigenvalues --    0.06831   0.08423   0.11212   0.11337   0.12547
 Alpha virt. eigenvalues --    0.13140   0.14262   0.15501   0.15878   0.16958

  Beta  occ. eigenvalues --  -21.07049 -21.02642 -15.77075 -15.73176 -11.51176
  Beta  occ. eigenvalues --  -11.43130 -11.40247  -1.82247  -1.63999  -1.35112
  Beta  occ. eigenvalues --   -1.31214  -1.00915  -0.90972  -0.75989  -0.71686
  Beta  occ. eigenvalues --   -0.69057  -0.64103  -0.61260  -0.58912  -0.52751
  Beta  occ. eigenvalues --   -0.51719  -0.50829  -0.42343  -0.40378  -0.34546
  Beta  occ. eigenvalues --   -0.29770  -0.28906
  Beta virt. eigenvalues --    0.03573   0.05029   0.05227   0.05922   0.06516
  Beta virt. eigenvalues --    0.06810   0.08219   0.09818   0.11246   0.12069
  Beta virt. eigenvalues --    0.12975   0.13716   0.14472   0.15571   0.16065

 Mulliken charges and spin densities:
               1          2
     1  N   -2.703684   0.228299
     2  C   -1.945085   0.973116
     3  C    7.219217  -0.406703
     4  H    1.655807  -0.034335
     5  O   -3.199531   0.241127
     6  O   -3.507982   0.019452
     7  C   -0.963090  -0.008892
     8  N   -2.238839   0.006346
     9  H    1.576842   0.000756
    10  H    1.541567   0.001315
    11  H    0.685982  -0.009423
    12  H    0.679298  -0.010649
    13  H    0.598421   0.000809
    14  H    0.601079  -0.001220
 Sum of Mulliken charges =  -0.00000   1.00000

 Dipole moment (field-independent basis, Debye):
    X=              0.4871    Y=             -0.2685    Z=             -0.2907  Tot=              0.6276
                          Isotropic Fermi Contact Couplings
        Atom                 a.u.       MegaHertz       Gauss      10(-4) cm-1
     1  N(14)              0.05920      19.12893       6.82568       6.38072
     2  C(13)              0.07948      89.34925      31.88203      29.80370
     3  C(13)             -0.03423     -38.48021     -13.73069     -12.83561
     4  H(1)              -0.01365     -61.02610     -21.77563     -20.35612
     5  O(17)              0.05050     -30.61352     -10.92367     -10.21157
     6  O(17)              0.00152      -0.92036      -0.32841      -0.30700
     7  C(13)             -0.00209      -2.35016      -0.83860      -0.78393
     8  N(14)              0.00590       1.90476       0.67967       0.63536

 Normal termination of Gaussian 16 at Tue Apr  8 23:06:30 2025.
