 Gaussian 16, Revision C.01,

 ----------------------------------------------------------------------
 #t hf aug-cc-pvdz symm=none int=(grid=ultrafine) guess=(read,tcheck) s
 table=opt
 ----------------------------------------------------------------------
 -----
 title
 -----
 Symbolic Z-matrix:
 Charge =  0 Multiplicity = 2

 SCF Done:  E(UHF) =  -887.340584178     A.U. after   22 cycles
 Normal termination of Gaussian 16 at Wed Apr  9 00:18:34 2025.
 Gaussian 16:  ES64L-G16RevC.01  3-Jul-2019

 ----------------------------------------------------------------------
 #t hf aug-cc-pvdz iop(5/13=1,5/36=2,99/5=2) pseudo=read geom=check gue
 ss=(read,tcheck) scf=(maxcycle=1)
 ----------------------------------------------------------------------
 -----
 title
 -----
 Structure from the checkpoint file:  "BDE49_nonexpt_2571_mol2.chk"
 Charge =  0 Multiplicity = 2

                         Standard orientation:
 ---------------------------------------------------------------------
 Center     Atomic      Atomic             Coordinates (Angstroms)
 Number     Number       Type             X           Y           Z
 ---------------------------------------------------------------------
      1         16           0        0.000000    0.000000   -2.175144
      2          7           0        0.000000    0.000000   -0.578448
      3          6           0        0.000000    0.000000    0.613593
      4         16           0        0.000000    0.000000    2.198118
 ---------------------------------------------------------------------

 SCF Done:  E(UHF) =  -888.159637596     A.U. after    2 cycles

 Unable to determine electronic state:  an orbital has unidentified symmetry.
 Alpha  occ. eigenvalues --  -75.77862 -75.71112 -15.83412 -13.30386 -13.23239
 Alpha  occ. eigenvalues --  -13.11845 -13.10043 -13.02534 -13.02098 -11.55160
 Alpha  occ. eigenvalues --   -8.11529  -8.05283  -1.48159  -1.21199  -1.09612
 Alpha  occ. eigenvalues --   -0.69660  -0.60505  -0.59756  -0.56254  -0.36408
 Alpha  occ. eigenvalues --   -0.34077  -0.25085  -0.22429
 Alpha virt. eigenvalues --    0.03284   0.04778   0.07388   0.08682   0.09153
 Alpha virt. eigenvalues --    0.11675   0.12112   0.13087   0.17480   0.18023
 Alpha virt. eigenvalues --    0.18578   0.19430   0.20274   0.22087   0.23340

  Beta  occ. eigenvalues --  -75.76971 -75.70876 -15.83496 -13.30008 -13.23127
  Beta  occ. eigenvalues --  -13.09511 -13.06509 -13.01881 -13.01124 -11.55106
  Beta  occ. eigenvalues --   -8.10529  -8.05020  -1.47004  -1.19291  -1.05020
  Beta  occ. eigenvalues --   -0.66560  -0.59854  -0.58341  -0.55295  -0.33623
  Beta  occ. eigenvalues --   -0.31227  -0.21541
  Beta virt. eigenvalues --    0.01505   0.03411   0.04930   0.07494   0.09171
  Beta virt. eigenvalues --    0.09371   0.12059   0.13077   0.13215   0.18088
  Beta virt. eigenvalues --    0.18955   0.19386   0.20413   0.22243   0.22766

 Mulliken charges and spin densities:
               1          2
     1  S    1.201944   0.916303
     2  N   -2.651478  -0.142200
     3  C    0.011073  -0.111218
     4  S    1.438461   0.337115
 Sum of Mulliken charges =  -0.00000   1.00000

 Dipole moment (field-independent basis, Debye):
    X=             -0.0000    Y=              0.0000    Z=              0.5543  Tot=              0.5543
                          Isotropic Fermi Contact Couplings
        Atom                 a.u.       MegaHertz       Gauss      10(-4) cm-1
     1  S(33)              0.30511     104.79549      37.39364      34.95601
     2  N(14)             -0.01329      -4.29413      -1.53225      -1.43237
     3  C(13)              0.00281       3.15751       1.12668       1.05323
     4  S(33)              0.09313      31.98799      11.41411      10.67004
 --------------------------------------------------------
       Center         ----  Spin Dipole Couplings  ----
                      3XX-RR        3YY-RR        3ZZ-RR
 --------------------------------------------------------

 Normal termination of Gaussian 16 at Wed Apr  9 00:18:35 2025.
