 Gaussian 16, Revision C.01,

 ----------------------------------------------------------------------
 #t hf aug-cc-pvdz symm=none int=(grid=ultrafine) guess=(read,tcheck) s
 table=opt
 ----------------------------------------------------------------------
 -----
 title
 -----
 Symbolic Z-matrix:
 Charge =  0 Multiplicity = 2

 SCF Done:  E(UHF) =  -664.873432423     A.U. after   22 cycles
 Normal termination of Gaussian 16 at Wed Apr  9 00:16:40 2025.
 Gaussian 16:  ES64L-G16RevC.01  3-Jul-2019

 ----------------------------------------------------------------------
 #t hf aug-cc-pvdz iop(5/13=1,5/36=2,99/5=2) pseudo=read geom=check gue
 ss=(read,tcheck) scf=(maxcycle=1)
 ----------------------------------------------------------------------
 -----
 title
 -----
 Structure from the checkpoint file:  "BDE49_nonexpt_2520_mol2.chk"
 Charge =  0 Multiplicity = 2

                         Standard orientation:
 ---------------------------------------------------------------------
 Center     Atomic      Atomic             Coordinates (Angstroms)
 Number     Number       Type             X           Y           Z
 ---------------------------------------------------------------------
      1         16           0       -0.861035   -0.289815   -0.239105
      2          6           0        0.935105    0.282969   -0.420312
      3          8           0       -1.699118    0.891094   -0.481809
      4          8           0       -0.947004   -1.027996    1.028270
      5          6           0        1.207364    1.316781    0.668850
      6          1           0        0.501598    2.146219    0.611838
      7          1           0        2.218909    1.713072    0.538306
      8          1           0        1.140425    0.863525    1.659765
      9          6           0        1.843664   -0.936615   -0.385086
     10          1           0        0.918321    0.746615   -1.409121
     11          1           0        2.881252   -0.617938   -0.521462
     12          1           0        1.602755   -1.646027   -1.179848
     13          1           0        1.765480   -1.452022    0.573800
 ---------------------------------------------------------------------

 SCF Done:  E(UHF) =  -666.338062423     A.U. after    2 cycles

 The electronic state is 2-A.
 Alpha  occ. eigenvalues --  -75.85803 -21.07828 -21.07714 -13.46722 -13.33409
 Alpha  occ. eigenvalues --  -13.24183 -11.47143 -11.41363 -11.39262  -8.20766
 Alpha  occ. eigenvalues --   -1.82634  -1.67007  -1.27049  -1.04079  -0.99140
 Alpha  occ. eigenvalues --   -0.84348  -0.68022  -0.64716  -0.60703  -0.57234
 Alpha  occ. eigenvalues --   -0.54333  -0.53356  -0.51473  -0.49824  -0.46508
 Alpha  occ. eigenvalues --   -0.42091  -0.37235  -0.36920  -0.27524
 Alpha virt. eigenvalues --    0.02891   0.04604   0.05042   0.05686   0.06397
 Alpha virt. eigenvalues --    0.07090   0.07320   0.08968   0.10771   0.11922
 Alpha virt. eigenvalues --    0.13397   0.13746   0.14417   0.14675   0.15483

  Beta  occ. eigenvalues --  -75.85442 -21.06478 -21.06396 -13.46762 -13.33356
  Beta  occ. eigenvalues --  -13.21967 -11.46706 -11.41383 -11.39199  -8.20303
  Beta  occ. eigenvalues --   -1.80095  -1.63529  -1.25773  -1.03988  -0.95288
  Beta  occ. eigenvalues --   -0.81786  -0.66754  -0.63428  -0.60038  -0.57007
  Beta  occ. eigenvalues --   -0.53208  -0.51167  -0.51012  -0.48082  -0.44250
  Beta  occ. eigenvalues --   -0.36221  -0.34487  -0.34254
  Beta virt. eigenvalues --    0.02232   0.04432   0.04837   0.05362   0.06306
  Beta virt. eigenvalues --    0.06692   0.07156   0.07329   0.09401   0.10989
  Beta virt. eigenvalues --    0.13156   0.13624   0.13825   0.14522   0.14777

 Mulliken charges and spin densities:
               1          2
     1  S    5.230526   0.299280
     2  C   -2.578378   0.329728
     3  O   -2.335636   0.238967
     4  O   -2.298326   0.243731
     5  C   -3.629875  -0.039461
     6  H    1.279208  -0.009142
     7  H    1.230387   0.011488
     8  H    1.405242  -0.005477
     9  C   -3.825497  -0.049254
    10  H    1.725149  -0.016309
    11  H    1.180603   0.004084
    12  H    1.227289  -0.008698
    13  H    1.389308   0.001063
 Sum of Mulliken charges =  -0.00000   1.00000

 Dipole moment (field-independent basis, Debye):
    X=              2.3495    Y=              0.0213    Z=             -0.8739  Tot=              2.5068
                          Isotropic Fermi Contact Couplings
        Atom                 a.u.       MegaHertz       Gauss      10(-4) cm-1
     1  S(33)              0.65196     223.92940      79.90358      74.69481
     2  C(13)              0.06371      71.62626      25.55803      23.89195
     3  O(17)              0.07619     -46.18733     -16.48079     -15.40643
     4  O(17)              0.07899     -47.88131     -17.08524     -15.97149
     5  C(13)             -0.00108      -1.21472      -0.43344      -0.40519
     6  H(1)              -0.00004      -0.16217      -0.05787      -0.05409
     7  H(1)               0.00349      15.58459       5.56097       5.19846
     8  H(1)              -0.00013      -0.58965      -0.21040      -0.19668

 Normal termination of Gaussian 16 at Wed Apr  9 00:16:45 2025.
