 Gaussian 16, Revision C.01,

 ----------------------------------------------------------------------
 #t hf aug-cc-pvdz symm=none int=(grid=ultrafine) guess=(read,tcheck) s
 table=opt
 ----------------------------------------------------------------------
 -----
 title
 -----
 Symbolic Z-matrix:
 Charge =  0 Multiplicity = 2

 SCF Done:  E(UHF) =  -1231.00985156     a.u. after    7 cycles
 Normal termination of Gaussian 16 at Wed Apr  9 00:18:42 2025.
 Gaussian 16:  ES64L-G16RevC.01  3-Jul-2019

 ----------------------------------------------------------------------
 #t hf aug-cc-pvdz iop(5/13=1,5/36=2,99/5=2) pseudo=read geom=check gue
 ss=(read,tcheck) scf=(maxcycle=1)
 ----------------------------------------------------------------------
 -----
 title
 -----
 Structure from the checkpoint file:  "BDE49_nonexpt_2575_mol2.chk"
 Charge =  0 Multiplicity = 2

                         Standard orientation:
 ---------------------------------------------------------------------
 Center     Atomic      Atomic             Coordinates (Angstroms)
 Number     Number       Type             X           Y           Z
 ---------------------------------------------------------------------
      1         16           0        0.957214   -1.372650   -0.000002
      2          6           0       -0.007588    0.000756   -0.000002
      3         16           0        0.915954    1.400292    0.000000
      4         16           0       -1.746873   -0.104421    0.000002
      5          1           0       -1.975186    1.223916    0.000006
 ---------------------------------------------------------------------

 SCF Done:  E(UHF) =  -1231.82276736     A.U. after    2 cycles

 The electronic state is 2-A.
 Alpha  occ. eigenvalues --  -75.75495 -75.74931 -75.68239 -13.20254 -13.17629
 Alpha  occ. eigenvalues --  -13.16729 -13.11141 -13.10009 -13.06642 -13.06286
 Alpha  occ. eigenvalues --  -13.01906 -12.98988 -11.51546  -8.09492  -8.09071
 Alpha  occ. eigenvalues --   -8.02220  -1.34891  -1.15077  -1.08110  -0.77432
 Alpha  occ. eigenvalues --   -0.58110  -0.52803  -0.48347  -0.43674  -0.31541
 Alpha  occ. eigenvalues --   -0.27761  -0.23429  -0.21529
 Alpha virt. eigenvalues --    0.01817   0.04721   0.05811   0.06677   0.07071
 Alpha virt. eigenvalues --    0.09747   0.11624   0.14455   0.14903   0.15848
 Alpha virt. eigenvalues --    0.16626   0.17395   0.17727   0.18464   0.18789

  Beta  occ. eigenvalues --  -75.75006 -75.74445 -75.68026 -13.19924 -13.17218
  Beta  occ. eigenvalues --  -13.16703 -13.10828 -13.06562 -13.05691 -13.04570
  Beta  occ. eigenvalues --  -13.00783 -12.98877 -11.51637  -8.09085  -8.08380
  Beta  occ. eigenvalues --   -8.01978  -1.33066  -1.12858  -1.03728  -0.75294
  Beta  occ. eigenvalues --   -0.56697  -0.51514  -0.48453  -0.42341  -0.27244
  Beta  occ. eigenvalues --   -0.23432  -0.22552
  Beta virt. eigenvalues --    0.01409   0.02603   0.04669   0.06124   0.07037
  Beta virt. eigenvalues --    0.08602   0.09899   0.12336   0.14912   0.14941
  Beta virt. eigenvalues --    0.16122   0.16899   0.17435   0.17994   0.18794

 Mulliken charges and spin densities:
               1          2
     1  S    1.093914   0.963710
     2  C   -2.541677  -0.131450
     3  S    0.717526   0.160291
     4  S   -0.363842   0.009569
     5  H    1.094078  -0.002120
 Sum of Mulliken charges =  -0.00000   1.00000

 Dipole moment (field-independent basis, Debye):
    X=             -0.1446    Y=             -1.0704    Z=              0.0000  Tot=              1.0801
                          Isotropic Fermi Contact Couplings
        Atom                 a.u.       MegaHertz       Gauss      10(-4) cm-1
     1  S(33)              0.38523     132.31578      47.21356      44.13579
     2  C(13)             -0.00994     -11.16905      -3.98539      -3.72559
     3  S(33)              0.12830      44.06751      15.72438      14.69934
     4  S(33)             -0.01957      -6.72064      -2.39809      -2.24176
     5  H(1)               0.00214       9.57361       3.41610       3.19341
 --------------------------------------------------------
       Center         ----  Spin Dipole Couplings  ----
                      3XX-RR        3YY-RR        3ZZ-RR

 Normal termination of Gaussian 16 at Wed Apr  9 00:18:43 2025.
