 Gaussian 16, Revision C.01,

 ----------------------------------------------------------------------
 #t hf aug-cc-pvdz symm=none int=(grid=ultrafine) guess=(read,tcheck) s
 table=(opt,rrhf)
 ----------------------------------------------------------------------
 -----
 title
 -----
 Symbolic Z-matrix:
 Charge =  0 Multiplicity = 1

 SCF Done:  E(RHF) =  -470.152432576     A.U. after   14 cycles
 Normal termination of Gaussian 16 at Wed Apr  9 00:33:39 2025.
 Gaussian 16:  ES64L-G16RevC.01  3-Jul-2019

 ----------------------------------------------------------------------
 #t hf aug-cc-pvdz iop(5/13=1,5/36=2,99/5=2) pseudo=read geom=check gue
 ss=(read,tcheck) scf=(maxcycle=1)
 ----------------------------------------------------------------------
 -----
 title
 -----
 Structure from the checkpoint file:  "BDE49_nonexpt_391_mol1.chk"
 Charge =  0 Multiplicity = 1

                         Standard orientation:
 ---------------------------------------------------------------------
 Center     Atomic      Atomic             Coordinates (Angstroms)
 Number     Number       Type             X           Y           Z
 ---------------------------------------------------------------------
      1          9           0        2.040669    0.218841    1.130772
      2          9           0        2.040676    0.218825   -1.130768
      3          5           0        1.380301    0.024991    0.000001
      4          6           0       -0.089192   -0.562250    0.000001
      5          8           0       -0.105078   -1.793648    0.000005
      6          7           0       -1.202825    0.218961   -0.000002
      7          6           0       -1.134562    1.667672   -0.000007
      8          1           0       -0.093237    1.997543   -0.000006
      9          1           0       -1.620772    2.083877    0.888858
     10          1           0       -1.620769    2.083871   -0.888877
     11          6           0       -2.522286   -0.395924   -0.000002
     12          1           0       -2.390492   -1.476239   -0.000002
     13          1           0       -3.085854   -0.096764   -0.889797
     14          1           0       -3.085853   -0.096766    0.889795
 ---------------------------------------------------------------------

 SCF Done:  E(RHF) =  -472.054482293     A.U. after    2 cycles

 The electronic state is 1-A.
 Alpha  occ. eigenvalues --  -29.27123 -29.27042 -21.03646 -15.76795 -11.47229
 Alpha  occ. eigenvalues --  -11.42910 -11.40581  -7.72620  -1.71707  -1.44742
 Alpha  occ. eigenvalues --   -1.17693  -1.07080  -1.00011  -0.79139  -0.76928
 Alpha  occ. eigenvalues --   -0.70576  -0.66807  -0.63953  -0.57514  -0.56977
 Alpha  occ. eigenvalues --   -0.54106  -0.51896  -0.50337  -0.47931  -0.46478
 Alpha  occ. eigenvalues --   -0.45964  -0.35364  -0.34643  -0.34345  -0.30375
 Alpha  occ. eigenvalues --   -0.23375
 Alpha virt. eigenvalues --    0.02540   0.04342   0.05043   0.05249   0.06071
 Alpha virt. eigenvalues --    0.06530   0.07088   0.07418   0.07807   0.09348
 Alpha virt. eigenvalues --    0.10304   0.13009   0.13461   0.13545   0.14182

 Mulliken charges:
               1
     1  F   -0.370471
     2  F   -0.370473
     3  B    1.799658
     4  C    3.793865
     5  O   -3.173334
     6  N   -3.463662
     7  C   -3.559336
     8  H    1.324685
     9  H    1.429492
    10  H    1.429492
    11  C   -3.153541
    12  H    1.448325
    13  H    1.432651
    14  H    1.432649
 Sum of Mulliken charges =  -0.00000

 Dipole moment (field-independent basis, Debye):
    X=              0.5051    Y=              2.8795    Z=             -0.0000  Tot=              2.9235

 Test job not archived.
 1\1\GINC-SE284\SP\RHF\Aug-CC-pVDZ\C3H6B1F2N1O1\OHZDE\09-Apr-2025\0\\#t
  hf aug-cc-pvdz iop(5/13=1,5/36=2,99/5=2) pseudo=read geom=check guess
 =(read,tcheck) scf=(maxcycle=1)\\title\\0,1\F,0,-2.040669,0.218841,-1.
 130772\F,0,-2.040676,0.218825,1.130768\B,0,-1.380301,0.024991,-0.00000
 1\C,0,0.089192,-0.56225,-0.000001\O,0,0.105078,-1.793648,-0.000005\N,0
 ,1.202825,0.218961,0.000002\C,0,1.134562,1.667672,0.000007\H,0,0.09323
 7,1.997543,0.000006\H,0,1.620772,2.083877,-0.888858\H,0,1.620769,2.083
 871,0.888877\C,0,2.522286,-0.395924,0.000002\H,0,2.390492,-1.476239,0.

 Normal termination of Gaussian 16 at Wed Apr  9 00:33:46 2025.
