 Gaussian 16, Revision C.01,

 ----------------------------------------------------------------------
 #t hf aug-cc-pvdz symm=none int=(grid=ultrafine) guess=(read,tcheck) s
 table=opt
 ----------------------------------------------------------------------
 -----
 title
 -----
 Symbolic Z-matrix:
 Charge =  0 Multiplicity = 2

 SCF Done:  E(UHF) =  -605.597670867     A.U. after   16 cycles
 Normal termination of Gaussian 16 at Tue Apr  8 23:54:26 2025.
 Gaussian 16:  ES64L-G16RevC.01  3-Jul-2019

 ----------------------------------------------------------------------
 #t hf aug-cc-pvdz iop(5/13=1,5/36=2,99/5=2) pseudo=read geom=check gue
 ss=(read,tcheck) scf=(maxcycle=1)
 ----------------------------------------------------------------------
 -----
 title
 -----
 Structure from the checkpoint file:  "BDE49_nonexpt_1954_mol3.chk"
 Charge =  0 Multiplicity = 2

                         Standard orientation:
 ---------------------------------------------------------------------
 Center     Atomic      Atomic             Coordinates (Angstroms)
 Number     Number       Type             X           Y           Z
 ---------------------------------------------------------------------
      1          6           0        1.713757   -0.000038    0.186718
      2         15           0       -0.041696    0.000000    0.102822
      3          8           0       -0.339776    1.283055   -0.817940
      4          8           0       -0.339837   -1.283025   -0.817961
      5          1           0       -1.136076    1.744214   -0.526543
      6          1           0       -1.136139   -1.744170   -0.526546
      7          8           0       -0.806182    0.000006    1.362989
      8          1           0        2.250717   -0.933687    0.286874
      9          1           0        2.250758    0.933587    0.286879
 ---------------------------------------------------------------------

 SCF Done:  E(UHF) =  -606.904622190     A.U. after    2 cycles

 The electronic state is 2-A.
 Alpha  occ. eigenvalues -- -105.30120 -21.11430 -21.11372 -21.01971 -11.41343
 Alpha  occ. eigenvalues --   -2.92953  -1.96106  -1.90928  -1.80634  -1.54606
 Alpha  occ. eigenvalues --   -1.39888  -1.26789  -0.99457  -0.69898  -0.63301
 Alpha  occ. eigenvalues --   -0.59277  -0.55327  -0.46663  -0.42349  -0.39601
 Alpha  occ. eigenvalues --   -0.34054  -0.33709  -0.29469  -0.28297  -0.16547
 Alpha virt. eigenvalues --    0.03191   0.05819   0.05861   0.06188   0.10931
 Alpha virt. eigenvalues --    0.11502   0.13131   0.13316   0.13674   0.14324
 Alpha virt. eigenvalues --    0.18796   0.19413   0.19866   0.20358   0.22930

  Beta  occ. eigenvalues -- -105.30187 -21.11428 -21.11370 -21.01756 -11.39187
  Beta  occ. eigenvalues --   -2.93089  -1.96007  -1.90970  -1.80733  -1.54396
  Beta  occ. eigenvalues --   -1.39956  -1.26210  -0.91721  -0.69372  -0.62200
  Beta  occ. eigenvalues --   -0.58814  -0.54809  -0.46095  -0.39605  -0.34929
  Beta  occ. eigenvalues --   -0.33591  -0.29534  -0.25534  -0.14970
  Beta virt. eigenvalues --    0.03322   0.05323   0.05882   0.05889   0.06197
  Beta virt. eigenvalues --    0.10972   0.11694   0.13155   0.13730   0.14367
  Beta virt. eigenvalues --    0.16030   0.18934   0.19763   0.20406   0.20428

 Mulliken charges and spin densities:
               1          2
     1  C   -5.224614   1.259073
     2  P    9.487083  -0.102972
     3  O   -2.712066   0.001947
     4  O   -2.712065   0.001946
     5  H    0.818660   0.003532
     6  H    0.818653   0.003532
     7  O   -2.832703   0.008401
     8  H    1.178526  -0.087729
     9  H    1.178526  -0.087729
 Sum of Mulliken charges =   0.00000   1.00000

 Dipole moment (field-independent basis, Debye):
    X=              1.3587    Y=             -0.0000    Z=             -2.3582  Tot=              2.7216
                          Isotropic Fermi Contact Couplings
        Atom                 a.u.       MegaHertz       Gauss      10(-4) cm-1
     1  C(13)              0.09224     103.69986      37.00269      34.59055
     2  P(31)             -0.09523    -172.46333     -61.53920     -57.52757
     3  O(17)             -0.00312       1.89400       0.67583       0.63177
     4  O(17)             -0.00312       1.89395       0.67581       0.63175
     5  H(1)               0.00127       5.66396       2.02104       1.88929
     6  H(1)               0.00127       5.66396       2.02104       1.88929
     7  O(17)              0.00915      -5.54385      -1.97818      -1.84923
     8  H(1)              -0.01693     -75.68106     -27.00488     -25.24448

 Normal termination of Gaussian 16 at Tue Apr  8 23:54:29 2025.
