 Gaussian 16, Revision C.01,

 ----------------------------------------------------------------------
 #t hf aug-cc-pvdz symm=none int=(grid=ultrafine) guess=(read,tcheck) s
 table=(opt,rrhf)
 ----------------------------------------------------------------------
 -----
 title
 -----
 Symbolic Z-matrix:
 Charge =  0 Multiplicity = 1

 SCF Done:  E(RHF) =  -325.991128411     A.U. after   14 cycles
 Normal termination of Gaussian 16 at Wed Apr  9 00:40:50 2025.
 Gaussian 16:  ES64L-G16RevC.01  3-Jul-2019

 ----------------------------------------------------------------------
 #t hf aug-cc-pvdz iop(5/13=1,5/36=2,99/5=2) pseudo=read geom=check gue
 ss=(read,tcheck) scf=(maxcycle=1)
 ----------------------------------------------------------------------
 -----
 title
 -----
 Structure from the checkpoint file:  "BDE49_nonexpt_659_mol1.chk"
 Charge =  0 Multiplicity = 1

                         Standard orientation:
 ---------------------------------------------------------------------
 Center     Atomic      Atomic             Coordinates (Angstroms)
 Number     Number       Type             X           Y           Z
 ---------------------------------------------------------------------
      1          8           0        0.607410   -0.827335   -0.017044
      2          5           0       -0.516088    0.001683   -0.000581
      3          8           0       -0.439282    1.357811    0.014061
      4          8           0       -1.699538   -0.665684    0.004637
      5          8           0        1.804177   -0.003409   -0.074409
      6          1           0        2.361289   -0.483586    0.552031
      7          1           0        0.482110    1.643144    0.015290
      8          1           0       -2.445098   -0.059043    0.017631
 ---------------------------------------------------------------------

 SCF Done:  E(RHF) =  -327.291929394     A.U. after    2 cycles

 The electronic state is 1-A.
 Alpha  occ. eigenvalues --  -21.14211 -21.08544 -21.06308 -21.06114  -7.66740
 Alpha  occ. eigenvalues --   -1.99237  -1.79764  -1.67314  -1.44393  -0.75694
 Alpha  occ. eigenvalues --   -0.66731  -0.65791  -0.59882  -0.55049  -0.48719
 Alpha  occ. eigenvalues --   -0.42693  -0.42235  -0.37179  -0.35454  -0.31255
 Alpha virt. eigenvalues --    0.03571   0.04050   0.05515   0.05788   0.07401
 Alpha virt. eigenvalues --    0.07768   0.10062   0.13939   0.16575   0.18547
 Alpha virt. eigenvalues --    0.19657   0.21083   0.21793   0.22357   0.23016

 Mulliken charges:
               1
     1  O   -2.553177
     2  B    7.716085
     3  O   -3.594942
     4  O   -3.706421
     5  O   -1.108155
     6  H    1.040724
     7  H    1.340922
     8  H    0.864964
 Sum of Mulliken charges =   0.00000

 Dipole moment (field-independent basis, Debye):
    X=              1.1114    Y=              0.8172    Z=              0.5471  Tot=              1.4840

 Test job not archived.
 1\1\GINC-SE344\SP\RHF\Aug-CC-pVDZ\B1H3O4\OHZDE\09-Apr-2025\0\\#t hf au
 g-cc-pvdz iop(5/13=1,5/36=2,99/5=2) pseudo=read geom=check guess=(read
 ,tcheck) scf=(maxcycle=1)\\title\\0,1\O,0,0.60741,-0.827335,-0.017044\
 B,0,-0.516088,0.001683,-0.000581\O,0,-0.439282,1.357811,0.014061\O,0,-
 1.699538,-0.665684,0.004637\O,0,1.804177,-0.003409,-0.074409\H,0,2.361
 289,-0.483586,0.552031\H,0,0.48211,1.643144,0.01529\H,0,-2.445098,-0.0
 59044,0.017631\\Version=ES64L-G16RevC.01\State=1-A\HF=-327.2919294\RMS
 D=1.089e-01\Dipole=0.4372464,0.3215121,0.2152295\Quadrupole=3.8341911,

 Normal termination of Gaussian 16 at Wed Apr  9 00:40:53 2025.
