 Gaussian 16, Revision C.01,

 ----------------------------------------------------------------------
 #t hf aug-cc-pvdz symm=none int=(grid=ultrafine) guess=(read,tcheck) s
 table=(opt,rrhf)
 ----------------------------------------------------------------------
 -----
 title
 -----
 Symbolic Z-matrix:
 Charge =  0 Multiplicity = 1

 SCF Done:  E(RHF) =  -150.572221742     A.U. after   12 cycles
 Normal termination of Gaussian 16 at Tue Apr  8 23:19:49 2025.
 Gaussian 16:  ES64L-G16RevC.01  3-Jul-2019

 ----------------------------------------------------------------------
 #t hf aug-cc-pvdz iop(5/13=1,5/36=2,99/5=2) pseudo=read geom=check gue
 ss=(read,tcheck) scf=(maxcycle=1)
 ----------------------------------------------------------------------
 -----
 title
 -----
 Structure from the checkpoint file:  "BDE49_nonexpt_10_mol1.chk"
 Charge =  0 Multiplicity = 1

                         Standard orientation:
 ---------------------------------------------------------------------
 Center     Atomic      Atomic             Coordinates (Angstroms)
 Number     Number       Type             X           Y           Z
 ---------------------------------------------------------------------
      1          5           0        1.461902   -0.142903   -0.000001
      2          5           0       -0.092109    0.471630    0.000022
      3          9           0       -1.188114   -0.292165   -0.000012
      4          1           0       -0.282899    1.660706    0.000003
      5          1           0        2.063509   -0.337335   -1.013662
      6          1           0        2.063446   -0.337523    1.013663
 ---------------------------------------------------------------------

 SCF Done:  E(RHF) =  -151.144280301     A.U. after    2 cycles

 The electronic state is 1-A.
 Alpha  occ. eigenvalues --  -29.24822  -7.64198  -7.60873  -1.02884  -0.81934
 Alpha  occ. eigenvalues --   -0.58696  -0.49911  -0.49263  -0.39396  -0.37769
 Alpha  occ. eigenvalues --   -0.26322
 Alpha virt. eigenvalues --    0.02061   0.02573   0.02801   0.05446   0.07846
 Alpha virt. eigenvalues --    0.08616   0.08962   0.11154   0.12046   0.12909
 Alpha virt. eigenvalues --    0.14063   0.15103   0.16653   0.22743   0.24123

 Mulliken charges:
               1
     1  B    4.344636
     2  B    2.915676
     3  F   -0.554864
     4  H   -2.119971
     5  H   -2.292737
     6  H   -2.292740
 Sum of Mulliken charges =  -0.00000

 Dipole moment (field-independent basis, Debye):
    X=             -2.4354    Y=             -2.0073    Z=             -0.0001  Tot=              3.1560

 Test job not archived.
 1\1\GINC-SE364\SP\RHF\Aug-CC-pVDZ\B2F1H3\OHZDE\08-Apr-2025\0\\#t hf au
 g-cc-pvdz iop(5/13=1,5/36=2,99/5=2) pseudo=read geom=check guess=(read
 ,tcheck) scf=(maxcycle=1)\\title\\0,1\B,0,1.461902,-0.142903,-0.000001
 \B,0,-0.092109,0.47163,0.000022\F,0,-1.188114,-0.292165,-0.000012\H,0,
 -0.282899,1.660706,0.000003\H,0,2.063509,-0.337335,-1.013662\H,0,2.063
 446,-0.337523,1.013663\\Version=ES64L-G16RevC.01\State=1-A\HF=-151.144
 2803\RMSD=2.580e-01\Dipole=-0.9581601,-0.7897266,-0.0000235\Quadrupole
 =0.5008023,-0.4320667,-0.0687356,1.8279611,0.0000715,0.0002077\PG=C01

 Normal termination of Gaussian 16 at Tue Apr  8 23:19:50 2025.
