 Gaussian 16, Revision C.01,

 ----------------------------------------------------------------------
 #t hf aug-cc-pvdz symm=none int=(grid=ultrafine) guess=(read,tcheck) s
 table=(opt,rrhf)
 ----------------------------------------------------------------------
 -----
 title
 -----
 Symbolic Z-matrix:
 Charge =  0 Multiplicity = 1

 SCF Done:  E(RHF) =  -608.193702806     A.U. after   14 cycles
 Normal termination of Gaussian 16 at Tue Apr  8 23:30:12 2025.
 Gaussian 16:  ES64L-G16RevC.01  3-Jul-2019

 ----------------------------------------------------------------------
 #t hf aug-cc-pvdz iop(5/13=1,5/36=2,99/5=2) pseudo=read geom=check gue
 ss=(read,tcheck) scf=(maxcycle=1)
 ----------------------------------------------------------------------
 -----
 title
 -----
 Structure from the checkpoint file:  "BDE49_nonexpt_1338_mol1.chk"
 Charge =  0 Multiplicity = 1

                         Standard orientation:
 ---------------------------------------------------------------------
 Center     Atomic      Atomic             Coordinates (Angstroms)
 Number     Number       Type             X           Y           Z
 ---------------------------------------------------------------------
      1          6           0        1.388218    0.103265    0.070745
      2          6           0        0.193699   -0.095737    0.994909
      3          8           0        2.133706    1.038167    0.137290
      4          8           0        1.585933   -0.873327   -0.853062
      5         15           0       -1.365320   -0.612302    0.088136
      6          1           0        0.067136    0.815416    1.578894
      7          1           0        0.432988   -0.913774    1.683884
      8          6           0       -1.951726    1.016258   -0.576958
      9          1           0       -2.955441    0.889728   -0.988458
     10          1           0       -1.293475    1.326410   -1.391395
     11          1           0       -1.971332    1.800588    0.181715
     12          1           0        0.857311   -1.511044   -0.825689
     13          1           0       -2.195652   -0.684227    1.233008
 ---------------------------------------------------------------------

 SCF Done:  E(RHF) =  -609.570941951     A.U. after    2 cycles

 The electronic state is 1-A.
 Alpha  occ. eigenvalues -- -105.19696 -21.12087 -21.05101 -11.52956 -11.41098
 Alpha  occ. eigenvalues --  -11.39044  -2.77393  -1.82147  -1.65451  -1.50311
 Alpha  occ. eigenvalues --   -1.48638  -1.46307  -1.09418  -1.01147  -0.79806
 Alpha  occ. eigenvalues --   -0.70514  -0.67709  -0.63433  -0.58066  -0.57816
 Alpha  occ. eigenvalues --   -0.53781  -0.50895  -0.45569  -0.34157  -0.32372
 Alpha  occ. eigenvalues --   -0.25629  -0.22171  -0.03908
 Alpha virt. eigenvalues --    0.03878   0.04625   0.05564   0.05889   0.06966
 Alpha virt. eigenvalues --    0.07241   0.07695   0.09529   0.09968   0.10959
 Alpha virt. eigenvalues --    0.12986   0.13083   0.13581   0.13950   0.14927

 Mulliken charges:
               1
     1  C    5.439386
     2  C   -4.664198
     3  O   -3.001943
     4  O   -3.160835
     5  P    4.494932
     6  H    1.255665
     7  H    1.331968
     8  C   -5.943209
     9  H    1.122156
    10  H    1.274761
    11  H    1.152186
    12  H    1.087957
    13  H   -0.388826
 Sum of Mulliken charges =   0.00000

 Dipole moment (field-independent basis, Debye):
    X=             -2.7078    Y=             -1.3453    Z=              0.2388  Tot=              3.0330

 Test job not archived.
 1\1\GINC-SE103\SP\RHF\Aug-CC-pVDZ\C3H7O2P1\OHZDE\08-Apr-2025\0\\#t hf
 aug-cc-pvdz iop(5/13=1,5/36=2,99/5=2) pseudo=read geom=check guess=(re
 ad,tcheck) scf=(maxcycle=1)\\title\\0,1\C,0,1.388218,0.103265,0.070745
 \C,0,0.193699,-0.095737,0.994909\O,0,2.133706,1.038167,0.13729\O,0,1.5
 85933,-0.873327,-0.853062\P,0,-1.36532,-0.612302,0.088136\H,0,0.067136
 ,0.815416,1.578894\H,0,0.432988,-0.913774,1.683884\C,0,-1.951726,1.016
 258,-0.576958\H,0,-2.955441,0.889729,-0.988458\H,0,-1.293475,1.32641,-
 1.391395\H,0,-1.971332,1.800588,0.181715\H,0,0.857311,-1.511044,-0.825

 Normal termination of Gaussian 16 at Tue Apr  8 23:30:17 2025.
