 Gaussian 16, Revision C.01,

 ----------------------------------------------------------------------
 #t hf aug-cc-pvdz symm=none int=(grid=ultrafine) guess=(read,tcheck) s
 table=(opt,rrhf)
 ----------------------------------------------------------------------
 -----
 title
 -----
 Symbolic Z-matrix:
 Charge =  0 Multiplicity = 1

 SCF Done:  E(RHF) =  -517.613151283     A.U. after   12 cycles
 Normal termination of Gaussian 16 at Wed Apr  9 00:43:51 2025.
 Gaussian 16:  ES64L-G16RevC.01  3-Jul-2019

 ----------------------------------------------------------------------
 #t hf aug-cc-pvdz iop(5/13=1,5/36=2,99/5=2) pseudo=read geom=check gue
 ss=(read,tcheck) scf=(maxcycle=1)
 ----------------------------------------------------------------------
 -----
 title
 -----
 Structure from the checkpoint file:  "BDE49_nonexpt_748_mol1.chk"
 Charge =  0 Multiplicity = 1

                         Standard orientation:
 ---------------------------------------------------------------------
 Center     Atomic      Atomic             Coordinates (Angstroms)
 Number     Number       Type             X           Y           Z
 ---------------------------------------------------------------------
      1         15           0        1.415948   -0.000000   -0.119949
      2          5           0       -0.545805    0.000000    0.013132
      3          8           0       -1.270573   -1.152979    0.003672
      4          8           0       -1.270573    1.152979    0.003672
      5          1           0       -0.739270    1.951340    0.021619
      6          1           0       -0.739270   -1.951340    0.021618
      7          1           0        1.648754   -1.040552    0.815789
      8          1           0        1.648754    1.040554    0.815787
 ---------------------------------------------------------------------

 SCF Done:  E(RHF) =  -518.529850424     A.U. after    2 cycles

 The electronic state is 1-A.
 Alpha  occ. eigenvalues -- -105.17605 -21.06682 -21.06624  -7.65953  -2.74710
 Alpha  occ. eigenvalues --   -1.81964  -1.66307  -1.46513  -1.44098  -1.42354
 Alpha  occ. eigenvalues --   -0.78324  -0.73743  -0.57526  -0.50018  -0.48968
 Alpha  occ. eigenvalues --   -0.47756  -0.37198  -0.26585  -0.16542  -0.03733
 Alpha virt. eigenvalues --    0.03773   0.04417   0.05730   0.06468   0.08246
 Alpha virt. eigenvalues --    0.09252   0.09985   0.10689   0.11096   0.11447
 Alpha virt. eigenvalues --    0.15178   0.17518   0.17872   0.18729   0.20966

 Mulliken charges:
               1
     1  P    0.598747
     2  B    4.754509
     3  O   -3.294538
     4  O   -3.294535
     5  H    1.489533
     6  H    1.489533
     7  H   -0.871625
     8  H   -0.871625
 Sum of Mulliken charges =  -0.00000

 Dipole moment (field-independent basis, Debye):
    X=              2.7831    Y=             -0.0000    Z=             -3.9145  Tot=              4.8030

 Test job not archived.
 1\1\GINC-SE073\SP\RHF\Aug-CC-pVDZ\B1H4O2P1\OHZDE\09-Apr-2025\0\\#t hf
 aug-cc-pvdz iop(5/13=1,5/36=2,99/5=2) pseudo=read geom=check guess=(re
 ad,tcheck) scf=(maxcycle=1)\\title\\0,1\P,0,1.415948,0.,-0.119949\B,0,
 -0.545805,0.,0.013132\O,0,-1.270573,-1.152979,0.003672\O,0,-1.270573,1
 .152979,0.003672\H,0,-0.73927,1.95134,0.021619\H,0,-0.73927,-1.95134,0
 .021618\H,0,1.648754,-1.040552,0.815789\H,0,1.648754,1.040554,0.815787
 \\Version=ES64L-G16RevC.01\State=1-A\HF=-518.5298504\RMSD=2.595e-01\Di
 pole=1.0949507,-0.0000015,-1.5400636\Quadrupole=-2.2876121,5.9938916,-

 Normal termination of Gaussian 16 at Wed Apr  9 00:43:53 2025.
