 Gaussian 16, Revision C.01,

 ----------------------------------------------------------------------
 #t hf aug-cc-pvdz symm=none int=(grid=ultrafine) guess=(read,tcheck) s
 table=opt
 ----------------------------------------------------------------------
 -----
 title
 -----
 Symbolic Z-matrix:
 Charge =  0 Multiplicity = 2

 SCF Done:  E(UHF) =  -931.596565069     A.U. after   15 cycles
 Normal termination of Gaussian 16 at Tue Apr  8 23:54:32 2025.
 Gaussian 16:  ES64L-G16RevC.01  3-Jul-2019

 ----------------------------------------------------------------------
 #t hf aug-cc-pvdz iop(5/13=1,5/36=2,99/5=2) pseudo=read geom=check gue
 ss=(read,tcheck) scf=(maxcycle=1)
 ----------------------------------------------------------------------
 -----
 title
 -----
 Structure from the checkpoint file:  "BDE49_nonexpt_1955_mol2.chk"
 Charge =  0 Multiplicity = 2

                         Standard orientation:
 ---------------------------------------------------------------------
 Center     Atomic      Atomic             Coordinates (Angstroms)
 Number     Number       Type             X           Y           Z
 ---------------------------------------------------------------------
      1         14           0       -2.269666    0.001790   -0.079518
      2         15           0        0.779069   -0.039964   -0.108193
      3          8           0        0.514676    1.519199    0.139324
      4          1           0        1.268653    2.062998   -0.116519
      5          8           0        1.385537   -0.529035    1.289354
      6          1           0        2.034374   -1.230139    1.158120
      7          8           0        1.595890   -0.390206   -1.267715
      8          8           0       -0.697991   -0.583779   -0.083238
      9          1           0       -3.120615   -1.212096   -0.066547
     10          1           0       -2.478022    0.824209    1.139295
 ---------------------------------------------------------------------

 SCF Done:  E(UHF) =  -933.164441988     A.U. after    2 cycles

 The electronic state is 2-A.
 Alpha  occ. eigenvalues -- -105.33336 -76.27674 -21.12550 -21.12001 -21.09284
 Alpha  occ. eigenvalues --  -21.02825  -5.60884  -2.96826  -2.26612  -2.22510
 Alpha  occ. eigenvalues --   -2.21509  -2.01647  -1.92771  -1.91419  -1.74865
 Alpha  occ. eigenvalues --   -1.41794  -1.40917  -1.25497  -0.77618  -0.68606
 Alpha  occ. eigenvalues --   -0.61697  -0.56149  -0.52801  -0.51436  -0.47077
 Alpha  occ. eigenvalues --   -0.44090  -0.40406  -0.36835  -0.34831  -0.30719
 Alpha  occ. eigenvalues --   -0.30351  -0.28290  -0.17134
 Alpha virt. eigenvalues --    0.03771   0.04813   0.05810   0.06421   0.07342
 Alpha virt. eigenvalues --    0.07944   0.09427   0.11501   0.11741   0.12372
 Alpha virt. eigenvalues --    0.13290   0.14434   0.16705   0.17725   0.18125

  Beta  occ. eigenvalues -- -105.33339 -76.27117 -21.12553 -21.11992 -21.09005
  Beta  occ. eigenvalues --  -21.02831  -5.59984  -2.96829  -2.25965  -2.21913
  Beta  occ. eigenvalues --   -2.18104  -2.01597  -1.92695  -1.91280  -1.74702
  Beta  occ. eigenvalues --   -1.41716  -1.40693  -1.25448  -0.74683  -0.67181
  Beta  occ. eigenvalues --   -0.61562  -0.55735  -0.51882  -0.49597  -0.46678
  Beta  occ. eigenvalues --   -0.43481  -0.39995  -0.36460  -0.34785  -0.30478
  Beta  occ. eigenvalues --   -0.29834  -0.17148
  Beta virt. eigenvalues --    0.03164   0.04118   0.05103   0.05818   0.06611
  Beta virt. eigenvalues --    0.08025   0.09705   0.09819   0.11611   0.11779
  Beta virt. eigenvalues --    0.12926   0.14071   0.15159   0.18132   0.19211

 Mulliken charges and spin densities:
               1          2
     1  Si   4.276245   0.980995
     2  P    8.618602   0.040689
     3  O   -2.640608  -0.018680
     4  H    0.908363  -0.003384
     5  O   -2.584854  -0.009124
     6  H    0.847382   0.005767
     7  O   -2.706071   0.002949
     8  O   -3.800913  -0.049586
     9  H   -1.555630   0.019809
    10  H   -1.362517   0.030564
 Sum of Mulliken charges =  -0.00000   1.00000

 Dipole moment (field-independent basis, Debye):
    X=             -0.7010    Y=              0.8411    Z=              1.9096  Tot=              2.2013
                          Isotropic Fermi Contact Couplings
        Atom                 a.u.       MegaHertz       Gauss      10(-4) cm-1
     1  Si(29)             0.58335    -518.43933    -184.99204    -172.93275
     2  P(31)             -0.00286      -5.18039      -1.84849      -1.72799
     3  O(17)             -0.00073       0.44007       0.15703       0.14679
     4  H(1)              -0.00006      -0.27399      -0.09776      -0.09139
     5  O(17)              0.00073      -0.44227      -0.15781      -0.14752
     6  H(1)              -0.00000      -0.01997      -0.00712      -0.00666
     7  O(17)             -0.00078       0.47245       0.16858       0.15759
     8  O(17)              0.03022     -18.31966      -6.53691      -6.11078

 Normal termination of Gaussian 16 at Tue Apr  8 23:54:37 2025.
