 Gaussian 16, Revision C.01,

 ----------------------------------------------------------------------
 #t hf aug-cc-pvdz symm=none int=(grid=ultrafine) guess=(read,tcheck) s
 table=(opt,rrhf)
 ----------------------------------------------------------------------
 -----
 title
 -----
 Symbolic Z-matrix:
 Charge =  0 Multiplicity = 1

 SCF Done:  E(RHF) =  -1076.29473473     A.U. after   13 cycles
 Normal termination of Gaussian 16 at Wed Apr  9 00:03:31 2025.
 Gaussian 16:  ES64L-G16RevC.01  3-Jul-2019

 ----------------------------------------------------------------------
 #t hf aug-cc-pvdz iop(5/13=1,5/36=2,99/5=2) pseudo=read geom=check gue
 ss=(read,tcheck) scf=(maxcycle=1)
 ----------------------------------------------------------------------
 -----
 title
 -----
 Structure from the checkpoint file:  "BDE49_nonexpt_216_mol1.chk"
 Charge =  0 Multiplicity = 1

                         Standard orientation:
 ---------------------------------------------------------------------
 Center     Atomic      Atomic             Coordinates (Angstroms)
 Number     Number       Type             X           Y           Z
 ---------------------------------------------------------------------
      1         17           0        0.921855    1.657153   -0.000224
      2         17           0        1.870404   -1.224266   -0.000418
      3          5           0        0.548504   -0.053160    0.000866
      4          6           0       -0.916721   -0.590960    0.000493
      5          7           0       -1.905575    0.213737    0.000382
      6          1           0       -1.070794   -1.682966    0.000365
      7          6           0       -3.244826   -0.336343    0.000090
      8          1           0       -3.777503    0.046274    0.876304
      9          1           0       -3.277135   -1.435355   -0.000009
     10          1           0       -3.777176    0.046422   -0.876257
 ---------------------------------------------------------------------

 SCF Done:  E(RHF) =  -1077.51326180     A.U. after    2 cycles

 The electronic state is 1-A.
 Alpha  occ. eigenvalues --  -99.90304 -99.89685 -15.76858 -11.39996 -11.39868
 Alpha  occ. eigenvalues --  -10.47635 -10.46986  -9.67611  -9.67115  -9.66940
 Alpha  occ. eigenvalues --   -9.66909  -9.66463  -9.66279  -7.71722  -1.42926
 Alpha  occ. eigenvalues --   -1.37132  -1.29777  -1.05400  -0.88162  -0.77360
 Alpha  occ. eigenvalues --   -0.67117  -0.64477  -0.60658  -0.58526  -0.57689
 Alpha  occ. eigenvalues --   -0.57408  -0.52460  -0.50345  -0.46384  -0.42293
 Alpha  occ. eigenvalues --   -0.38541
 Alpha virt. eigenvalues --    0.03113   0.03774   0.04213   0.04516   0.04738
 Alpha virt. eigenvalues --    0.06571   0.06814   0.06861   0.09760   0.11637
 Alpha virt. eigenvalues --    0.12696   0.12737   0.13899   0.14666   0.15511

 Mulliken charges:
               1
     1  Cl  -1.138758
     2  Cl  -1.299510
     3  B    3.195132
     4  C   -0.879453
     5  N   -2.565623
     6  H    1.801778
     7  C   -3.101393
     8  H    1.385851
     9  H    1.216147
    10  H    1.385826
 Sum of Mulliken charges =  -0.00000

 Dipole moment (field-independent basis, Debye):
    X=             -2.2267    Y=             -1.0923    Z=              0.0013  Tot=              2.4802

 Test job not archived.
 1\1\GINC-SE419\SP\RHF\Aug-CC-pVDZ\C2H4B1Cl2N1\OHZDE\09-Apr-2025\0\\#t
 hf aug-cc-pvdz iop(5/13=1,5/36=2,99/5=2) pseudo=read geom=check guess=
 (read,tcheck) scf=(maxcycle=1)\\title\\0,1\Cl,0,-0.921855,1.657153,0.0
 00224\Cl,0,-1.870404,-1.224266,0.000418\B,0,-0.548504,-0.05316,-0.0008
 66\C,0,0.916721,-0.59096,-0.000493\N,0,1.905575,0.213737,-0.000382\H,0
 ,1.070794,-1.682966,-0.000365\C,0,3.244826,-0.336343,-0.00009\H,0,3.77
 7503,0.046274,-0.876304\H,0,3.277135,-1.435355,0.000009\H,0,3.777176,0
 .046422,0.876257\\Version=ES64L-G16RevC.01\State=1-A\HF=-1077.5132618\

 Normal termination of Gaussian 16 at Wed Apr  9 00:03:35 2025.
