 Gaussian 16, Revision C.01,

 ----------------------------------------------------------------------
 #t hf aug-cc-pvdz symm=none int=(grid=ultrafine) guess=(read,tcheck) s
 table=(opt,rrhf)
 ----------------------------------------------------------------------
 -----
 title
 -----
 Symbolic Z-matrix:
 Charge =  0 Multiplicity = 1

 SCF Done:  E(RHF) =  -368.711723035     A.U. after   17 cycles
 Normal termination of Gaussian 16 at Wed Apr  9 00:29:09 2025.
 Gaussian 16:  ES64L-G16RevC.01  3-Jul-2019

 ----------------------------------------------------------------------
 #t hf aug-cc-pvdz iop(5/13=1,5/36=2,99/5=2) pseudo=read geom=check gue
 ss=(read,tcheck) scf=(maxcycle=1)
 ----------------------------------------------------------------------
 -----
 title
 -----
 Structure from the checkpoint file:  "BDE49_nonexpt_296_mol1.chk"
 Charge =  0 Multiplicity = 1

                         Standard orientation:
 ---------------------------------------------------------------------
 Center     Atomic      Atomic             Coordinates (Angstroms)
 Number     Number       Type             X           Y           Z
 ---------------------------------------------------------------------
      1          6           0       -1.859650    1.252814   -0.000053
      2          6           0       -0.468909    1.236113   -0.000093
      3          6           0        0.215454    0.015444   -0.000078
      4          6           0        1.677143    0.006075   -0.000158
      5          8           0        2.385619   -1.014510    0.000227
      6          5           0        2.941164    0.879637    0.000016
      7          6           0       -2.565662    0.050381    0.000017
      8          6           0       -1.886788   -1.171232    0.000042
      9          6           0       -0.499605   -1.190979   -0.000003
     10          1           0        0.052517   -2.123572    0.000008
     11          1           0       -2.393230    2.195993   -0.000073
     12          1           0        0.094439    2.162978   -0.000146
     13          1           0       -3.649903    0.063212    0.000053
     14          1           0       -2.444592   -2.100494    0.000094
     15          1           0        3.439208    1.163633    1.041179
     16          1           0        3.438905    1.164447   -1.041061
 ---------------------------------------------------------------------

 SCF Done:  E(RHF) =  -370.412115489     A.U. after    2 cycles

 The electronic state is 1-A.
 Alpha  occ. eigenvalues --  -21.06836 -11.53684 -11.47607 -11.45677 -11.44665
 Alpha  occ. eigenvalues --  -11.42928 -11.42596 -11.38490  -7.63677  -1.74477
 Alpha  occ. eigenvalues --   -1.36186  -1.13634  -1.11326  -0.95563  -0.90150
 Alpha  occ. eigenvalues --   -0.87605  -0.77555  -0.71119  -0.64170  -0.60450
 Alpha  occ. eigenvalues --   -0.59445  -0.57140  -0.56220  -0.51143  -0.48831
 Alpha  occ. eigenvalues --   -0.47451  -0.44271  -0.41784  -0.34962  -0.33073
 Alpha  occ. eigenvalues --   -0.30273
 Alpha virt. eigenvalues --    0.02603   0.03826   0.04623   0.04722   0.05346
 Alpha virt. eigenvalues --    0.05820   0.06409   0.07621   0.07880   0.09320
 Alpha virt. eigenvalues --    0.10421   0.10655   0.11661   0.12112   0.13042

 Mulliken charges:
               1
     1  C   -2.128103
     2  C   -1.080194
     3  C    5.121128
     4  C    0.194555
     5  O   -3.113855
     6  B    6.231971
     7  C   -2.647402
     8  C   -1.622434
     9  C   -2.820181
    10  H    1.729900
    11  H    1.472749
    12  H    1.893264
    13  H    1.517171
    14  H    1.504433
    15  H   -3.126595
    16  H   -3.126407
 Sum of Mulliken charges =   0.00000

 Dipole moment (field-independent basis, Debye):
    X=             -2.8701    Y=             -0.5628    Z=              0.0002  Tot=              2.9247

 Test job not archived.
 1\1\GINC-SE162\SP\RHF\Aug-CC-pVDZ\C7H7B1O1\OHZDE\09-Apr-2025\0\\#t hf
 aug-cc-pvdz iop(5/13=1,5/36=2,99/5=2) pseudo=read geom=check guess=(re
 ad,tcheck) scf=(maxcycle=1)\\title\\0,1\C,0,-1.85965,1.252814,-0.00005
 3\C,0,-0.468909,1.236113,-0.000093\C,0,0.215454,0.015444,-0.000078\C,0
 ,1.677143,0.006075,-0.000158\O,0,2.385619,-1.01451,0.000227\B,0,2.9411
 64,0.879637,0.000016\C,0,-2.565662,0.050381,0.000017\C,0,-1.886788,-1.
 171232,0.000042\C,0,-0.499605,-1.190979,-0.000003\H,0,0.052517,-2.1235
 72,0.000008\H,0,-2.39323,2.195993,-0.000073\H,0,0.094439,2.162978,-0.0

 Normal termination of Gaussian 16 at Wed Apr  9 00:29:16 2025.
