 Gaussian 16, Revision C.01,

 ----------------------------------------------------------------------
 #t hf aug-cc-pvdz symm=none int=(grid=ultrafine) guess=(read,tcheck) s
 table=(opt,rrhf)
 ----------------------------------------------------------------------
 -----
 title
 -----
 Symbolic Z-matrix:
 Charge =  0 Multiplicity = 1

 SCF Done:  E(RHF) =  -1442.33220145     A.U. after   12 cycles
 Normal termination of Gaussian 16 at Tue Apr  8 23:43:13 2025.
 Gaussian 16:  ES64L-G16RevC.01  3-Jul-2019

 ----------------------------------------------------------------------
 #t hf aug-cc-pvdz iop(5/13=1,5/36=2,99/5=2) pseudo=read geom=check gue
 ss=(read,tcheck) scf=(maxcycle=1)
 ----------------------------------------------------------------------
 -----
 title
 -----
 Structure from the checkpoint file:  "BDE49_nonexpt_167_mol1.chk"
 Charge =  0 Multiplicity = 1

                         Standard orientation:
 ---------------------------------------------------------------------
 Center     Atomic      Atomic             Coordinates (Angstroms)
 Number     Number       Type             X           Y           Z
 ---------------------------------------------------------------------
      1         17           0       -2.120563   -0.808631    0.000027
      2         17           0       -0.395813    1.679635   -0.000035
      3          5           0       -0.520786   -0.061158   -0.000038
      4          6           0        0.704930   -1.042171    0.000012
      5         17           0        2.344134   -0.285921    0.000011
      6          1           0        0.651247   -1.693834   -0.875663
      7          1           0        0.651221   -1.693776    0.875730
 ---------------------------------------------------------------------

 SCF Done:  E(RHF) =  -1443.36624197     A.U. after    2 cycles

 The electronic state is 1-A.
 Alpha  occ. eigenvalues --  -99.91308 -99.91134 -99.89063 -11.42445 -10.48683
 Alpha  occ. eigenvalues --  -10.48401 -10.46291  -9.68619  -9.68330  -9.68117
 Alpha  occ. eigenvalues --   -9.67943  -9.67912  -9.67741  -9.66114  -9.65452
 Alpha  occ. eigenvalues --   -9.65376  -7.72708  -1.42386  -1.32649  -1.31064
 Alpha  occ. eigenvalues --   -1.05722  -0.80666  -0.67705  -0.66156  -0.65075
 Alpha  occ. eigenvalues --   -0.58123  -0.57696  -0.53800  -0.52918  -0.50869
 Alpha  occ. eigenvalues --   -0.48755  -0.46100
 Alpha virt. eigenvalues --    0.02077   0.03760   0.04144   0.04349   0.04916
 Alpha virt. eigenvalues --    0.07596   0.09182   0.09212   0.10923   0.12213
 Alpha virt. eigenvalues --    0.13910   0.14711   0.15260   0.16220   0.16935

 Mulliken charges:
               1
     1  Cl  -1.259063
     2  Cl  -1.113539
     3  B    3.708309
     4  C   -4.480691
     5  Cl  -0.056488
     6  H    1.600764
     7  H    1.600708
 Sum of Mulliken charges =  -0.00000

 Dipole moment (field-independent basis, Debye):
    X=             -0.9528    Y=             -1.2576    Z=             -0.0000  Tot=              1.5778

 Test job not archived.
 1\1\GINC-SE177\SP\RHF\Aug-CC-pVDZ\C1H2B1Cl3\OHZDE\08-Apr-2025\0\\#t hf
  aug-cc-pvdz iop(5/13=1,5/36=2,99/5=2) pseudo=read geom=check guess=(r
 ead,tcheck) scf=(maxcycle=1)\\title\\0,1\Cl,0,-2.120563,-0.808631,0.00
 0027\Cl,0,-0.395813,1.679635,-0.000035\B,0,-0.520786,-0.061158,-0.0000
 38\C,0,0.70493,-1.042171,0.000012\Cl,0,2.344134,-0.28592,0.000011\H,0,
 0.651247,-1.693834,-0.875663\H,0,0.651221,-1.693776,0.87573\\Version=E
 S64L-G16RevC.01\State=1-A\HF=-1443.366242\RMSD=4.459e-02\Dipole=-0.374
 8428,-0.4947817,-0.0000159\Quadrupole=-3.2369257,2.1551249,1.0818009,0

 Normal termination of Gaussian 16 at Tue Apr  8 23:43:16 2025.
