 Gaussian 16, Revision C.01,

 ----------------------------------------------------------------------
 #t hf aug-cc-pvdz symm=none int=(grid=ultrafine) guess=(read,tcheck) s
 table=(opt,rrhf)
 ----------------------------------------------------------------------
 -----
 title
 -----
 Symbolic Z-matrix:
 Charge =  0 Multiplicity = 1

 SCF Done:  E(RHF) =  -549.557060985     A.U. after   12 cycles
 Normal termination of Gaussian 16 at Wed Apr  9 00:48:02 2025.
 Gaussian 16:  ES64L-G16RevC.01  3-Jul-2019

 ----------------------------------------------------------------------
 #t hf aug-cc-pvdz iop(5/13=1,5/36=2,99/5=2) pseudo=read geom=check gue
 ss=(read,tcheck) scf=(maxcycle=1)
 ----------------------------------------------------------------------
 -----
 title
 -----
 Structure from the checkpoint file:  "BDE49_nonexpt_808_mol1.chk"
 Charge =  0 Multiplicity = 1

                         Standard orientation:
 ---------------------------------------------------------------------
 Center     Atomic      Atomic             Coordinates (Angstroms)
 Number     Number       Type             X           Y           Z
 ---------------------------------------------------------------------
      1          6           0        0.240913    0.000002   -0.607113
      2          6           0       -0.381137   -1.270734    0.014244
      3          6           0       -1.915578   -1.268100   -0.079246
      4          6           0       -2.518246   -0.000001    0.540588
      5          6           0       -1.915577    1.268102   -0.079239
      6          6           0       -0.381136    1.270734    0.014251
      7          5           0        2.937440   -0.000008    1.348299
      8          1           0       -0.091413   -1.337831    1.071937
      9          1           0        0.018372   -2.166606   -0.473293
     10          1           0       -2.321954   -2.159588    0.410241
     11          1           0       -2.209755   -1.329603   -1.134969
     12          1           0       -2.324355   -0.000004    1.621300
     13          1           0       -3.606520    0.000000    0.420663
     14          1           0       -2.321953    2.159587    0.410253
     15          1           0       -2.209754    1.329611   -1.134962
     16          1           0        0.018373    2.166609   -0.473280
     17          1           0       -0.091413    1.337824    1.071945
     18         14           0        2.137416    0.000002   -0.503740
     19          1           0       -0.002751    0.000005   -1.680200
     20          1           0        2.668246    1.196091   -1.220712
     21          1           0        2.668245   -1.196098   -1.220695
     22          1           0        4.124715    0.000045    1.468056
     23          1           0        2.295460   -0.000055    2.353671
 ---------------------------------------------------------------------

 SCF Done:  E(RHF) =  -551.053163765     A.U. after    2 cycles

 The electronic state is 1-A.
 Alpha  occ. eigenvalues --  -76.18735 -11.43443 -11.42362 -11.41831 -11.37196
 Alpha  occ. eigenvalues --  -11.36589 -11.33423  -7.61741  -5.52502  -2.17147
 Alpha  occ. eigenvalues --   -2.15179  -2.15083  -1.30980  -1.09787  -1.09719
 Alpha  occ. eigenvalues --   -0.88714  -0.87944  -0.84933  -0.77869  -0.70120
 Alpha  occ. eigenvalues --   -0.64245  -0.60865  -0.60530  -0.59030  -0.52457
 Alpha  occ. eigenvalues --   -0.49455  -0.49406  -0.47030  -0.46586  -0.46327
 Alpha  occ. eigenvalues --   -0.44778  -0.43646  -0.38683  -0.36827  -0.32966
 Alpha virt. eigenvalues --    0.02837   0.03608   0.03684   0.04179   0.05400
 Alpha virt. eigenvalues --    0.05646   0.05696   0.05941   0.06293   0.06759
 Alpha virt. eigenvalues --    0.07788   0.08291   0.08550   0.08815   0.09778

 Mulliken charges:
               1
     1  C   -0.704926
     2  C   -3.212561
     3  C   -3.027372
     4  C   -2.713169
     5  C   -3.027370
     6  C   -3.212553
     7  B    3.262360
     8  H    1.557642
     9  H    1.492218
    10  H    1.273059
    11  H    1.362641
    12  H    1.391656
    13  H    1.324187
    14  H    1.273060
    15  H    1.362641
    16  H    1.492215
    17  H    1.557655
    18  Si   4.744094
    19  H    1.933396
    20  H   -1.825327
    21  H   -1.825310
    22  H   -2.323966
    23  H   -2.154269
 Sum of Mulliken charges =   0.00000

 Dipole moment (field-independent basis, Debye):
    X=             -1.0895    Y=              0.0000    Z=              0.4231  Tot=              1.1688

 Test job not archived.
 1\1\GINC-SE229\SP\RHF\Aug-CC-pVDZ\C6H15B1Si1\OHZDE\09-Apr-2025\0\\#t h
 f aug-cc-pvdz iop(5/13=1,5/36=2,99/5=2) pseudo=read geom=check guess=(
 read,tcheck) scf=(maxcycle=1)\\title\\0,1\C,0,-0.240913,-0.000002,-0.6
 07113\C,0,0.381137,1.270734,0.014244\C,0,1.915578,1.2681,-0.079246\C,0
 ,2.518246,0.000001,0.540588\C,0,1.915577,-1.268102,-0.079239\C,0,0.381
 136,-1.270734,0.014251\B,0,-2.93744,0.000008,1.348299\H,0,0.091413,1.3
 37831,1.071937\H,0,-0.018372,2.166606,-0.473293\H,0,2.321954,2.159588,
 0.410241\H,0,2.209755,1.329603,-1.134969\H,0,2.324355,0.000004,1.6213\

 Normal termination of Gaussian 16 at Wed Apr  9 00:48:15 2025.
