 Gaussian 16, Revision C.01,

 ----------------------------------------------------------------------
 #t hf aug-cc-pvdz symm=none int=(grid=ultrafine) guess=(read,tcheck) s
 table=opt
 ----------------------------------------------------------------------
 -----
 title
 -----
 Symbolic Z-matrix:
 Charge =  0 Multiplicity = 2

 SCF Done:  E(UHF) =  -937.249335092     A.U. after   20 cycles
 Normal termination of Gaussian 16 at Tue Apr  8 23:46:20 2025.
 Gaussian 16:  ES64L-G16RevC.01  3-Jul-2019

 ----------------------------------------------------------------------
 #t hf aug-cc-pvdz iop(5/13=1,5/36=2,99/5=2) pseudo=read geom=check gue
 ss=(read,tcheck) scf=(maxcycle=1)
 ----------------------------------------------------------------------
 -----
 title
 -----
 Structure from the checkpoint file:  "BDE49_nonexpt_1761_mol2.chk"
 Charge =  0 Multiplicity = 2

                         Standard orientation:
 ---------------------------------------------------------------------
 Center     Atomic      Atomic             Coordinates (Angstroms)
 Number     Number       Type             X           Y           Z
 ---------------------------------------------------------------------
      1          6           0        1.320077    0.027129   -0.020523
      2          8           0        2.294956   -0.624090   -0.305910
      3         14           0       -0.357657   -0.838745    0.307465
      4          8           0        1.337003    1.360705    0.172333
      5         17           0       -1.989031    0.357509   -0.153547
      6          1           0        2.250291    1.663930    0.029898
      7          1           0       -0.405695   -2.054846   -0.532354
 ---------------------------------------------------------------------

 SCF Done:  E(UHF) =  -938.383886218     A.U. after    2 cycles

 The electronic state is 2-A.
 Alpha  occ. eigenvalues --  -99.90361 -76.29770 -21.14068 -21.08210 -11.50594
 Alpha  occ. eigenvalues --  -10.47737  -9.67624  -9.66979  -9.66928  -5.63242
 Alpha  occ. eigenvalues --   -2.26544  -2.25094  -2.23610  -1.83787  -1.67403
 Alpha  occ. eigenvalues --   -1.30854  -0.90223  -0.75784  -0.62548  -0.61767
 Alpha  occ. eigenvalues --   -0.57631  -0.56723  -0.55193  -0.52682  -0.46068
 Alpha  occ. eigenvalues --   -0.36429  -0.34414  -0.28329
 Alpha virt. eigenvalues --    0.03798   0.05095   0.05541   0.06296   0.07100
 Alpha virt. eigenvalues --    0.09181   0.11470   0.12266   0.13062   0.13138
 Alpha virt. eigenvalues --    0.13605   0.14197   0.16173   0.16683   0.17517

  Beta  occ. eigenvalues --  -99.90265 -76.29188 -21.14089 -21.07898 -11.50569
  Beta  occ. eigenvalues --  -10.47633  -9.67493  -9.66879  -9.66661  -5.62309
  Beta  occ. eigenvalues --   -2.25877  -2.24452  -2.20036  -1.83654  -1.66933
  Beta  occ. eigenvalues --   -1.30076  -0.88334  -0.73356  -0.62351  -0.61224
  Beta  occ. eigenvalues --   -0.56920  -0.55990  -0.54147  -0.51765  -0.45528
  Beta  occ. eigenvalues --   -0.35301  -0.31120
  Beta virt. eigenvalues --    0.01527   0.04115   0.05467   0.05872   0.06870
  Beta virt. eigenvalues --    0.07349   0.10137   0.12291   0.12994   0.13151
  Beta virt. eigenvalues --    0.14051   0.15020   0.15495   0.16464   0.17071

 Mulliken charges and spin densities:
               1          2
     1  C    2.806164  -0.046999
     2  O   -2.302078   0.089021
     3  Si   3.595891   0.817821
     4  O   -2.474845   0.001737
     5  Cl  -0.892224   0.066843
     6  H    0.887486  -0.006411
     7  H   -1.620394   0.077989
 Sum of Mulliken charges =  -0.00000   1.00000

 Dipole moment (field-independent basis, Debye):
    X=              1.0353    Y=              0.1167    Z=              0.7116  Tot=              1.2617
                          Isotropic Fermi Contact Couplings
        Atom                 a.u.       MegaHertz       Gauss      10(-4) cm-1
     1  C(13)              0.01995      22.42390       8.00141       7.47981
     2  O(17)              0.01871     -11.34294      -4.04744      -3.78360
     3  Si(29)             0.60513    -537.79451    -191.89845    -179.38894
     4  O(17)             -0.00061       0.37146       0.13254       0.12390
     5  Cl(35)             0.06364      27.90463       9.95707       9.30798
     6  H(1)               0.00029       1.31188       0.46811       0.43760
     7  H(1)               0.01288      57.57297      20.54347      19.20427
 --------------------------------------------------------

 Normal termination of Gaussian 16 at Tue Apr  8 23:46:24 2025.
