 Gaussian 16, Revision C.01,

 ----------------------------------------------------------------------
 #t hf aug-cc-pvdz symm=none int=(grid=ultrafine) guess=(read,tcheck) s
 table=(opt,rrhf)
 ----------------------------------------------------------------------
 -----
 title
 -----
 Symbolic Z-matrix:
 Charge =  0 Multiplicity = 1

 SCF Done:  E(RHF) =  -1914.04736455     A.U. after   14 cycles
 Normal termination of Gaussian 16 at Tue Apr  8 23:48:21 2025.
 Gaussian 16:  ES64L-G16RevC.01  3-Jul-2019

 ----------------------------------------------------------------------
 #t hf aug-cc-pvdz iop(5/13=1,5/36=2,99/5=2) pseudo=read geom=check gue
 ss=(read,tcheck) scf=(maxcycle=1)
 ----------------------------------------------------------------------
 -----
 title
 -----
 Structure from the checkpoint file:  "BDE49_nonexpt_1785_mol1.chk"
 Charge =  0 Multiplicity = 1

                         Standard orientation:
 ---------------------------------------------------------------------
 Center     Atomic      Atomic             Coordinates (Angstroms)
 Number     Number       Type             X           Y           Z
 ---------------------------------------------------------------------
      1         14           0       -0.724830    0.009431   -0.000001
      2          6           0        1.050679    0.767751    0.000002
      3         17           0       -1.082042   -1.145734    1.679139
      4         17           0       -1.082033   -1.145742   -1.679137
      5         17           0       -2.060438    1.554111   -0.000007
      6          7           0        2.168839   -0.008363    0.000004
      7          6           0        2.179937   -1.461941    0.000002
      8          8           0        1.068459    1.990132    0.000001
      9          1           0        2.695933   -1.838557   -0.889072
     10          1           0        1.171010   -1.866963    0.000015
     11          1           0        2.695953   -1.838557    0.889064
     12          6           0        3.478035    0.640035    0.000003
     13          1           0        3.332037    1.717121    0.000000
     14          1           0        4.043985    0.346269   -0.889598
     15          1           0        4.043984    0.346274    0.889606
 ---------------------------------------------------------------------

 SCF Done:  E(RHF) =  -1916.05590335     A.U. after    2 cycles

 The electronic state is 1-A.
 Alpha  occ. eigenvalues --  -99.91314 -99.91310 -99.90292 -76.35374 -21.04694
 Alpha  occ. eigenvalues --  -15.77222 -11.49141 -11.42595 -11.40753 -10.48769
 Alpha  occ. eigenvalues --  -10.48704 -10.47787  -9.68653  -9.68602  -9.68161
 Alpha  occ. eigenvalues --   -9.68069  -9.68053  -9.67878  -9.67662  -9.67016
 Alpha  occ. eigenvalues --   -9.66965  -5.69044  -2.31694  -2.31117  -2.30599
 Alpha  occ. eigenvalues --   -1.72352  -1.44720  -1.34207  -1.30672  -1.29975
 Alpha  occ. eigenvalues --   -1.07326  -1.01541  -0.84891  -0.74659  -0.68070
 Alpha  occ. eigenvalues --   -0.67497  -0.64516  -0.62666  -0.61542  -0.59269
 Alpha  occ. eigenvalues --   -0.57670  -0.57261  -0.57049  -0.54524  -0.54070
 Alpha  occ. eigenvalues --   -0.53253  -0.52676  -0.51977  -0.50752  -0.47577
 Alpha  occ. eigenvalues --   -0.31148  -0.29875
 Alpha virt. eigenvalues --    0.02976   0.04913   0.05177   0.05398   0.05721
 Alpha virt. eigenvalues --    0.06557   0.07006   0.07203   0.07352   0.08270
 Alpha virt. eigenvalues --    0.09151   0.09169   0.11127   0.12359   0.12748

 Mulliken charges:
               1
     1  Si   3.093345
     2  C    3.761732
     3  Cl  -0.812598
     4  Cl  -0.812598
     5  Cl  -0.715330
     6  N   -3.278046
     7  C   -3.529071
     8  O   -2.810836
     9  H    1.417382
    10  H    1.490663
    11  H    1.417388
    12  C   -3.560530
    13  H    1.480859
    14  H    1.428819
    15  H    1.428819
 Sum of Mulliken charges =  -0.00000

 Dipole moment (field-independent basis, Debye):
    X=              3.4491    Y=             -0.7973    Z=             -0.0000  Tot=              3.5401

 Test job not archived.
 1\1\GINC-SE080\SP\RHF\Aug-CC-pVDZ\C3H6Cl3N1O1Si1\OHZDE\08-Apr-2025\0\\
 #t hf aug-cc-pvdz iop(5/13=1,5/36=2,99/5=2) pseudo=read geom=check gue
 ss=(read,tcheck) scf=(maxcycle=1)\\title\\0,1\Si,0,-0.72483,0.009431,-
 0.000001\C,0,1.050679,0.767751,0.000002\Cl,0,-1.082042,-1.145734,1.679
 139\Cl,0,-1.082033,-1.145742,-1.679137\Cl,0,-2.060438,1.554111,-0.0000
 07\N,0,2.168839,-0.008363,0.000004\C,0,2.179937,-1.461941,0.000002\O,0
 ,1.068459,1.990132,0.000001\H,0,2.695933,-1.838557,-0.889072\H,0,1.171
 01,-1.866963,0.000015\H,0,2.695953,-1.838557,0.889064\C,0,3.478035,0.6

 Normal termination of Gaussian 16 at Tue Apr  8 23:48:29 2025.
