 Gaussian 16, Revision C.01,

 ----------------------------------------------------------------------
 #t hf aug-cc-pvdz symm=none int=(grid=ultrafine) guess=(read,tcheck) s
 table=(opt,rrhf)
 ----------------------------------------------------------------------
 -----
 title
 -----
 Symbolic Z-matrix:
 Charge =  0 Multiplicity = 1

 SCF Done:  E(RHF) =  -611.929830574     A.U. after   14 cycles
 Normal termination of Gaussian 16 at Wed Apr  9 00:00:55 2025.
 Gaussian 16:  ES64L-G16RevC.01  3-Jul-2019

 ----------------------------------------------------------------------
 #t hf aug-cc-pvdz iop(5/13=1,5/36=2,99/5=2) pseudo=read geom=check gue
 ss=(read,tcheck) scf=(maxcycle=1)
 ----------------------------------------------------------------------
 -----
 title
 -----
 Structure from the checkpoint file:  "BDE49_nonexpt_2103_mol1.chk"
 Charge =  0 Multiplicity = 1

                         Standard orientation:
 ---------------------------------------------------------------------
 Center     Atomic      Atomic             Coordinates (Angstroms)
 Number     Number       Type             X           Y           Z
 ---------------------------------------------------------------------
      1         14           0        0.606473    0.003390    0.000010
      2          7           0       -1.279708    0.042869    0.000023
      3          8           0       -1.875752    1.117321   -0.000016
      4          8           0       -1.837740   -1.055149   -0.000047
      5          6           0        1.036199   -0.930509   -1.555889
      6          1           0        0.707261   -0.393180   -2.449173
      7          1           0        0.560898   -1.913739   -1.552921
      8          6           0        1.036215   -0.930524    1.555896
      9          1           0        2.119004   -1.072586    1.628390
     10          1           0        0.560913   -1.913753    1.552924
     11          1           0        0.707288   -0.393202    2.449189
     12          6           0        1.177395    1.775119    0.000016
     13          1           0        0.815282    2.306230   -0.883091
     14          1           0        2.271500    1.817130    0.000011
     15          1           0        0.815289    2.306223    0.883130
     16          1           0        2.118987   -1.072570   -1.628397
 ---------------------------------------------------------------------

 SCF Done:  E(RHF) =  -613.568654210     A.U. after    2 cycles

 The electronic state is 1-A.
 Alpha  occ. eigenvalues --  -76.24639 -21.08336 -21.07948 -15.94464 -11.37090
 Alpha  occ. eigenvalues --  -11.37003 -11.36948  -5.58871  -2.22948  -2.22654
 Alpha  occ. eigenvalues --   -2.22450  -1.95827  -1.66642  -1.11360  -1.03748
 Alpha  occ. eigenvalues --   -1.03599  -0.96361  -0.71089  -0.63979  -0.62061
 Alpha  occ. eigenvalues --   -0.59709  -0.58793  -0.58632  -0.56712  -0.56667
 Alpha  occ. eigenvalues --   -0.56572  -0.55779  -0.42482  -0.42330  -0.30898
 Alpha  occ. eigenvalues --   -0.30424  -0.29879
 Alpha virt. eigenvalues --    0.02114   0.04794   0.04940   0.05225   0.06344
 Alpha virt. eigenvalues --    0.06467   0.07042   0.07069   0.08442   0.08981
 Alpha virt. eigenvalues --    0.09918   0.10011   0.10484   0.13386   0.13629

 Mulliken charges:
               1
     1  Si   9.447987
     2  N    2.591673
     3  O   -2.069795
     4  O   -2.348203
     5  C   -5.840412
     6  H    1.065856
     7  H    1.177237
     8  C   -5.840388
     9  H    1.122870
    10  H    1.177227
    11  H    1.065864
    12  C   -5.943552
    13  H    1.105665
    14  H    1.059438
    15  H    1.105658
    16  H    1.122874
 Sum of Mulliken charges =  -0.00000

 Dipole moment (field-independent basis, Debye):
    X=              3.4749    Y=             -0.0374    Z=             -0.0000  Tot=              3.4751

 Test job not archived.
 1\1\GINC-SE361\SP\RHF\Aug-CC-pVDZ\C3H9N1O2Si1\OHZDE\09-Apr-2025\0\\#t
 hf aug-cc-pvdz iop(5/13=1,5/36=2,99/5=2) pseudo=read geom=check guess=
 (read,tcheck) scf=(maxcycle=1)\\title\\0,1\Si,0,-0.606473,0.00339,-0.0
 0001\N,0,1.279708,0.042869,-0.000023\O,0,1.875752,1.117321,0.000016\O,
 0,1.83774,-1.055149,0.000047\C,0,-1.036199,-0.930509,1.555889\H,0,-0.7
 07261,-0.39318,2.449173\H,0,-0.560898,-1.913739,1.552921\C,0,-1.036215
 ,-0.930524,-1.555896\H,0,-2.119004,-1.072586,-1.62839\H,0,-0.560913,-1
 .913753,-1.552924\H,0,-0.707288,-0.393202,-2.449189\C,0,-1.177395,1.77

 Normal termination of Gaussian 16 at Wed Apr  9 00:01:00 2025.
