 Gaussian 16, Revision C.01,

 ----------------------------------------------------------------------
 #t hf aug-cc-pvdz symm=none int=(grid=ultrafine) guess=(read,tcheck) s
 table=(opt,rrhf)
 ----------------------------------------------------------------------
 -----
 title
 -----
 Symbolic Z-matrix:
 Charge =  0 Multiplicity = 1

 SCF Done:  E(RHF) =  -1527.52088144     A.U. after   12 cycles

 1\1\GINC-SE362\Stability\RHF\Aug-CC-pVDZ\B2Cl3F1\OHZDE\08-Apr-2025\0\\
 #t hf aug-cc-pvdz symm=none int=(grid=ultrafine) guess=(read,tcheck) s
 table=(opt,rrhf)\\title\\0,1\B,0,-0.987109,-0.00002,0.473975\B,0,0.660
 447,-0.000001,0.087244\Cl,0,1.520578,-1.516805,-0.125233\Cl,0,1.520551
 ,1.516826,-0.125175\Cl,0,-2.187518,0.000023,-0.824113\F,0,-1.430899,-0
 .00007,1.717863\\Version=ES64L-G16RevC.01\HF=-1527.5208814\RMSD=9.621e
 -09\Dipole=0.1336882,0.0000027,-0.009937\Quadrupole=-1.4911542,1.31533
 25,0.1758217,-0.0000428,0.9104433,0.0000787\PG=Unknown\\@

 Normal termination of Gaussian 16 at Tue Apr  8 23:56:21 2025.
 Gaussian 16:  ES64L-G16RevC.01  3-Jul-2019

 ----------------------------------------------------------------------
 #t hf aug-cc-pvdz iop(5/13=1,5/36=2,99/5=2) pseudo=read geom=check gue
 ss=(read,tcheck) scf=(maxcycle=1)
 ----------------------------------------------------------------------
 -----
 title
 -----
 Structure from the checkpoint file:  "BDE49_nonexpt_19_mol1.chk"
 Charge =  0 Multiplicity = 1

                         Standard orientation:
 ---------------------------------------------------------------------
 Center     Atomic      Atomic             Coordinates (Angstroms)
 Number     Number       Type             X           Y           Z
 ---------------------------------------------------------------------
      1          5           0       -0.987109   -0.000020    0.473975
      2          5           0        0.660447   -0.000001    0.087244
      3         17           0        1.520578   -1.516805   -0.125233
      4         17           0        1.520551    1.516826   -0.125175
      5         17           0       -2.187518    0.000023   -0.824113
      6          9           0       -1.430899   -0.000070    1.717863
 ---------------------------------------------------------------------

 SCF Done:  E(RHF) =  -1528.78393210     A.U. after    2 cycles

 The electronic state is 1-A.
 Alpha  occ. eigenvalues --  -99.91992 -99.91973 -99.91164 -29.28286 -10.49361
 Alpha  occ. eigenvalues --  -10.49162 -10.48494  -9.69313  -9.69074  -9.68770
 Alpha  occ. eigenvalues --   -9.68758  -9.68628  -9.68534  -9.68402  -9.67962
 Alpha  occ. eigenvalues --   -9.67760  -7.72600  -7.71762  -1.41776  -1.37058
 Alpha  occ. eigenvalues --   -1.31493  -1.01303  -0.82947  -0.68388  -0.65529
 Alpha  occ. eigenvalues --   -0.65255  -0.59116  -0.57358  -0.56072  -0.54118
 Alpha  occ. eigenvalues --   -0.52162  -0.49312  -0.42948  -0.41042  -0.33226
 Alpha virt. eigenvalues --    0.02247   0.02820   0.02823   0.03667   0.05012
 Alpha virt. eigenvalues --    0.08429   0.08821   0.09653   0.10252   0.10785
 Alpha virt. eigenvalues --    0.12287   0.13385   0.14809   0.16149   0.16277

 Mulliken charges:
               1
     1  B    2.097528
     2  B    1.198422
     3  Cl  -1.161492
     4  Cl  -1.161491
     5  Cl  -1.327417
     6  F    0.354451
 Sum of Mulliken charges =  -0.00000

 Dipole moment (field-independent basis, Debye):
    X=             -0.4974    Y=             -0.0002    Z=              4.0452  Tot=              4.0757

 Test job not archived.
 1\1\GINC-SE362\SP\RHF\Aug-CC-pVDZ\B2Cl3F1\OHZDE\08-Apr-2025\0\\#t hf a
 ug-cc-pvdz iop(5/13=1,5/36=2,99/5=2) pseudo=read geom=check guess=(rea
 d,tcheck) scf=(maxcycle=1)\\title\\0,1\B,0,-0.987109,-0.00002,0.473975
 \B,0,0.660447,-0.000001,0.087244\Cl,0,1.520578,-1.516805,-0.125233\Cl,
 0,1.520551,1.516826,-0.125175\Cl,0,-2.187518,0.000023,-0.824113\F,0,-1
 .430899,-0.00007,1.717863\\Version=ES64L-G16RevC.01\State=1-A\HF=-1528
 .7839321\RMSD=9.738e-02\Dipole=-0.1957035,-0.0000617,1.5915041\Quadrup
 ole=-3.4569755,-0.8484937,4.3054693,0.0001476,-4.2269908,-0.0002101\PG

 Normal termination of Gaussian 16 at Tue Apr  8 23:56:23 2025.
