 Gaussian 16, Revision C.01,

 ----------------------------------------------------------------------
 #t hf aug-cc-pvdz symm=none int=(grid=ultrafine) guess=(read,tcheck) s
 table=(opt,rrhf)
 ----------------------------------------------------------------------
 -----
 title
 -----
 Symbolic Z-matrix:
 Charge =  0 Multiplicity = 1

 SCF Done:  E(RHF) =  -474.909418037     A.U. after   14 cycles
 Normal termination of Gaussian 16 at Wed Apr  9 00:32:54 2025.
 Gaussian 16:  ES64L-G16RevC.01  3-Jul-2019

 ----------------------------------------------------------------------
 #t hf aug-cc-pvdz iop(5/13=1,5/36=2,99/5=2) pseudo=read geom=check gue
 ss=(read,tcheck) scf=(maxcycle=1)
 ----------------------------------------------------------------------
 -----
 title
 -----
 Structure from the checkpoint file:  "BDE49_nonexpt_38_mol1.chk"
 Charge =  0 Multiplicity = 1

                         Standard orientation:
 ---------------------------------------------------------------------
 Center     Atomic      Atomic             Coordinates (Angstroms)
 Number     Number       Type             X           Y           Z
 ---------------------------------------------------------------------
      1          5           0       -0.690203   -0.950117   -0.443412
      2          5           0        0.690283   -0.950294    0.443035
      3          6           0       -1.948281   -0.093908   -0.055964
      4          8           0       -2.835562   -0.400874    0.663660
      5          9           0       -1.928313    1.130884   -0.676648
      6          6           0        1.948345   -0.093888    0.055975
      7          8           0        2.835874   -0.400709   -0.663406
      8          9           0        1.927986    1.130918    0.676620
      9          1           0        0.807784   -1.657205    1.394829
     10          1           0       -0.808118   -1.657523   -1.394786
 ---------------------------------------------------------------------

 SCF Done:  E(RHF) =  -476.705600639     A.U. after    2 cycles

 The electronic state is 1-A.
 Alpha  occ. eigenvalues --  -29.31597 -29.31593 -21.11271 -21.11270 -11.54130
 Alpha  occ. eigenvalues --  -11.54116  -7.67603  -7.66691  -1.78397  -1.77866
 Alpha  occ. eigenvalues --   -1.15597  -1.10010  -0.93407  -0.82427  -0.65921
 Alpha  occ. eigenvalues --   -0.64943  -0.61089  -0.59849  -0.59101  -0.54743
 Alpha  occ. eigenvalues --   -0.44951  -0.44465  -0.44322  -0.31789  -0.31640
 Alpha  occ. eigenvalues --   -0.31135  -0.30760  -0.29349  -0.28905
 Alpha virt. eigenvalues --    0.02429   0.02651   0.03368   0.04379   0.06441
 Alpha virt. eigenvalues --    0.07024   0.08224   0.08997   0.09076   0.10238
 Alpha virt. eigenvalues --    0.12315   0.12662   0.13141   0.14389   0.14479

 Mulliken charges:
               1
     1  B    4.395701
     2  B    4.395265
     3  C    0.500542
     4  O   -2.736810
     5  F    0.321637
     6  C    0.500493
     7  O   -2.736996
     8  F    0.321633
     9  H   -2.480585
    10  H   -2.480879
 Sum of Mulliken charges =   0.00000

 Dipole moment (field-independent basis, Debye):
    X=             -0.0010    Y=              4.8384    Z=             -0.0005  Tot=              4.8384

 Test job not archived.
 1\1\GINC-SE247\SP\RHF\Aug-CC-pVDZ\C2H2B2F2O2\OHZDE\09-Apr-2025\0\\#t h
 f aug-cc-pvdz iop(5/13=1,5/36=2,99/5=2) pseudo=read geom=check guess=(
 read,tcheck) scf=(maxcycle=1)\\title\\0,1\B,0,0.690203,-0.950117,0.443
 412\B,0,-0.690283,-0.950294,-0.443035\C,0,1.948281,-0.093908,0.055964\
 O,0,2.835562,-0.400874,-0.66366\F,0,1.928313,1.130884,0.676648\C,0,-1.
 948345,-0.093888,-0.055975\O,0,-2.835874,-0.400709,0.663406\F,0,-1.927
 986,1.130918,-0.67662\H,0,-0.807784,-1.657205,-1.394829\H,0,0.808118,-
 1.657523,1.394786\\Version=ES64L-G16RevC.01\State=1-A\HF=-476.7056006\

 Normal termination of Gaussian 16 at Wed Apr  9 00:32:58 2025.
