 Gaussian 16, Revision C.01,

 ----------------------------------------------------------------------
 #t hf aug-cc-pvdz symm=none int=(grid=ultrafine) guess=(read,tcheck) s
 table=(opt,rrhf)
 ----------------------------------------------------------------------
 -----
 title
 -----
 Symbolic Z-matrix:
 Charge =  0 Multiplicity = 1

 SCF Done:  E(RHF) =  -1474.91699860     A.U. after   13 cycles
 Normal termination of Gaussian 16 at Tue Apr  8 23:49:54 2025.
 Gaussian 16:  ES64L-G16RevC.01  3-Jul-2019

 ----------------------------------------------------------------------
 #t hf aug-cc-pvdz iop(5/13=1,5/36=2,99/5=2) pseudo=read geom=check gue
 ss=(read,tcheck) scf=(maxcycle=1)
 ----------------------------------------------------------------------
 -----
 title
 -----
 Structure from the checkpoint file:  "BDE49_nonexpt_1812_mol1.chk"
 Charge =  0 Multiplicity = 1

                         Standard orientation:
 ---------------------------------------------------------------------
 Center     Atomic      Atomic             Coordinates (Angstroms)
 Number     Number       Type             X           Y           Z
 ---------------------------------------------------------------------
      1          6           0        0.619584   -0.000108    0.925565
      2          8           0        1.007566   -0.000143    2.068949
      3         14           0       -1.250467   -0.000018    0.517599
      4          8           0        1.407193   -0.000024   -0.156848
      5         17           0       -1.736753   -1.689983   -0.562530
      6         17           0       -1.736635    1.690098   -0.562349
      7          6           0        2.847954   -0.000035    0.075207
      8          6           0        3.524443    0.000070   -1.278393
      9          1           0        3.098543   -0.883450    0.666137
     10          1           0        3.098535    0.883292    0.666271
     11          1           0        3.247048   -0.885979   -1.852828
     12          1           0        4.609595    0.000065   -1.147224
     13          1           0        3.247040    0.886204   -1.852694
     14          1           0       -2.016587   -0.000059    1.765811
 ---------------------------------------------------------------------

 SCF Done:  E(RHF) =  -1476.72260522     A.U. after    2 cycles

 The electronic state is 1-A.
 Alpha  occ. eigenvalues --  -99.90656 -99.90654 -76.32079 -21.10569 -21.07617
 Alpha  occ. eigenvalues --  -11.50299 -11.45476 -11.38233 -10.48102 -10.48066
 Alpha  occ. eigenvalues --   -9.68010  -9.67945  -9.67404  -9.67342  -9.67327
 Alpha  occ. eigenvalues --   -9.67212  -5.65709  -2.28834  -2.27888  -2.27404
 Alpha  occ. eigenvalues --   -1.85073  -1.68046  -1.32555  -1.29825  -1.15033
 Alpha  occ. eigenvalues --   -0.93428  -0.85242  -0.75271  -0.67248  -0.65765
 Alpha  occ. eigenvalues --   -0.60779  -0.60343  -0.59281  -0.56804  -0.56268
 Alpha  occ. eigenvalues --   -0.54246  -0.53456  -0.52883  -0.52444  -0.50148
 Alpha  occ. eigenvalues --   -0.49168  -0.41619  -0.33706  -0.30658
 Alpha virt. eigenvalues --    0.03639   0.04934   0.05297   0.05440   0.05938
 Alpha virt. eigenvalues --    0.06383   0.06455   0.06680   0.08579   0.09594
 Alpha virt. eigenvalues --    0.10258   0.10738   0.11950   0.13007   0.13128

 Mulliken charges:
               1
     1  C    3.569708
     2  O   -2.447017
     3  Si   4.578277
     4  O   -3.152726
     5  Cl  -0.846564
     6  Cl  -0.846563
     7  C   -2.293231
     8  C   -3.485819
     9  H    1.595636
    10  H    1.595630
    11  H    1.303671
    12  H    1.114494
    13  H    1.303670
    14  H   -1.989167
 Sum of Mulliken charges =  -0.00000

 Dipole moment (field-independent basis, Debye):
    X=              2.2090    Y=              0.0000    Z=             -0.0506  Tot=              2.2096

 Test job not archived.
 1\1\GINC-SE058\SP\RHF\Aug-CC-pVDZ\C3H6Cl2O2Si1\OHZDE\08-Apr-2025\0\\#t
  hf aug-cc-pvdz iop(5/13=1,5/36=2,99/5=2) pseudo=read geom=check guess
 =(read,tcheck) scf=(maxcycle=1)\\title\\0,1\C,0,0.619584,-0.000108,0.9
 25565\O,0,1.007566,-0.000143,2.068949\Si,0,-1.250467,-0.000018,0.51759
 9\O,0,1.407193,-0.000024,-0.156848\Cl,0,-1.736753,-1.689983,-0.56253\C
 l,0,-1.736635,1.690098,-0.562349\C,0,2.847954,-0.000035,0.075207\C,0,3
 .524443,0.00007,-1.278393\H,0,3.098543,-0.88345,0.666137\H,0,3.098535,
 0.883292,0.666271\H,0,3.247048,-0.885979,-1.852828\H,0,4.609595,0.0000

 Normal termination of Gaussian 16 at Tue Apr  8 23:50:00 2025.
