 Gaussian 16, Revision C.01,

 ----------------------------------------------------------------------
 #t hf aug-cc-pvdz symm=none int=(grid=ultrafine) guess=(read,tcheck) s
 table=(opt,rrhf)
 ----------------------------------------------------------------------
 -----
 title
 -----
 Symbolic Z-matrix:
 Charge =  0 Multiplicity = 1

 SCF Done:  E(RHF) =  -522.321466077     A.U. after   12 cycles
 Normal termination of Gaussian 16 at Wed Apr  9 00:07:30 2025.
 Gaussian 16:  ES64L-G16RevC.01  3-Jul-2019

 ----------------------------------------------------------------------
 #t hf aug-cc-pvdz iop(5/13=1,5/36=2,99/5=2) pseudo=read geom=check gue
 ss=(read,tcheck) scf=(maxcycle=1)
 ----------------------------------------------------------------------
 -----
 title
 -----
 Structure from the checkpoint file:  "BDE49_nonexpt_2243_mol1.chk"
 Charge =  0 Multiplicity = 1

                         Standard orientation:
 ---------------------------------------------------------------------
 Center     Atomic      Atomic             Coordinates (Angstroms)
 Number     Number       Type             X           Y           Z
 ---------------------------------------------------------------------
      1         14           0        1.627030   -0.452937    0.205955
      2          8           0        0.060943   -0.077028   -0.162258
      3          6           0       -1.062797   -0.937270    0.030282
      4          6           0       -2.328365   -0.236053   -0.446173
      5          1           0       -0.917078   -1.870226   -0.529966
      6          6           0        2.677840    1.019748   -0.244567
      7          1           0        2.592782    1.248752   -1.309880
      8          1           0        3.730315    0.818653   -0.022270
      9          1           0        2.373937    1.904409    0.320793
     10          6           0       -2.645041    1.042188    0.332888
     11          1           0       -3.158971   -0.946949   -0.362299
     12          1           0       -2.213771   -0.006943   -1.510920
     13          1           0       -2.806150    0.827937    1.394436
     14          1           0       -3.547977    1.524215   -0.050682
     15          1           0       -1.820197    1.752838    0.255145
     16          1           0       -1.153319   -1.196565    1.094854
     17          1           0        2.052466   -1.659739   -0.552901
     18          1           0        1.752174   -0.770720    1.653812
 ---------------------------------------------------------------------

 SCF Done:  E(RHF) =  -523.622118533     A.U. after    2 cycles

 The electronic state is 1-A.
 Alpha  occ. eigenvalues --  -76.21826 -21.03173 -11.43763 -11.38914 -11.34833
 Alpha  occ. eigenvalues --  -11.34552  -5.55716  -2.22652  -2.18720  -2.17151
 Alpha  occ. eigenvalues --   -1.69053  -1.17803  -1.03708  -0.97218  -0.83223
 Alpha  occ. eigenvalues --   -0.72231  -0.64135  -0.61462  -0.57223  -0.56020
 Alpha  occ. eigenvalues --   -0.55780  -0.51968  -0.48673  -0.47601  -0.46338
 Alpha  occ. eigenvalues --   -0.45846  -0.40971  -0.35293  -0.33931
 Alpha virt. eigenvalues --    0.03922   0.04731   0.05505   0.05593   0.05831
 Alpha virt. eigenvalues --    0.06112   0.06388   0.06528   0.06756   0.08176
 Alpha virt. eigenvalues --    0.08637   0.09309   0.09744   0.10958   0.11800

 Mulliken charges:
               1
     1  Si   6.841445
     2  O   -3.758641
     3  C   -0.896514
     4  C   -3.367921
     5  H    1.508654
     6  C   -5.041526
     7  H    1.343828
     8  H    1.306503
     9  H    1.342149
    10  C   -3.701570
    11  H    1.332482
    12  H    1.442693
    13  H    1.287166
    14  H    1.137593
    15  H    1.474558
    16  H    1.705191
    17  H   -1.977227
    18  H   -1.978864
 Sum of Mulliken charges =  -0.00000

 Dipole moment (field-independent basis, Debye):
    X=             -0.4912    Y=              0.5391    Z=             -0.3507  Tot=              0.8093

 Test job not archived.
 1\1\GINC-SE166\SP\RHF\Aug-CC-pVDZ\C4H12O1Si1\OHZDE\09-Apr-2025\0\\#t h
 f aug-cc-pvdz iop(5/13=1,5/36=2,99/5=2) pseudo=read geom=check guess=(
 read,tcheck) scf=(maxcycle=1)\\title\\0,1\Si,0,1.62703,-0.452937,0.205
 955\O,0,0.060943,-0.077028,-0.162258\C,0,-1.062797,-0.93727,0.030282\C
 ,0,-2.328365,-0.236053,-0.446173\H,0,-0.917078,-1.870226,-0.529966\C,0
 ,2.67784,1.019748,-0.244567\H,0,2.592782,1.248752,-1.30988\H,0,3.73031
 5,0.818653,-0.02227\H,0,2.373937,1.904409,0.320793\C,0,-2.645041,1.042
 188,0.332888\H,0,-3.158971,-0.946949,-0.362299\H,0,-2.213771,-0.006943

 Normal termination of Gaussian 16 at Wed Apr  9 00:07:36 2025.
