 Gaussian 16, Revision C.01,

 ----------------------------------------------------------------------
 #t hf aug-cc-pvdz symm=none int=(grid=ultrafine) guess=(read,tcheck) s
 table=(opt,rrhf)
 ----------------------------------------------------------------------
 -----
 title
 -----
 Symbolic Z-matrix:
 Charge =  0 Multiplicity = 1

 SCF Done:  E(RHF) =  -822.024122098     A.U. after   14 cycles
 Normal termination of Gaussian 16 at Tue Apr  8 23:57:16 2025.
 Gaussian 16:  ES64L-G16RevC.01  3-Jul-2019

 ----------------------------------------------------------------------
 #t hf aug-cc-pvdz iop(5/13=1,5/36=2,99/5=2) pseudo=read geom=check gue
 ss=(read,tcheck) scf=(maxcycle=1)
 ----------------------------------------------------------------------
 -----
 title
 -----
 Structure from the checkpoint file:  "BDE49_nonexpt_1894_mol1.chk"
 Charge =  0 Multiplicity = 1

                         Standard orientation:
 ---------------------------------------------------------------------
 Center     Atomic      Atomic             Coordinates (Angstroms)
 Number     Number       Type             X           Y           Z
 ---------------------------------------------------------------------
      1         14           0       -0.631722    1.758038   -0.443440
      2          6           0        1.223779    1.487749   -0.672523
      3          6           0        1.793151    0.585304    0.411510
      4          8           0        1.830843    0.990083    1.569477
      5          7           0        2.228369   -0.664219    0.058205
      6          6           0       -1.452076    0.019999   -0.574131
      7          1           0       -1.174700    2.513707   -1.595357
      8          1           0       -0.891934    2.533653    0.789402
      9          8           0       -1.057150   -0.588539   -1.574597
     10          7           0       -2.376268   -0.504265    0.278525
     11          6           0        2.862155   -1.494597    1.075621
     12          1           0        2.820934   -0.966960    2.024764
     13          1           0        3.908309   -1.693248    0.815815
     14          1           0        2.340392   -2.452988    1.166841
     15          6           0       -2.848160    0.159854    1.482047
     16          1           0       -2.352861    1.119613    1.606744
     17          1           0       -2.635428   -0.452574    2.364914
     18          1           0       -3.930107    0.325998    1.432629
     19          6           0        2.207350   -1.201417   -1.300606
     20          1           0        1.284844   -0.937451   -1.814039
     21          1           0        2.238019   -2.290500   -1.235664
     22          1           0        3.074691   -0.874558   -1.888054
     23          6           0       -2.933409   -1.826182    0.013619
     24          1           0       -2.512069   -2.196336   -0.917817
     25          1           0       -4.023355   -1.767616   -0.072764
     26          1           0       -2.685453   -2.515337    0.827997
     27          1           0        1.694887    2.465137   -0.534356
     28          1           0        1.416940    1.159711   -1.692262
 ---------------------------------------------------------------------

 SCF Done:  E(RHF) =  -824.666965765     A.U. after    2 cycles

 The electronic state is 1-A.
 Alpha  occ. eigenvalues --  -76.22493 -21.02252 -21.00596 -15.75539 -15.73822
 Alpha  occ. eigenvalues --  -11.50462 -11.46134 -11.41148 -11.39598 -11.39470
 Alpha  occ. eigenvalues --  -11.38615 -11.37634  -5.56161  -2.20653  -2.19940
 Alpha  occ. eigenvalues --   -2.18633  -1.70037  -1.69404  -1.42806  -1.41462
 Alpha  occ. eigenvalues --   -1.10860  -1.05887  -1.03632  -0.99368  -0.96311
 Alpha  occ. eigenvalues --   -0.81518  -0.73320  -0.71308  -0.66844  -0.65776
 Alpha  occ. eigenvalues --   -0.64541  -0.63852  -0.62281  -0.61672  -0.56833
 Alpha  occ. eigenvalues --   -0.56124  -0.55435  -0.54238  -0.52934  -0.52261
 Alpha  occ. eigenvalues --   -0.51291  -0.49865  -0.48450  -0.46686  -0.45340
 Alpha  occ. eigenvalues --   -0.44893  -0.39745  -0.29551  -0.28269  -0.28026
 Alpha  occ. eigenvalues --   -0.26973
 Alpha virt. eigenvalues --    0.03427   0.04557   0.04669   0.05110   0.05456
 Alpha virt. eigenvalues --    0.05631   0.05971   0.06724   0.06778   0.06891
 Alpha virt. eigenvalues --    0.07649   0.07729   0.08074   0.08520   0.09192

 Mulliken charges:
               1
     1  Si   6.384084
     2  C   -5.423786
     3  C    6.794620
     4  O   -3.587562
     5  N   -3.520620
     6  C    2.679678
     7  H   -2.499774
     8  H   -1.839162
     9  O   -2.819537
    10  N   -3.193660
    11  C   -3.665224
    12  H    1.467109
    13  H    1.494301
    14  H    1.482615
    15  C   -3.618682
    16  H    2.057029
    17  H    1.421849
    18  H    1.422646
    19  C   -3.674285
    20  H    1.765967
    21  H    1.489046
    22  H    1.425100
    23  C   -3.817434
    24  H    1.517960
    25  H    1.515243
    26  H    1.527279
    27  H    1.324971
    28  H    1.890228
 Sum of Mulliken charges =   0.00000

 Dipole moment (field-independent basis, Debye):
    X=             -0.9004    Y=             -1.9770    Z=             -0.1720  Tot=              2.1792

 Test job not archived.
 1\1\GINC-SE073\SP\RHF\Aug-CC-pVDZ\C7H16N2O2Si1\OHZDE\08-Apr-2025\0\\#t
  hf aug-cc-pvdz iop(5/13=1,5/36=2,99/5=2) pseudo=read geom=check guess
 =(read,tcheck) scf=(maxcycle=1)\\title\\0,1\Si,0,-0.631722,1.758038,-0
 .44344\C,0,1.223779,1.487749,-0.672523\C,0,1.793151,0.585304,0.41151\O
 ,0,1.830843,0.990083,1.569477\N,0,2.228369,-0.664219,0.058205\C,0,-1.4
 52076,0.019999,-0.574131\H,0,-1.1747,2.513707,-1.595357\H,0,-0.891934,
 2.533653,0.789402\O,0,-1.05715,-0.588539,-1.574597\N,0,-2.376268,-0.50
 4265,0.278525\C,0,2.862155,-1.494597,1.075621\H,0,2.820934,-0.96696,2.

 Normal termination of Gaussian 16 at Tue Apr  8 23:57:41 2025.
