 Gaussian 16, Revision C.01,

 ----------------------------------------------------------------------
 #t hf aug-cc-pvdz symm=none int=(grid=ultrafine) guess=(read,tcheck) s
 table=(opt,rrhf)
 ----------------------------------------------------------------------
 -----
 title
 -----
 Symbolic Z-matrix:
 Charge =  0 Multiplicity = 1

 SCF Done:  E(RHF) =  -1913.29727019     A.U. after   13 cycles
 Normal termination of Gaussian 16 at Wed Apr  9 00:21:39 2025.
 Gaussian 16:  ES64L-G16RevC.01  3-Jul-2019

 ----------------------------------------------------------------------
 #t hf aug-cc-pvdz iop(5/13=1,5/36=2,99/5=2) pseudo=read geom=check gue
 ss=(read,tcheck) scf=(maxcycle=1)
 ----------------------------------------------------------------------
 -----
 title
 -----
 Structure from the checkpoint file:  "BDE49_nonexpt_2631_mol1.chk"
 Charge =  0 Multiplicity = 1

                         Standard orientation:
 ---------------------------------------------------------------------
 Center     Atomic      Atomic             Coordinates (Angstroms)
 Number     Number       Type             X           Y           Z
 ---------------------------------------------------------------------
      1          9           0       -2.387247   -0.045825   -0.000016
      2         16           0       -1.165334    1.073441    0.000003
      3          6           0        0.251167   -0.036471    0.000002
      4         17           0        1.583012    1.177113   -0.000000
      5         17           0        0.344481   -1.075140   -1.454571
      6         17           0        0.344483   -1.075138    1.454576
 ---------------------------------------------------------------------

 SCF Done:  E(RHF) =  -1914.77216563     A.U. after    2 cycles

 The electronic state is 1-A.
 Alpha  occ. eigenvalues --  -99.94393 -99.93208 -99.93194 -75.79939 -29.29868
 Alpha  occ. eigenvalues --  -13.24643 -13.19308 -13.11307 -11.58217 -10.51702
 Alpha  occ. eigenvalues --  -10.50640 -10.50394  -9.71531  -9.70770  -9.70711
 Alpha  occ. eigenvalues --   -9.70389  -9.70284  -9.69585  -9.69544  -9.69514
 Alpha  occ. eigenvalues --   -9.69465  -8.13956  -1.48949  -1.33034  -1.32007
 Alpha  occ. eigenvalues --   -1.24486  -0.97692  -0.76996  -0.72841  -0.71599
 Alpha  occ. eigenvalues --   -0.62690  -0.58251  -0.57562  -0.53345  -0.53110
 Alpha  occ. eigenvalues --   -0.51598  -0.48373  -0.43127  -0.36037  -0.32997
 Alpha  occ. eigenvalues --   -0.21684
 Alpha virt. eigenvalues --   -0.01183   0.04073   0.05064   0.05786   0.06914
 Alpha virt. eigenvalues --    0.09125   0.09786   0.12184   0.13098   0.13799
 Alpha virt. eigenvalues --    0.15729   0.16050   0.16380   0.16877   0.17599

 Mulliken charges:
               1
     1  F   -0.192724
     2  S    1.710634
     3  C   -2.921281
     4  Cl   0.614606
     5  Cl   0.394382
     6  Cl   0.394383
 Sum of Mulliken charges =  -0.00000

 Dipole moment (field-independent basis, Debye):
    X=             -5.0809    Y=              0.6262    Z=             -0.0000  Tot=              5.1194

 Test job not archived.
 1\1\GINC-SE338\SP\RHF\Aug-CC-pVDZ\C1Cl3F1S1\OHZDE\09-Apr-2025\0\\#t hf
  aug-cc-pvdz iop(5/13=1,5/36=2,99/5=2) pseudo=read geom=check guess=(r
 ead,tcheck) scf=(maxcycle=1)\\title\\0,1\F,0,-2.387247,-0.045826,-0.00
 0016\S,0,-1.165335,1.073441,0.000003\C,0,0.251167,-0.036471,0.000002\C
 l,0,1.583011,1.177114,0.\Cl,0,0.344481,-1.07514,-1.454571\Cl,0,0.34448
 3,-1.075138,1.454576\\Version=ES64L-G16RevC.01\State=1-A\HF=-1914.7721
 656\RMSD=6.694e-02\Dipole=-1.9989945,0.2463486,-0.0000123\Quadrupole=5
 .2729141,-1.5001304,-3.7727837,-0.5022741,0.0000432,0.0000269\PG=C01 [

 Normal termination of Gaussian 16 at Wed Apr  9 00:21:42 2025.
