 Gaussian 16, Revision C.01,

 ----------------------------------------------------------------------
 #t hf aug-cc-pvdz symm=none int=(grid=ultrafine) guess=(read,tcheck) s
 table=(opt,rrhf)
 ----------------------------------------------------------------------
 -----
 title
 -----
 Symbolic Z-matrix:
 Charge =  0 Multiplicity = 1

 SCF Done:  E(RHF) =  -944.357691063     A.U. after   11 cycles

 1\1\GINC-SE044\Stability\RHF\Aug-CC-pVDZ\B1Cl2H1\OHZDE\09-Apr-2025\0\\
 #t hf aug-cc-pvdz symm=none int=(grid=ultrafine) guess=(read,tcheck) s
 table=(opt,rrhf)\\title\\0,1\Cl,0,0.,-1.521064,-0.158964\B,0,0.,0.,0.7
 0404\H,0,0.,0.,1.884586\Cl,0,0.,1.521064,-0.158964\\Version=ES64L-G16R
 evC.01\HF=-944.3576911\RMSD=5.850e-09\Dipole=0.,0.,0.3312367\Quadrupol
 e=0.7356284,-1.1270771,0.3914487,0.,0.,0.\PG=Unknown\\@
 The archive entry for this job was punched.

 Normal termination of Gaussian 16 at Wed Apr  9 00:36:47 2025.
 Gaussian 16:  ES64L-G16RevC.01  3-Jul-2019

 ----------------------------------------------------------------------
 #t hf aug-cc-pvdz iop(5/13=1,5/36=2,99/5=2) pseudo=read geom=check gue
 ss=(read,tcheck) scf=(maxcycle=1)
 ----------------------------------------------------------------------
 -----
 title
 -----
 Structure from the checkpoint file:  "BDE49_nonexpt_521_mol1.chk"
 Charge =  0 Multiplicity = 1

                         Standard orientation:
 ---------------------------------------------------------------------
 Center     Atomic      Atomic             Coordinates (Angstroms)
 Number     Number       Type             X           Y           Z
 ---------------------------------------------------------------------
      1         17           0        0.000000    1.521064   -0.158964
      2          5           0        0.000000    0.000000    0.704040
      3          1           0        0.000000    0.000000    1.884586
      4         17           0       -0.000000   -1.521064   -0.158964
 ---------------------------------------------------------------------

 SCF Done:  E(RHF) =  -944.962630030     A.U. after    2 cycles

 The electronic state is 1-A1.
 Alpha  occ. eigenvalues --  -99.90877 -99.90866 -10.48288 -10.48088  -9.68239
 Alpha  occ. eigenvalues --   -9.67964  -9.67625  -9.67506  -9.67446  -9.67431
 Alpha  occ. eigenvalues --   -7.72007  -1.40636  -1.30493  -0.84712  -0.64789
 Alpha  occ. eigenvalues --   -0.63256  -0.58221  -0.53167  -0.51336  -0.48995
 Alpha virt. eigenvalues --    0.03478   0.03627   0.03929   0.04416   0.05517
 Alpha virt. eigenvalues --    0.10443   0.11217   0.13421   0.16232   0.16486
 Alpha virt. eigenvalues --    0.16913   0.17685   0.18807   0.18996   0.19895

 Mulliken charges:
               1
     1  Cl  -1.063715
     2  B    4.572731
     3  H   -2.445302
     4  Cl  -1.063715
 Sum of Mulliken charges =   0.00000

 Dipole moment (field-independent basis, Debye):
    X=              0.0000    Y=              0.0000    Z=              0.6089  Tot=              0.6089

 Test job not archived.
 1\1\GINC-SE044\SP\RHF\Aug-CC-pVDZ\B1Cl2H1\OHZDE\09-Apr-2025\0\\#t hf a
 ug-cc-pvdz iop(5/13=1,5/36=2,99/5=2) pseudo=read geom=check guess=(rea
 d,tcheck) scf=(maxcycle=1)\\title\\0,1\Cl,0,0.,-1.521064,-0.158964\B,0
 ,0.,0.,0.70404\H,0,0.,0.,1.884586\Cl,0,0.,1.521064,-0.158964\\Version=
 ES64L-G16RevC.01\State=1-A1\HF=-944.96263\RMSD=5.315e-02\Dipole=0.,0.,
 0.2395409\Quadrupole=0.253017,-0.0422294,-0.2107876,0.,0.,0.\PG=C02V [
 C2(B1H1),SGV(Cl2)]\\@

 Normal termination of Gaussian 16 at Wed Apr  9 00:36:49 2025.
