 Gaussian 16, Revision C.01,

 ----------------------------------------------------------------------
 #t hf aug-cc-pvdz symm=none int=(grid=ultrafine) guess=(read,tcheck) s
 table=(opt,rrhf)
 ----------------------------------------------------------------------
 -----
 title
 -----
 Symbolic Z-matrix:
 Charge =  0 Multiplicity = 1

 SCF Done:  E(RHF) =  -1678.03636909     A.U. after   13 cycles
 Normal termination of Gaussian 16 at Wed Apr  9 00:48:58 2025.
 Gaussian 16:  ES64L-G16RevC.01  3-Jul-2019

 ----------------------------------------------------------------------
 #t hf aug-cc-pvdz iop(5/13=1,5/36=2,99/5=2) pseudo=read geom=check gue
 ss=(read,tcheck) scf=(maxcycle=1)
 ----------------------------------------------------------------------
 -----
 title
 -----
 Structure from the checkpoint file:  "BDE49_nonexpt_868_mol1.chk"
 Charge =  0 Multiplicity = 1

                         Standard orientation:
 ---------------------------------------------------------------------
 Center     Atomic      Atomic             Coordinates (Angstroms)
 Number     Number       Type             X           Y           Z
 ---------------------------------------------------------------------
      1         17           0        2.429891   -0.032453   -0.000253
      2         16           0        0.667309   -1.143234    0.000318
      3          5           0       -0.693955    0.058106    0.000536
      4         16           0       -0.599317    1.857005   -0.000012
      5         16           0       -2.355969   -0.694753   -0.000191
      6          1           0       -1.974380   -1.986144   -0.000197
      7          1           0        0.743647    1.943022   -0.000028
 ---------------------------------------------------------------------

 SCF Done:  E(RHF) =  -1679.06329704     A.U. after    2 cycles

 The electronic state is 1-A.
 Alpha  occ. eigenvalues --  -99.92695 -75.75690 -75.71456 -75.71035 -13.19102
 Alpha  occ. eigenvalues --  -13.17748 -13.15447 -13.13743 -13.11565 -13.09432
 Alpha  occ. eigenvalues --  -13.09035 -13.05294 -13.04809 -10.49777  -9.69535
 Alpha  occ. eigenvalues --   -9.69045  -9.68784  -8.09463  -8.05512  -8.04855
 Alpha  occ. eigenvalues --   -7.69924  -1.36498  -1.23820  -1.12011  -1.08409
 Alpha  occ. eigenvalues --   -0.69718  -0.61762  -0.58702  -0.56918  -0.49380
 Alpha  occ. eigenvalues --   -0.47821  -0.39657  -0.39628  -0.34597  -0.27497
 Alpha  occ. eigenvalues --   -0.26246
 Alpha virt. eigenvalues --    0.00354   0.02027   0.02941   0.03056   0.06626
 Alpha virt. eigenvalues --    0.08971   0.09726   0.09853   0.10162   0.11507
 Alpha virt. eigenvalues --    0.11968   0.14673   0.14933   0.15667   0.16113

 Mulliken charges:
               1
     1  Cl  -0.545321
     2  S   -1.174958
     3  B    4.348237
     4  S   -2.113881
     5  S   -2.369602
     6  H    0.920222
     7  H    0.935302
 Sum of Mulliken charges =  -0.00000

 Dipole moment (field-independent basis, Debye):
    X=             -5.0329    Y=             -0.1705    Z=             -0.0024  Tot=              5.0358

 Test job not archived.
 1\1\GINC-SE396\SP\RHF\Aug-CC-pVDZ\B1Cl1H2S3\OHZDE\09-Apr-2025\0\\#t hf
  aug-cc-pvdz iop(5/13=1,5/36=2,99/5=2) pseudo=read geom=check guess=(r
 ead,tcheck) scf=(maxcycle=1)\\title\\0,1\Cl,0,2.429891,-0.032453,-0.00
 0253\S,0,0.667309,-1.143234,0.000318\B,0,-0.693955,0.058106,0.000536\S
 ,0,-0.599317,1.857005,-0.000012\S,0,-2.355969,-0.694753,-0.000191\H,0,
 -1.97438,-1.986144,-0.000197\H,0,0.743647,1.943022,-0.000028\\Version=
 ES64L-G16RevC.01\State=1-A\HF=-1679.063297\RMSD=9.251e-02\Dipole=-1.98
 00898,-0.0670942,-0.0009332\Quadrupole=1.796978,4.840512,-6.63749,-0.6

 Normal termination of Gaussian 16 at Wed Apr  9 00:49:01 2025.
