 Gaussian 16, Revision C.01,

 ----------------------------------------------------------------------
 #t hf aug-cc-pvdz symm=none int=(grid=ultrafine) guess=(read,tcheck) s
 table=(opt,rrhf)
 ----------------------------------------------------------------------
 -----
 title
 -----
 Symbolic Z-matrix:
 Charge =  0 Multiplicity = 1

 SCF Done:  E(RHF) =  -516.030519408     A.U. after   11 cycles

 1\1\GINC-SE322\Stability\RHF\Aug-CC-pVDZ\H4O3Si1\OHZDE\09-Apr-2025\0\\
 #t hf aug-cc-pvdz symm=none int=(grid=ultrafine) guess=(read,tcheck) s
 table=(opt,rrhf)\\title\\0,1\Si,0,-0.000026,0.002232,0.328146\O,0,0.00
 9079,1.57727,-0.139304\O,0,1.270612,-0.845898,-0.259754\H,0,0.010009,1
 .769242,-1.081222\H,0,2.152332,-0.554971,-0.018778\O,0,-1.280153,-0.83
 1337,-0.259993\H,0,-2.158513,-0.531269,-0.017958\H,0,0.000241,0.085483
 ,1.796323\\Version=ES64L-G16RevC.01\HF=-516.0305194\RMSD=8.731e-09\Dip
 ole=0.0027458,0.5107376,0.0229958\Quadrupole=5.1951738,-4.8685477,-0.3

 Normal termination of Gaussian 16 at Wed Apr  9 00:06:59 2025.
 Gaussian 16:  ES64L-G16RevC.01  3-Jul-2019

 ----------------------------------------------------------------------
 #t hf aug-cc-pvdz iop(5/13=1,5/36=2,99/5=2) pseudo=read geom=check gue
 ss=(read,tcheck) scf=(maxcycle=1)
 ----------------------------------------------------------------------
 -----
 title
 -----
 Structure from the checkpoint file:  "BDE49_nonexpt_2246_mol1.chk"
 Charge =  0 Multiplicity = 1

                         Standard orientation:
 ---------------------------------------------------------------------
 Center     Atomic      Atomic             Coordinates (Angstroms)
 Number     Number       Type             X           Y           Z
 ---------------------------------------------------------------------
      1         14           0       -0.000026    0.002232    0.328146
      2          8           0        0.009082    1.577270   -0.139304
      3          8           0        1.270610   -0.845901   -0.259754
      4          1           0        0.010012    1.769242   -1.081222
      5          1           0        2.152331   -0.554976   -0.018778
      6          8           0       -1.280155   -0.831335   -0.259993
      7          1           0       -2.158514   -0.531265   -0.017958
      8          1           0        0.000241    0.085483    1.796323
 ---------------------------------------------------------------------

 SCF Done:  E(RHF) =  -517.118766843     A.U. after    2 cycles

 The electronic state is 1-A.
 Alpha  occ. eigenvalues --  -76.25462 -21.07991 -21.07901 -21.07899  -5.60248
 Alpha  occ. eigenvalues --   -2.28222  -2.26992  -2.22551  -1.70904  -1.64375
 Alpha  occ. eigenvalues --   -1.63952  -0.74617  -0.64280  -0.57083  -0.54288
 Alpha  occ. eigenvalues --   -0.49506  -0.46661  -0.40089  -0.39474  -0.36807
 Alpha  occ. eigenvalues --   -0.35207
 Alpha virt. eigenvalues --    0.03560   0.05665   0.06082   0.07125   0.07618
 Alpha virt. eigenvalues --    0.08488   0.08573   0.12937   0.18855   0.18990
 Alpha virt. eigenvalues --    0.20320   0.21156   0.22700   0.22812   0.23012

 Mulliken charges:
               1
     1  Si   6.742298
     2  O   -2.665491
     3  O   -2.687442
     4  H    1.004381
     5  H    1.063975
     6  O   -2.687259
     7  H    1.063952
     8  H   -1.834415
 Sum of Mulliken charges =   0.00000

 Dipole moment (field-independent basis, Debye):
    X=              0.0023    Y=              0.4393    Z=             -0.5890  Tot=              0.7348

 Test job not archived.
 1\1\GINC-SE322\SP\RHF\Aug-CC-pVDZ\H4O3Si1\OHZDE\09-Apr-2025\0\\#t hf a
 ug-cc-pvdz iop(5/13=1,5/36=2,99/5=2) pseudo=read geom=check guess=(rea
 d,tcheck) scf=(maxcycle=1)\\title\\0,1\Si,0,-0.000026,0.002232,0.32814
 6\O,0,0.009079,1.57727,-0.139304\O,0,1.270612,-0.845898,-0.259754\H,0,
 0.010009,1.769242,-1.081222\H,0,2.152332,-0.554971,-0.018778\O,0,-1.28
 0153,-0.831337,-0.259993\H,0,-2.158513,-0.531269,-0.017958\H,0,0.00024
 1,0.085483,1.796323\\Version=ES64L-G16RevC.01\State=1-A\HF=-517.118766
 8\RMSD=6.360e-02\Dipole=0.0008996,0.1728294,-0.2317191\Quadrupole=4.04

 Normal termination of Gaussian 16 at Wed Apr  9 00:07:01 2025.
