 Gaussian 16, Revision C.01,

 ----------------------------------------------------------------------
 #t hf aug-cc-pvdz symm=none int=(grid=ultrafine) guess=(read,tcheck) s
 table=opt
 ----------------------------------------------------------------------
 -----
 title
 -----
 Symbolic Z-matrix:
 Charge =  0 Multiplicity = 2

 SCF Done:  E(UHF) =  -416.763466629     A.U. after   16 cycles
 Normal termination of Gaussian 16 at Tue Apr  8 23:35:02 2025.
 Gaussian 16:  ES64L-G16RevC.01  3-Jul-2019

 ----------------------------------------------------------------------
 #t hf aug-cc-pvdz iop(5/13=1,5/36=2,99/5=2) pseudo=read geom=check gue
 ss=(read,tcheck) scf=(maxcycle=1)
 ----------------------------------------------------------------------
 -----
 title
 -----
 Structure from the checkpoint file:  "BDE49_nonexpt_1464_mol2.chk"
 Charge =  0 Multiplicity = 2

                         Standard orientation:
 ---------------------------------------------------------------------
 Center     Atomic      Atomic             Coordinates (Angstroms)
 Number     Number       Type             X           Y           Z
 ---------------------------------------------------------------------
      1         15           0        0.020626   -0.610280    0.000000
      2          8           0        0.020626    1.057716    0.000000
      3          1           0        0.924153    1.392789    0.000000
      4          1           0       -1.398559   -0.700321    0.000000
 ---------------------------------------------------------------------

 SCF Done:  E(UHF) =  -417.237284558     A.U. after    2 cycles

 The electronic state is 2-A".
 Alpha  occ. eigenvalues -- -105.21382 -21.10246  -2.79466  -1.78934  -1.46717
 Alpha  occ. eigenvalues --   -1.46245  -1.36511  -0.70370  -0.54493  -0.40933
 Alpha  occ. eigenvalues --   -0.28327  -0.09867   0.02363
 Alpha virt. eigenvalues --    0.04744   0.06395   0.09513   0.10710   0.18124
 Alpha virt. eigenvalues --    0.18779   0.20455   0.22948   0.23163   0.24346
 Alpha virt. eigenvalues --    0.26652   0.27884   0.29486   0.33393   0.34556

  Beta  occ. eigenvalues -- -105.20784 -21.09682  -2.77686  -1.77913  -1.44695
  Beta  occ. eigenvalues --   -1.35306  -1.23570  -0.66852  -0.53368  -0.36827
  Beta  occ. eigenvalues --   -0.28481  -0.06651
  Beta virt. eigenvalues --    0.04891   0.06463   0.08514   0.09723   0.11517
  Beta virt. eigenvalues --    0.18611   0.20543   0.23950   0.24362   0.25541
  Beta virt. eigenvalues --    0.26787   0.29142   0.29470   0.29689   0.33531

 Mulliken charges and spin densities:
               1          2
     1  P    2.166358   1.272994
     2  O   -1.999537  -0.094538
     3  H    0.876767  -0.029976
     4  H   -1.043588  -0.148480
 Sum of Mulliken charges =  -0.00000   1.00000

 Dipole moment (field-independent basis, Debye):
    X=              2.0810    Y=             -0.3439    Z=              0.0000  Tot=              2.1092
                          Isotropic Fermi Contact Couplings
        Atom                 a.u.       MegaHertz       Gauss      10(-4) cm-1
     1  P(31)              0.29951     542.43777     193.55529     180.93777
     2  O(17)              0.03900     -23.64314      -8.43646      -7.88650
     3  H(1)              -0.00187      -8.37206      -2.98736      -2.79262
     4  H(1)              -0.00543     -24.28652      -8.66604      -8.10111
 --------------------------------------------------------
       Center         ----  Spin Dipole Couplings  ----
                      3XX-RR        3YY-RR        3ZZ-RR
 --------------------------------------------------------

 Normal termination of Gaussian 16 at Tue Apr  8 23:35:04 2025.
