 Gaussian 16, Revision C.01,

 ----------------------------------------------------------------------
 #t hf aug-cc-pvdz symm=none int=(grid=ultrafine) guess=(read,tcheck) s
 table=(opt,rrhf)
 ----------------------------------------------------------------------
 -----
 title
 -----
 Symbolic Z-matrix:
 Charge =  0 Multiplicity = 1

 SCF Done:  E(RHF) =  -1006.70011947     A.U. after   17 cycles
 Normal termination of Gaussian 16 at Tue Apr  8 23:27:56 2025.
 Gaussian 16:  ES64L-G16RevC.01  3-Jul-2019

 ----------------------------------------------------------------------
 #t hf aug-cc-pvdz iop(5/13=1,5/36=2,99/5=2) pseudo=read geom=check gue
 ss=(read,tcheck) scf=(maxcycle=1)
 ----------------------------------------------------------------------
 -----
 title
 -----
 Structure from the checkpoint file:  "BDE49_nonexpt_1200_mol1.chk"
 Charge =  0 Multiplicity = 1

                         Standard orientation:
 ---------------------------------------------------------------------
 Center     Atomic      Atomic             Coordinates (Angstroms)
 Number     Number       Type             X           Y           Z
 ---------------------------------------------------------------------
      1          6           0       -0.434059   -0.281990    0.653847
      2          8           0        0.024423    0.080389    1.702451
      3          8           0        0.305236   -0.935331   -0.313814
      4         16           0        1.852862   -1.542525    0.096839
      5          6           0        2.992941   -0.150458   -0.065453
      6          8           0        4.146928   -0.437033    0.117533
      7          6           0       -1.835115   -0.068657    0.203511
      8          6           0       -2.316167   -0.548630   -1.020577
      9          6           0       -3.640013   -0.319235   -1.380323
     10          6           0       -4.485831    0.385491   -0.525035
     11          6           0       -4.008670    0.863561    0.695530
     12          6           0       -2.687375    0.638390    1.060503
     13          1           0       -2.296381    0.998182    2.003894
     14          1           0       -1.654161   -1.096039   -1.677613
     15          1           0       -4.012833   -0.691675   -2.327333
     16          1           0       -5.517359    0.561318   -0.808849
     17          1           0       -4.667227    1.409930    1.360580
     18          6           0        2.450747    1.217475   -0.402524
     19          6           0        3.559115    2.222220   -0.716879
     20          1           0        1.853976    1.538851    0.458197
     21          1           0        1.746708    1.114631   -1.234062
     22          1           0        4.251038    2.315079    0.121301
     23          1           0        3.127435    3.204430   -0.920565
     24          1           0        4.136869    1.912503   -1.589934
 ---------------------------------------------------------------------

 SCF Done:  E(RHF) =  -1009.66949810     A.U. after    2 cycles

 The electronic state is 1-A.
 Alpha  occ. eigenvalues --  -75.75450 -21.11841 -21.07519 -21.06964 -13.23467
 Alpha  occ. eigenvalues --  -13.18011 -13.11184 -11.56154 -11.53784 -11.52330
 Alpha  occ. eigenvalues --  -11.45641 -11.45366 -11.43523 -11.42924 -11.42760
 Alpha  occ. eigenvalues --  -11.38726 -11.38138  -8.09148  -1.85434  -1.73582
 Alpha  occ. eigenvalues --   -1.68711  -1.36116  -1.20929  -1.14934  -1.11603
 Alpha  occ. eigenvalues --   -1.10106  -0.95600  -0.92437  -0.88375  -0.80422
 Alpha  occ. eigenvalues --   -0.74660  -0.72468  -0.67706  -0.65125  -0.63923
 Alpha  occ. eigenvalues --   -0.62864  -0.60845  -0.60171  -0.58803  -0.54734
 Alpha  occ. eigenvalues --   -0.54319  -0.52608  -0.51337  -0.50285  -0.49042
 Alpha  occ. eigenvalues --   -0.47303  -0.46284  -0.46148  -0.42003  -0.38040
 Alpha  occ. eigenvalues --   -0.34988  -0.33929  -0.31681  -0.27164  -0.25374
 Alpha virt. eigenvalues --    0.02695   0.04280   0.04729   0.04765   0.06012
 Alpha virt. eigenvalues --    0.06379   0.06511   0.06842   0.07209   0.07607
 Alpha virt. eigenvalues --    0.08337   0.08815   0.08895   0.10561   0.10765

 Mulliken charges:
               1
     1  C    4.617902
     2  O   -3.691774
     3  O   -2.936296
     4  S    1.284695
     5  C    3.483976
     6  O   -3.212226
     7  C    3.352935
     8  C   -1.031629
     9  C   -1.224186
    10  C   -3.281693
    11  C   -1.136851
    12  C   -3.233989
    13  H    1.751459
    14  H    2.014967
    15  H    1.507028
    16  H    1.529203
    17  H    1.479089
    18  C   -4.360684
    19  C   -4.035015
    20  H    1.721625
    21  H    1.831914
    22  H    1.273102
    23  H    1.056892
    24  H    1.239554
 Sum of Mulliken charges =  -0.00000

 Dipole moment (field-independent basis, Debye):
    X=             -2.2656    Y=              0.1011    Z=             -0.8057  Tot=              2.4067

 Test job not archived.
 1\1\GINC-SE393\SP\RHF\Aug-CC-pVDZ\C10H10O3S1\OHZDE\08-Apr-2025\0\\#t h
 f aug-cc-pvdz iop(5/13=1,5/36=2,99/5=2) pseudo=read geom=check guess=(
 read,tcheck) scf=(maxcycle=1)\\title\\0,1\C,0,-0.434059,-0.28199,0.653
 847\O,0,0.024423,0.080389,1.702451\O,0,0.305236,-0.935331,-0.313814\S,
 0,1.852862,-1.542525,0.096839\C,0,2.992941,-0.150458,-0.065453\O,0,4.1
 46928,-0.437033,0.117533\C,0,-1.835115,-0.068657,0.203511\C,0,-2.31616
 7,-0.54863,-1.020577\C,0,-3.640013,-0.319235,-1.380323\C,0,-4.485831,0
 .385491,-0.525035\C,0,-4.00867,0.863561,0.69553\C,0,-2.687375,0.63839,

 Normal termination of Gaussian 16 at Tue Apr  8 23:28:16 2025.
