 Gaussian 16, Revision C.01,

 ----------------------------------------------------------------------
 #t hf aug-cc-pvdz symm=none int=(grid=ultrafine) guess=(read,tcheck) s
 table=(opt,rrhf)
 ----------------------------------------------------------------------
 -----
 title
 -----
 Symbolic Z-matrix:
 Charge =  0 Multiplicity = 1

 SCF Done:  E(RHF) =  -397.518009724     A.U. after   11 cycles
 Normal termination of Gaussian 16 at Tue Apr  8 23:34:00 2025.
 Gaussian 16:  ES64L-G16RevC.01  3-Jul-2019

 ----------------------------------------------------------------------
 #t hf aug-cc-pvdz iop(5/13=1,5/36=2,99/5=2) pseudo=read geom=check gue
 ss=(read,tcheck) scf=(maxcycle=1)
 ----------------------------------------------------------------------
 -----
 title
 -----
 Structure from the checkpoint file:  "BDE49_nonexpt_1457_mol1.chk"
 Charge =  0 Multiplicity = 1

                         Standard orientation:
 ---------------------------------------------------------------------
 Center     Atomic      Atomic             Coordinates (Angstroms)
 Number     Number       Type             X           Y           Z
 ---------------------------------------------------------------------
      1         15           0       -0.598081   -0.123633   -0.025893
      2          7           0        1.106225    0.042419   -0.073581
      3          1           0        1.608832   -0.806050    0.141263
      4          1           0        1.548318    0.849178    0.344717
      5          1           0       -0.954343    1.018646   -0.787982
      6          1           0       -0.975162    0.495783    1.205456
 ---------------------------------------------------------------------

 SCF Done:  E(RHF) =  -397.985123935     A.U. after    2 cycles

 The electronic state is 1-A.
 Alpha  occ. eigenvalues -- -105.18929 -15.74508  -2.76328  -1.54716  -1.43513
 Alpha  occ. eigenvalues --   -1.42902  -1.17378  -0.72548  -0.64873  -0.41369
 Alpha  occ. eigenvalues --   -0.28484  -0.25257  -0.02276
 Alpha virt. eigenvalues --    0.04351   0.05801   0.06782   0.08532   0.09986
 Alpha virt. eigenvalues --    0.11140   0.14932   0.18164   0.18998   0.20273
 Alpha virt. eigenvalues --    0.22937   0.23283   0.24920   0.27828   0.29574

 Mulliken charges:
               1
     1  P    2.270924
     2  N   -1.978847
     3  H    0.432186
     4  H    0.567033
     5  H   -0.723705
     6  H   -0.567591
 Sum of Mulliken charges =   0.00000

 Dipole moment (field-independent basis, Debye):
    X=              0.4983    Y=             -1.1021    Z=              0.2231  Tot=              1.2299

 Test job not archived.
 1\1\GINC-SE080\SP\RHF\Aug-CC-pVDZ\H4N1P1\OHZDE\08-Apr-2025\0\\#t hf au
 g-cc-pvdz iop(5/13=1,5/36=2,99/5=2) pseudo=read geom=check guess=(read
 ,tcheck) scf=(maxcycle=1)\\title\\0,1\P,0,-0.598081,-0.123633,-0.02589
 3\N,0,1.106225,0.042419,-0.073581\H,0,1.608832,-0.80605,0.141263\H,0,1
 .548318,0.849178,0.344717\H,0,-0.954343,1.018646,-0.787982\H,0,-0.9751
 62,0.495783,1.205456\\Version=ES64L-G16RevC.01\State=1-A\HF=-397.98512
 39\RMSD=2.556e-01\Dipole=0.1960336,-0.4336056,0.08777\Quadrupole=1.953
 068,-3.4133947,1.4603267,-0.1467933,1.1044968,-1.3920796\PG=C01 [X(H4N

 Normal termination of Gaussian 16 at Tue Apr  8 23:34:02 2025.
