 Gaussian 16, Revision C.01,

 ----------------------------------------------------------------------
 #t hf aug-cc-pvdz symm=none int=(grid=ultrafine) guess=(read,tcheck) s
 table=(opt,rrhf)
 ----------------------------------------------------------------------
 -----
 title
 -----
 Symbolic Z-matrix:
 Charge =  0 Multiplicity = 1

 SCF Done:  E(RHF) =  -1277.02501666     A.U. after   14 cycles
 Normal termination of Gaussian 16 at Wed Apr  9 00:16:39 2025.
 Gaussian 16:  ES64L-G16RevC.01  3-Jul-2019

 ----------------------------------------------------------------------
 #t hf aug-cc-pvdz iop(5/13=1,5/36=2,99/5=2) pseudo=read geom=check gue
 ss=(read,tcheck) scf=(maxcycle=1)
 ----------------------------------------------------------------------
 -----
 title
 -----
 Structure from the checkpoint file:  "BDE49_nonexpt_2536_mol1.chk"
 Charge =  0 Multiplicity = 1

                         Standard orientation:
 ---------------------------------------------------------------------
 Center     Atomic      Atomic             Coordinates (Angstroms)
 Number     Number       Type             X           Y           Z
 ---------------------------------------------------------------------
      1         17           0        1.960515    0.000095   -0.669866
      2         16           0        0.740380   -0.000162    1.076174
      3         15           0       -1.271668   -0.000065    0.494825
      4          6           0       -1.434181   -1.430986   -0.661528
      5          6           0       -1.434160    1.431181   -0.661127
      6          1           0       -1.260536   -2.357116   -0.112402
      7          1           0       -0.729579   -1.364257   -1.493044
      8          1           0       -2.454801   -1.443772   -1.054030
      9          1           0       -1.260500    2.357155   -0.111742
     10          1           0       -2.454780    1.444093   -1.053626
     11          1           0       -0.729560    1.364675   -1.492662
 ---------------------------------------------------------------------

 SCF Done:  E(RHF) =  -1278.10570835     A.U. after    2 cycles

 The electronic state is 1-A.
 Alpha  occ. eigenvalues -- -105.19735 -99.90047 -75.73969 -13.13499 -13.09966
 Alpha  occ. eigenvalues --  -13.07509 -11.38646 -11.38628 -10.47044  -9.66824
 Alpha  occ. eigenvalues --   -9.66295  -9.66198  -8.07694  -2.78868  -1.51460
 Alpha  occ. eigenvalues --   -1.51272  -1.46447  -1.30622  -1.08248  -0.99636
 Alpha  occ. eigenvalues --   -0.98172  -0.66279  -0.59211  -0.58806  -0.57765
 Alpha  occ. eigenvalues --   -0.56652  -0.54103  -0.53778  -0.51969  -0.28380
 Alpha  occ. eigenvalues --   -0.21508  -0.19172  -0.05604
 Alpha virt. eigenvalues --    0.02839   0.05206   0.05852   0.06568   0.06789
 Alpha virt. eigenvalues --    0.07182   0.08094   0.08716   0.09783   0.11253
 Alpha virt. eigenvalues --    0.12739   0.13249   0.14387   0.15398   0.16018

 Mulliken charges:
               1
     1  Cl  -0.658274
     2  S   -1.661810
     3  P    7.018790
     4  C   -5.912263
     5  C   -5.912270
     6  H    1.217604
     7  H    1.161764
     8  H    1.183544
     9  H    1.217603
    10  H    1.183546
    11  H    1.161764
 Sum of Mulliken charges =  -0.00000

 Dipole moment (field-independent basis, Debye):
    X=            -10.1760    Y=             -0.0003    Z=              2.5703  Tot=             10.4956

 Test job not archived.
 1\1\GINC-SE362\SP\RHF\Aug-CC-pVDZ\C2H6Cl1P1S1\OHZDE\09-Apr-2025\0\\#t
 hf aug-cc-pvdz iop(5/13=1,5/36=2,99/5=2) pseudo=read geom=check guess=
 (read,tcheck) scf=(maxcycle=1)\\title\\0,1\Cl,0,1.960515,0.000095,-0.6
 69866\S,0,0.74038,-0.000162,1.076174\P,0,-1.271668,-0.000065,0.494825\
 C,0,-1.434181,-1.430986,-0.661528\C,0,-1.43416,1.431181,-0.661127\H,0,
 -1.260536,-2.357116,-0.112402\H,0,-0.729579,-1.364257,-1.493044\H,0,-2
 .454801,-1.443772,-1.05403\H,0,-1.2605,2.357155,-0.111742\H,0,-2.45478
 ,1.444093,-1.053626\H,0,-0.72956,1.364675,-1.492662\\Version=ES64L-G16

 Normal termination of Gaussian 16 at Wed Apr  9 00:16:43 2025.
