 Gaussian 16, Revision C.01,

 ----------------------------------------------------------------------
 #t hf aug-cc-pvdz symm=none int=(grid=ultrafine) guess=(read,tcheck) s
 table=opt
 ----------------------------------------------------------------------
 -----
 title
 -----
 Symbolic Z-matrix:
 Charge =  0 Multiplicity = 2

 SCF Done:  E(UHF) =  -1248.73795084     A.U. after   19 cycles
 Normal termination of Gaussian 16 at Tue Apr  8 23:33:44 2025.
 Gaussian 16:  ES64L-G16RevC.01  3-Jul-2019

 ----------------------------------------------------------------------
 #t hf aug-cc-pvdz iop(5/13=1,5/36=2,99/5=2) pseudo=read geom=check gue
 ss=(read,tcheck) scf=(maxcycle=1)
 ----------------------------------------------------------------------
 -----
 title
 -----
 Structure from the checkpoint file:  "BDE49_nonexpt_1359_mol2.chk"
 Charge =  0 Multiplicity = 2

                         Standard orientation:
 ---------------------------------------------------------------------
 Center     Atomic      Atomic             Coordinates (Angstroms)
 Number     Number       Type             X           Y           Z
 ---------------------------------------------------------------------
      1          9           0       -1.731079   -1.785141   -0.165208
      2          9           0       -2.495841    0.443842   -0.829098
      3          8           0        1.210325    2.721494   -0.174115
      4          6           0       -0.033356    2.131614   -0.608623
      5          1           0       -0.118170    2.099455   -1.697846
      6          1           0       -0.901181    2.657707   -0.194268
      7          6           0        0.302385    0.788947    0.097291
      8         15           0       -2.319792   -0.433463    0.529954
      9          6           0       -0.730902    0.288087    1.117475
     10          1           0       -1.025209    1.113878    1.777131
     11          1           0       -0.303031   -0.481362    1.774201
     12          6           0        1.477391    1.607706    0.706287
     13          1           0        1.333489    1.879811    1.759340
     14          1           0        2.478785    1.197829    0.567582
     15          6           0        0.779696   -0.284439   -0.905366
     16         15           0        1.519235   -1.835083   -0.222422
     17          9           0        2.962515   -1.209262    0.266898
     18          1           0        1.525602    0.164835   -1.570910
     19          1           0       -0.056176   -0.612362   -1.531006
 ---------------------------------------------------------------------

 SCF Done:  E(UHF) =  -1251.36688463     A.U. after    2 cycles

 The electronic state is 2-A.
 Alpha  occ. eigenvalues -- -105.30386-105.23975 -29.29687 -29.29628 -29.27132
 Alpha  occ. eigenvalues --  -21.04384 -11.47877 -11.46746 -11.43060 -11.42297
 Alpha  occ. eigenvalues --  -11.38670  -2.89908  -2.82497  -1.77069  -1.62991
 Alpha  occ. eigenvalues --   -1.60966  -1.58335  -1.55596  -1.52774  -1.52513
 Alpha  occ. eigenvalues --   -1.23261  -1.04230  -1.00581  -0.97342  -0.87192
 Alpha  occ. eigenvalues --   -0.80709  -0.75531  -0.68950  -0.67888  -0.62203
 Alpha  occ. eigenvalues --   -0.60400  -0.58512  -0.56878  -0.52919  -0.49086
 Alpha  occ. eigenvalues --   -0.48584  -0.47194  -0.42746  -0.41367  -0.37233
 Alpha  occ. eigenvalues --   -0.36652  -0.35014  -0.33595  -0.32939  -0.29889
 Alpha  occ. eigenvalues --   -0.29126  -0.22372  -0.21268  -0.19762  -0.06037
 Alpha  occ. eigenvalues --   -0.01422   0.02586
 Alpha virt. eigenvalues --    0.04413   0.05550   0.05935   0.06370   0.07060
 Alpha virt. eigenvalues --    0.07608   0.07995   0.08615   0.08881   0.09023
 Alpha virt. eigenvalues --    0.10123   0.12073   0.12680   0.13206   0.13286

  Beta  occ. eigenvalues -- -105.30386-105.23338 -29.29687 -29.29622 -29.26778
  Beta  occ. eigenvalues --  -21.04382 -11.47812 -11.46745 -11.43056 -11.42373
  Beta  occ. eigenvalues --  -11.38670  -2.89909  -2.80563  -1.77059  -1.62988
  Beta  occ. eigenvalues --   -1.60966  -1.58328  -1.53918  -1.51960  -1.28447
  Beta  occ. eigenvalues --   -1.23061  -1.04112  -1.00583  -0.97092  -0.87164
  Beta  occ. eigenvalues --   -0.79354  -0.73766  -0.68837  -0.67681  -0.62125
  Beta  occ. eigenvalues --   -0.60348  -0.58482  -0.56841  -0.52863  -0.48724
  Beta  occ. eigenvalues --   -0.48183  -0.46391  -0.42250  -0.41352  -0.37080
  Beta  occ. eigenvalues --   -0.36590  -0.34980  -0.32954  -0.31954  -0.29835
  Beta  occ. eigenvalues --   -0.29107  -0.22369  -0.21263  -0.20169  -0.02730
  Beta  occ. eigenvalues --   -0.01399
  Beta virt. eigenvalues --    0.04403   0.05193   0.05744   0.06015   0.06796
  Beta virt. eigenvalues --    0.07611   0.07731   0.08556   0.08935   0.09125
  Beta virt. eigenvalues --    0.10041   0.11011   0.12113   0.12736   0.13313

 Mulliken charges and spin densities:
               1          2
     1  F   -0.678062  -0.002551
     2  F   -0.800990   0.002696
     3  O   -2.767766   0.002704
     4  C   -1.850024  -0.159680
     5  H    1.429372   0.147861
     6  H    1.517636  -0.057448
     7  C    2.573439  -0.532149
     8  P    3.638416   0.052972
     9  C   -5.597958   0.136631
    10  H    1.011578  -0.056206
    11  H    0.406111   0.625834
    12  C   -1.773853   0.041388
    13  H    1.762222  -0.047955
    14  H    1.246196   0.014944
    15  C   -4.236352  -0.540779
    16  P    2.885406   1.203111
    17  F   -0.986204  -0.021763
    18  H    1.158173   0.100247
    19  H    1.062660   0.090143
 Sum of Mulliken charges =   0.00000   1.00000

 Dipole moment (field-independent basis, Debye):
    X=              4.0696    Y=             -1.7936    Z=             -5.6958  Tot=              7.2263
                          Isotropic Fermi Contact Couplings
        Atom                 a.u.       MegaHertz       Gauss      10(-4) cm-1
     1  F(19)              0.00067       2.82160       1.00682       0.94119
     2  F(19)              0.00052       2.20045       0.78518       0.73399
     3  O(17)              0.00003      -0.01585      -0.00566      -0.00529
     4  C(13)              0.00145       1.62811       0.58095       0.54308
     5  H(1)               0.00007       0.30592       0.10916       0.10205
     6  H(1)               0.00021       0.92415       0.32976       0.30826
     7  C(13)              0.01963      22.06268       7.87251       7.35932
     8  P(31)              0.00012       0.22315       0.07963       0.07444

 Normal termination of Gaussian 16 at Tue Apr  8 23:33:58 2025.
