 Gaussian 16, Revision C.01,

 ----------------------------------------------------------------------
 #t hf aug-cc-pvdz symm=none int=(grid=ultrafine) guess=(read,tcheck) s
 table=(opt,rrhf)
 ----------------------------------------------------------------------
 -----
 title
 -----
 Symbolic Z-matrix:
 Charge =  0 Multiplicity = 1

 SCF Done:  E(RHF) =  -788.178353963     A.U. after   13 cycles
 Normal termination of Gaussian 16 at Wed Apr  9 00:11:57 2025.
 Gaussian 16:  ES64L-G16RevC.01  3-Jul-2019

 ----------------------------------------------------------------------
 #t hf aug-cc-pvdz iop(5/13=1,5/36=2,99/5=2) pseudo=read geom=check gue
 ss=(read,tcheck) scf=(maxcycle=1)
 ----------------------------------------------------------------------
 -----
 title
 -----
 Structure from the checkpoint file:  "BDE49_nonexpt_2372_mol1.chk"
 Charge =  0 Multiplicity = 1

                         Standard orientation:
 ---------------------------------------------------------------------
 Center     Atomic      Atomic             Coordinates (Angstroms)
 Number     Number       Type             X           Y           Z
 ---------------------------------------------------------------------
      1         14           0       -2.527894   -0.467107   -0.402406
      2         14           0       -0.795866    0.938386    0.351638
      3          6           0        0.847707   -0.065123    0.307889
      4          1           0       -1.014614    1.348386    1.758070
      5          1           0       -0.701889    2.168719   -0.483017
      6          8           0        0.877666   -1.135552    0.903239
      7          7           0        1.908723    0.439250   -0.385960
      8          1           0       -2.209884   -0.966219   -1.762066
      9          6           0        3.191810   -0.245130   -0.481448
     10          1           0        3.096978   -1.190036    0.050654
     11          1           0        3.989055    0.345299   -0.021108
     12          1           0        3.452360   -0.444248   -1.524509
     13          1           0       -3.800112    0.293405   -0.467629
     14          1           0       -2.699294   -1.616499    0.513230
     15          1           0        1.800548    1.334482   -0.835706
 ---------------------------------------------------------------------

 SCF Done:  E(RHF) =  -789.433824792     A.U. after    2 cycles

 The electronic state is 1-A.
 Alpha  occ. eigenvalues --  -76.22496 -76.21926 -21.02561 -15.76895 -11.45995
 Alpha  occ. eigenvalues --  -11.39882  -5.56156  -5.55328  -2.20049  -2.18454
 Alpha  occ. eigenvalues --   -2.17749  -2.17395  -2.17357  -2.16408  -1.69591
 Alpha  occ. eigenvalues --   -1.38555  -1.02440  -0.84479  -0.78699  -0.74144
 Alpha  occ. eigenvalues --   -0.64207  -0.61862  -0.57992  -0.53198  -0.51012
 Alpha  occ. eigenvalues --   -0.48452  -0.47588  -0.46332  -0.46028  -0.35738
 Alpha  occ. eigenvalues --   -0.30756  -0.26779
 Alpha virt. eigenvalues --    0.03425   0.04521   0.04848   0.05745   0.05868
 Alpha virt. eigenvalues --    0.06961   0.07167   0.07684   0.07788   0.08652
 Alpha virt. eigenvalues --    0.09174   0.09627   0.10080   0.10412   0.10578

 Mulliken charges:
               1
     1  Si   4.737117
     2  Si   4.138856
     3  C    3.220934
     4  H   -1.954753
     5  H   -1.583167
     6  O   -2.656498
     7  N   -2.938273
     8  H   -1.520437
     9  C   -3.361475
    10  H    1.383527
    11  H    1.317507
    12  H    1.345037
    13  H   -1.571504
    14  H   -1.490719
    15  H    0.933849
 Sum of Mulliken charges =  -0.00000

 Dipole moment (field-independent basis, Debye):
    X=              1.3778    Y=              1.0526    Z=             -1.1921  Tot=              2.1041

 Test job not archived.
 1\1\GINC-SE249\SP\RHF\Aug-CC-pVDZ\C2H9N1O1Si2\OHZDE\09-Apr-2025\0\\#t
 hf aug-cc-pvdz iop(5/13=1,5/36=2,99/5=2) pseudo=read geom=check guess=
 (read,tcheck) scf=(maxcycle=1)\\title\\0,1\Si,0,-2.527894,-0.467107,-0
 .402406\Si,0,-0.795866,0.938386,0.351638\C,0,0.847707,-0.065123,0.3078
 89\H,0,-1.014614,1.348386,1.75807\H,0,-0.701889,2.168719,-0.483017\O,0
 ,0.877666,-1.135552,0.903239\N,0,1.908723,0.43925,-0.38596\H,0,-2.2098
 84,-0.966219,-1.762066\C,0,3.19181,-0.24513,-0.481448\H,0,3.096978,-1.
 190036,0.050654\H,0,3.989055,0.345299,-0.021108\H,0,3.45236,-0.444248,

 Normal termination of Gaussian 16 at Wed Apr  9 00:12:03 2025.
