 Gaussian 16, Revision C.01,

 ----------------------------------------------------------------------
 #t hf aug-cc-pvdz symm=none int=(grid=ultrafine) guess=(read,tcheck) s
 table=(opt,rrhf)
 ----------------------------------------------------------------------
 -----
 title
 -----
 Symbolic Z-matrix:
 Charge =  0 Multiplicity = 1

 SCF Done:  E(RHF) =  -1203.42179794     A.U. after   13 cycles
 Normal termination of Gaussian 16 at Wed Apr  9 00:12:45 2025.
 Gaussian 16:  ES64L-G16RevC.01  3-Jul-2019

 ----------------------------------------------------------------------
 #t hf aug-cc-pvdz iop(5/13=1,5/36=2,99/5=2) pseudo=read geom=check gue
 ss=(read,tcheck) scf=(maxcycle=1)
 ----------------------------------------------------------------------
 -----
 title
 -----
 Structure from the checkpoint file:  "BDE49_nonexpt_2425_mol1.chk"
 Charge =  0 Multiplicity = 1

                         Standard orientation:
 ---------------------------------------------------------------------
 Center     Atomic      Atomic             Coordinates (Angstroms)
 Number     Number       Type             X           Y           Z
 ---------------------------------------------------------------------
      1         14           0        2.553081   -0.398257    0.006351
      2         14           0        0.733087    1.098129    0.046294
      3         16           0       -1.163252   -0.077405   -0.150994
      4          1           0        0.685849    2.007615   -1.118219
      5          1           0        0.585189    1.861726    1.303976
      6          8           0       -2.331374    0.770700   -0.028662
      7          8           0       -1.106845   -0.978751    1.232812
      8          8           0       -1.017181   -1.005931   -1.243798
      9          1           0        3.787506    0.394727    0.217173
     10          1           0        2.603674   -1.066200   -1.310283
     11          1           0        2.402788   -1.387739    1.093587
     12          1           0       -1.816119   -0.658006    1.809835
 ---------------------------------------------------------------------

 SCF Done:  E(RHF) =  -1204.93546184     A.U. after    2 cycles

 The electronic state is 1-A.
 Alpha  occ. eigenvalues --  -76.27299 -76.24670 -75.90656 -21.12786 -21.06124
 Alpha  occ. eigenvalues --  -21.05975 -13.53278 -13.41890 -13.34480  -8.25656
 Alpha  occ. eigenvalues --   -5.60803  -5.58060  -2.23086  -2.22815  -2.22059
 Alpha  occ. eigenvalues --   -2.20203  -2.20133  -2.19105  -1.88721  -1.71269
 Alpha  occ. eigenvalues --   -1.66221  -0.97834  -0.83647  -0.75001  -0.65462
 Alpha  occ. eigenvalues --   -0.60554  -0.56917  -0.52259  -0.49829  -0.48930
 Alpha  occ. eigenvalues --   -0.47280  -0.44198  -0.39825  -0.39224  -0.37954
 Alpha  occ. eigenvalues --   -0.36059  -0.32149
 Alpha virt. eigenvalues --    0.03083   0.03638   0.04535   0.05759   0.06786
 Alpha virt. eigenvalues --    0.07171   0.07421   0.08142   0.08490   0.08839
 Alpha virt. eigenvalues --    0.09375   0.09933   0.11019   0.12556   0.12954

 Mulliken charges:
               1
     1  Si   4.638047
     2  Si   4.068284
     3  S    5.407277
     4  H   -1.700575
     5  H   -1.710970
     6  O   -2.455961
     7  O   -2.290377
     8  O   -2.393414
     9  H   -1.500919
    10  H   -1.485872
    11  H   -1.440508
    12  H    0.864989
 Sum of Mulliken charges =  -0.00000

 Dipole moment (field-independent basis, Debye):
    X=              2.0799    Y=              0.0580    Z=              1.4831  Tot=              2.5551

 Test job not archived.
 1\1\GINC-SE070\SP\RHF\Aug-CC-pVDZ\H6O3S1Si2\OHZDE\09-Apr-2025\0\\#t hf
  aug-cc-pvdz iop(5/13=1,5/36=2,99/5=2) pseudo=read geom=check guess=(r
 ead,tcheck) scf=(maxcycle=1)\\title\\0,1\Si,0,2.553081,-0.398257,0.006
 351\Si,0,0.733087,1.098129,0.046294\S,0,-1.163252,-0.077405,-0.150994\
 H,0,0.685849,2.007615,-1.118219\H,0,0.585189,1.861726,1.303976\O,0,-2.
 331374,0.7707,-0.028662\O,0,-1.106845,-0.978751,1.232812\O,0,-1.017181
 ,-1.005931,-1.243798\H,0,3.787506,0.394727,0.217173\H,0,2.603674,-1.06
 62,-1.310283\H,0,2.402788,-1.387739,1.093587\H,0,-1.816119,-0.658006,1

 Normal termination of Gaussian 16 at Wed Apr  9 00:12:49 2025.
