 Gaussian 16, Revision C.01,

 ----------------------------------------------------------------------
 #t hf aug-cc-pvdz symm=none int=(grid=ultrafine) guess=(read,tcheck) s
 table=(opt,rrhf)
 ----------------------------------------------------------------------
 -----
 title
 -----
 Symbolic Z-matrix:
 Charge =  0 Multiplicity = 1

 SCF Done:  E(RHF) =  -930.594025105     A.U. after   16 cycles
 Normal termination of Gaussian 16 at Wed Apr  9 00:26:00 2025.
 Gaussian 16:  ES64L-G16RevC.01  3-Jul-2019

 ----------------------------------------------------------------------
 #t hf aug-cc-pvdz iop(5/13=1,5/36=2,99/5=2) pseudo=read geom=check gue
 ss=(read,tcheck) scf=(maxcycle=1)
 ----------------------------------------------------------------------
 -----
 title
 -----
 Structure from the checkpoint file:  "BDE49_nonexpt_2699_mol1.chk"
 Charge =  0 Multiplicity = 1

                         Standard orientation:
 ---------------------------------------------------------------------
 Center     Atomic      Atomic             Coordinates (Angstroms)
 Number     Number       Type             X           Y           Z
 ---------------------------------------------------------------------
      1          9           0        3.543312   -1.065375   -0.000014
      2         16           0        3.023196    0.509227    0.000029
      3          6           0        1.283530    0.257688    0.000017
      4          6           0        0.708098   -1.016973   -0.000053
      5          6           0       -0.674673   -1.140359   -0.000062
      6          6           0       -1.462818    0.005038   -0.000004
      7          6           0        0.478431    1.407198    0.000078
      8          1           0        0.924255    2.395829    0.000135
      9          6           0       -0.900798    1.279351    0.000065
     10          1           0       -1.547105    2.145702    0.000110
     11          7           0       -2.929892   -0.131115   -0.000016
     12          8           0       -3.394308   -1.263812   -0.000088
     13          8           0       -3.593999    0.897805    0.000025
     14          1           0        1.337402   -1.895424   -0.000098
     15          1           0       -1.150425   -2.111158   -0.000115
 ---------------------------------------------------------------------

 SCF Done:  E(RHF) =  -933.075716311     A.U. after    2 cycles

 The electronic state is 1-A.
 Alpha  occ. eigenvalues --  -75.79518 -29.30284 -21.09995 -21.09890 -16.00694
 Alpha  occ. eigenvalues --  -13.26863 -13.24004 -13.10304 -11.56135 -11.49330
 Alpha  occ. eigenvalues --  -11.48511 -11.48266 -11.45597 -11.41897  -8.13590
 Alpha  occ. eigenvalues --   -2.00351  -1.69631  -1.41548  -1.27229  -1.15772
 Alpha  occ. eigenvalues --   -1.14513  -0.99892  -0.92738  -0.84782  -0.76162
 Alpha  occ. eigenvalues --   -0.72126  -0.68326  -0.67228  -0.65580  -0.63577
 Alpha  occ. eigenvalues --   -0.61492  -0.58431  -0.56040  -0.49771  -0.47688
 Alpha  occ. eigenvalues --   -0.46049  -0.38011  -0.37388  -0.36607  -0.36384
 Alpha  occ. eigenvalues --   -0.31925  -0.31921  -0.31388  -0.19944
 Alpha virt. eigenvalues --    0.02513   0.04177   0.06224   0.06524   0.06841
 Alpha virt. eigenvalues --    0.07024   0.08312   0.09333   0.09788   0.10950
 Alpha virt. eigenvalues --    0.11942   0.12208   0.12984   0.13079   0.13956

 Mulliken charges:
               1
     1  F   -0.351617
     2  S    0.634676
     3  C    0.935263
     4  C   -2.299615
     5  C   -2.494479
     6  C    2.539648
     7  C   -0.794909
     8  H    1.774117
     9  C   -2.615767
    10  H    1.904709
    11  N    3.036435
    12  O   -2.957229
    13  O   -2.952221
    14  H    1.741717
    15  H    1.899270
 Sum of Mulliken charges =   0.00000

 Dipole moment (field-independent basis, Debye):
    X=              5.4726    Y=             -1.3811    Z=             -0.0000  Tot=              5.6441

 Test job not archived.
 1\1\GINC-SE096\SP\RHF\Aug-CC-pVDZ\C6H4F1N1O2S1\OHZDE\09-Apr-2025\0\\#t
  hf aug-cc-pvdz iop(5/13=1,5/36=2,99/5=2) pseudo=read geom=check guess
 =(read,tcheck) scf=(maxcycle=1)\\title\\0,1\F,0,3.543312,-1.065375,-0.
 000014\S,0,3.023196,0.509227,0.000029\C,0,1.28353,0.257688,0.000017\C,
 0,0.708098,-1.016973,-0.000053\C,0,-0.674673,-1.140359,-0.000062\C,0,-
 1.462818,0.005038,-0.000004\C,0,0.478431,1.407198,0.000078\H,0,0.92425
 5,2.395829,0.000135\C,0,-0.900798,1.279351,0.000065\H,0,-1.547105,2.14
 5702,0.00011\N,0,-2.929892,-0.131115,-0.000016\O,0,-3.394308,-1.263812

 Normal termination of Gaussian 16 at Wed Apr  9 00:26:08 2025.
