 Gaussian 16, Revision C.01,

 ----------------------------------------------------------------------
 #t hf aug-cc-pvdz symm=none int=(grid=ultrafine) guess=(read,tcheck) s
 table=opt
 ----------------------------------------------------------------------
 -----
 title
 -----
 Symbolic Z-matrix:
 Charge =  0 Multiplicity = 2

 SCF Done:  E(UHF) =  -2063.93394892     A.U. after   24 cycles
 Normal termination of Gaussian 16 at Tue Apr  8 23:11:16 2025.
 Gaussian 16:  ES64L-G16RevC.01  3-Jul-2019

 ----------------------------------------------------------------------
 #t hf aug-cc-pvdz iop(5/13=1,5/36=2,99/5=2) pseudo=read geom=check gue
 ss=(read,tcheck) scf=(maxcycle=1)
 ----------------------------------------------------------------------
 -----
 title
 -----
 Structure from the checkpoint file:  "BDE49_expt_626_mol2.chk"
 Charge =  0 Multiplicity = 2

                         Standard orientation:
 ---------------------------------------------------------------------
 Center     Atomic      Atomic             Coordinates (Angstroms)
 Number     Number       Type             X           Y           Z
 ---------------------------------------------------------------------
      1          6           0       -0.618234    0.096700    0.136294
      2          8           0       -1.129235    1.461662   -0.015631
      3          8           0       -1.192682    1.831186   -1.277858
      4          6           0        0.752576   -0.018361   -0.575765
      5         17           0       -0.540186   -0.131629    1.882073
      6         17           0        1.443936   -1.652534   -0.427743
      7          1           0        0.588977    0.181475   -1.629882
      8         17           0        1.892345    1.220739    0.023435
      9         17           0       -1.785489   -1.024475   -0.618081
 ---------------------------------------------------------------------

 SCF Done:  E(UHF) =  -2065.84386819     A.U. after    2 cycles

 The electronic state is 2-A.
 Alpha  occ. eigenvalues --  -99.93250 -99.93049 -99.92315 -99.92144 -21.19593
 Alpha  occ. eigenvalues --  -21.18207 -11.59745 -11.52936 -10.50722 -10.50428
 Alpha  occ. eigenvalues --  -10.49722 -10.49422  -9.70666  -9.70357  -9.69720
 Alpha  occ. eigenvalues --   -9.69699  -9.69554  -9.69500  -9.69437  -9.69370
 Alpha  occ. eigenvalues --   -9.68760  -9.68694  -9.68562  -9.68501  -2.10553
 Alpha  occ. eigenvalues --   -1.50825  -1.41021  -1.34894  -1.32765  -1.30972
 Alpha  occ. eigenvalues --   -1.09521  -0.91782  -0.77704  -0.75151  -0.72808
 Alpha  occ. eigenvalues --   -0.68749  -0.64659  -0.61383  -0.57313  -0.57026
 Alpha  occ. eigenvalues --   -0.55194  -0.54080  -0.52765  -0.52327  -0.51565
 Alpha  occ. eigenvalues --   -0.50930  -0.50047  -0.38318  -0.35300
 Alpha virt. eigenvalues --    0.02382   0.03044   0.04468   0.06311   0.07083
 Alpha virt. eigenvalues --    0.07754   0.09266   0.10626   0.11786   0.12065
 Alpha virt. eigenvalues --    0.12973   0.14001   0.14303   0.14969   0.15436

  Beta  occ. eigenvalues --  -99.93256 -99.93041 -99.92316 -99.92146 -21.17605
  Beta  occ. eigenvalues --  -21.15663 -11.59805 -11.52935 -10.50728 -10.50423
  Beta  occ. eigenvalues --  -10.49724 -10.49424  -9.70679  -9.70325  -9.69733
  Beta  occ. eigenvalues --   -9.69702  -9.69563  -9.69495  -9.69436  -9.69374
  Beta  occ. eigenvalues --   -9.68761  -9.68695  -9.68565  -9.68504  -2.05401
  Beta  occ. eigenvalues --   -1.48384  -1.39443  -1.32879  -1.31388  -1.29504
  Beta  occ. eigenvalues --   -1.09199  -0.91366  -0.77427  -0.74535  -0.72351
  Beta  occ. eigenvalues --   -0.67726  -0.64233  -0.57196  -0.56831  -0.55611
  Beta  occ. eigenvalues --   -0.54790  -0.52627  -0.52298  -0.51877  -0.50833
  Beta  occ. eigenvalues --   -0.49492  -0.45570  -0.36112
  Beta virt. eigenvalues --    0.01923   0.02985   0.04463   0.06195   0.06892
  Beta virt. eigenvalues --    0.07685   0.08739   0.09429   0.10909   0.11913
  Beta virt. eigenvalues --    0.12467   0.13056   0.14143   0.14537   0.15092

 Mulliken charges and spin densities:
               1          2
     1  C    1.712683   0.009892
     2  O   -1.222898   0.075318
     3  O   -0.314303   0.923941
     4  C   -2.864509   0.016410
     5  Cl   0.100235  -0.010147
     6  Cl   0.204916  -0.001979
     7  H    2.117973  -0.017202
     8  Cl   0.255286  -0.004342
     9  Cl   0.010616   0.008108
 Sum of Mulliken charges =  -0.00000   1.00000

 Dipole moment (field-independent basis, Debye):
    X=             -0.5242    Y=              1.3917    Z=             -1.2604  Tot=              1.9494
                          Isotropic Fermi Contact Couplings
        Atom                 a.u.       MegaHertz       Gauss      10(-4) cm-1
     1  C(13)             -0.01148     -12.90498      -4.60482      -4.30464
     2  O(17)              0.05391     -32.68044     -11.66119     -10.90102
     3  O(17)              0.19884    -120.53518     -43.00995     -40.20621
     4  C(13)              0.00020       0.22117       0.07892       0.07378
     5  Cl(35)            -0.00532      -2.33241      -0.83226      -0.77801
     6  Cl(35)             0.00013       0.05512       0.01967       0.01839
     7  H(1)               0.00003       0.11778       0.04203       0.03929
     8  Cl(35)            -0.00170      -0.74739      -0.26669      -0.24930

 Normal termination of Gaussian 16 at Tue Apr  8 23:11:22 2025.
