 Gaussian 16, Revision C.01,

 ----------------------------------------------------------------------
 #t hf aug-cc-pvdz symm=none int=(grid=ultrafine) guess=(read,tcheck) s
 table=(opt,rrhf)
 ----------------------------------------------------------------------
 -----
 title
 -----
 Symbolic Z-matrix:
 Charge =  0 Multiplicity = 1

 SCF Done:  E(RHF) =  -613.301152962     A.U. after   12 cycles
 Normal termination of Gaussian 16 at Wed Apr  9 00:31:15 2025.
 Gaussian 16:  ES64L-G16RevC.01  3-Jul-2019

 ----------------------------------------------------------------------
 #t hf aug-cc-pvdz iop(5/13=1,5/36=2,99/5=2) pseudo=read geom=check gue
 ss=(read,tcheck) scf=(maxcycle=1)
 ----------------------------------------------------------------------
 -----
 title
 -----
 Structure from the checkpoint file:  "BDE49_nonexpt_360_mol1.chk"
 Charge =  0 Multiplicity = 1

                         Standard orientation:
 ---------------------------------------------------------------------
 Center     Atomic      Atomic             Coordinates (Angstroms)
 Number     Number       Type             X           Y           Z
 ---------------------------------------------------------------------
      1          9           0       -1.935192   -0.845782   -0.000117
      2          9           0       -1.304640    1.321927    0.000060
      3          5           0       -0.953795    0.047107    0.000062
      4         14           0        0.978899   -0.576134    0.000032
      5          9           0        1.966100    0.701127   -0.000035
      6          1           0        1.264034   -1.382526    1.206680
      7          1           0        1.263943   -1.382565   -1.206610
 ---------------------------------------------------------------------

 SCF Done:  E(RHF) =  -614.571426901     A.U. after    2 cycles

 The electronic state is 1-A.
 Alpha  occ. eigenvalues --  -76.26542 -29.27485 -29.27433 -29.27210  -7.71637
 Alpha  occ. eigenvalues --   -5.60907  -2.25764  -2.22284  -2.21811  -1.12902
 Alpha  occ. eigenvalues --   -0.88416  -0.76077  -0.61621  -0.55189  -0.53818
 Alpha  occ. eigenvalues --   -0.49885  -0.46224  -0.45668  -0.36499  -0.35466
 Alpha  occ. eigenvalues --   -0.34693  -0.33892  -0.33420  -0.23950
 Alpha virt. eigenvalues --    0.03839   0.03935   0.05597   0.06265   0.07875
 Alpha virt. eigenvalues --    0.08955   0.09326   0.09620   0.12217   0.13380
 Alpha virt. eigenvalues --    0.14167   0.17311   0.18064   0.20321   0.21919

 Mulliken charges:
               1
     1  F   -0.453860
     2  F   -0.291524
     3  B   -0.474850
     4  Si   5.650548
     5  F   -0.879603
     6  H   -1.775355
     7  H   -1.775357
 Sum of Mulliken charges =  -0.00000

 Dipole moment (field-independent basis, Debye):
    X=             -0.9799    Y=              2.4982    Z=             -0.0004  Tot=              2.6835

 Test job not archived.
 1\1\GINC-SE159\SP\RHF\Aug-CC-pVDZ\B1F3H2Si1\OHZDE\09-Apr-2025\0\\#t hf
  aug-cc-pvdz iop(5/13=1,5/36=2,99/5=2) pseudo=read geom=check guess=(r
 ead,tcheck) scf=(maxcycle=1)\\title\\0,1\F,0,1.935192,-0.845782,0.0001
 17\F,0,1.30464,1.321927,-0.00006\B,0,0.953795,0.047107,-0.000062\Si,0,
 -0.978899,-0.576134,-0.000032\F,0,-1.9661,0.701127,0.000035\H,0,-1.264
 034,-1.382526,-1.20668\H,0,-1.263943,-1.382565,1.20661\\Version=ES64L-
 G16RevC.01\State=1-A\HF=-614.5714269\RMSD=2.207e-01\Dipole=0.3855116,0
 .9828481,0.000151\Quadrupole=2.4990952,1.1474219,-3.6465171,-2.9040827

 Normal termination of Gaussian 16 at Wed Apr  9 00:31:17 2025.
