 Gaussian 16, Revision C.01,

 ----------------------------------------------------------------------
 #t hf aug-cc-pvdz symm=none int=(grid=ultrafine) guess=(read,tcheck) s
 table=opt
 ----------------------------------------------------------------------
 -----
 title
 -----
 Symbolic Z-matrix:
 Charge =  0 Multiplicity = 2

 SCF Done:  E(UHF) =  -535.909725890     A.U. after   18 cycles

 1\1\GINC-SE186\Stability\UHF\Aug-CC-pVDZ\C5H10P1\OHZDE\08-Apr-2025\0\\
 #t hf aug-cc-pvdz symm=none int=(grid=ultrafine) guess=(read,tcheck) s
 table=opt\\title\\0,2\P,0,0.758785,-1.389564,0.\C,0,-0.121741,-0.52757
 5,1.39985\C,0,-0.121741,1.009346,1.283321\C,0,-0.794,1.516177,0.\C,0,-
 0.121741,1.009346,-1.283321\C,0,-0.121741,-0.527575,-1.39985\H,0,0.349
 323,-0.843101,2.334967\H,0,-1.157048,-0.894143,1.429351\H,0,0.911284,1
 .375369,-1.320108\H,0,-0.631306,1.434457,-2.155535\H,0,0.349323,-0.843
 101,-2.334967\H,0,-1.157048,-0.894143,-1.429351\H,0,0.911284,1.375369,

 Normal termination of Gaussian 16 at Tue Apr  8 23:26:46 2025.
 Gaussian 16:  ES64L-G16RevC.01  3-Jul-2019

 ----------------------------------------------------------------------
 #t hf aug-cc-pvdz iop(5/13=1,5/36=2,99/5=2) pseudo=read geom=check gue
 ss=(read,tcheck) scf=(maxcycle=1)
 ----------------------------------------------------------------------
 -----
 title
 -----
 Structure from the checkpoint file:  "BDE49_nonexpt_1254_mol2.chk"
 Charge =  0 Multiplicity = 2

                         Standard orientation:
 ---------------------------------------------------------------------
 Center     Atomic      Atomic             Coordinates (Angstroms)
 Number     Number       Type             X           Y           Z
 ---------------------------------------------------------------------
      1         15           0        0.758785   -1.389564   -0.000000
      2          6           0       -0.121741   -0.527575    1.399850
      3          6           0       -0.121741    1.009346    1.283321
      4          6           0       -0.794000    1.516177    0.000000
      5          6           0       -0.121741    1.009346   -1.283321
      6          6           0       -0.121741   -0.527575   -1.399850
      7          1           0        0.349323   -0.843101    2.334967
      8          1           0       -1.157048   -0.894143    1.429351
      9          1           0        0.911284    1.375369   -1.320108
     10          1           0       -0.631306    1.434457   -2.155535
     11          1           0        0.349323   -0.843101   -2.334967
     12          1           0       -1.157048   -0.894143   -1.429351
     13          1           0        0.911284    1.375369    1.320108
     14          1           0       -0.631306    1.434457    2.155535
     15          1           0       -0.792488    2.611189    0.000000
     16          1           0       -1.848010    1.208785    0.000000
 ---------------------------------------------------------------------

 SCF Done:  E(UHF) =  -537.084491421     A.U. after    2 cycles

 The electronic state is 2-A'.
 Alpha  occ. eigenvalues -- -105.15596 -11.42700 -11.42149 -11.38367 -11.36381
 Alpha  occ. eigenvalues --  -11.34702  -2.74054  -1.47278  -1.46073  -1.44530
 Alpha  occ. eigenvalues --   -1.24674  -1.09008  -0.98943  -0.85217  -0.81019
 Alpha  occ. eigenvalues --   -0.66923  -0.63977  -0.60598  -0.56814  -0.55811
 Alpha  occ. eigenvalues --   -0.53997  -0.48316  -0.45345  -0.43999  -0.43629
 Alpha  occ. eigenvalues --   -0.17483  -0.05221   0.02614
 Alpha virt. eigenvalues --    0.04619   0.05608   0.05836   0.05888   0.05919
 Alpha virt. eigenvalues --    0.06189   0.06398   0.07446   0.08274   0.08485
 Alpha virt. eigenvalues --    0.10145   0.11679   0.12683   0.13478   0.14184

  Beta  occ. eigenvalues -- -105.14969 -11.42671 -11.42141 -11.38451 -11.36444
  Beta  occ. eigenvalues --  -11.34712  -2.72137  -1.45220  -1.44763  -1.24589
  Beta  occ. eigenvalues --   -1.21031  -1.08795  -0.98677  -0.85145  -0.80637
  Beta  occ. eigenvalues --   -0.65140  -0.63919  -0.60337  -0.55346  -0.54056
  Beta  occ. eigenvalues --   -0.53932  -0.47964  -0.45203  -0.43761  -0.43564
  Beta  occ. eigenvalues --   -0.18591  -0.02793
  Beta virt. eigenvalues --    0.04294   0.05620   0.05703   0.05892   0.05938
  Beta virt. eigenvalues --    0.06173   0.06197   0.06787   0.07694   0.08508
  Beta virt. eigenvalues --    0.10091   0.11762   0.11919   0.12741   0.13759

 Mulliken charges and spin densities:
               1          2
     1  P    4.666100   1.392731
     2  C   -3.658680  -0.428715
     3  C   -3.086386  -0.270669
     4  C   -2.730618  -0.137714
     5  C   -3.086386  -0.270669
     6  C   -3.658680  -0.428715
     7  H    1.184776   0.043631
     8  H    1.238926  -0.029409
     9  H    0.978449   0.355741
    10  H    1.102951   0.105850
    11  H    1.184776   0.043631
    12  H    1.238926  -0.029409
    13  H    0.978449   0.355741
    14  H    1.102951   0.105850
    15  H    1.710749  -0.405984
    16  H    0.833695   0.598108
 Sum of Mulliken charges =  -0.00000   1.00000

 Dipole moment (field-independent basis, Debye):
    X=              1.1022    Y=             -3.5283    Z=              0.0000  Tot=              3.6965
                          Isotropic Fermi Contact Couplings
        Atom                 a.u.       MegaHertz       Gauss      10(-4) cm-1
     1  P(31)              0.30734     556.62093     198.61619     185.66876
     2  C(13)             -0.00291      -3.27017      -1.16688      -1.09081
     3  C(13)              0.02971      33.40374      11.91928      11.14229
     4  C(13)              0.00427       4.80252       1.71366       1.60195
     5  C(13)              0.02971      33.40374      11.91928      11.14229
     6  C(13)             -0.00291      -3.27017      -1.16688      -1.09081
     7  H(1)               0.00030       1.36216       0.48605       0.45437
     8  H(1)               0.00473      21.13268       7.54066       7.04910

 Normal termination of Gaussian 16 at Tue Apr  8 23:26:51 2025.
