 Gaussian 16, Revision C.01,

 ----------------------------------------------------------------------
 #t hf aug-cc-pvdz symm=none int=(grid=ultrafine) guess=(read,tcheck) s
 table=(opt,rrhf)
 ----------------------------------------------------------------------
 -----
 title
 -----
 Symbolic Z-matrix:
 Charge =  0 Multiplicity = 1

 SCF Done:  E(RHF) =  -572.039554015     A.U. after   16 cycles
 Normal termination of Gaussian 16 at Tue Apr  8 23:28:23 2025.
 Gaussian 16:  ES64L-G16RevC.01  3-Jul-2019

 ----------------------------------------------------------------------
 #t hf aug-cc-pvdz iop(5/13=1,5/36=2,99/5=2) pseudo=read geom=check gue
 ss=(read,tcheck) scf=(maxcycle=1)
 ----------------------------------------------------------------------
 -----
 title
 -----
 Structure from the checkpoint file:  "BDE49_nonexpt_1292_mol1.chk"
 Charge =  0 Multiplicity = 1

                         Standard orientation:
 ---------------------------------------------------------------------
 Center     Atomic      Atomic             Coordinates (Angstroms)
 Number     Number       Type             X           Y           Z
 ---------------------------------------------------------------------
      1          6           0       -1.630600   -1.196658    0.000291
      2          6           0       -0.235474   -1.205629   -0.001550
      3          6           0        0.488295   -0.008243   -0.001212
      4          6           0       -2.318308    0.012538    0.001171
      5          6           0       -1.608034    1.213683    0.000443
      6          6           0       -0.216975    1.203489   -0.000505
      7          1           0       -2.175737   -2.133937    0.000316
      8          1           0        0.295577   -2.151496   -0.003706
      9          1           0        0.324415    2.143003   -0.000622
     10          1           0       -3.402496    0.022747    0.001985
     11          1           0       -2.140009    2.158709    0.000742
     12         15           0        2.336213   -0.120013   -0.002873
     13          1           0        2.590315    0.791532    1.055938
     14          1           0        2.591309    0.854542   -1.003393
 ---------------------------------------------------------------------

 SCF Done:  E(RHF) =  -573.347271081     A.U. after    2 cycles

 The electronic state is 1-A.
 Alpha  occ. eigenvalues -- -105.18248 -11.51555 -11.43045 -11.43003 -11.40886
 Alpha  occ. eigenvalues --  -11.40720 -11.36547  -2.75088  -1.49657  -1.44733
 Alpha  occ. eigenvalues --   -1.43479  -1.32819  -1.09429  -1.07951  -0.86544
 Alpha  occ. eigenvalues --   -0.85151  -0.74818  -0.68845  -0.62760  -0.58558
 Alpha  occ. eigenvalues --   -0.56819  -0.50710  -0.49938  -0.45054  -0.34352
 Alpha  occ. eigenvalues --   -0.33345  -0.25127  -0.23114  -0.02791
 Alpha virt. eigenvalues --    0.03468   0.05131   0.05410   0.06303   0.06993
 Alpha virt. eigenvalues --    0.07532   0.08211   0.09129   0.09844   0.10914
 Alpha virt. eigenvalues --    0.11877   0.12243   0.13327   0.13852   0.14346

 Mulliken charges:
               1
     1  C   -0.658603
     2  C   -4.298643
     3  C    3.201624
     4  C   -2.212634
     5  C   -0.273877
     6  C   -3.396637
     7  H    1.549186
     8  H    1.737032
     9  H    1.774600
    10  H    1.464757
    11  H    1.466097
    12  P    1.006339
    13  H   -0.668088
    14  H   -0.691153
 Sum of Mulliken charges =   0.00000

 Dipole moment (field-independent basis, Debye):
    X=             -0.9720    Y=             -2.0556    Z=             -0.0813  Tot=              2.2753

 Test job not archived.
 1\1\GINC-SE159\SP\RHF\Aug-CC-pVDZ\C6H7P1\OHZDE\08-Apr-2025\0\\#t hf au
 g-cc-pvdz iop(5/13=1,5/36=2,99/5=2) pseudo=read geom=check guess=(read
 ,tcheck) scf=(maxcycle=1)\\title\\0,1\C,0,-1.6306,-1.196658,0.000291\C
 ,0,-0.235474,-1.205629,-0.00155\C,0,0.488295,-0.008243,-0.001212\C,0,-
 2.318308,0.012538,0.001171\C,0,-1.608034,1.213683,0.000443\C,0,-0.2169
 75,1.203489,-0.000505\H,0,-2.175737,-2.133937,0.000316\H,0,0.295577,-2
 .151496,-0.003706\H,0,0.324415,2.143003,-0.000622\H,0,-3.402496,0.0227
 47,0.001985\H,0,-2.140009,2.158709,0.000742\P,0,2.336213,-0.120013,-0.

 Normal termination of Gaussian 16 at Tue Apr  8 23:28:29 2025.
