 Gaussian 16, Revision C.01,

 ----------------------------------------------------------------------
 #t hf aug-cc-pvdz symm=none int=(grid=ultrafine) guess=(read,tcheck) s
 table=(opt,rrhf)
 ----------------------------------------------------------------------
 -----
 title
 -----
 Symbolic Z-matrix:
 Charge =  0 Multiplicity = 1

 SCF Done:  E(RHF) =  -833.534461992     A.U. after   12 cycles

 1\1\GINC-SE048\Stability\RHF\Aug-CC-pVDZ\C2Cl1F3\OHZDE\08-Apr-2025\0\\
 #t hf aug-cc-pvdz symm=none int=(grid=ultrafine) guess=(read,tcheck) s
 table=(opt,rrhf)\\title\\0,1\C,0,0.251973,0.400381,0.000008\C,0,-0.934
 846,-0.192889,0.000008\Cl,0,1.743398,-0.445415,-0.000002\F,0,0.34352,1
 .732376,-0.000003\F,0,-1.106436,-1.49888,-0.000003\F,0,-2.07492,0.4695
 14,-0.000002\\Version=ES64L-G16RevC.01\HF=-833.534462\RMSD=7.765e-09\D
 ipole=0.1126614,-0.1773363,0.0000056\Quadrupole=0.3095464,-1.4113599,1
 .1018135,-0.5394935,-0.0000206,0.0000048\PG=Unknown\\@

 Normal termination of Gaussian 16 at Tue Apr  8 22:45:30 2025.
 Gaussian 16:  ES64L-G16RevC.01  3-Jul-2019

 ----------------------------------------------------------------------
 #t hf aug-cc-pvdz iop(5/13=1,5/36=2,99/5=2) pseudo=read geom=check gue
 ss=(read,tcheck) scf=(maxcycle=1)
 ----------------------------------------------------------------------
 -----
 title
 -----
 Structure from the checkpoint file:  "BDE49_expt_1509_mol1.chk"
 Charge =  0 Multiplicity = 1

                         Standard orientation:
 ---------------------------------------------------------------------
 Center     Atomic      Atomic             Coordinates (Angstroms)
 Number     Number       Type             X           Y           Z
 ---------------------------------------------------------------------
      1          6           0        0.251973    0.400381    0.000008
      2          6           0       -0.934846   -0.192889    0.000008
      3         17           0        1.743398   -0.445414   -0.000002
      4          9           0        0.343519    1.732376   -0.000003
      5          9           0       -1.106436   -1.498880   -0.000003
      6          9           0       -2.074920    0.469514   -0.000002
 ---------------------------------------------------------------------

 SCF Done:  E(RHF) =  -835.123314655     A.U. after    2 cycles

 The electronic state is 1-A.
 Alpha  occ. eigenvalues --  -99.93955 -29.34807 -29.34617 -29.33198 -11.57665
 Alpha  occ. eigenvalues --  -11.51755 -10.51399  -9.71263  -9.70321  -9.70209
 Alpha  occ. eigenvalues --   -1.45142  -1.31400  -1.09454  -0.89426  -0.82131
 Alpha  occ. eigenvalues --   -0.70526  -0.68070  -0.56345  -0.55960  -0.47935
 Alpha  occ. eigenvalues --   -0.44825  -0.42744  -0.42629  -0.36918  -0.33815
 Alpha  occ. eigenvalues --   -0.33637  -0.26651  -0.20628
 Alpha virt. eigenvalues --    0.06252   0.08752   0.10275   0.10506   0.11884
 Alpha virt. eigenvalues --    0.12154   0.13676   0.14020   0.15189   0.15387
 Alpha virt. eigenvalues --    0.17457   0.20050   0.21552   0.22942   0.25148

 Mulliken charges:
               1
     1  C   -2.919660
     2  C    0.288881
     3  Cl  -0.176172
     4  F    1.025560
     5  F    0.916533
     6  F    0.864857
 Sum of Mulliken charges =   0.00000

 Dipole moment (field-independent basis, Debye):
    X=             -3.9130    Y=              1.3137    Z=             -0.0001  Tot=              4.1276

 Test job not archived.
 1\1\GINC-SE048\SP\RHF\Aug-CC-pVDZ\C2Cl1F3\OHZDE\08-Apr-2025\0\\#t hf a
 ug-cc-pvdz iop(5/13=1,5/36=2,99/5=2) pseudo=read geom=check guess=(rea
 d,tcheck) scf=(maxcycle=1)\\title\\0,1\C,0,0.251973,0.400381,0.000008\
 C,0,-0.934846,-0.192889,0.000008\Cl,0,1.743398,-0.445415,-0.000002\F,0
 ,0.34352,1.732376,-0.000003\F,0,-1.106436,-1.49888,-0.000003\F,0,-2.07
 492,0.469514,-0.000002\\Version=ES64L-G16RevC.01\State=1-A\HF=-835.123
 3147\RMSD=3.954e-01\Dipole=-1.5394848,0.5168617,-0.0000237\Quadrupole=
 0.988293,2.6035641,-3.5918571,0.4404761,0.0000117,-0.0000029\PG=C01 [X

 Normal termination of Gaussian 16 at Tue Apr  8 22:45:32 2025.
