 Gaussian 16, Revision C.01,

 ----------------------------------------------------------------------
 #t hf aug-cc-pvdz symm=none int=(grid=ultrafine) guess=(read,tcheck) s
 table=(opt,rrhf)
 ----------------------------------------------------------------------
 -----
 title
 -----
 Symbolic Z-matrix:
 Charge =  0 Multiplicity = 1

 SCF Done:  E(RHF) =  -633.163107256     A.U. after   12 cycles
 Normal termination of Gaussian 16 at Wed Apr  9 00:06:08 2025.
 Gaussian 16:  ES64L-G16RevC.01  3-Jul-2019

 ----------------------------------------------------------------------
 #t hf aug-cc-pvdz iop(5/13=1,5/36=2,99/5=2) pseudo=read geom=check gue
 ss=(read,tcheck) scf=(maxcycle=1)
 ----------------------------------------------------------------------
 -----
 title
 -----
 Structure from the checkpoint file:  "BDE49_nonexpt_2213_mol1.chk"
 Charge =  0 Multiplicity = 1

                         Standard orientation:
 ---------------------------------------------------------------------
 Center     Atomic      Atomic             Coordinates (Angstroms)
 Number     Number       Type             X           Y           Z
 ---------------------------------------------------------------------
      1         14           0        0.914883    0.050465   -0.006510
      2          8           0        1.878171    1.381236   -0.014846
      3          8           0        1.239321   -0.948609    1.271471
      4          1           0        2.798527    1.260095   -0.261487
      5          6           0       -0.830909    0.689691   -0.003650
      6          6           0       -1.912881   -0.406296   -0.002507
      7          1           0       -0.949259    1.334235   -0.883329
      8          1           0       -0.960045    1.350411    0.863681
      9          6           0       -3.339515    0.151044   -0.013532
     10          1           0       -1.779981   -1.049783    0.874435
     11          1           0       -1.768418   -1.053002   -0.874762
     12          1           0       -3.526063    0.775679    0.865849
     13          1           0       -4.082619   -0.651704   -0.016002
     14          1           0       -3.513296    0.769373   -0.899623
     15          1           0        1.204071   -0.578553    2.156225
     16          8           0        1.235417   -0.890098   -1.316093
     17          1           0        1.445272   -1.810129   -1.139971
 ---------------------------------------------------------------------

 SCF Done:  E(RHF) =  -634.865351329     A.U. after    2 cycles

 The electronic state is 1-A.
 Alpha  occ. eigenvalues --  -76.23545 -21.07295 -21.06993 -21.06810 -11.40843
 Alpha  occ. eigenvalues --  -11.37046 -11.33803  -5.58632  -2.26535  -2.25301
 Alpha  occ. eigenvalues --   -2.23019  -1.70081  -1.63840  -1.63383  -1.20039
 Alpha  occ. eigenvalues --   -0.99338  -0.84367  -0.71304  -0.63588  -0.62139
 Alpha  occ. eigenvalues --   -0.60558  -0.57227  -0.54127  -0.53488  -0.48179
 Alpha  occ. eigenvalues --   -0.46124  -0.45656  -0.44485  -0.42649  -0.40412
 Alpha  occ. eigenvalues --   -0.37201  -0.35586  -0.34407
 Alpha virt. eigenvalues --    0.03514   0.05160   0.05768   0.05953   0.06275
 Alpha virt. eigenvalues --    0.06430   0.06662   0.07349   0.08036   0.08489
 Alpha virt. eigenvalues --    0.08827   0.09791   0.10786   0.12088   0.13142

 Mulliken charges:
               1
     1  Si   8.243211
     2  O   -3.159324
     3  O   -3.150648
     4  H    1.131582
     5  C   -4.391118
     6  C   -2.539326
     7  H    1.424729
     8  H    1.337206
     9  C   -4.136558
    10  H    1.406949
    11  H    1.432022
    12  H    1.269979
    13  H    1.128261
    14  H    1.261687
    15  H    0.966134
    16  O   -3.158908
    17  H    0.934122
 Sum of Mulliken charges =   0.00000

 Dipole moment (field-independent basis, Debye):
    X=              0.2343    Y=             -0.3843    Z=              0.5105  Tot=              0.6806

 Test job not archived.
 1\1\GINC-SE344\SP\RHF\Aug-CC-pVDZ\C3H10O3Si1\OHZDE\09-Apr-2025\0\\#t h
 f aug-cc-pvdz iop(5/13=1,5/36=2,99/5=2) pseudo=read geom=check guess=(
 read,tcheck) scf=(maxcycle=1)\\title\\0,1\Si,0,0.914883,0.050465,-0.00
 651\O,0,1.878171,1.381236,-0.014846\O,0,1.239321,-0.948609,1.271471\H,
 0,2.798527,1.260095,-0.261487\C,0,-0.830909,0.689691,-0.00365\C,0,-1.9
 12881,-0.406296,-0.002507\H,0,-0.949259,1.334235,-0.883329\H,0,-0.9600
 45,1.350411,0.863681\C,0,-3.339515,0.151044,-0.013532\H,0,-1.779981,-1
 .049783,0.874435\H,0,-1.768418,-1.053002,-0.874762\H,0,-3.526063,0.775

 Normal termination of Gaussian 16 at Wed Apr  9 00:06:14 2025.
