 Gaussian 16, Revision C.01,

 ----------------------------------------------------------------------
 #t hf aug-cc-pvdz symm=none int=(grid=ultrafine) guess=(read,tcheck) s
 table=(opt,rrhf)
 ----------------------------------------------------------------------
 -----
 title
 -----
 Symbolic Z-matrix:
 Charge =  0 Multiplicity = 1

 SCF Done:  E(RHF) =  -745.616859288     A.U. after   15 cycles
 Normal termination of Gaussian 16 at Tue Apr  8 22:47:57 2025.
 Gaussian 16:  ES64L-G16RevC.01  3-Jul-2019

 ----------------------------------------------------------------------
 #t hf aug-cc-pvdz iop(5/13=1,5/36=2,99/5=2) pseudo=read geom=check gue
 ss=(read,tcheck) scf=(maxcycle=1)
 ----------------------------------------------------------------------
 -----
 title
 -----
 Structure from the checkpoint file:  "BDE49_expt_1544_mol1.chk"
 Charge =  0 Multiplicity = 1

                         Standard orientation:
 ---------------------------------------------------------------------
 Center     Atomic      Atomic             Coordinates (Angstroms)
 Number     Number       Type             X           Y           Z
 ---------------------------------------------------------------------
      1         14           0       -1.469096    0.014619   -0.010245
      2          8           0       -2.176072   -0.115027    1.465660
      3          8           0       -1.900848    1.470734   -0.625201
      4          8           0       -2.043786   -1.285375   -0.847620
      5          6           0        0.388910    0.008985   -0.010442
      6          6           0        1.119686    1.207956    0.001675
      7          6           0        2.512034    1.197943    0.028129
      8          1           0        0.587965    2.152257   -0.020372
      9          1           0       -2.791524    1.779329   -0.441351
     10          1           0       -2.438004   -0.991457    1.755907
     11          1           0       -1.687137   -1.438653   -1.725927
     12          6           0        1.102891   -1.200695   -0.001441
     13          6           0        2.495278   -1.214305    0.026416
     14          6           0        3.201634   -0.013137    0.042728
     15          1           0        3.059656    2.134046    0.035354
     16          1           0        3.028535   -2.158686    0.033671
     17          1           0        4.285959   -0.021079    0.063486
     18          1           0        0.564954   -2.143565   -0.022442
 ---------------------------------------------------------------------

 SCF Done:  E(RHF) =  -747.802284547     A.U. after    2 cycles

 The electronic state is 1-A.
 Alpha  occ. eigenvalues --  -76.24326 -21.07644 -21.07339 -21.07115 -11.51318
 Alpha  occ. eigenvalues --  -11.42885 -11.42390 -11.40653 -11.40221 -11.35980
 Alpha  occ. eigenvalues --   -5.59447  -2.27672  -2.26244  -2.24253  -1.70430
 Alpha  occ. eigenvalues --   -1.64256  -1.63604  -1.33381  -1.08958  -1.08863
 Alpha  occ. eigenvalues --   -0.86114  -0.85716  -0.74128  -0.69760  -0.63711
 Alpha  occ. eigenvalues --   -0.62294  -0.61385  -0.58242  -0.56709  -0.54622
 Alpha  occ. eigenvalues --   -0.50483  -0.47700  -0.45714  -0.44457  -0.42295
 Alpha  occ. eigenvalues --   -0.40466  -0.39143  -0.35919  -0.35488  -0.32882
 Alpha  occ. eigenvalues --   -0.32852
 Alpha virt. eigenvalues --    0.03101   0.05229   0.05333   0.05729   0.06148
 Alpha virt. eigenvalues --    0.06422   0.07056   0.07623   0.08001   0.08572
 Alpha virt. eigenvalues --    0.10009   0.10705   0.11369   0.11750   0.13329

 Mulliken charges:
               1
     1  Si   7.557354
     2  O   -3.208467
     3  O   -3.221326
     4  O   -3.231432
     5  C   -0.531218
     6  C   -2.238832
     7  C   -0.975331
     8  H    1.794807
     9  H    1.113882
    10  H    0.972926
    11  H    1.021471
    12  C   -1.869847
    13  C   -1.086944
    14  C   -2.375984
    15  H    1.534637
    16  H    1.506630
    17  H    1.532474
    18  H    1.705199
 Sum of Mulliken charges =   0.00000

 Dipole moment (field-independent basis, Debye):
    X=              0.3483    Y=             -0.3478    Z=             -0.1949  Tot=              0.5294

 Test job not archived.
 1\1\GINC-SE186\SP\RHF\Aug-CC-pVDZ\C6H8O3Si1\OHZDE\08-Apr-2025\0\\#t hf
  aug-cc-pvdz iop(5/13=1,5/36=2,99/5=2) pseudo=read geom=check guess=(r
 ead,tcheck) scf=(maxcycle=1)\\title\\0,1\Si,0,-1.469096,0.014619,-0.01
 0245\O,0,-2.176072,-0.115027,1.46566\O,0,-1.900848,1.470734,-0.625201\
 O,0,-2.043786,-1.285375,-0.84762\C,0,0.38891,0.008985,-0.010442\C,0,1.
 119686,1.207956,0.001675\C,0,2.512034,1.197943,0.028129\H,0,0.587965,2
 .152257,-0.020372\H,0,-2.791524,1.779329,-0.441351\H,0,-2.438004,-0.99
 1457,1.755907\H,0,-1.687137,-1.438653,-1.725927\C,0,1.102891,-1.200695

 Normal termination of Gaussian 16 at Tue Apr  8 22:48:07 2025.
