 Gaussian 16, Revision C.01,

 ----------------------------------------------------------------------
 #t hf aug-cc-pvdz symm=none int=(grid=ultrafine) guess=(read,tcheck) s
 table=(opt,rrhf)
 ----------------------------------------------------------------------
 -----
 title
 -----
 Symbolic Z-matrix:
 Charge =  0 Multiplicity = 1

 SCF Done:  E(RHF) =  -614.977864878     A.U. after   12 cycles
 Normal termination of Gaussian 16 at Tue Apr  8 22:59:39 2025.
 Gaussian 16:  ES64L-G16RevC.01  3-Jul-2019

 ----------------------------------------------------------------------
 #t hf aug-cc-pvdz iop(5/13=1,5/36=2,99/5=2) pseudo=read geom=check gue
 ss=(read,tcheck) scf=(maxcycle=1)
 ----------------------------------------------------------------------
 -----
 title
 -----
 Structure from the checkpoint file:  "BDE49_expt_1931_mol1.chk"
 Charge =  0 Multiplicity = 1

                         Standard orientation:
 ---------------------------------------------------------------------
 Center     Atomic      Atomic             Coordinates (Angstroms)
 Number     Number       Type             X           Y           Z
 ---------------------------------------------------------------------
      1         14           0        0.013735    0.001133    0.001238
      2          9           0       -0.144656   -0.937254    1.280498
      3          8           0        0.025367    1.579090    0.380374
      4          8           0       -1.274966   -0.255934   -0.963738
      5          8           0        1.451927   -0.406684   -0.628598
      6          1           0       -0.818495    2.026793    0.475412
      7          1           0       -1.572300   -1.157663   -1.105637
      8          1           0        1.881781    0.218508   -1.215896
 ---------------------------------------------------------------------

 SCF Done:  E(RHF) =  -616.397645261     A.U. after    2 cycles

 The electronic state is 1-A.
 Alpha  occ. eigenvalues --  -76.28167 -29.26909 -21.09431 -21.09357 -21.09102
 Alpha  occ. eigenvalues --   -5.64431  -2.31644  -2.31010  -2.29089  -1.72632
 Alpha  occ. eigenvalues --   -1.66157  -1.65876  -0.84020  -0.66269  -0.63835
 Alpha  occ. eigenvalues --   -0.62556  -0.49834  -0.46635  -0.44643  -0.43658
 Alpha  occ. eigenvalues --   -0.41235  -0.38079  -0.33647  -0.31968  -0.30974
 Alpha virt. eigenvalues --    0.03632   0.05796   0.05999   0.07665   0.08076
 Alpha virt. eigenvalues --    0.08315   0.13788   0.18112   0.19077   0.19719
 Alpha virt. eigenvalues --    0.21585   0.21852   0.22783   0.23424   0.23935

 Mulliken charges:
               1
     1  Si   6.067499
     2  F   -1.130958
     3  O   -2.679212
     4  O   -2.607789
     5  O   -2.662528
     6  H    0.990015
     7  H    0.991118
     8  H    1.031854
 Sum of Mulliken charges =   0.00000

 Dipole moment (field-independent basis, Debye):
    X=             -0.5511    Y=             -0.6861    Z=              0.7779  Tot=              1.1745

 Test job not archived.
 1\1\GINC-SE219\SP\RHF\Aug-CC-pVDZ\F1H3O3Si1\OHZDE\08-Apr-2025\0\\#t hf
  aug-cc-pvdz iop(5/13=1,5/36=2,99/5=2) pseudo=read geom=check guess=(r
 ead,tcheck) scf=(maxcycle=1)\\title\\0,1\Si,0,0.013735,0.001133,0.0012
 38\F,0,-0.144661,-0.937253,1.280498\O,0,0.025376,1.57909,0.380374\O,0,
 -1.274967,-0.255927,-0.963738\O,0,1.451925,-0.406692,-0.628598\H,0,-0.
 818484,2.026797,0.475412\H,0,-1.572306,-1.157655,-1.105637\H,0,1.88178
 2,0.218498,-1.215896\\Version=ES64L-G16RevC.01\State=1-A\HF=-616.39764
 53\RMSD=5.687e-02\Dipole=-0.2168108,-0.2699229,0.3060304\Quadrupole=-0

 Normal termination of Gaussian 16 at Tue Apr  8 22:59:42 2025.
