 Gaussian 16, Revision C.01,

 ----------------------------------------------------------------------
 #t hf aug-cc-pvdz symm=none int=(grid=ultrafine) guess=(read,tcheck) s
 table=(opt,rrhf)
 ----------------------------------------------------------------------
 -----
 title
 -----
 Symbolic Z-matrix:
 Charge =  0 Multiplicity = 1

 SCF Done:  E(RHF) =  -1152.59310101     A.U. after   15 cycles
 Normal termination of Gaussian 16 at Tue Apr  8 23:10:30 2025.
 Gaussian 16:  ES64L-G16RevC.01  3-Jul-2019

 ----------------------------------------------------------------------
 #t hf aug-cc-pvdz iop(5/13=1,5/36=2,99/5=2) pseudo=read geom=check gue
 ss=(read,tcheck) scf=(maxcycle=1)
 ----------------------------------------------------------------------
 -----
 title
 -----
 Structure from the checkpoint file:  "BDE49_expt_393_mol1.chk"
 Charge =  0 Multiplicity = 1

                         Standard orientation:
 ---------------------------------------------------------------------
 Center     Atomic      Atomic             Coordinates (Angstroms)
 Number     Number       Type             X           Y           Z
 ---------------------------------------------------------------------
      1          6           0        2.612762   -0.000000   -0.240838
      2         16           0        0.900408   -0.000000    0.543941
      3          9           0        2.764624   -1.087032   -1.007250
      4          9           0        3.533600   -0.000000    0.715448
      5          9           0        2.764624    1.087032   -1.007250
      6          8           0        0.777884    1.263855    1.228739
      7          8           0        0.777884   -1.263855    1.228739
      8          6           0       -1.605009    0.000000   -0.555032
      9          6           0       -2.282635    1.207151   -0.358840
     10          6           0       -2.282635   -1.207151   -0.358840
     11          6           0       -3.624137   -1.206083    0.010862
     12          6           0       -4.297164    0.000000    0.194888
     13          6           0       -3.624137    1.206083    0.010862
     14          1           0       -4.142620    2.146596    0.156687
     15          1           0       -1.758028    2.146273   -0.493507
     16          1           0       -1.758028   -2.146273   -0.493507
     17          1           0       -4.142620   -2.146596    0.156687
     18          1           0       -5.342503    0.000000    0.481668
     19          6           0       -0.153141    0.000000   -0.947877
     20          1           0        0.131030   -0.893229   -1.505280
     21          1           0        0.131030    0.893229   -1.505280
 ---------------------------------------------------------------------

 SCF Done:  E(RHF) =  -1155.95711947     A.U. after    2 cycles

 The electronic state is 1-A.
 Alpha  occ. eigenvalues --  -75.91224 -29.34798 -29.34752 -29.34595 -21.07328
 Alpha  occ. eigenvalues --  -21.07299 -13.54514 -13.44846 -13.37286 -11.62122
 Alpha  occ. eigenvalues --  -11.53962 -11.47865 -11.45509 -11.45195 -11.42908
 Alpha  occ. eigenvalues --  -11.42220 -11.38149  -8.26463  -1.85527  -1.67699
 Alpha  occ. eigenvalues --   -1.44379  -1.37529  -1.20486  -1.10853  -1.07873
 Alpha  occ. eigenvalues --   -0.96591  -0.92944  -0.92252  -0.88296  -0.85334
 Alpha  occ. eigenvalues --   -0.76462  -0.72734  -0.67422  -0.67005  -0.60882
 Alpha  occ. eigenvalues --   -0.59760  -0.58849  -0.56328  -0.52239  -0.51580
 Alpha  occ. eigenvalues --   -0.48434  -0.47713  -0.47075  -0.46817  -0.46018
 Alpha  occ. eigenvalues --   -0.45712  -0.42533  -0.40691  -0.39390  -0.39199
 Alpha  occ. eigenvalues --   -0.37577  -0.34401  -0.33206  -0.29543  -0.28596
 Alpha  occ. eigenvalues --   -0.26477  -0.24574
 Alpha virt. eigenvalues --    0.02980   0.04863   0.04960   0.05267   0.05838
 Alpha virt. eigenvalues --    0.07127   0.08138   0.08810   0.09839   0.10249
 Alpha virt. eigenvalues --    0.10769   0.11736   0.11894   0.12481   0.13127

 Mulliken charges:
               1
     1  C   -0.956559
     2  S    5.795492
     3  F    0.309429
     4  F    0.591656
     5  F    0.309429
     6  O   -2.621647
     7  O   -2.621647
     8  C    5.351488
     9  C   -2.829403
    10  C   -2.829403
    11  C   -1.293242
    12  C   -2.949374
    13  C   -1.293242
    14  H    1.511336
    15  H    1.789119
    16  H    1.789119
    17  H    1.511336
    18  H    1.552407
    19  C   -5.549293
    20  H    1.216501
    21  H    1.216501
 Sum of Mulliken charges =   0.00000

 Dipole moment (field-independent basis, Debye):
    X=              0.6645    Y=             -0.0000    Z=             -2.0600  Tot=              2.1645

 Test job not archived.
 1\1\GINC-SE343\SP\RHF\Aug-CC-pVDZ\C8H7F3O2S1\OHZDE\08-Apr-2025\0\\#t h
 f aug-cc-pvdz iop(5/13=1,5/36=2,99/5=2) pseudo=read geom=check guess=(
 read,tcheck) scf=(maxcycle=1)\\title\\0,1\C,0,-0.240838,-2.612762,0.\S
 ,0,0.543941,-0.900408,0.\F,0,-1.00725,-2.764624,1.087032\F,0,0.715448,
 -3.5336,0.\F,0,-1.00725,-2.764624,-1.087032\O,0,1.228739,-0.777884,-1.
 263855\O,0,1.228739,-0.777884,1.263855\C,0,-0.555032,1.605009,0.\C,0,-
 0.35884,2.282635,-1.207151\C,0,-0.35884,2.282635,1.207151\C,0,0.010862
 ,3.624137,1.206083\C,0,0.194888,4.297164,0.\C,0,0.010862,3.624137,-1.2

 Normal termination of Gaussian 16 at Tue Apr  8 23:10:46 2025.
