 Gaussian 16, Revision C.01,

 ----------------------------------------------------------------------
 #t hf aug-cc-pvdz symm=none int=(grid=ultrafine) guess=(read,tcheck) s
 table=(opt,rrhf)
 ----------------------------------------------------------------------
 -----
 title
 -----
 Symbolic Z-matrix:
 Charge =  0 Multiplicity = 1

 SCF Done:  E(RHF) =  -2117.16626577     A.U. after   13 cycles
 Normal termination of Gaussian 16 at Wed Apr  9 00:17:06 2025.
 Gaussian 16:  ES64L-G16RevC.01  3-Jul-2019

 ----------------------------------------------------------------------
 #t hf aug-cc-pvdz iop(5/13=1,5/36=2,99/5=2) pseudo=read geom=check gue
 ss=(read,tcheck) scf=(maxcycle=1)
 ----------------------------------------------------------------------
 -----
 title
 -----
 Structure from the checkpoint file:  "BDE49_nonexpt_249_mol1.chk"
 Charge =  0 Multiplicity = 1

                         Standard orientation:
 ---------------------------------------------------------------------
 Center     Atomic      Atomic             Coordinates (Angstroms)
 Number     Number       Type             X           Y           Z
 ---------------------------------------------------------------------
      1         17           0        3.899109    1.505304   -0.000003
      2         17           0        3.899109   -1.505304   -0.000003
      3          5           0        2.972511    0.000000    0.000003
      4          6           0        1.421856    0.000000    0.000005
      5          6           0        0.693536   -1.205024    0.000006
      6          1           0        1.223460   -2.149598    0.000005
      7          6           0        0.693536    1.205024    0.000006
      8          1           0        1.223460    2.149598    0.000005
      9         17           0       -3.899109   -1.505304   -0.000007
     10         17           0       -3.899109    1.505304   -0.000008
     11          5           0       -2.972511    0.000000    0.000011
     12          6           0       -1.421856    0.000000    0.000009
     13          6           0       -0.693536    1.205024    0.000008
     14          1           0       -1.223460    2.149598    0.000008
     15          6           0       -0.693536   -1.205024    0.000008
     16          1           0       -1.223460   -2.149598    0.000009
 ---------------------------------------------------------------------

 SCF Done:  E(RHF) =  -2119.43686767     A.U. after    2 cycles

 The electronic state is 1-A.
 Alpha  occ. eigenvalues --  -99.90523 -99.90519 -99.90507 -99.90504 -11.53598
 Alpha  occ. eigenvalues --  -11.46646 -11.45052 -11.43790 -11.43294 -11.38251
 Alpha  occ. eigenvalues --  -10.47946 -10.47946 -10.47699 -10.47687  -9.67952
 Alpha  occ. eigenvalues --   -9.67921  -9.67716  -9.67649  -9.67424  -9.67388
 Alpha  occ. eigenvalues --   -9.67369  -9.67332  -9.67188  -9.67143  -9.67090
 Alpha  occ. eigenvalues --   -9.67065  -7.75385  -7.74337  -1.43694  -1.40364
 Alpha  occ. eigenvalues --   -1.33475  -1.30264  -1.30230  -1.13852  -1.11806
 Alpha  occ. eigenvalues --   -0.93594  -0.89454  -0.82364  -0.79875  -0.71825
 Alpha  occ. eigenvalues --   -0.66687  -0.66543  -0.64425  -0.62636  -0.60801
 Alpha  occ. eigenvalues --   -0.58813  -0.58596  -0.55911  -0.55375  -0.53039
 Alpha  occ. eigenvalues --   -0.53032  -0.52457  -0.51331  -0.50093  -0.47625
 Alpha  occ. eigenvalues --   -0.45659  -0.43456  -0.37781  -0.35273
 Alpha virt. eigenvalues --   -0.00192   0.02142   0.03954   0.03967   0.04103
 Alpha virt. eigenvalues --    0.04655   0.04706   0.05410   0.06660   0.07438
 Alpha virt. eigenvalues --    0.08565   0.09269   0.09749   0.10578   0.10655

 Mulliken charges:
               1
     1  Cl  -1.477920
     2  Cl  -1.477920
     3  B    1.436343
     4  C   -2.524579
     5  C    0.040037
     6  H    1.982001
     7  C    0.040037
     8  H    1.982001
     9  Cl  -1.477920
    10  Cl  -1.477920
    11  B    1.436343
    12  C   -2.524579
    13  C    0.040038
    14  H    1.982001
    15  C    0.040037
    16  H    1.982001
 Sum of Mulliken charges =  -0.00000

 Dipole moment (field-independent basis, Debye):
    X=              0.0000    Y=             -0.0000    Z=              0.0000  Tot=              0.0000

 Test job not archived.
 1\1\GINC-SE345\SP\RHF\Aug-CC-pVDZ\C6H4B2Cl4\OHZDE\09-Apr-2025\0\\#t hf
  aug-cc-pvdz iop(5/13=1,5/36=2,99/5=2) pseudo=read geom=check guess=(r
 ead,tcheck) scf=(maxcycle=1)\\title\\0,1\Cl,0,-3.899109,1.505304,0.000
 003\Cl,0,-3.899109,-1.505304,0.000003\B,0,-2.972511,0.,-0.000003\C,0,-
 1.421856,0.,-0.000005\C,0,-0.693536,-1.205024,-0.000006\H,0,-1.22346,-
 2.149598,-0.000005\C,0,-0.693536,1.205024,-0.000006\H,0,-1.22346,2.149
 598,-0.000005\Cl,0,3.899109,-1.505304,0.000007\Cl,0,3.899109,1.505304,
 0.000008\B,0,2.972511,0.,-0.000011\C,0,1.421856,0.,-0.000009\C,0,0.693

 Normal termination of Gaussian 16 at Wed Apr  9 00:17:16 2025.
