 Gaussian 16, Revision C.01,

 ----------------------------------------------------------------------
 #t hf aug-cc-pvdz symm=none int=(grid=ultrafine) guess=(read,tcheck) s
 table=(opt,rrhf)
 ----------------------------------------------------------------------
 -----
 title
 -----
 Symbolic Z-matrix:
 Charge =  0 Multiplicity = 1

 SCF Done:  E(RHF) =  -483.292589611     A.U. after   12 cycles
 Normal termination of Gaussian 16 at Wed Apr  9 00:03:12 2025.
 Gaussian 16:  ES64L-G16RevC.01  3-Jul-2019

 ----------------------------------------------------------------------
 #t hf aug-cc-pvdz iop(5/13=1,5/36=2,99/5=2) pseudo=read geom=check gue
 ss=(read,tcheck) scf=(maxcycle=1)
 ----------------------------------------------------------------------
 -----
 title
 -----
 Structure from the checkpoint file:  "BDE49_nonexpt_2161_mol1.chk"
 Charge =  0 Multiplicity = 1

                         Standard orientation:
 ---------------------------------------------------------------------
 Center     Atomic      Atomic             Coordinates (Angstroms)
 Number     Number       Type             X           Y           Z
 ---------------------------------------------------------------------
      1         14           0        1.385780   -0.477721    0.144064
      2          8           0        1.854090    1.065507   -0.244403
      3          1           0        2.735256    1.358804   -0.004548
      4          6           0       -0.408937   -0.640022   -0.353509
      5          6           0       -1.366913    0.334896    0.356811
      6          1           0       -0.715106   -1.677352   -0.160818
      7          1           0       -0.472933   -0.505036   -1.440682
      8          6           0       -2.825432    0.177324   -0.085104
      9          1           0       -1.037982    1.362191    0.170485
     10          1           0       -1.298980    0.186062    1.440830
     11          1           0       -2.931941    0.356775   -1.159419
     12          1           0       -3.478321    0.882792    0.437020
     13          1           0       -3.193505   -0.832978    0.119607
     14          1           0        1.553130   -0.719856    1.602348
     15          1           0        2.214427   -1.480558   -0.575687
 ---------------------------------------------------------------------

 SCF Done:  E(RHF) =  -484.393504980     A.U. after    2 cycles

 The electronic state is 1-A.
 Alpha  occ. eigenvalues --  -76.21979 -21.06950 -11.40715 -11.36834 -11.33799
 Alpha  occ. eigenvalues --   -5.55851  -2.22525  -2.19281  -2.17491  -1.65284
 Alpha  occ. eigenvalues --   -1.20036  -0.99360  -0.84450  -0.72853  -0.63533
 Alpha  occ. eigenvalues --   -0.58407  -0.57039  -0.53493  -0.52406  -0.48529
 Alpha  occ. eigenvalues --   -0.46098  -0.45181  -0.40409  -0.37811  -0.37060
 Alpha virt. eigenvalues --    0.03922   0.04827   0.05547   0.06116   0.06303
 Alpha virt. eigenvalues --    0.06457   0.06805   0.07154   0.08419   0.08668
 Alpha virt. eigenvalues --    0.09555   0.10242   0.10584   0.12974   0.14245

 Mulliken charges:
               1
     1  Si   6.086207
     2  O   -2.599773
     3  H    1.123300
     4  C   -4.120000
     5  C   -2.579009
     6  H    1.465434
     7  H    1.576675
     8  C   -3.859711
     9  H    1.483185
    10  H    1.459275
    11  H    1.244250
    12  H    1.145613
    13  H    1.265580
    14  H   -1.845959
    15  H   -1.845066
 Sum of Mulliken charges =   0.00000

 Dipole moment (field-independent basis, Debye):
    X=             -0.0813    Y=              0.6319    Z=             -0.0966  Tot=              0.6443

 Test job not archived.
 1\1\GINC-SE094\SP\RHF\Aug-CC-pVDZ\C3H10O1Si1\OHZDE\09-Apr-2025\0\\#t h
 f aug-cc-pvdz iop(5/13=1,5/36=2,99/5=2) pseudo=read geom=check guess=(
 read,tcheck) scf=(maxcycle=1)\\title\\0,1\Si,0,1.38578,-0.477721,0.144
 064\O,0,1.85409,1.065507,-0.244403\H,0,2.735256,1.358803,-0.004548\C,0
 ,-0.408937,-0.640022,-0.353509\C,0,-1.366913,0.334896,0.356811\H,0,-0.
 715107,-1.677352,-0.160818\H,0,-0.472933,-0.505036,-1.440682\C,0,-2.82
 5432,0.177324,-0.085104\H,0,-1.037982,1.362191,0.170485\H,0,-1.29898,0
 .186062,1.44083\H,0,-2.931941,0.356775,-1.159419\H,0,-3.478321,0.88279

 Normal termination of Gaussian 16 at Wed Apr  9 00:03:16 2025.
