 Gaussian 16, Revision C.01,

 ----------------------------------------------------------------------
 #t hf aug-cc-pvdz symm=none int=(grid=ultrafine) guess=(read,tcheck) s
 table=(opt,rrhf)
 ----------------------------------------------------------------------
 -----
 title
 -----
 Symbolic Z-matrix:
 Charge =  0 Multiplicity = 1

 SCF Done:  E(RHF) =  -780.140181740     A.U. after   14 cycles
 Normal termination of Gaussian 16 at Tue Apr  8 23:31:09 2025.
 Gaussian 16:  ES64L-G16RevC.01  3-Jul-2019

 ----------------------------------------------------------------------
 #t hf aug-cc-pvdz iop(5/13=1,5/36=2,99/5=2) pseudo=read geom=check gue
 ss=(read,tcheck) scf=(maxcycle=1)
 ----------------------------------------------------------------------
 -----
 title
 -----
 Structure from the checkpoint file:  "BDE49_nonexpt_1357_mol1.chk"
 Charge =  0 Multiplicity = 1

                         Standard orientation:
 ---------------------------------------------------------------------
 Center     Atomic      Atomic             Coordinates (Angstroms)
 Number     Number       Type             X           Y           Z
 ---------------------------------------------------------------------
      1          9           0        2.679324   -1.123003    0.252085
      2          8           0       -2.458892   -1.831733   -0.193982
      3         15           0        1.903628    0.139827   -0.478386
      4          7           0       -0.432655   -1.032619    0.573439
      5          7           0       -0.512686    1.129172   -0.201755
      6          6           0        0.335919    0.188020    0.547483
      7          6           0       -1.666995   -0.937050   -0.011361
      8          6           0       -1.845324    0.541405   -0.353148
      9          6           0       -0.484405    2.500753    0.284214
     10          1           0       -0.025938   -1.925238    0.810341
     11          1           0       -2.237888    0.651515   -1.366355
     12          1           0       -2.579568    0.971250    0.346782
     13          1           0       -1.006249    3.148850   -0.422554
     14          1           0       -0.958725    2.608974    1.274593
     15          1           0        0.547833    2.849699    0.352317
     16          1           0        1.285302   -0.612060   -1.509382
     17          1           0        0.560260    0.535863    1.568222
 ---------------------------------------------------------------------

 SCF Done:  E(RHF) =  -782.216859806     A.U. after    2 cycles

 The electronic state is 1-A.
 Alpha  occ. eigenvalues -- -105.24397 -29.26879 -21.03733 -15.77616 -15.74318
 Alpha  occ. eigenvalues --  -11.51846 -11.45904 -11.42710 -11.41203  -2.82270
 Alpha  occ. eigenvalues --   -1.71637  -1.57742  -1.54367  -1.49633  -1.48932
 Alpha  occ. eigenvalues --   -1.33630  -1.10379  -1.02819  -0.87532  -0.83926
 Alpha  occ. eigenvalues --   -0.81716  -0.70440  -0.67263  -0.62533  -0.60374
 Alpha  occ. eigenvalues --   -0.58240  -0.56256  -0.54559  -0.51104  -0.48873
 Alpha  occ. eigenvalues --   -0.48789  -0.38440  -0.34573  -0.33304  -0.32690
 Alpha  occ. eigenvalues --   -0.29050  -0.25262  -0.18610  -0.01740
 Alpha virt. eigenvalues --    0.03826   0.05204   0.05442   0.05585   0.06578
 Alpha virt. eigenvalues --    0.06857   0.07219   0.07618   0.09238   0.09791
 Alpha virt. eigenvalues --    0.11293   0.11879   0.12904   0.13348   0.13562

 Mulliken charges:
               1
     1  F   -0.394441
     2  O   -3.596334
     3  P    3.067245
     4  N   -2.839191
     5  N   -1.739644
     6  C   -0.822606
     7  C    5.035873
     8  C   -2.870775
     9  C   -3.685806
    10  H    0.737994
    11  H    1.448707
    12  H    1.517082
    13  H    1.293802
    14  H    1.327042
    15  H    1.260942
    16  H   -1.378146
    17  H    1.638257
 Sum of Mulliken charges =  -0.00000

 Dipole moment (field-independent basis, Debye):
    X=              3.1791    Y=             -2.5227    Z=              2.2409  Tot=              4.6360

 Test job not archived.
 1\1\GINC-SE364\SP\RHF\Aug-CC-pVDZ\C4H8F1N2O1P1\OHZDE\08-Apr-2025\0\\#t
  hf aug-cc-pvdz iop(5/13=1,5/36=2,99/5=2) pseudo=read geom=check guess
 =(read,tcheck) scf=(maxcycle=1)\\title\\0,1\F,0,2.679324,-1.123003,0.2
 52085\O,0,-2.458892,-1.831733,-0.193982\P,0,1.903628,0.139827,-0.47838
 6\N,0,-0.432655,-1.032619,0.573439\N,0,-0.512686,1.129172,-0.201755\C,
 0,0.335919,0.18802,0.547483\C,0,-1.666995,-0.93705,-0.011361\C,0,-1.84
 5324,0.541405,-0.353148\C,0,-0.484405,2.500753,0.284214\H,0,-0.025938,
 -1.925238,0.810341\H,0,-2.237888,0.651515,-1.366355\H,0,-2.579568,0.97

 Normal termination of Gaussian 16 at Tue Apr  8 23:31:16 2025.
