 Gaussian 16, Revision C.01,

 ----------------------------------------------------------------------
 #t hf aug-cc-pvdz symm=none int=(grid=ultrafine) guess=(read,tcheck) s
 table=(opt,rrhf)
 ----------------------------------------------------------------------
 -----
 title
 -----
 Symbolic Z-matrix:
 Charge =  0 Multiplicity = 1

 SCF Done:  E(RHF) =  -666.830294692     A.U. after   14 cycles
 Normal termination of Gaussian 16 at Tue Apr  8 23:18:52 2025.
 Gaussian 16:  ES64L-G16RevC.01  3-Jul-2019

 ----------------------------------------------------------------------
 #t hf aug-cc-pvdz iop(5/13=1,5/36=2,99/5=2) pseudo=read geom=check gue
 ss=(read,tcheck) scf=(maxcycle=1)
 ----------------------------------------------------------------------
 -----
 title
 -----
 Structure from the checkpoint file:  "BDE49_nonexpt_1065_mol1.chk"
 Charge =  0 Multiplicity = 1

                         Standard orientation:
 ---------------------------------------------------------------------
 Center     Atomic      Atomic             Coordinates (Angstroms)
 Number     Number       Type             X           Y           Z
 ---------------------------------------------------------------------
      1         17           0        1.762281   -0.088096   -0.000002
      2          8           0        0.155070   -0.736864   -0.000001
      3          6           0       -0.879881    0.204364    0.000001
      4          6           0       -2.162829   -0.581961    0.000002
      5          7           0       -0.809645    1.454436    0.000002
      6          1           0       -2.217515   -1.221760   -0.883070
      7          1           0       -2.991603    0.122657    0.000004
      8          1           0       -2.217512   -1.221762    0.883072
      9          1           0        0.151070    1.797943    0.000001
 ---------------------------------------------------------------------

 SCF Done:  E(RHF) =  -668.009736936     A.U. after    2 cycles

 The electronic state is 1-A.
 Alpha  occ. eigenvalues --  -99.95819 -21.14481 -15.74309 -11.50090 -11.39592
 Alpha  occ. eigenvalues --  -10.52554  -9.72466  -9.71679  -9.71438  -1.82438
 Alpha  occ. eigenvalues --   -1.34847  -1.26232  -1.09156  -0.80504  -0.70407
 Alpha  occ. eigenvalues --   -0.63934  -0.63808  -0.58700  -0.56262  -0.53300
 Alpha  occ. eigenvalues --   -0.49908  -0.47906  -0.38724  -0.35560
 Alpha virt. eigenvalues --    0.02511   0.03750   0.06557   0.06628   0.06807
 Alpha virt. eigenvalues --    0.08503   0.10613   0.11352   0.13251   0.15205
 Alpha virt. eigenvalues --    0.15880   0.15945   0.16094   0.16683   0.17361

 Mulliken charges:
               1
     1  Cl   0.518811
     2  O   -2.487745
     3  C    4.399048
     4  C   -3.812135
     5  N   -3.030261
     6  H    1.253670
     7  H    1.210217
     8  H    1.253671
     9  H    0.694723
 Sum of Mulliken charges =  -0.00000

 Dipole moment (field-independent basis, Debye):
    X=             -1.5539    Y=             -1.8661    Z=              0.0000  Tot=              2.4283

 Test job not archived.
 1\1\GINC-SE069\SP\RHF\Aug-CC-pVDZ\C2H4Cl1N1O1\OHZDE\08-Apr-2025\0\\#t
 hf aug-cc-pvdz iop(5/13=1,5/36=2,99/5=2) pseudo=read geom=check guess=
 (read,tcheck) scf=(maxcycle=1)\\title\\0,1\Cl,0,1.762281,-0.088096,-0.
 000002\O,0,0.15507,-0.736864,-0.000001\C,0,-0.879881,0.204364,0.000001
 \C,0,-2.162829,-0.581961,0.000002\N,0,-0.809645,1.454436,0.000002\H,0,
 -2.217515,-1.22176,-0.88307\H,0,-2.991603,0.122657,0.000004\H,0,-2.217
 512,-1.221762,0.883072\H,0,0.15107,1.797943,0.000001\\Version=ES64L-G1
 6RevC.01\State=1-A\HF=-668.0097369\RMSD=1.782e-01\Dipole=-0.6113502,-0

 Normal termination of Gaussian 16 at Tue Apr  8 23:18:54 2025.
