 Gaussian 16, Revision C.01,

 ----------------------------------------------------------------------
 #t hf aug-cc-pvdz symm=none int=(grid=ultrafine) guess=(read,tcheck) s
 table=(opt,rrhf)
 ----------------------------------------------------------------------
 -----
 title
 -----
 Symbolic Z-matrix:
 Charge =  0 Multiplicity = 1

 SCF Done:  E(RHF) =  -393.591549810     A.U. after   13 cycles
 Normal termination of Gaussian 16 at Wed Apr  9 00:47:05 2025.
 Gaussian 16:  ES64L-G16RevC.01  3-Jul-2019

 ----------------------------------------------------------------------
 #t hf aug-cc-pvdz iop(5/13=1,5/36=2,99/5=2) pseudo=read geom=check gue
 ss=(read,tcheck) scf=(maxcycle=1)
 ----------------------------------------------------------------------
 -----
 title
 -----
 Structure from the checkpoint file:  "BDE49_nonexpt_72_mol1.chk"
 Charge =  0 Multiplicity = 1

                         Standard orientation:
 ---------------------------------------------------------------------
 Center     Atomic      Atomic             Coordinates (Angstroms)
 Number     Number       Type             X           Y           Z
 ---------------------------------------------------------------------
      1          5           0       -0.711553   -1.154200   -0.406063
      2          5           0        0.711598   -1.154237    0.405943
      3          6           0        2.013007   -0.348823    0.008677
      4          7           0        2.344174    0.819655    0.391147
      5          6           0       -2.012976   -0.348861   -0.008689
      6          7           0       -2.344216    0.819619   -0.391092
      7          6           0        2.956499   -1.100442   -0.913155
      8          1           0        2.474616   -1.334900   -1.868470
      9          1           0        3.270961   -2.050541   -0.467544
     10          1           0        3.835887   -0.481081   -1.096170
     11          6           0       -2.956385   -1.100562    0.913161
     12          1           0       -2.474441   -1.335039    1.868440
     13          1           0       -3.270828   -2.050655    0.467526
     14          1           0       -3.835791   -0.481249    1.096249
     15          6           0        1.454510    1.540083    1.290366
     16          1           0        1.959783    1.689520    2.249906
     17          1           0        0.486439    1.048597    1.483062
     18          1           0        1.254178    2.533626    0.879197
     19          6           0       -1.454636    1.540125   -1.290331
     20          1           0       -1.959971    1.689580   -2.249835
     21          1           0       -0.486553    1.048691   -1.483104
     22          1           0       -1.254325    2.533660   -0.879131
     23          1           0        0.822969   -1.916034    1.328511
     24          1           0       -0.822972   -1.916029   -1.328598
 ---------------------------------------------------------------------

 SCF Done:  E(RHF) =  -395.502988990     A.U. after    2 cycles

 The electronic state is 1-A.
 Alpha  occ. eigenvalues --  -15.72045 -15.72038 -11.42891 -11.42863 -11.38998
 Alpha  occ. eigenvalues --  -11.38461 -11.37057 -11.37051  -7.62763  -7.61107
 Alpha  occ. eigenvalues --   -1.39001  -1.38637  -1.12219  -1.12036  -0.96918
 Alpha  occ. eigenvalues --   -0.96410  -0.96201  -0.84121  -0.70149  -0.66073
 Alpha  occ. eigenvalues --   -0.61829  -0.60864  -0.60632  -0.60311  -0.59540
 Alpha  occ. eigenvalues --   -0.57762  -0.56438  -0.55933  -0.50235  -0.50210
 Alpha  occ. eigenvalues --   -0.47777  -0.47709  -0.46272  -0.38104  -0.34822
 Alpha  occ. eigenvalues --   -0.34163  -0.31841
 Alpha virt. eigenvalues --    0.02673   0.02712   0.03143   0.04101   0.06137
 Alpha virt. eigenvalues --    0.06157   0.06751   0.06844   0.07456   0.07494
 Alpha virt. eigenvalues --    0.07671   0.07996   0.08340   0.08476   0.08727

 Mulliken charges:
               1
     1  B    5.261838
     2  B    5.261374
     3  C    1.348457
     4  N   -3.073048
     5  C    1.348423
     6  N   -3.073082
     7  C   -4.250747
     8  H    1.238066
     9  H    1.296020
    10  H    1.312428
    11  C   -4.250644
    12  H    1.238078
    13  H    1.296010
    14  H    1.312427
    15  C   -3.928261
    16  H    1.322931
    17  H    1.902247
    18  H    1.465757
    19  C   -3.928197
    20  H    1.322939
    21  H    1.902211
    22  H    1.465760
    23  H   -3.895338
    24  H   -3.895650
 Sum of Mulliken charges =   0.00000

 Dipole moment (field-independent basis, Debye):
    X=              0.0000    Y=             -1.2132    Z=             -0.0001  Tot=              1.2132

 Test job not archived.
 1\1\GINC-SE041\SP\RHF\Aug-CC-pVDZ\C6H14B2N2\OHZDE\09-Apr-2025\0\\#t hf
  aug-cc-pvdz iop(5/13=1,5/36=2,99/5=2) pseudo=read geom=check guess=(r
 ead,tcheck) scf=(maxcycle=1)\\title\\0,1\B,0,-0.711553,-1.1542,-0.4060
 63\B,0,0.711598,-1.154237,0.405943\C,0,2.013007,-0.348823,0.008677\N,0
 ,2.344174,0.819655,0.391147\C,0,-2.012976,-0.348861,-0.008689\N,0,-2.3
 44216,0.819619,-0.391092\C,0,2.956499,-1.100442,-0.913155\H,0,2.474616
 ,-1.3349,-1.86847\H,0,3.270961,-2.050541,-0.467544\H,0,3.835887,-0.481
 081,-1.09617\C,0,-2.956385,-1.100562,0.913161\H,0,-2.474441,-1.335039,

 Normal termination of Gaussian 16 at Wed Apr  9 00:47:21 2025.
