 Gaussian 16, Revision C.01,

 ----------------------------------------------------------------------
 #t hf aug-cc-pvdz symm=none int=(grid=ultrafine) guess=(read,tcheck) s
 table=opt
 ----------------------------------------------------------------------
 -----
 title
 -----
 Symbolic Z-matrix:
 Charge =  0 Multiplicity = 2

 SCF Done:  E(UHF) =  -557.601299917     A.U. after   15 cycles
 Normal termination of Gaussian 16 at Tue Apr  8 23:43:44 2025.
 Gaussian 16:  ES64L-G16RevC.01  3-Jul-2019

 ----------------------------------------------------------------------
 #t hf aug-cc-pvdz iop(5/13=1,5/36=2,99/5=2) pseudo=read geom=check gue
 ss=(read,tcheck) scf=(maxcycle=1)
 ----------------------------------------------------------------------
 -----
 title
 -----
 Structure from the checkpoint file:  "BDE49_nonexpt_1691_mol2.chk"
 Charge =  0 Multiplicity = 2

                         Standard orientation:
 ---------------------------------------------------------------------
 Center     Atomic      Atomic             Coordinates (Angstroms)
 Number     Number       Type             X           Y           Z
 ---------------------------------------------------------------------
      1          6           0       -3.026189   -0.029240   -0.178028
      2          6           0       -1.520568   -0.009678   -0.462634
      3          1           0       -3.313358   -0.928543    0.376014
      4          1           0       -3.604674   -0.010875   -1.106631
      5          1           0       -3.326278    0.837455    0.419008
      6          6           0       -0.665844   -0.032915    0.821370
      7          1           0       -1.265820    0.881866   -1.043264
      8          1           0       -1.253958   -0.867435   -1.089006
      9         14           0        1.193761   -0.003472    0.479784
     10          1           0       -0.893931   -0.922915    1.420501
     11          1           0       -0.899381    0.831220    1.454786
     12          8           0        1.446485    1.395839   -0.366724
     13          1           0        2.255709    1.462237   -0.880622
     14          8           0        1.671723   -1.237456   -0.536339
     15          1           0        1.918973   -2.070459   -0.127503
 ---------------------------------------------------------------------

 SCF Done:  E(UHF) =  -558.975106756     A.U. after    2 cycles

 The electronic state is 2-A.
 Alpha  occ. eigenvalues --  -76.24228 -21.07694 -21.07179 -11.40499 -11.36978
 Alpha  occ. eigenvalues --  -11.33978  -5.58353  -2.25301  -2.23141  -2.19724
 Alpha  occ. eigenvalues --   -1.68131  -1.63634  -1.19982  -0.99433  -0.84284
 Alpha  occ. eigenvalues --   -0.70807  -0.63581  -0.60308  -0.57479  -0.53899
 Alpha  occ. eigenvalues --   -0.52623  -0.51511  -0.46198  -0.45920  -0.43412
 Alpha  occ. eigenvalues --   -0.40277  -0.39631  -0.36586  -0.23938
 Alpha virt. eigenvalues --    0.03887   0.05124   0.05550   0.05992   0.06284
 Alpha virt. eigenvalues --    0.06307   0.06871   0.07135   0.08385   0.08543
 Alpha virt. eigenvalues --    0.09317   0.10339   0.12308   0.13947   0.14137

  Beta  occ. eigenvalues --  -76.23747 -21.07331 -21.06853 -11.40399 -11.36818
  Beta  occ. eigenvalues --  -11.33810  -5.57560  -2.24792  -2.22705  -2.16759
  Beta  occ. eigenvalues --   -1.67261  -1.62874  -1.19578  -0.98765  -0.83934
  Beta  occ. eigenvalues --   -0.68793  -0.63460  -0.60087  -0.57120  -0.53624
  Beta  occ. eigenvalues --   -0.51972  -0.47697  -0.46062  -0.45605  -0.42786
  Beta  occ. eigenvalues --   -0.38778  -0.38201  -0.35334
  Beta virt. eigenvalues --    0.03008   0.05109   0.05678   0.06034   0.06084
  Beta virt. eigenvalues --    0.06317   0.06889   0.07194   0.08378   0.08560
  Beta virt. eigenvalues --    0.09015   0.09598   0.10574   0.12338   0.14265

 Mulliken charges and spin densities:
               1          2
     1  C   -4.000729   0.002741
     2  C   -2.582532  -0.104203
     3  H    1.269782   0.003555
     4  H    1.142430   0.000189
     5  H    1.265088   0.000165
     6  C   -4.183221   0.224942
     7  H    1.484800  -0.002055
     8  H    1.446881  -0.003747
     9  Si   4.601996   1.040057
    10  H    1.421348  -0.044112
    11  H    1.427939  -0.003498
    12  O   -2.783591  -0.017935
    13  H    1.084424   0.009937
    14  O   -2.622828  -0.079383
    15  H    1.028214  -0.026655
 Sum of Mulliken charges =   0.00000   1.00000

 Dipole moment (field-independent basis, Debye):
    X=              0.2240    Y=             -0.4987    Z=             -0.3383  Tot=              0.6429
                          Isotropic Fermi Contact Couplings
        Atom                 a.u.       MegaHertz       Gauss      10(-4) cm-1
     1  C(13)              0.00581       6.52788       2.32931       2.17747
     2  C(13)              0.00666       7.48987       2.67257       2.49835
     3  H(1)               0.00005       0.23447       0.08366       0.07821
     4  H(1)               0.00097       4.33569       1.54708       1.44623
     5  H(1)               0.00005       0.22109       0.07889       0.07375
     6  C(13)              0.06209      69.80281      24.90738      23.28371
     7  H(1)              -0.00020      -0.89768      -0.32031      -0.29943
     8  H(1)              -0.00017      -0.76494      -0.27295      -0.25516

 Normal termination of Gaussian 16 at Tue Apr  8 23:43:49 2025.
