 Gaussian 16, Revision C.01,

 ----------------------------------------------------------------------
 #t hf aug-cc-pvdz symm=none int=(grid=ultrafine) guess=(read,tcheck) s
 table=(opt,rrhf)
 ----------------------------------------------------------------------
 -----
 title
 -----
 Symbolic Z-matrix:
 Charge =  0 Multiplicity = 1

 SCF Done:  E(RHF) =  -971.201701423     A.U. after   13 cycles
 Normal termination of Gaussian 16 at Tue Apr  8 23:55:24 2025.
 Gaussian 16:  ES64L-G16RevC.01  3-Jul-2019

 ----------------------------------------------------------------------
 #t hf aug-cc-pvdz iop(5/13=1,5/36=2,99/5=2) pseudo=read geom=check gue
 ss=(read,tcheck) scf=(maxcycle=1)
 ----------------------------------------------------------------------
 -----
 title
 -----
 Structure from the checkpoint file:  "BDE49_nonexpt_1957_mol1.chk"
 Charge =  0 Multiplicity = 1

                         Standard orientation:
 ---------------------------------------------------------------------
 Center     Atomic      Atomic             Coordinates (Angstroms)
 Number     Number       Type             X           Y           Z
 ---------------------------------------------------------------------
      1         14           0       -2.986965    0.187515   -0.040090
      2          6           0       -1.294568   -0.643963    0.152282
      3         15           0        1.250528    0.010679    0.096605
      4          8           0        1.578667   -0.984487   -1.109789
      5          8           0        1.960988    1.362728   -0.360858
      6          1           0        2.143947    1.936937    0.391952
      7          8           0        1.606535   -0.476172    1.431349
      8          8           0       -0.277819    0.348689   -0.168735
      9          1           0       -3.096104    1.325908    0.897529
     10          1           0       -4.024934   -0.821643    0.277453
     11          1           0       -3.162189    0.661241   -1.429660
     12          1           0        2.349601   -1.531488   -0.918746
     13          1           0       -1.190891   -1.494065   -0.529197
     14          1           0       -1.139394   -1.004583    1.173424
 ---------------------------------------------------------------------

 SCF Done:  E(RHF) =  -972.997265892     A.U. after    2 cycles

 The electronic state is 1-A.
 Alpha  occ. eigenvalues -- -105.32455 -76.22385 -21.12080 -21.12008 -21.08723
 Alpha  occ. eigenvalues --  -21.02703 -11.41281  -5.55931  -2.96041  -2.19776
 Alpha  occ. eigenvalues --   -2.18258  -2.18148  -2.01066  -1.92676  -1.92355
 Alpha  occ. eigenvalues --   -1.75396  -1.42942  -1.40916  -1.25965  -0.98590
 Alpha  occ. eigenvalues --   -0.76745  -0.70404  -0.64369  -0.60508  -0.57595
 Alpha  occ. eigenvalues --   -0.51535  -0.49428  -0.47752  -0.47095  -0.45411
 Alpha  occ. eigenvalues --   -0.41783  -0.38963  -0.34768  -0.34273  -0.29276
 Alpha  occ. eigenvalues --   -0.26003  -0.16417
 Alpha virt. eigenvalues --    0.03627   0.04673   0.05371   0.05680   0.05972
 Alpha virt. eigenvalues --    0.07334   0.08476   0.08864   0.09581   0.10264
 Alpha virt. eigenvalues --    0.11467   0.11929   0.13586   0.14133   0.14915

 Mulliken charges:
               1
     1  Si   5.800575
     2  C   -2.973754
     3  P    9.106052
     4  O   -2.638434
     5  O   -2.559778
     6  H    0.827972
     7  O   -2.805211
     8  O   -3.573898
     9  H   -1.686954
    10  H   -1.660707
    11  H   -1.678895
    12  H    0.798143
    13  H    1.508468
    14  H    1.536418
 Sum of Mulliken charges =  -0.00000

 Dipole moment (field-independent basis, Debye):
    X=             -0.1222    Y=              0.6447    Z=             -2.1077  Tot=              2.2075

 Test job not archived.
 1\1\GINC-SE103\SP\RHF\Aug-CC-pVDZ\C1H7O4P1Si1\OHZDE\08-Apr-2025\0\\#t
 hf aug-cc-pvdz iop(5/13=1,5/36=2,99/5=2) pseudo=read geom=check guess=
 (read,tcheck) scf=(maxcycle=1)\\title\\0,1\Si,0,-2.986965,0.187515,-0.
 04009\C,0,-1.294568,-0.643963,0.152282\P,0,1.250528,0.010679,0.096605\
 O,0,1.578667,-0.984487,-1.109789\O,0,1.960988,1.362728,-0.360858\H,0,2
 .143947,1.936937,0.391952\O,0,1.606535,-0.476172,1.431349\O,0,-0.27781
 9,0.348689,-0.168735\H,0,-3.096104,1.325908,0.897529\H,0,-4.024934,-0.
 821643,0.277453\H,0,-3.162189,0.661241,-1.42966\H,0,2.349601,-1.531488

 Normal termination of Gaussian 16 at Tue Apr  8 23:55:29 2025.
