 Gaussian 16, Revision C.01,

 ----------------------------------------------------------------------
 #t hf aug-cc-pvdz symm=none int=(grid=ultrafine) guess=(read,tcheck) s
 table=(opt,rrhf)
 ----------------------------------------------------------------------
 -----
 title
 -----
 Symbolic Z-matrix:
 Charge =  0 Multiplicity = 1

 SCF Done:  E(RHF) =  -664.457170021     A.U. after   16 cycles
 Normal termination of Gaussian 16 at Wed Apr  9 00:41:14 2025.
 Gaussian 16:  ES64L-G16RevC.01  3-Jul-2019

 ----------------------------------------------------------------------
 #t hf aug-cc-pvdz iop(5/13=1,5/36=2,99/5=2) pseudo=read geom=check gue
 ss=(read,tcheck) scf=(maxcycle=1)
 ----------------------------------------------------------------------
 -----
 title
 -----
 Structure from the checkpoint file:  "BDE49_nonexpt_598_mol1.chk"
 Charge =  0 Multiplicity = 1

                         Standard orientation:
 ---------------------------------------------------------------------
 Center     Atomic      Atomic             Coordinates (Angstroms)
 Number     Number       Type             X           Y           Z
 ---------------------------------------------------------------------
      1          6           0       -1.020899    1.062046    0.000140
      2          6           0        0.348305    0.852041    0.000093
      3          6           0       -1.890883   -0.024929    0.000161
      4          6           0       -1.406675   -1.329824    0.000122
      5          6           0       -0.039290   -1.538182    0.000075
      6          6           0        0.863707   -0.457483    0.000060
      7          1           0        0.344209   -2.553599    0.000050
      8          1           0       -1.429835    2.062823    0.000167
      9          1           0        1.026068    1.691815    0.000082
     10          5           0        3.380774    0.134899   -0.000015
     11          8           0        4.658737   -0.370109   -0.000064
     12          8           0        3.229583    1.492501    0.000007
     13          7           0       -3.338560    0.205380    0.000213
     14          8           0       -3.733649    1.366556   -0.000321
     15          8           0       -4.073952   -0.777069   -0.000339
     16          1           0       -2.104560   -2.155218    0.000134
     17          1           0        4.081984    1.938593   -0.000016
     18          1           0        4.735795   -1.326434   -0.000079
     19          7           0        2.231647   -0.731860    0.000012
     20          1           0        2.419509   -1.724155   -0.000006
 ---------------------------------------------------------------------

 SCF Done:  E(RHF) =  -667.347865891     A.U. after    2 cycles

 The electronic state is 1-A.
 Alpha  occ. eigenvalues --  -21.08183 -21.08123 -21.08011 -21.07186 -15.98876
 Alpha  occ. eigenvalues --  -15.75684 -11.55761 -11.49279 -11.46769 -11.45949
 Alpha  occ. eigenvalues --  -11.43161 -11.39366  -7.68407  -1.98445  -1.84998
 Alpha  occ. eigenvalues --   -1.68020  -1.67691  -1.44901  -1.31840  -1.15022
 Alpha  occ. eigenvalues --   -1.12340  -0.98716  -0.91045  -0.84095  -0.80438
 Alpha  occ. eigenvalues --   -0.74540  -0.70790  -0.69585  -0.66527  -0.64360
 Alpha  occ. eigenvalues --   -0.62807  -0.60996  -0.59808  -0.57900  -0.55681
 Alpha  occ. eigenvalues --   -0.53622  -0.51194  -0.47056  -0.46164  -0.43624
 Alpha  occ. eigenvalues --   -0.40789  -0.38732  -0.35914  -0.34778  -0.30310
 Alpha  occ. eigenvalues --   -0.30270  -0.29958
 Alpha virt. eigenvalues --    0.01943   0.03414   0.03612   0.04562   0.05921
 Alpha virt. eigenvalues --    0.06587   0.06931   0.07942   0.08630   0.09071
 Alpha virt. eigenvalues --    0.09112   0.10025   0.10268   0.10628   0.12268

 Mulliken charges:
               1
     1  C   -2.348003
     2  C   -0.593390
     3  C    1.862464
     4  C   -2.670550
     5  C   -1.930364
     6  C    6.270249
     7  H    1.991028
     8  H    1.858976
     9  H    2.022230
    10  B    6.755087
    11  O   -4.283596
    12  O   -4.414884
    13  N    3.187300
    14  O   -2.968000
    15  O   -2.999561
    16  H    1.908873
    17  H    1.192612
    18  H    1.268948
    19  N   -7.123741
    20  H    1.014320
 Sum of Mulliken charges =  -0.00000

 Dipole moment (field-independent basis, Debye):
    X=              5.4176    Y=             -1.4819    Z=             -0.0003  Tot=              5.6166

 Test job not archived.
 1\1\GINC-SE340\SP\RHF\Aug-CC-pVDZ\C6H7B1N2O4\OHZDE\09-Apr-2025\0\\#t h
 f aug-cc-pvdz iop(5/13=1,5/36=2,99/5=2) pseudo=read geom=check guess=(
 read,tcheck) scf=(maxcycle=1)\\title\\0,1\C,0,1.020899,1.062046,-0.000
 14\C,0,-0.348305,0.852041,-0.000093\C,0,1.890883,-0.024929,-0.000161\C
 ,0,1.406675,-1.329824,-0.000122\C,0,0.03929,-1.538182,-0.000075\C,0,-0
 .863707,-0.457483,-0.00006\H,0,-0.344209,-2.553599,-0.00005\H,0,1.4298
 35,2.062823,-0.000167\H,0,-1.026068,1.691815,-0.000082\B,0,-3.380774,0
 .134899,0.000015\O,0,-4.658737,-0.370109,0.000064\O,0,-3.229583,1.4925

 Normal termination of Gaussian 16 at Wed Apr  9 00:41:25 2025.
