 Gaussian 16, Revision C.01,

 ----------------------------------------------------------------------
 #t hf aug-cc-pvdz symm=none int=(grid=ultrafine) guess=(read,tcheck) s
 table=(opt,rrhf)
 ----------------------------------------------------------------------
 -----
 title
 -----
 Symbolic Z-matrix:
 Charge =  0 Multiplicity = 1

 SCF Done:  E(RHF) =  -1292.98606006     A.U. after   15 cycles
 Normal termination of Gaussian 16 at Wed Apr  9 00:18:34 2025.
 Gaussian 16:  ES64L-G16RevC.01  3-Jul-2019

 ----------------------------------------------------------------------
 #t hf aug-cc-pvdz iop(5/13=1,5/36=2,99/5=2) pseudo=read geom=check gue
 ss=(read,tcheck) scf=(maxcycle=1)
 ----------------------------------------------------------------------
 -----
 title
 -----
 Structure from the checkpoint file:  "BDE49_nonexpt_2573_mol1.chk"
 Charge =  0 Multiplicity = 1

                         Standard orientation:
 ---------------------------------------------------------------------
 Center     Atomic      Atomic             Coordinates (Angstroms)
 Number     Number       Type             X           Y           Z
 ---------------------------------------------------------------------
      1         17           0       -1.544448   -0.830772   -0.000014
      2         16           0       -0.715136    1.043948    0.000008
      3          6           0        0.999016    0.781930    0.000011
      4         16           0        1.891334   -0.566016    0.000001
      5          1           0        1.442345    1.784619    0.000023
 ---------------------------------------------------------------------

 SCF Done:  E(RHF) =  -1293.84655378     A.U. after    2 cycles

 The electronic state is 1-A.
 Alpha  occ. eigenvalues --  -99.93041 -75.78101 -75.69153 -13.19129 -13.16335
 Alpha  occ. eigenvalues --  -13.13661 -13.09132 -13.01630 -12.99873 -11.49845
 Alpha  occ. eigenvalues --  -10.50224  -9.69911  -9.69256  -9.69153  -8.12165
 Alpha  occ. eigenvalues --   -8.03322  -1.38540  -1.24189  -1.08990  -0.85018
 Alpha  occ. eigenvalues --   -0.62666  -0.58269  -0.57709  -0.54553  -0.43362
 Alpha  occ. eigenvalues --   -0.43009  -0.25579  -0.23336
 Alpha virt. eigenvalues --    0.01627   0.03973   0.06006   0.06263   0.07639
 Alpha virt. eigenvalues --    0.10251   0.12416   0.12420   0.14130   0.15457
 Alpha virt. eigenvalues --    0.15644   0.16287   0.16550   0.16553   0.18462

 Mulliken charges:
               1
     1  Cl  -0.316399
     2  S    1.014400
     3  C   -3.309299
     4  S    1.351053
     5  H    1.260245
 Sum of Mulliken charges =  -0.00000

 Dipole moment (field-independent basis, Debye):
    X=              0.9904    Y=              1.7942    Z=              0.0000  Tot=              2.0494

 Test job not archived.
 1\1\GINC-SE071\SP\RHF\Aug-CC-pVDZ\C1H1Cl1S2\OHZDE\09-Apr-2025\0\\#t hf
  aug-cc-pvdz iop(5/13=1,5/36=2,99/5=2) pseudo=read geom=check guess=(r
 ead,tcheck) scf=(maxcycle=1)\\title\\0,1\Cl,0,-1.544448,-0.830772,-0.0
 00014\S,0,-0.715136,1.043948,0.000008\C,0,0.999016,0.78193,0.000011\S,
 0,1.891334,-0.566015,0.000001\H,0,1.442344,1.784619,0.000023\\Version=
 ES64L-G16RevC.01\State=1-A\HF=-1293.8465538\RMSD=1.429e-01\Dipole=0.38
 96692,0.705875,0.0000094\Quadrupole=-0.5025033,3.9183834,-3.4158801,-3
 .3275133,-0.0000224,0.0000628\PG=C01 [X(C1H1Cl1S2)]\\@

 Normal termination of Gaussian 16 at Wed Apr  9 00:18:35 2025.
