 Gaussian 16, Revision C.01,

 ----------------------------------------------------------------------
 #t hf aug-cc-pvdz symm=none int=(grid=ultrafine) guess=(read,tcheck) s
 table=opt
 ----------------------------------------------------------------------
 -----
 title
 -----
 Symbolic Z-matrix:
 Charge =  0 Multiplicity = 2

 SCF Done:  E(UHF) =  -802.019061238     A.U. after   19 cycles
 Normal termination of Gaussian 16 at Tue Apr  8 23:55:24 2025.
 Gaussian 16:  ES64L-G16RevC.01  3-Jul-2019

 ----------------------------------------------------------------------
 #t hf aug-cc-pvdz iop(5/13=1,5/36=2,99/5=2) pseudo=read geom=check gue
 ss=(read,tcheck) scf=(maxcycle=1)
 ----------------------------------------------------------------------
 -----
 title
 -----
 Structure from the checkpoint file:  "BDE49_nonexpt_1967_mol2.chk"
 Charge =  0 Multiplicity = 2

                         Standard orientation:
 ---------------------------------------------------------------------
 Center     Atomic      Atomic             Coordinates (Angstroms)
 Number     Number       Type             X           Y           Z
 ---------------------------------------------------------------------
      1         14           0        1.624007   -0.329368    0.040841
      2         16           0       -0.503942    0.258945   -0.481570
      3          1           0        2.417765    0.768933   -0.579352
      4          1           0        1.646705   -0.120088    1.518415
      5          8           0       -0.718830    1.413995    0.479400
      6          6           0       -1.382897   -1.188546    0.219894
      7          1           0       -1.151690   -2.069178   -0.382341
      8          1           0       -2.447942   -0.959666    0.162172
      9          1           0       -1.089849   -1.332652    1.259877
 ---------------------------------------------------------------------

 SCF Done:  E(UHF) =  -802.914415392     A.U. after    2 cycles

 The electronic state is 2-A.
 Alpha  occ. eigenvalues --  -76.27035 -75.77344 -21.00141 -13.29794 -13.18899
 Alpha  occ. eigenvalues --  -13.14912 -11.41141  -8.11536  -5.60131  -2.21886
 Alpha  occ. eigenvalues --   -2.21506  -2.21413  -1.67274  -1.15378  -0.93556
 Alpha  occ. eigenvalues --   -0.76933  -0.61388  -0.61280  -0.51992  -0.48728
 Alpha  occ. eigenvalues --   -0.44950  -0.39954  -0.34821  -0.29274  -0.22889
 Alpha virt. eigenvalues --    0.02872   0.03650   0.04450   0.05826   0.06757
 Alpha virt. eigenvalues --    0.07926   0.08275   0.09314   0.10646   0.11555
 Alpha virt. eigenvalues --    0.12254   0.13849   0.14363   0.14741   0.16169

  Beta  occ. eigenvalues --  -76.26507 -75.77289 -20.99723 -13.29799 -13.18634
  Beta  occ. eigenvalues --  -13.14767 -11.41154  -8.11476  -5.59293  -2.21341
  Beta  occ. eigenvalues --   -2.20976  -2.17930  -1.66465  -1.15047  -0.92811
  Beta  occ. eigenvalues --   -0.72767  -0.61252  -0.61197  -0.51416  -0.47722
  Beta  occ. eigenvalues --   -0.44173  -0.37781  -0.31087  -0.24814
  Beta virt. eigenvalues --    0.00760   0.03472   0.04578   0.05105   0.06147
  Beta virt. eigenvalues --    0.06901   0.08233   0.08860   0.09574   0.10866
  Beta virt. eigenvalues --    0.12233   0.12578   0.14225   0.15357   0.15946

 Mulliken charges and spin densities:
               1          2
     1  Si   3.838327   0.774668
     2  S    1.408611   0.055129
     3  H   -1.475600   0.040499
     4  H   -1.445919   0.046705
     5  O   -2.003888   0.085171
     6  C   -4.513190   0.012785
     7  H    1.442855  -0.011893
     8  H    1.389599  -0.004982
     9  H    1.359205   0.001919
 Sum of Mulliken charges =   0.00000   1.00000

 Dipole moment (field-independent basis, Debye):
    X=             -0.3918    Y=             -1.5192    Z=             -1.3157  Tot=              2.0476
                          Isotropic Fermi Contact Couplings
        Atom                 a.u.       MegaHertz       Gauss      10(-4) cm-1
     1  Si(29)             0.38463    -341.83326    -121.97461    -114.02330
     2  S(33)             -0.02545      -8.74256      -3.11956      -2.91620
     3  H(1)               0.00795      35.54263      12.68250      11.85575
     4  H(1)               0.01116      49.89222      17.80278      16.64225
     5  O(17)              0.02232     -13.53038      -4.82798      -4.51325
     6  C(13)             -0.00196      -2.19992      -0.78498      -0.73381
     7  H(1)               0.00015       0.67284       0.24008       0.22443
     8  H(1)              -0.00047      -2.10037      -0.74946      -0.70061

 1\1\GINC-SE334\SP\UHF\Aug-CC-pVDZ\C1H5O1S1Si1(2)\OHZDE\08-Apr-2025\0\\
 #t hf aug-cc-pvdz iop(5/13=1,5/36=2,99/5=2) pseudo=read geom=check gue
 ss=(read,tcheck) scf=(maxcycle=1)\\title\\0,2\Si,0,-1.624007,0.329368,
 0.040841\S,0,0.503942,-0.258945,-0.48157\H,0,-2.417765,-0.768933,-0.57
 9352\H,0,-1.646705,0.120088,1.518415\O,0,0.71883,-1.413995,0.4794\C,0,
 1.382897,1.188546,0.219894\H,0,1.15169,2.069178,-0.382341\H,0,2.447942
 ,0.959666,0.162172\H,0,1.089849,1.332652,1.259877\\Version=ES64L-G16Re
 vC.01\State=2-A\HF=-802.9144154\S2=0.760304\S2-1=0.\S2A=0.750033\RMSD=

 Normal termination of Gaussian 16 at Tue Apr  8 23:55:28 2025.
