 Gaussian 16, Revision C.01,

 ----------------------------------------------------------------------
 #t hf aug-cc-pvdz symm=none int=(grid=ultrafine) guess=(read,tcheck) s
 table=(opt,rrhf)
 ----------------------------------------------------------------------
 -----
 title
 -----
 Symbolic Z-matrix:
 Charge =  0 Multiplicity = 1

 SCF Done:  E(RHF) =  -884.019139711     A.U. after   12 cycles
 Normal termination of Gaussian 16 at Wed Apr  9 00:15:29 2025.
 Gaussian 16:  ES64L-G16RevC.01  3-Jul-2019

 ----------------------------------------------------------------------
 #t hf aug-cc-pvdz iop(5/13=1,5/36=2,99/5=2) pseudo=read geom=check gue
 ss=(read,tcheck) scf=(maxcycle=1)
 ----------------------------------------------------------------------
 -----
 title
 -----
 Structure from the checkpoint file:  "BDE49_nonexpt_2467_mol1.chk"
 Charge =  0 Multiplicity = 1

                         Standard orientation:
 ---------------------------------------------------------------------
 Center     Atomic      Atomic             Coordinates (Angstroms)
 Number     Number       Type             X           Y           Z
 ---------------------------------------------------------------------
      1         16           0        3.018429   -1.101790   -0.204125
      2         14           0        2.149160    0.839115    0.241018
      3          1           0        2.226276   -1.795907    0.632511
      4          6           0        0.387094    1.047154   -0.383988
      5          6           0       -0.657441    0.111026    0.248771
      6          1           0        0.394170    0.923963   -1.473394
      7          1           0        0.111170    2.094298   -0.196407
      8          6           0       -2.083920    0.358213   -0.259672
      9          1           0       -0.642621    0.225124    1.340096
     10          1           0       -0.385135   -0.931758    0.046019
     11          6           0       -3.127348   -0.575710    0.363852
     12          1           0       -2.100819    0.244597   -1.351119
     13          1           0       -2.362834    1.400464   -0.057874
     14          6           0       -4.547964   -0.322431   -0.148833
     15          1           0       -3.107288   -0.462190    1.454572
     16          1           0       -2.846462   -1.616349    0.161421
     17          1           0       -4.871074    0.700124    0.069901
     18          1           0       -5.266903   -1.003595    0.314294
     19          1           0       -4.608176   -0.462857   -1.232540
     20          1           0        3.058970    1.786321   -0.441315
     21          1           0        2.195098    1.069283    1.704801
 ---------------------------------------------------------------------

 SCF Done:  E(RHF) =  -885.443730123     A.U. after    2 cycles

 The electronic state is 1-A.
 Alpha  occ. eigenvalues --  -76.23333 -75.67977 -13.12826 -13.06696 -13.03277
 Alpha  occ. eigenvalues --  -11.42732 -11.41403 -11.38272 -11.36365 -11.34365
 Alpha  occ. eigenvalues --   -8.01926  -5.56850  -2.20736  -2.19054  -2.18668
 Alpha  occ. eigenvalues --   -1.26137  -1.13088  -1.09479  -0.99089  -0.87748
 Alpha  occ. eigenvalues --   -0.82620  -0.72559  -0.66211  -0.60547  -0.58824
 Alpha  occ. eigenvalues --   -0.55844  -0.53907  -0.51583  -0.50243  -0.48068
 Alpha  occ. eigenvalues --   -0.47188  -0.45874  -0.45486  -0.44324  -0.38413
 Alpha  occ. eigenvalues --   -0.33568  -0.26536
 Alpha virt. eigenvalues --    0.03793   0.04105   0.04579   0.04963   0.05175
 Alpha virt. eigenvalues --    0.05304   0.05806   0.06231   0.07381   0.08070
 Alpha virt. eigenvalues --    0.08260   0.08629   0.08968   0.10491   0.10910

 Mulliken charges:
               1
     1  S   -2.490997
     2  Si   6.035845
     3  H    0.969477
     4  C   -4.639636
     5  C   -2.480906
     6  H    1.393341
     7  H    1.588892
     8  C   -2.161751
     9  H    1.680208
    10  H    1.575680
    11  C   -2.867308
    12  H    1.538234
    13  H    1.500993
    14  C   -4.411023
    15  H    1.435568
    16  H    1.452224
    17  H    1.329269
    18  H    1.075136
    19  H    1.325950
    20  H   -1.990896
    21  H   -1.858300
 Sum of Mulliken charges =   0.00000

 Dipole moment (field-independent basis, Debye):
    X=             -0.1354    Y=             -0.4446    Z=             -1.0281  Tot=              1.1283

 Test job not archived.
 1\1\GINC-SE398\SP\RHF\Aug-CC-pVDZ\C5H14S1Si1\OHZDE\09-Apr-2025\0\\#t h
 f aug-cc-pvdz iop(5/13=1,5/36=2,99/5=2) pseudo=read geom=check guess=(
 read,tcheck) scf=(maxcycle=1)\\title\\0,1\S,0,3.018429,-1.10179,-0.204
 125\Si,0,2.14916,0.839115,0.241018\H,0,2.226276,-1.795907,0.632511\C,0
 ,0.387094,1.047154,-0.383988\C,0,-0.657441,0.111026,0.248771\H,0,0.394
 17,0.923963,-1.473394\H,0,0.11117,2.094298,-0.196407\C,0,-2.08392,0.35
 8213,-0.259672\H,0,-0.642621,0.225124,1.340096\H,0,-0.385135,-0.931758
 ,0.046019\C,0,-3.127348,-0.57571,0.363852\H,0,-2.100819,0.244597,-1.35

 Normal termination of Gaussian 16 at Wed Apr  9 00:15:38 2025.
