 Gaussian 16, Revision C.01,

 ----------------------------------------------------------------------
 #t hf aug-cc-pvdz symm=none int=(grid=ultrafine) guess=(read,tcheck) s
 table=(opt,rrhf)
 ----------------------------------------------------------------------
 -----
 title
 -----
 Symbolic Z-matrix:
 Charge =  0 Multiplicity = 1

 SCF Done:  E(RHF) =  -115.878202684     A.U. after   11 cycles
 Normal termination of Gaussian 16 at Tue Apr  8 23:03:38 2025.
 Gaussian 16:  ES64L-G16RevC.01  3-Jul-2019

 ----------------------------------------------------------------------
 #t hf aug-cc-pvdz iop(5/13=1,5/36=2,99/5=2) pseudo=read geom=check gue
 ss=(read,tcheck) scf=(maxcycle=1)
 ----------------------------------------------------------------------
 -----
 title
 -----
 Structure from the checkpoint file:  "BDE49_expt_25_mol1.chk"
 Charge =  0 Multiplicity = 1

                         Standard orientation:
 ---------------------------------------------------------------------
 Center     Atomic      Atomic             Coordinates (Angstroms)
 Number     Number       Type             X           Y           Z
 ---------------------------------------------------------------------
      1          6           0        1.419867   -0.000046    0.000096
      2          6           0        0.219111    0.000011   -0.000022
      3          1           0        2.481974    0.000170   -0.000362
      4          6           0       -1.237811    0.000007   -0.000010
      5          1           0       -1.629652   -0.440183    0.921257
      6          1           0       -1.629664   -0.577757   -0.841841
      7          1           0       -1.629658    1.017939   -0.079433
 ---------------------------------------------------------------------

 SCF Done:  E(RHF) =  -116.450241935     A.U. after    2 cycles

 The electronic state is 1-A.
 Alpha  occ. eigenvalues --  -11.43500 -11.39164 -11.38923  -1.17111  -1.00056
 Alpha  occ. eigenvalues --   -0.73069  -0.59023  -0.58642  -0.58642  -0.36239
 Alpha  occ. eigenvalues --   -0.36239
 Alpha virt. eigenvalues --    0.02847   0.04995   0.06610   0.06610   0.08860
 Alpha virt. eigenvalues --    0.12782   0.12782   0.12948   0.14117   0.15781
 Alpha virt. eigenvalues --    0.15782   0.16355   0.17719   0.17720   0.24535

 Mulliken charges:
               1
     1  C   -3.683345
     2  C    4.079819
     3  H    0.824128
     4  C   -4.549122
     5  H    1.109513
     6  H    1.109505
     7  H    1.109502
 Sum of Mulliken charges =   0.00000

 Dipole moment (field-independent basis, Debye):
    X=             -0.6673    Y=              0.0003    Z=             -0.0006  Tot=              0.6673

 Test job not archived.
 1\1\GINC-SE162\SP\RHF\Aug-CC-pVDZ\C3H4\OHZDE\08-Apr-2025\0\\#t hf aug-
 cc-pvdz iop(5/13=1,5/36=2,99/5=2) pseudo=read geom=check guess=(read,t
 check) scf=(maxcycle=1)\\title\\0,1\C,0,-1.419867,-0.000048,-0.000095\
 C,0,-0.219111,0.000012,0.000022\H,0,-2.481974,0.000179,0.000357\C,0,1.
 237811,0.000007,0.00001\H,0,1.629652,-0.461546,-0.910742\H,0,1.629664,
 -0.557969,0.855085\H,0,1.629658,1.019515,0.055674\\Version=ES64L-G16Re
 vC.01\State=1-A\HF=-116.4502419\RMSD=1.167e+00\Dipole=0.2625373,0.0001
 177,0.0002363\Quadrupole=2.8908704,-1.4454238,-1.4454467,-0.0004806,-0

 Normal termination of Gaussian 16 at Tue Apr  8 23:03:40 2025.
