 Gaussian 16, Revision C.01,

 ----------------------------------------------------------------------
 #t hf aug-cc-pvdz symm=none int=(grid=ultrafine) guess=(read,tcheck) s
 table=(opt,rrhf)
 ----------------------------------------------------------------------
 -----
 title
 -----
 Symbolic Z-matrix:
 Charge =  0 Multiplicity = 1

 SCF Done:  E(RHF) =  -919.312489568     A.U. after   17 cycles
 Normal termination of Gaussian 16 at Tue Apr  8 23:12:04 2025.
 Gaussian 16:  ES64L-G16RevC.01  3-Jul-2019

 ----------------------------------------------------------------------
 #t hf aug-cc-pvdz iop(5/13=1,5/36=2,99/5=2) pseudo=read geom=check gue
 ss=(read,tcheck) scf=(maxcycle=1)
 ----------------------------------------------------------------------
 -----
 title
 -----
 Structure from the checkpoint file:  "BDE49_expt_329_mol1.chk"
 Charge =  0 Multiplicity = 1

                         Standard orientation:
 ---------------------------------------------------------------------
 Center     Atomic      Atomic             Coordinates (Angstroms)
 Number     Number       Type             X           Y           Z
 ---------------------------------------------------------------------
      1          6           0        0.453689    0.944879    0.238607
      2          6           0       -0.873871    1.296127    0.038373
      3          6           0       -1.891975    0.358656   -0.062406
      4          6           0       -1.526627   -0.973054    0.044853
      5          6           0       -0.208995   -1.372227    0.239192
      6          6           0        0.793772   -0.407887    0.343109
      7          1           0        1.201605    1.723010    0.291501
      8          1           0        0.011380   -2.429200    0.307171
      9          6           0        2.224766   -0.846571    0.575013
     10          6           0        2.889406   -0.228530    1.801827
     11          1           0        2.924386    0.857788    1.724452
     12          1           0        3.909391   -0.601800    1.912772
     13          1           0        2.321600   -0.502298    2.693117
     14          7           0        3.058592   -0.496950   -0.673397
     15          1           0        2.271136   -1.932740    0.607808
     16          8           0        3.307157    0.682281   -0.864635
     17          8           0        3.406735   -1.426024   -1.377801
     18          7           0       -1.224525    2.737388   -0.067633
     19          8           0       -0.316962    3.543783    0.060529
     20          8           0       -2.395879    3.012290   -0.272158
     21          1           0       -2.919057    0.653542   -0.217182
     22          7           0       -2.582249   -2.013380   -0.053785
     23          8           0       -3.726032   -1.632924   -0.241919
     24          8           0       -2.230538   -3.177666    0.062566
 ---------------------------------------------------------------------

 SCF Done:  E(RHF) =  -923.306733879     A.U. after    2 cycles

 The electronic state is 1-A.
 Alpha  occ. eigenvalues --  -21.12372 -21.12200 -21.12187 -21.12167 -21.12036
 Alpha  occ. eigenvalues --  -21.11566 -16.03059 -16.02863 -16.01273 -11.61079
 Alpha  occ. eigenvalues --  -11.55703 -11.53717 -11.52869 -11.52009 -11.51979
 Alpha  occ. eigenvalues --  -11.46336 -11.44240  -2.03357  -2.02070  -2.01652
 Alpha  occ. eigenvalues --   -1.72300  -1.71740  -1.71480  -1.44498  -1.30097
 Alpha  occ. eigenvalues --   -1.24435  -1.16980  -1.05201  -1.05079  -1.04497
 Alpha  occ. eigenvalues --   -0.93666  -0.84731  -0.83234  -0.79171  -0.73942
 Alpha  occ. eigenvalues --   -0.73412  -0.71798  -0.71285  -0.71141  -0.69917
 Alpha  occ. eigenvalues --   -0.69368  -0.67246  -0.63843  -0.62172  -0.60474
 Alpha  occ. eigenvalues --   -0.59184  -0.58353  -0.56488  -0.56047  -0.54073
 Alpha  occ. eigenvalues --   -0.51341  -0.41612  -0.40819  -0.39445  -0.37504
 Alpha  occ. eigenvalues --   -0.35978  -0.34378  -0.34011  -0.33843  -0.33650
 Alpha  occ. eigenvalues --   -0.33394  -0.33326
 Alpha virt. eigenvalues --    0.02267   0.03612   0.04518   0.04655   0.05182
 Alpha virt. eigenvalues --    0.05697   0.05748   0.07235   0.07608   0.08860
 Alpha virt. eigenvalues --    0.09277   0.10148   0.10610   0.11259   0.11928

 Mulliken charges:
               1
     1  C   -3.368724
     2  C    2.149947
     3  C   -3.707268
     4  C    2.281713
     5  C   -4.280045
     6  C    7.134570
     7  H    2.449225
     8  H    2.108529
     9  C   -2.572055
    10  C   -4.234252
    11  H    1.355394
    12  H    1.202446
    13  H    1.300583
    14  N    5.179649
    15  H    1.603472
    16  O   -3.054637
    17  O   -2.974711
    18  N    3.897259
    19  O   -3.112954
    20  O   -3.118688
    21  H    2.069944
    22  N    3.942924
    23  O   -3.126084
    24  O   -3.126240
 Sum of Mulliken charges =  -0.00000

 Dipole moment (field-independent basis, Debye):
    X=              1.6290    Y=             -0.8609    Z=              2.2720  Tot=              2.9252

 Test job not archived.
 1\1\GINC-SE162\SP\RHF\Aug-CC-pVDZ\C8H7N3O6\OHZDE\08-Apr-2025\0\\#t hf
 aug-cc-pvdz iop(5/13=1,5/36=2,99/5=2) pseudo=read geom=check guess=(re
 ad,tcheck) scf=(maxcycle=1)\\title\\0,1\C,0,0.453689,0.944879,0.238607
 \C,0,-0.873871,1.296127,0.038373\C,0,-1.891975,0.358656,-0.062406\C,0,
 -1.526627,-0.973054,0.044853\C,0,-0.208995,-1.372227,0.239192\C,0,0.79
 3772,-0.407887,0.343109\H,0,1.201605,1.72301,0.291501\H,0,0.01138,-2.4
 292,0.307171\C,0,2.224766,-0.846571,0.575013\C,0,2.889406,-0.22853,1.8
 01827\H,0,2.924386,0.857788,1.724452\H,0,3.909391,-0.601799,1.912772\H

 Normal termination of Gaussian 16 at Tue Apr  8 23:12:31 2025.
