 Gaussian 16, Revision C.01,

 ----------------------------------------------------------------------
 #t hf aug-cc-pvdz symm=none int=(grid=ultrafine) guess=(read,tcheck) s
 table=(opt,rrhf)
 ----------------------------------------------------------------------
 -----
 title
 -----
 Symbolic Z-matrix:
 Charge =  0 Multiplicity = 1

 SCF Done:  E(RHF) =  -1088.38602701     A.U. after   15 cycles
 Normal termination of Gaussian 16 at Wed Apr  9 00:20:41 2025.
 Gaussian 16:  ES64L-G16RevC.01  3-Jul-2019

 ----------------------------------------------------------------------
 #t hf aug-cc-pvdz iop(5/13=1,5/36=2,99/5=2) pseudo=read geom=check gue
 ss=(read,tcheck) scf=(maxcycle=1)
 ----------------------------------------------------------------------
 -----
 title
 -----
 Structure from the checkpoint file:  "BDE49_nonexpt_2611_mol1.chk"
 Charge =  0 Multiplicity = 1

                         Standard orientation:
 ---------------------------------------------------------------------
 Center     Atomic      Atomic             Coordinates (Angstroms)
 Number     Number       Type             X           Y           Z
 ---------------------------------------------------------------------
      1          9           0        3.220633   -0.728555   -0.426280
      2          6           0        1.051027   -0.063196    0.216864
      3          6           0        2.520822    0.189424    0.357299
      4          1           0        2.837565    0.040448    1.395651
      5          1           0        2.769267    1.202161    0.035185
      6          7           0        0.249278    0.902277    0.012752
      7         16           0       -1.348634    0.985891   -0.139228
      8         17           0       -2.170178   -0.966996    0.046524
      9          1           0        0.702604   -1.094253    0.308185
 ---------------------------------------------------------------------

 SCF Done:  E(RHF) =  -1089.80065924     A.U. after    2 cycles

 The electronic state is 1-A.
 Alpha  occ. eigenvalues --  -99.90801 -75.78090 -29.27330 -15.80595 -13.29074
 Alpha  occ. eigenvalues --  -13.13622 -13.09340 -11.49964 -11.44877 -10.47870
 Alpha  occ. eigenvalues --   -9.67630  -9.67120  -9.66920  -8.11998  -1.47522
 Alpha  occ. eigenvalues --   -1.31056  -1.21864  -1.05909  -0.84162  -0.72484
 Alpha  occ. eigenvalues --   -0.68768  -0.65734  -0.62340  -0.56167  -0.54784
 Alpha  occ. eigenvalues --   -0.51255  -0.48088  -0.44119  -0.37999  -0.27964
 Alpha  occ. eigenvalues --   -0.26796  -0.24984
 Alpha virt. eigenvalues --    0.03799   0.04280   0.05583   0.06001   0.07620
 Alpha virt. eigenvalues --    0.09067   0.10047   0.12211   0.12524   0.13187
 Alpha virt. eigenvalues --    0.14226   0.14718   0.15443   0.15536   0.17035

 Mulliken charges:
               1
     1  F    0.284159
     2  C   -0.196854
     3  C   -2.541090
     4  H    1.325284
     5  H    1.393836
     6  N   -2.761229
     7  S    1.377319
     8  Cl  -0.479765
     9  H    1.598341
 Sum of Mulliken charges =  -0.00000

 Dipole moment (field-independent basis, Debye):
    X=              1.8188    Y=              1.5415    Z=             -0.6392  Tot=              2.4683

 Test job not archived.
 1\1\GINC-SE343\SP\RHF\Aug-CC-pVDZ\C2H3Cl1F1N1S1\OHZDE\09-Apr-2025\0\\#
 t hf aug-cc-pvdz iop(5/13=1,5/36=2,99/5=2) pseudo=read geom=check gues
 s=(read,tcheck) scf=(maxcycle=1)\\title\\0,1\F,0,3.220633,-0.728555,-0
 .42628\C,0,1.051027,-0.063196,0.216864\C,0,2.520822,0.189424,0.357299\
 H,0,2.837565,0.040448,1.395651\H,0,2.769267,1.202161,0.035185\N,0,0.24
 9278,0.902277,0.012752\S,0,-1.348634,0.985891,-0.139228\Cl,0,-2.170178
 ,-0.966996,0.046524\H,0,0.702604,-1.094253,0.308185\\Version=ES64L-G16
 RevC.01\State=1-A\HF=-1089.8006592\RMSD=1.865e-01\Dipole=0.7155679,0.6

 Normal termination of Gaussian 16 at Wed Apr  9 00:20:44 2025.
