 Gaussian 16, Revision C.01,

 ----------------------------------------------------------------------
 #t hf aug-cc-pvdz symm=none int=(grid=ultrafine) guess=(read,tcheck) s
 table=opt
 ----------------------------------------------------------------------
 -----
 title
 -----
 Symbolic Z-matrix:
 Charge =  0 Multiplicity = 2

 SCF Done:  E(UHF) =  -711.600328081     A.U. after   15 cycles

 1\1\GINC-SE120\Stability\UHF\Aug-CC-pVDZ\B1F4Si1\OHZDE\09-Apr-2025\0\\
 #t hf aug-cc-pvdz symm=none int=(grid=ultrafine) guess=(read,tcheck) s
 table=opt\\title\\0,2\F,0,-2.621452,0.093324,0.000019\B,0,-1.538552,-0
 .625136,0.000115\Si,0,0.386229,-0.015778,-0.000002\F,0,1.084329,-0.631
 812,-1.285447\F,0,0.70671,1.541756,-0.00024\F,0,1.084364,-0.631426,1.2
 85608\\Version=ES64L-G16RevC.01\HF=-711.6003281\S2=0.757937\S2-1=0.\S2
 A=0.750015\RMSD=3.615e-09\Dipole=-0.5648298,-0.1123554,0.0000262\Quadr
 upole=-0.6078932,-0.6316804,1.2395737,0.4628031,-0.0000471,0.0002766\P

 Normal termination of Gaussian 16 at Wed Apr  9 00:31:19 2025.
 Gaussian 16:  ES64L-G16RevC.01  3-Jul-2019

 ----------------------------------------------------------------------
 #t hf aug-cc-pvdz iop(5/13=1,5/36=2,99/5=2) pseudo=read geom=check gue
 ss=(read,tcheck) scf=(maxcycle=1)
 ----------------------------------------------------------------------
 -----
 title
 -----
 Structure from the checkpoint file:  "BDE49_nonexpt_359_mol2.chk"
 Charge =  0 Multiplicity = 2

                         Standard orientation:
 ---------------------------------------------------------------------
 Center     Atomic      Atomic             Coordinates (Angstroms)
 Number     Number       Type             X           Y           Z
 ---------------------------------------------------------------------
      1          9           0       -2.621452    0.093323    0.000019
      2          5           0       -1.538552   -0.625136    0.000115
      3         14           0        0.386229   -0.015778   -0.000002
      4          9           0        1.084329   -0.631812   -1.285447
      5          9           0        0.706710    1.541756   -0.000240
      6          9           0        1.084364   -0.631426    1.285608
 ---------------------------------------------------------------------

 SCF Done:  E(UHF) =  -713.175516914     A.U. after    2 cycles

 The electronic state is 2-A.
 Alpha  occ. eigenvalues --  -76.32775 -29.30453 -29.30438 -29.30434 -29.30370
 Alpha  occ. eigenvalues --   -7.72403  -5.69534  -2.33752  -2.33415  -2.30129
 Alpha  occ. eigenvalues --   -1.06228  -0.96759  -0.73220  -0.73077  -0.60768
 Alpha  occ. eigenvalues --   -0.52906  -0.47816  -0.44564  -0.43719  -0.43559
 Alpha  occ. eigenvalues --   -0.42858  -0.39546  -0.37404  -0.35526  -0.31524
 Alpha  occ. eigenvalues --   -0.31269  -0.29551  -0.20471
 Alpha virt. eigenvalues --    0.04081   0.04301   0.05851   0.07828   0.09663
 Alpha virt. eigenvalues --    0.09773   0.10951   0.11048   0.18328   0.18933
 Alpha virt. eigenvalues --    0.19999   0.21581   0.23153   0.23886   0.23897

  Beta  occ. eigenvalues --  -76.32656 -29.30441 -29.30436 -29.30321 -29.30055
  Beta  occ. eigenvalues --   -7.70649  -5.69327  -2.33607  -2.33314  -2.29514
  Beta  occ. eigenvalues --   -1.04185  -0.94444  -0.73185  -0.72846  -0.59316
  Beta  occ. eigenvalues --   -0.47290  -0.44972  -0.44271  -0.43503  -0.43495
  Beta  occ. eigenvalues --   -0.42686  -0.37625  -0.37416  -0.32595  -0.31508
  Beta  occ. eigenvalues --   -0.30961  -0.29508
  Beta virt. eigenvalues --    0.03759   0.04252   0.05527   0.07790   0.08850
  Beta virt. eigenvalues --    0.09828   0.10694   0.12530   0.12786   0.19131
  Beta virt. eigenvalues --    0.19321   0.20655   0.21927   0.23513   0.24033

 Mulliken charges and spin densities:
               1          2
     1  F   -0.508157  -0.037398
     2  B   -1.247078   1.020124
     3  Si   4.046460  -0.007574
     4  F   -0.625317   0.011953
     5  F   -1.040588   0.000942
     6  F   -0.625319   0.011953
 Sum of Mulliken charges =  -0.00000   1.00000

 Dipole moment (field-independent basis, Debye):
    X=             -0.6550    Y=              3.1514    Z=             -0.0005  Tot=              3.2188
                          Isotropic Fermi Contact Couplings
        Atom                 a.u.       MegaHertz       Gauss      10(-4) cm-1
     1  F(19)              0.02170      91.31304      32.58276      30.45875
     2  B(11)              0.12501     179.31480      63.98398      59.81298
     3  Si(29)             0.14271    -126.82747     -45.25519     -42.30509
     4  F(19)             -0.00004      -0.15755      -0.05622      -0.05255
     5  F(19)              0.02097      88.21765      31.47825      29.42624
     6  F(19)             -0.00004      -0.15774      -0.05629      -0.05262
 --------------------------------------------------------
       Center         ----  Spin Dipole Couplings  ----

 Normal termination of Gaussian 16 at Wed Apr  9 00:31:22 2025.
