 Gaussian 16, Revision C.01,

 ----------------------------------------------------------------------
 #t hf aug-cc-pvdz symm=none int=(grid=ultrafine) guess=(read,tcheck) s
 table=(opt,rrhf)
 ----------------------------------------------------------------------
 -----
 title
 -----
 Symbolic Z-matrix:
 Charge =  0 Multiplicity = 1

 SCF Done:  E(RHF) =  -193.959459312     A.U. after   12 cycles
 Normal termination of Gaussian 16 at Tue Apr  8 23:08:53 2025.
 Gaussian 16:  ES64L-G16RevC.01  3-Jul-2019

 ----------------------------------------------------------------------
 #t hf aug-cc-pvdz iop(5/13=1,5/36=2,99/5=2) pseudo=read geom=check gue
 ss=(read,tcheck) scf=(maxcycle=1)
 ----------------------------------------------------------------------
 -----
 title
 -----
 Structure from the checkpoint file:  "BDE49_expt_45_mol1.chk"
 Charge =  0 Multiplicity = 1

                         Standard orientation:
 ---------------------------------------------------------------------
 Center     Atomic      Atomic             Coordinates (Angstroms)
 Number     Number       Type             X           Y           Z
 ---------------------------------------------------------------------
      1          6           0       -2.335767    0.459379    0.185195
      2          6           0       -1.245947   -0.411776   -0.390259
      3          6           0        0.000001   -0.413027   -0.000005
      4          6           0        1.245947   -0.411770    0.390256
      5          6           0        2.335782    0.459332   -0.185240
      6          1           0        1.536860   -1.090571    1.191731
      7          1           0        1.951611    1.102135   -0.978535
      8          1           0        3.144961   -0.152258   -0.598553
      9          1           0        2.777301    1.094452    0.590149
     10          1           0       -2.777488    1.094231   -0.590297
     11          1           0       -1.951512    1.102447    0.978233
     12          1           0       -3.144815   -0.152167    0.598836
     13          1           0       -1.537017   -1.091088   -1.191244
 ---------------------------------------------------------------------

 SCF Done:  E(RHF) =  -194.936843359     A.U. after    2 cycles

 The electronic state is 1-A.
 Alpha  occ. eigenvalues --  -11.41988 -11.41608 -11.39398 -11.37973 -11.36583
 Alpha  occ. eigenvalues --   -1.23396  -1.12569  -0.98228  -0.88800  -0.70154
 Alpha  occ. eigenvalues --   -0.63086  -0.57336  -0.56511  -0.55501  -0.52617
 Alpha  occ. eigenvalues --   -0.51463  -0.49712  -0.33256  -0.33234
 Alpha virt. eigenvalues --    0.03234   0.05178   0.05767   0.05940   0.06680
 Alpha virt. eigenvalues --    0.06693   0.06706   0.07282   0.10742   0.11378
 Alpha virt. eigenvalues --    0.11556   0.12219   0.13501   0.14173   0.14225

 Mulliken charges:
               1
     1  C   -4.377608
     2  C   -2.100586
     3  C    3.016328
     4  C   -2.100521
     5  C   -4.377681
     6  H    1.318170
     7  H    1.296036
     8  H    1.182184
     9  H    1.173652
    10  H    1.173649
    11  H    1.296005
    12  H    1.182177
    13  H    1.318196
 Sum of Mulliken charges =   0.00000

 Dipole moment (field-independent basis, Debye):
    X=             -0.0001    Y=              0.1306    Z=              0.0004  Tot=              0.1306

 Test job not archived.
 1\1\GINC-SE059\SP\RHF\Aug-CC-pVDZ\C5H8\OHZDE\08-Apr-2025\0\\#t hf aug-
 cc-pvdz iop(5/13=1,5/36=2,99/5=2) pseudo=read geom=check guess=(read,t
 check) scf=(maxcycle=1)\\title\\0,1\C,0,-2.335767,-0.459379,-0.185195\
 C,0,-1.245947,0.411776,0.390259\C,0,0.000001,0.413027,0.000005\C,0,1.2
 45947,0.41177,-0.390256\C,0,2.335782,-0.459332,0.18524\H,0,1.53686,1.0
 90571,-1.191731\H,0,1.951611,-1.102135,0.978535\H,0,3.144961,0.152258,
 0.598553\H,0,2.777301,-1.094452,-0.590149\H,0,-2.777488,-1.094231,0.59
 0297\H,0,-1.951512,-1.102447,-0.978233\H,0,-3.144815,0.152167,-0.59883

 Normal termination of Gaussian 16 at Tue Apr  8 23:08:57 2025.
