 Gaussian 16, Revision C.01,

 ----------------------------------------------------------------------
 #t hf aug-cc-pvdz symm=none int=(grid=ultrafine) guess=(read,tcheck) s
 table=opt
 ----------------------------------------------------------------------
 -----
 title
 -----
 Symbolic Z-matrix:
 Charge =  0 Multiplicity = 2

 SCF Done:  E(UHF) =  -116.428431370     A.U. after   15 cycles
 Normal termination of Gaussian 16 at Tue Apr  8 22:40:25 2025.
 Gaussian 16:  ES64L-G16RevC.01  3-Jul-2019

 ----------------------------------------------------------------------
 #t hf aug-cc-pvdz iop(5/13=1,5/36=2,99/5=2) pseudo=read geom=check gue
 ss=(read,tcheck) scf=(maxcycle=1)
 ----------------------------------------------------------------------
 -----
 title
 -----
 Structure from the checkpoint file:  "BDE49_expt_1281_mol2.chk"
 Charge =  0 Multiplicity = 2

                         Standard orientation:
 ---------------------------------------------------------------------
 Center     Atomic      Atomic             Coordinates (Angstroms)
 Number     Number       Type             X           Y           Z
 ---------------------------------------------------------------------
      1          6           0       -0.027291    0.886367   -0.000000
      2          6           0       -0.027291   -0.363759    0.767965
      3          6           0       -0.027291   -0.363759   -0.767965
      4          1           0        0.632754    1.741616   -0.000000
      5          1           0        0.874129   -0.663664   -1.297867
      6          1           0       -0.944888   -0.683690   -1.256023
      7          1           0       -0.944888   -0.683690    1.256023
      8          1           0        0.874129   -0.663664    1.297867
 ---------------------------------------------------------------------

 SCF Done:  E(UHF) =  -116.994300234     A.U. after    2 cycles

 The electronic state is 2-A'.
 Alpha  occ. eigenvalues --  -11.40208 -11.40082 -11.36350  -1.29354  -0.86205
 Alpha  occ. eigenvalues --   -0.83359  -0.66707  -0.63660  -0.51050  -0.42182
 Alpha  occ. eigenvalues --   -0.41695  -0.32676
 Alpha virt. eigenvalues --    0.04180   0.05817   0.05946   0.06360   0.06616
 Alpha virt. eigenvalues --    0.10510   0.11952   0.11956   0.13377   0.15309
 Alpha virt. eigenvalues --    0.15463   0.16531   0.16996   0.19373   0.19377

  Beta  occ. eigenvalues --  -11.40266 -11.38602 -11.35689  -1.26507  -0.85905
  Beta  occ. eigenvalues --   -0.78010  -0.64924  -0.60959  -0.50118  -0.40146
  Beta  occ. eigenvalues --   -0.40127
  Beta virt. eigenvalues --    0.04075   0.05877   0.05955   0.06365   0.06619
  Beta virt. eigenvalues --    0.08171   0.11106   0.11984   0.12409   0.15362
  Beta virt. eigenvalues --    0.15507   0.15837   0.16827   0.18783   0.19424

 Mulliken charges and spin densities:
               1          2
     1  C   -1.210236   1.425177
     2  C   -2.426618  -0.238900
     3  C   -2.426618  -0.238900
     4  H    1.223080  -0.012177
     5  H    1.213647   0.010637
     6  H    1.206549   0.021763
     7  H    1.206549   0.021763
     8  H    1.213647   0.010637
 Sum of Mulliken charges =   0.00000   1.00000

 Dipole moment (field-independent basis, Debye):
    X=              0.4549    Y=             -0.2441    Z=              0.0000  Tot=              0.5162
                          Isotropic Fermi Contact Couplings
        Atom                 a.u.       MegaHertz       Gauss      10(-4) cm-1
     1  C(13)              0.21437     240.99181      85.99187      80.38622
     2  C(13)             -0.01825     -20.51666      -7.32086      -6.84362
     3  C(13)             -0.01825     -20.51666      -7.32086      -6.84362
     4  H(1)              -0.00721     -32.21544     -11.49527     -10.74591
     5  H(1)               0.00710      31.72732      11.32110      10.58309
     6  H(1)               0.01230      54.99283      19.62281      18.34363
     7  H(1)               0.01230      54.99283      19.62281      18.34363
     8  H(1)               0.00710      31.72732      11.32110      10.58309

 Normal termination of Gaussian 16 at Tue Apr  8 22:40:27 2025.
