 Gaussian 16, Revision C.01,

 ----------------------------------------------------------------------
 #t hf aug-cc-pvdz symm=none int=(grid=ultrafine) guess=(read,tcheck) s
 table=(opt,rrhf)
 ----------------------------------------------------------------------
 -----
 title
 -----
 Symbolic Z-matrix:
 Charge =  0 Multiplicity = 1

 SCF Done:  E(RHF) =  -306.686596170     A.U. after   15 cycles
 Normal termination of Gaussian 16 at Tue Apr  8 23:21:55 2025.
 Gaussian 16:  ES64L-G16RevC.01  3-Jul-2019

 ----------------------------------------------------------------------
 #t hf aug-cc-pvdz iop(5/13=1,5/36=2,99/5=2) pseudo=read geom=check gue
 ss=(read,tcheck) scf=(maxcycle=1)
 ----------------------------------------------------------------------
 -----
 title
 -----
 Structure from the checkpoint file:  "BDE49_nonexpt_1155_mol1.chk"
 Charge =  0 Multiplicity = 1

                         Standard orientation:
 ---------------------------------------------------------------------
 Center     Atomic      Atomic             Coordinates (Angstroms)
 Number     Number       Type             X           Y           Z
 ---------------------------------------------------------------------
      1          9           0        1.829932   -0.707396    0.000001
      2          8           0        1.328543    0.632330   -0.000001
      3          6           0       -0.039869    0.623432   -0.000001
      4          7           0       -0.777387   -0.379413    0.000001
      5          1           0       -0.313269    1.687659   -0.000003
      6          6           0       -2.215861   -0.172094    0.000000
      7          1           0       -2.645168   -0.658520   -0.879508
      8          1           0       -2.518032    0.885163   -0.000002
      9          1           0       -2.645168   -0.658517    0.879510
 ---------------------------------------------------------------------

 SCF Done:  E(RHF) =  -307.950926726     A.U. after    2 cycles

 The electronic state is 1-A.
 Alpha  occ. eigenvalues --  -29.30820 -21.18104 -15.74777 -11.48381 -11.40311
 Alpha  occ. eigenvalues --   -1.85078  -1.38734  -1.02960  -0.88907  -0.69659
 Alpha  occ. eigenvalues --   -0.67469  -0.62270  -0.59210  -0.55758  -0.52510
 Alpha  occ. eigenvalues --   -0.40711  -0.39687  -0.35932  -0.27016  -0.23384
 Alpha virt. eigenvalues --    0.03425   0.05043   0.06346   0.06364   0.10417
 Alpha virt. eigenvalues --    0.10845   0.12334   0.14037   0.14299   0.15663
 Alpha virt. eigenvalues --    0.16093   0.17490   0.19594   0.20428   0.22296

 Mulliken charges:
               1
     1  F   -0.081641
     2  O   -1.700809
     3  C    1.474831
     4  N   -2.146168
     5  H    1.503515
     6  C   -2.938881
     7  H    1.316572
     8  H    1.256009
     9  H    1.316572
 Sum of Mulliken charges =  -0.00000

 Dipole moment (field-independent basis, Debye):
    X=             -0.3095    Y=              0.0657    Z=             -0.0000  Tot=              0.3164

 Test job not archived.
 1\1\GINC-SE150\SP\RHF\Aug-CC-pVDZ\C2H4F1N1O1\OHZDE\08-Apr-2025\0\\#t h
 f aug-cc-pvdz iop(5/13=1,5/36=2,99/5=2) pseudo=read geom=check guess=(
 read,tcheck) scf=(maxcycle=1)\\title\\0,1\F,0,1.829932,-0.707396,0.000
 001\O,0,1.328543,0.63233,-0.000001\C,0,-0.039869,0.623432,-0.000001\N,
 0,-0.777387,-0.379413,0.000001\H,0,-0.313269,1.687659,-0.000003\C,0,-2
 .215861,-0.172094,0.\H,0,-2.645168,-0.65852,-0.879508\H,0,-2.518032,0.
 885163,-0.000002\H,0,-2.645168,-0.658517,0.87951\\Version=ES64L-G16Rev
 C.01\State=1-A\HF=-307.9509267\RMSD=5.369e-02\Dipole=-0.1217709,0.0258

 Normal termination of Gaussian 16 at Tue Apr  8 23:21:57 2025.
