 Gaussian 16, Revision C.01,

 ----------------------------------------------------------------------
 #t hf aug-cc-pvdz symm=none int=(grid=ultrafine) guess=(read,tcheck) s
 table=(opt,rrhf)
 ----------------------------------------------------------------------
 -----
 title
 -----
 Symbolic Z-matrix:
 Charge =  0 Multiplicity = 1

 SCF Done:  E(RHF) =  -1518.68561503     A.U. after   14 cycles
 Normal termination of Gaussian 16 at Wed Apr  9 00:19:15 2025.
 Gaussian 16:  ES64L-G16RevC.01  3-Jul-2019

 ----------------------------------------------------------------------
 #t hf aug-cc-pvdz iop(5/13=1,5/36=2,99/5=2) pseudo=read geom=check gue
 ss=(read,tcheck) scf=(maxcycle=1)
 ----------------------------------------------------------------------
 -----
 title
 -----
 Structure from the checkpoint file:  "BDE49_nonexpt_2578_mol1.chk"
 Charge =  0 Multiplicity = 1

                         Standard orientation:
 ---------------------------------------------------------------------
 Center     Atomic      Atomic             Coordinates (Angstroms)
 Number     Number       Type             X           Y           Z
 ---------------------------------------------------------------------
      1         17           0        2.347643    0.379560   -0.394093
      2         16           0        0.953046   -0.103069    1.042618
      3         16           0       -0.766335   -0.587456   -0.125139
      4          8           0       -1.692749   -0.936723    0.920031
      5          8           0       -1.199222    0.795709   -0.807138
      6          6           0       -1.763835    1.836433    0.033019
      7          1           0       -2.116073    2.589972   -0.667389
      8          1           0       -0.990354    2.253537    0.679951
      9          1           0       -2.589185    1.438018    0.621122
     10          8           0       -0.435366   -1.447016   -1.214376
 ---------------------------------------------------------------------

 SCF Done:  E(RHF) =  -1520.54918371     A.U. after    2 cycles

 The electronic state is 1-A.
 Alpha  occ. eigenvalues --  -99.94116 -75.95531 -75.78917 -21.12991 -21.09298
 Alpha  occ. eigenvalues --  -21.09098 -13.59009 -13.49104 -13.38994 -13.18328
 Alpha  occ. eigenvalues --  -13.14198 -13.12417 -11.45146 -10.51231  -9.70971
 Alpha  occ. eigenvalues --   -9.70315  -9.70217  -8.30634  -8.12701  -1.93958
 Alpha  occ. eigenvalues --   -1.76283  -1.69515  -1.37509  -1.14214  -1.05981
 Alpha  occ. eigenvalues --   -0.90120  -0.69632  -0.67385  -0.64829  -0.61753
 Alpha  occ. eigenvalues --   -0.59253  -0.58295  -0.54749  -0.53536  -0.46301
 Alpha  occ. eigenvalues --   -0.44251  -0.43192  -0.40161  -0.39088  -0.35482
 Alpha  occ. eigenvalues --   -0.30767
 Alpha virt. eigenvalues --    0.01843   0.03313   0.04543   0.06043   0.06601
 Alpha virt. eigenvalues --    0.08929   0.10719   0.11435   0.12111   0.12584
 Alpha virt. eigenvalues --    0.13086   0.13739   0.14390   0.15316   0.15461

 Mulliken charges:
               1
     1  Cl  -0.416651
     2  S    0.362048
     3  S    6.550342
     4  O   -2.440929
     5  O   -2.935777
     6  C   -2.874293
     7  H    1.310269
     8  H    1.518495
     9  H    1.393360
    10  O   -2.466864
 Sum of Mulliken charges =  -0.00000

 Dipole moment (field-independent basis, Debye):
    X=             -1.7065    Y=              1.8350    Z=              2.6265  Tot=              3.6301

 Test job not archived.
 1\1\GINC-SE090\SP\RHF\Aug-CC-pVDZ\C1H3Cl1O3S2\OHZDE\09-Apr-2025\0\\#t
 hf aug-cc-pvdz iop(5/13=1,5/36=2,99/5=2) pseudo=read geom=check guess=
 (read,tcheck) scf=(maxcycle=1)\\title\\0,1\Cl,0,2.347643,0.37956,-0.39
 4093\S,0,0.953046,-0.103069,1.042618\S,0,-0.766335,-0.587456,-0.125139
 \O,0,-1.692749,-0.936723,0.920031\O,0,-1.199222,0.795709,-0.807138\C,0
 ,-1.763835,1.836433,0.033019\H,0,-2.116073,2.589972,-0.667389\H,0,-0.9
 90354,2.253537,0.679951\H,0,-2.589185,1.438018,0.621122\O,0,-0.435366,
 -1.447016,-1.214376\\Version=ES64L-G16RevC.01\State=1-A\HF=-1520.54918

 Normal termination of Gaussian 16 at Wed Apr  9 00:19:20 2025.
