 Gaussian 16, Revision C.01,

 ----------------------------------------------------------------------
 #t hf aug-cc-pvdz symm=none int=(grid=ultrafine) guess=(read,tcheck) s
 table=(opt,rrhf)
 ----------------------------------------------------------------------
 -----
 title
 -----
 Symbolic Z-matrix:
 Charge =  0 Multiplicity = 1

 SCF Done:  E(RHF) =  -616.242388907     A.U. after   12 cycles

 1\1\GINC-SE163\Stability\RHF\Aug-CC-pVDZ\C4H9Cl1\OHZDE\08-Apr-2025\0\\
 #t hf aug-cc-pvdz symm=none int=(grid=ultrafine) guess=(read,tcheck) s
 table=(opt,rrhf)\\title\\0,1\C,0,2.771986,-0.374411,-0.147601\C,0,1.34
 7418,-0.283057,0.405977\C,0,0.505507,0.782483,-0.303026\C,0,-0.91025,0
 .938261,0.229694\H,0,0.464211,0.576308,-1.377743\H,0,0.99034,1.762307,
 -0.192753\Cl,0,-1.943526,-0.532587,-0.0892\H,0,-1.432878,1.764336,-0.2
 49014\H,0,-0.927588,1.078747,1.310282\H,0,3.3509,-1.139308,0.376093\H,
 0,3.304012,0.576179,-0.040535\H,0,2.766603,-0.63321,-1.210811\H,0,1.38

 Normal termination of Gaussian 16 at Tue Apr  8 22:32:54 2025.
 Gaussian 16:  ES64L-G16RevC.01  3-Jul-2019

 ----------------------------------------------------------------------
 #t hf aug-cc-pvdz iop(5/13=1,5/36=2,99/5=2) pseudo=read geom=check gue
 ss=(read,tcheck) scf=(maxcycle=1)
 ----------------------------------------------------------------------
 -----
 title
 -----
 Structure from the checkpoint file:  "BDE49_expt_1034_mol1.chk"
 Charge =  0 Multiplicity = 1

                         Standard orientation:
 ---------------------------------------------------------------------
 Center     Atomic      Atomic             Coordinates (Angstroms)
 Number     Number       Type             X           Y           Z
 ---------------------------------------------------------------------
      1          6           0        2.771986   -0.374411   -0.147601
      2          6           0        1.347418   -0.283057    0.405977
      3          6           0        0.505507    0.782483   -0.303026
      4          6           0       -0.910250    0.938261    0.229694
      5          1           0        0.464211    0.576308   -1.377743
      6          1           0        0.990340    1.762307   -0.192753
      7         17           0       -1.943526   -0.532587   -0.089200
      8          1           0       -1.432878    1.764336   -0.249014
      9          1           0       -0.927588    1.078747    1.310282
     10          1           0        3.350900   -1.139308    0.376093
     11          1           0        3.304012    0.576179   -0.040535
     12          1           0        2.766603   -0.633210   -1.210811
     13          1           0        1.383475   -0.056833    1.478586
     14          1           0        0.852896   -1.254202    0.312033
 ---------------------------------------------------------------------

 SCF Done:  E(RHF) =  -617.311854526     A.U. after    2 cycles

 The electronic state is 1-A.
 Alpha  occ. eigenvalues --  -99.86956 -11.45335 -11.41612 -11.38668 -11.35356
 Alpha  occ. eigenvalues --  -10.44196  -9.64096  -9.63468  -9.63361  -1.33403
 Alpha  occ. eigenvalues --   -1.21014  -1.06584  -0.92186  -0.83697  -0.66692
 Alpha  occ. eigenvalues --   -0.64472  -0.60577  -0.58943  -0.54544  -0.51816
 Alpha  occ. eigenvalues --   -0.49069  -0.47944  -0.46491  -0.45358  -0.43078
 Alpha virt. eigenvalues --    0.03786   0.04626   0.05588   0.05933   0.06207
 Alpha virt. eigenvalues --    0.06404   0.06640   0.07334   0.08966   0.09567
 Alpha virt. eigenvalues --    0.10826   0.12516   0.12953   0.14838   0.15286

 Mulliken charges:
               1
     1  C   -3.759257
     2  C   -2.808088
     3  C   -2.106173
     4  C   -3.996894
     5  H    1.503863
     6  H    1.394892
     7  Cl   0.074063
     8  H    1.438842
     9  H    1.678798
    10  H    1.128374
    11  H    1.298892
    12  H    1.300739
    13  H    1.421519
    14  H    1.430430
 Sum of Mulliken charges =   0.00000

 Dipole moment (field-independent basis, Debye):
    X=              1.7407    Y=              1.7551    Z=              0.3707  Tot=              2.4995

 Test job not archived.
 1\1\GINC-SE163\SP\RHF\Aug-CC-pVDZ\C4H9Cl1\OHZDE\08-Apr-2025\0\\#t hf a
 ug-cc-pvdz iop(5/13=1,5/36=2,99/5=2) pseudo=read geom=check guess=(rea
 d,tcheck) scf=(maxcycle=1)\\title\\0,1\C,0,2.771986,-0.374411,-0.14760
 1\C,0,1.347418,-0.283057,0.405977\C,0,0.505507,0.782483,-0.303026\C,0,
 -0.91025,0.938261,0.229694\H,0,0.464211,0.576308,-1.377743\H,0,0.99034
 ,1.762307,-0.192753\Cl,0,-1.943526,-0.532587,-0.0892\H,0,-1.432878,1.7
 64336,-0.249014\H,0,-0.927588,1.078747,1.310282\H,0,3.3509,-1.139308,0
 .376093\H,0,3.304012,0.576179,-0.040535\H,0,2.766603,-0.63321,-1.21081

 Normal termination of Gaussian 16 at Tue Apr  8 22:32:58 2025.
