 Gaussian 16, Revision C.01,

 ----------------------------------------------------------------------
 #t hf aug-cc-pvdz symm=none int=(grid=ultrafine) guess=(read,tcheck) s
 table=(opt,rrhf)
 ----------------------------------------------------------------------
 -----
 title
 -----
 Symbolic Z-matrix:
 Charge =  0 Multiplicity = 1

 SCF Done:  E(RHF) =  -282.879343930     A.U. after   14 cycles
 Normal termination of Gaussian 16 at Tue Apr  8 22:36:42 2025.
 Gaussian 16:  ES64L-G16RevC.01  3-Jul-2019

 ----------------------------------------------------------------------
 #t hf aug-cc-pvdz iop(5/13=1,5/36=2,99/5=2) pseudo=read geom=check gue
 ss=(read,tcheck) scf=(maxcycle=1)
 ----------------------------------------------------------------------
 -----
 title
 -----
 Structure from the checkpoint file:  "BDE49_expt_1110_mol1.chk"
 Charge =  0 Multiplicity = 1

                         Standard orientation:
 ---------------------------------------------------------------------
 Center     Atomic      Atomic             Coordinates (Angstroms)
 Number     Number       Type             X           Y           Z
 ---------------------------------------------------------------------
      1          6           0        0.640804   -0.794890    0.091927
      2          6           0       -0.695652   -0.038700    0.003948
      3          8           0       -1.754561   -0.598525   -0.074581
      4          8           0       -0.558107    1.293299    0.047838
      5          1           0        0.411527    1.447163    0.094755
      6          7           0        1.778853    0.121942   -0.065620
      7          1           0        0.611794   -1.609421   -0.636820
      8          1           0        0.669998   -1.256193    1.082212
      9          1           0        2.147215    0.103946   -1.009580
     10          1           0        2.537929   -0.095743    0.567461
 ---------------------------------------------------------------------

 SCF Done:  E(RHF) =  -284.109652347     A.U. after    2 cycles

 The electronic state is 1-A.
 Alpha  occ. eigenvalues --  -21.10487 -21.04007 -15.77581 -11.51704 -11.42919
 Alpha  occ. eigenvalues --   -1.81363  -1.64751  -1.36521  -1.03816  -0.77782
 Alpha  occ. eigenvalues --   -0.72043  -0.69751  -0.63010  -0.58961  -0.50420
 Alpha  occ. eigenvalues --   -0.49848  -0.45230  -0.40674  -0.32483  -0.28449
 Alpha virt. eigenvalues --    0.02706   0.04664   0.04880   0.06166   0.06746
 Alpha virt. eigenvalues --    0.09887   0.11521   0.12286   0.12585   0.14679
 Alpha virt. eigenvalues --    0.15170   0.16993   0.17684   0.18788   0.19009

 Mulliken charges:
               1
     1  C   -2.585461
     2  C    5.586573
     3  O   -3.108467
     4  O   -3.005906
     5  H    1.217662
     6  N   -1.969661
     7  H    1.361323
     8  H    1.370394
     9  H    0.567015
    10  H    0.566528
 Sum of Mulliken charges =   0.00000

 Dipole moment (field-independent basis, Debye):
    X=              3.8379    Y=             -0.3242    Z=             -0.0527  Tot=              3.8520

 Test job not archived.
 1\1\GINC-SE165\SP\RHF\Aug-CC-pVDZ\C2H5N1O2\OHZDE\08-Apr-2025\0\\#t hf
 aug-cc-pvdz iop(5/13=1,5/36=2,99/5=2) pseudo=read geom=check guess=(re
 ad,tcheck) scf=(maxcycle=1)\\title\\0,1\C,0,0.640804,-0.79489,0.091927
 \C,0,-0.695652,-0.0387,0.003948\O,0,-1.754561,-0.598525,-0.074581\O,0,
 -0.558107,1.293299,0.047838\H,0,0.411527,1.447163,0.094755\N,0,1.77885
 3,0.121942,-0.06562\H,0,0.611794,-1.609421,-0.63682\H,0,0.669998,-1.25
 6193,1.082212\H,0,2.147215,0.103946,-1.00958\H,0,2.537929,-0.095743,0.
 567461\\Version=ES64L-G16RevC.01\State=1-A\HF=-284.1096523\RMSD=1.630e

 Normal termination of Gaussian 16 at Tue Apr  8 22:36:46 2025.
