 Gaussian 16, Revision C.01,

 ----------------------------------------------------------------------
 #t hf aug-cc-pvdz symm=none int=(grid=ultrafine) guess=(read,tcheck) s
 table=opt
 ----------------------------------------------------------------------
 -----
 title
 -----
 Symbolic Z-matrix:
 Charge =  0 Multiplicity = 2

 SCF Done:  E(UHF) =  -133.652739681     A.U. after   16 cycles
 Normal termination of Gaussian 16 at Tue Apr  8 22:38:25 2025.
 Gaussian 16:  ES64L-G16RevC.01  3-Jul-2019

 ----------------------------------------------------------------------
 #t hf aug-cc-pvdz iop(5/13=1,5/36=2,99/5=2) pseudo=read geom=check gue
 ss=(read,tcheck) scf=(maxcycle=1)
 ----------------------------------------------------------------------
 -----
 title
 -----
 Structure from the checkpoint file:  "BDE49_expt_1195_mol2.chk"
 Charge =  0 Multiplicity = 2

                         Standard orientation:
 ---------------------------------------------------------------------
 Center     Atomic      Atomic             Coordinates (Angstroms)
 Number     Number       Type             X           Y           Z
 ---------------------------------------------------------------------
      1          6           0       -0.059674    0.520529   -0.124468
      2          6           0        1.252101   -0.176069    0.017426
      3          1           0        1.307130   -1.064953   -0.625075
      4          1           0        1.444807   -0.520095    1.048095
      5          1           0        2.074375    0.483702   -0.268190
      6          7           0       -1.221674   -0.231992    0.107929
      7          1           0       -0.136490    1.563498    0.165633
      8          1           0       -1.210285   -1.153327   -0.314136
      9          1           0       -2.082377    0.248360   -0.119573
 ---------------------------------------------------------------------

 SCF Done:  E(UHF) =  -134.302331129     A.U. after    2 cycles

 The electronic state is 2-A.
 Alpha  occ. eigenvalues --  -15.74500 -11.39416 -11.35120  -1.34847  -1.07692
 Alpha  occ. eigenvalues --   -0.84766  -0.67560  -0.59702  -0.57821  -0.50007
 Alpha  occ. eigenvalues --   -0.49150  -0.45946  -0.24008
 Alpha virt. eigenvalues --    0.03842   0.05405   0.05709   0.06884   0.06953
 Alpha virt. eigenvalues --    0.07409   0.12081   0.12609   0.14604   0.15020
 Alpha virt. eigenvalues --    0.15849   0.17328   0.18503   0.19952   0.20826

  Beta  occ. eigenvalues --  -15.74097 -11.38372 -11.34200  -1.32519  -1.06062
  Beta  occ. eigenvalues --   -0.80339  -0.66960  -0.58386  -0.54492  -0.49561
  Beta  occ. eigenvalues --   -0.48076  -0.39108
  Beta virt. eigenvalues --    0.03804   0.05410   0.05744   0.06846   0.06964
  Beta virt. eigenvalues --    0.07412   0.10691   0.12676   0.14466   0.15085
  Beta virt. eigenvalues --    0.15304   0.15994   0.18615   0.19205   0.20438

 Mulliken charges and spin densities:
               1          2
     1  C   -0.337347   1.249314
     2  C   -3.567857  -0.329060
     3  H    1.217556   0.004091
     4  H    1.189996   0.035108
     5  H    1.269060  -0.008550
     6  N   -2.548153   0.091889
     7  H    1.471747  -0.020477
     8  H    0.622592   0.000609
     9  H    0.682405  -0.022924
 Sum of Mulliken charges =  -0.00000   1.00000

 Dipole moment (field-independent basis, Debye):
    X=             -0.5392    Y=             -0.1813    Z=             -0.4356  Tot=              0.7164
                          Isotropic Fermi Contact Couplings
        Atom                 a.u.       MegaHertz       Gauss      10(-4) cm-1
     1  C(13)              0.14654     164.74388      58.78471      54.95264
     2  C(13)             -0.01970     -22.14790      -7.90292      -7.38774
     3  H(1)               0.00711      31.78083      11.34019      10.60094
     4  H(1)               0.01730      77.31242      27.58699      25.78865
     5  H(1)               0.00251      11.21294       4.00105       3.74023
     6  N(14)              0.01783       5.76161       2.05589       1.92187
     7  H(1)              -0.01187     -53.04112     -18.92639     -17.69261
     8  H(1)               0.00227      10.13902       3.61785       3.38201

 Normal termination of Gaussian 16 at Tue Apr  8 22:38:27 2025.
