 Gaussian 16, Revision C.01,

 ----------------------------------------------------------------------
 #t hf aug-cc-pvdz symm=none int=(grid=ultrafine) guess=(read,tcheck) s
 table=opt
 ----------------------------------------------------------------------
 -----
 title
 -----
 Symbolic Z-matrix:
 Charge =  0 Multiplicity = 2

 SCF Done:  E(UHF) =  -442.413447975     A.U. after   20 cycles
 Normal termination of Gaussian 16 at Tue Apr  8 23:50:23 2025.
 Gaussian 16:  ES64L-G16RevC.01  3-Jul-2019

 ----------------------------------------------------------------------
 #t hf aug-cc-pvdz iop(5/13=1,5/36=2,99/5=2) pseudo=read geom=check gue
 ss=(read,tcheck) scf=(maxcycle=1)
 ----------------------------------------------------------------------
 -----
 title
 -----
 Structure from the checkpoint file:  "BDE49_nonexpt_1870_mol2.chk"
 Charge =  0 Multiplicity = 2

                         Standard orientation:
 ---------------------------------------------------------------------
 Center     Atomic      Atomic             Coordinates (Angstroms)
 Number     Number       Type             X           Y           Z
 ---------------------------------------------------------------------
      1         14           0        1.551288   -0.196339   -0.024997
      2          6           0       -0.038875    0.830521   -0.261606
      3          1           0        1.886039   -0.323288    1.416804
      4          1           0        1.409254   -1.539289   -0.638586
      5          6           0       -1.212256    0.146105    0.390551
      6          1           0        0.129899    1.811755    0.192699
      7          1           0       -0.229617    0.941382   -1.331323
      8          8           0       -2.015501   -0.536897   -0.194215
      9          1           0       -1.282816    0.293593    1.490415
 ---------------------------------------------------------------------

 SCF Done:  E(UHF) =  -443.228980096     A.U. after    2 cycles

 The electronic state is 2-A.
 Alpha  occ. eigenvalues --  -76.24456 -21.06466 -11.48779 -11.38768  -5.57793
 Alpha  occ. eigenvalues --   -2.21107  -2.19810  -2.19029  -1.71207  -1.12307
 Alpha  occ. eigenvalues --   -0.82967  -0.75486  -0.65292  -0.57867  -0.52114
 Alpha  occ. eigenvalues --   -0.49555  -0.48334  -0.40056  -0.31389  -0.27086
 Alpha virt. eigenvalues --    0.03526   0.04514   0.05435   0.05709   0.07213
 Alpha virt. eigenvalues --    0.07627   0.08730   0.09696   0.10408   0.12311
 Alpha virt. eigenvalues --    0.13596   0.13915   0.14927   0.15464   0.15859

  Beta  occ. eigenvalues --  -76.23898 -21.06179 -11.48816 -11.38753  -5.56915
  Beta  occ. eigenvalues --   -2.20419  -2.19159  -2.15493  -1.70657  -1.11807
  Beta  occ. eigenvalues --   -0.82575  -0.71445  -0.65095  -0.57597  -0.51765
  Beta  occ. eigenvalues --   -0.49208  -0.47633  -0.38985  -0.29723
  Beta virt. eigenvalues --    0.02701   0.03829   0.04801   0.05623   0.06413
  Beta virt. eigenvalues --    0.07428   0.08245   0.09720   0.10063   0.11030
  Beta virt. eigenvalues --    0.12392   0.14088   0.14860   0.15224   0.15890

 Mulliken charges and spin densities:
               1          2
     1  Si   4.016795   1.009519
     2  C   -4.108093   0.048297
     3  H   -1.543075  -0.007799
     4  H   -1.482302  -0.001499
     5  C    1.637780  -0.107898
     6  H    1.375474  -0.004600
     7  H    1.279712  -0.014324
     8  O   -2.652335   0.082809
     9  H    1.476045  -0.004504
 Sum of Mulliken charges =  -0.00000   1.00000

 Dipole moment (field-independent basis, Debye):
    X=              0.9160    Y=              1.2765    Z=              0.0181  Tot=              1.5713
                          Isotropic Fermi Contact Couplings
        Atom                 a.u.       MegaHertz       Gauss      10(-4) cm-1
     1  Si(29)             0.48253    -428.83894    -153.02040    -143.04527
     2  C(13)              0.01194      13.42288       4.78962       4.47739
     3  H(1)               0.00322      14.41225       5.14265       4.80741
     4  H(1)               0.00522      23.33336       8.32592       7.78317
     5  C(13)              0.01224      13.76139       4.91041       4.59031
     6  H(1)               0.00060       2.68427       0.95782       0.89538
     7  H(1)               0.00057       2.54432       0.90788       0.84869
     8  O(17)              0.01644      -9.96423      -3.55548      -3.32371

 Normal termination of Gaussian 16 at Tue Apr  8 23:50:26 2025.
