 Gaussian 16, Revision C.01,

 ----------------------------------------------------------------------
 #t hf aug-cc-pvdz symm=none int=(grid=ultrafine) guess=(read,tcheck) s
 table=(opt,rrhf)
 ----------------------------------------------------------------------
 -----
 title
 -----
 Symbolic Z-matrix:
 Charge =  0 Multiplicity = 1

 SCF Done:  E(RHF) =  -336.814029347     A.U. after   10 cycles
 Normal termination of Gaussian 16 at Tue Apr  8 22:37:21 2025.
 Gaussian 16:  ES64L-G16RevC.01  3-Jul-2019

 ----------------------------------------------------------------------
 #t hf aug-cc-pvdz iop(5/13=1,5/36=2,99/5=2) pseudo=read geom=check gue
 ss=(read,tcheck) scf=(maxcycle=1)
 ----------------------------------------------------------------------
 -----
 title
 -----
 Structure from the checkpoint file:  "BDE49_expt_111_mol1.chk"
 Charge =  0 Multiplicity = 1

                         Standard orientation:
 ---------------------------------------------------------------------
 Center     Atomic      Atomic             Coordinates (Angstroms)
 Number     Number       Type             X           Y           Z
 ---------------------------------------------------------------------
      1          6           0       -0.000012   -0.000003    0.339711
      2          1           0        0.000006   -0.000001    1.429999
      3          9           0        0.748719   -1.010052   -0.128455
      4          9           0        0.500404    1.153414   -0.128458
      5          9           0       -1.249115   -0.143359   -0.128449
 ---------------------------------------------------------------------

 SCF Done:  E(RHF) =  -337.997865824     A.U. after    2 cycles

 The electronic state is 1-A.
 Alpha  occ. eigenvalues --  -29.31675 -29.31675 -29.31609 -11.57925  -1.39844
 Alpha  occ. eigenvalues --   -0.87289  -0.87288  -0.81310  -0.48707  -0.43945
 Alpha  occ. eigenvalues --   -0.43945  -0.36631  -0.36630  -0.31303  -0.26867
 Alpha  occ. eigenvalues --   -0.26866  -0.22076
 Alpha virt. eigenvalues --    0.04120   0.10012   0.11522   0.11522   0.20146
 Alpha virt. eigenvalues --    0.22250   0.22615   0.22615   0.24634   0.24634
 Alpha virt. eigenvalues --    0.30720   0.32636   0.33947   0.33947   0.34667

 Mulliken charges:
               1
     1  C   -2.564518
     2  H    1.123775
     3  F    0.480251
     4  F    0.480260
     5  F    0.480232
 Sum of Mulliken charges =  -0.00000

 Dipole moment (field-independent basis, Debye):
    X=              0.0000    Y=              0.0000    Z=             -1.1130  Tot=              1.1130

 Test job not archived.
 1\1\GINC-SE221\SP\RHF\Aug-CC-pVDZ\C1H1F3\OHZDE\08-Apr-2025\0\\#t hf au
 g-cc-pvdz iop(5/13=1,5/36=2,99/5=2) pseudo=read geom=check guess=(read
 ,tcheck) scf=(maxcycle=1)\\title\\0,1\C,0,-0.000012,-0.000003,0.339711
 \H,0,0.000006,-0.000001,1.429999\F,0,0.745052,-1.01276,-0.128455\F,0,0
 .504582,1.151592,-0.128458\F,0,-1.249627,-0.13883,-0.128449\\Version=E
 S64L-G16RevC.01\State=1-A\HF=-337.9978658\RMSD=4.974e-02\Dipole=0.0000
 181,0.0000076,-0.4378928\Quadrupole=0.3377981,0.3374588,-0.6752569,0.0
 000077,-0.0000006,-0.0000052\PG=C01 [X(C1H1F3)]\\@

 Normal termination of Gaussian 16 at Tue Apr  8 22:37:22 2025.
