 Gaussian 16, Revision C.01,

 ----------------------------------------------------------------------
 #t hf aug-cc-pvdz symm=none int=(grid=ultrafine) guess=(read,tcheck) s
 table=opt
 ----------------------------------------------------------------------
 -----
 title
 -----
 Symbolic Z-matrix:
 Charge =  0 Multiplicity = 2

 SCF Done:  E(UHF) =  -218.829678738     A.U. after   15 cycles
 Normal termination of Gaussian 16 at Wed Apr  9 00:30:44 2025.
 Gaussian 16:  ES64L-G16RevC.01  3-Jul-2019

 ----------------------------------------------------------------------
 #t hf aug-cc-pvdz iop(5/13=1,5/36=2,99/5=2) pseudo=read geom=check gue
 ss=(read,tcheck) scf=(maxcycle=1)
 ----------------------------------------------------------------------
 -----
 title
 -----
 Structure from the checkpoint file:  "BDE49_nonexpt_352_mol2.chk"
 Charge =  0 Multiplicity = 2

                         Standard orientation:
 ---------------------------------------------------------------------
 Center     Atomic      Atomic             Coordinates (Angstroms)
 Number     Number       Type             X           Y           Z
 ---------------------------------------------------------------------
      1          9           0       -1.557625   -0.449655    0.000000
      2          7           0        0.550585    0.673116    0.000000
      3          5           0       -0.836145    0.675679    0.000000
      4          6           0        1.407246   -0.517029    0.000000
      5          1           0        1.038014    1.555705    0.000000
      6          1           0        0.773925   -1.403262   -0.000001
      7          1           0        2.044917   -0.546788    0.888515
      8          1           0        2.044917   -0.546787   -0.888515
 ---------------------------------------------------------------------

 SCF Done:  E(UHF) =  -219.697650572     A.U. after    2 cycles

 The electronic state is 2-A.
 Alpha  occ. eigenvalues --  -29.23894 -15.72219 -11.40123  -7.66618  -1.39328
 Alpha  occ. eigenvalues --   -1.02438  -0.90860  -0.66241  -0.61471  -0.60658
 Alpha  occ. eigenvalues --   -0.53927  -0.46034  -0.45765  -0.35854  -0.31217
 Alpha  occ. eigenvalues --   -0.22405
 Alpha virt. eigenvalues --    0.02812   0.04268   0.04445   0.06030   0.07434
 Alpha virt. eigenvalues --    0.07808   0.09300   0.11561   0.13842   0.15158
 Alpha virt. eigenvalues --    0.16424   0.16850   0.18883   0.19136   0.20732

  Beta  occ. eigenvalues --  -29.23574 -15.72210 -11.40005  -7.64537  -1.38650
  Beta  occ. eigenvalues --   -1.00804  -0.89234  -0.64577  -0.60772  -0.60346
  Beta  occ. eigenvalues --   -0.53583  -0.44899  -0.38594  -0.34189  -0.32034
  Beta virt. eigenvalues --    0.02834   0.03657   0.04357   0.06099   0.07495
  Beta virt. eigenvalues --    0.07816   0.08545   0.10368   0.13491   0.14589
  Beta virt. eigenvalues --    0.15572   0.16589   0.17243   0.20038   0.20373

 Mulliken charges and spin densities:
               1          2
     1  F   -0.979497  -0.028185
     2  N   -2.585743  -0.112846
     3  B    1.084237   1.126139
     4  C   -2.769623   0.052581
     5  H    1.317665  -0.020233
     6  H    1.509797  -0.015470
     7  H    1.211582  -0.000993
     8  H    1.211582  -0.000993
 Sum of Mulliken charges =  -0.00000   1.00000

 Dipole moment (field-independent basis, Debye):
    X=              0.0501    Y=             -2.5494    Z=              0.0000  Tot=              2.5499
                          Isotropic Fermi Contact Couplings
        Atom                 a.u.       MegaHertz       Gauss      10(-4) cm-1
     1  F(19)              0.07837     329.74272     117.66040     109.99033
     2  N(14)              0.10925      35.29795      12.59518      11.77413
     3  B(11)              0.26012     373.10021     133.13143     124.45283
     4  C(13)              0.02246      25.25446       9.01142       8.42398
     5  H(1)               0.00371      16.58377       5.91750       5.53175
     6  H(1)              -0.00065      -2.90307      -1.03589      -0.96836
     7  H(1)              -0.00084      -3.75170      -1.33870      -1.25143
     8  H(1)              -0.00084      -3.75170      -1.33870      -1.25143

 Normal termination of Gaussian 16 at Wed Apr  9 00:30:46 2025.
