 Gaussian 16, Revision C.01,

 ----------------------------------------------------------------------
 #t hf aug-cc-pvdz symm=none int=(grid=ultrafine) guess=(read,tcheck) s
 table=(opt,rrhf)
 ----------------------------------------------------------------------
 -----
 title
 -----
 Symbolic Z-matrix:
 Charge =  0 Multiplicity = 1

 SCF Done:  E(RHF) =  -772.397627926     A.U. after   12 cycles
 Normal termination of Gaussian 16 at Tue Apr  8 22:52:50 2025.
 Gaussian 16:  ES64L-G16RevC.01  3-Jul-2019

 ----------------------------------------------------------------------
 #t hf aug-cc-pvdz iop(5/13=1,5/36=2,99/5=2) pseudo=read geom=check gue
 ss=(read,tcheck) scf=(maxcycle=1)
 ----------------------------------------------------------------------
 -----
 title
 -----
 Structure from the checkpoint file:  "BDE49_expt_1663_mol1.chk"
 Charge =  0 Multiplicity = 1

                         Standard orientation:
 ---------------------------------------------------------------------
 Center     Atomic      Atomic             Coordinates (Angstroms)
 Number     Number       Type             X           Y           Z
 ---------------------------------------------------------------------
      1          6           0       -3.493385    0.694189    0.344913
      2          6           0       -2.122164    1.069005   -0.195412
      3          1           0       -4.264086    1.381706    0.001256
      4          1           0       -3.506874    0.652797    1.433843
      5         17           0       -4.038960   -0.955889   -0.214161
      6          6           0       -0.964981    0.220502    0.340533
      7          1           0       -1.958300    2.121470    0.073849
      8          1           0       -2.144993    1.028734   -1.289398
      9          6           0        0.399315    0.654452   -0.207250
     10          1           0       -1.141170   -0.830489    0.089948
     11          1           0       -0.952766    0.279146    1.436585
     12          6           0        1.564978   -0.186853    0.324960
     13          1           0        0.573114    1.710061    0.039106
     14          1           0        0.382877    0.596607   -1.303051
     15          6           0        2.930653    0.240731   -0.224032
     16          1           0        1.390035   -1.241890    0.079005
     17          1           0        1.581696   -0.129435    1.420954
     18          6           0        4.097421   -0.599778    0.307328
     19          1           0        3.105989    1.296395    0.021199
     20          1           0        2.914738    0.182876   -1.320155
     21          6           0        5.457723   -0.166309   -0.246553
     22          1           0        3.922606   -1.654301    0.062073
     23          1           0        4.113861   -0.541832    1.402435
     24          1           0        5.484301   -0.246980   -1.337765
     25          1           0        6.266938   -0.784659    0.151388
     26          1           0        5.676985    0.874284    0.012536
 ---------------------------------------------------------------------

 SCF Done:  E(RHF) =  -774.286869479     A.U. after    2 cycles

 The electronic state is 1-A.
 Alpha  occ. eigenvalues --  -99.86905 -11.45618 -11.42930 -11.42215 -11.41045
 Alpha  occ. eigenvalues --  -11.39192 -11.37186 -11.35848 -11.33991 -10.44143
 Alpha  occ. eigenvalues --   -9.64055  -9.63457  -9.63314  -1.33812  -1.26994
 Alpha  occ. eigenvalues --   -1.19292  -1.10818  -1.02174  -0.93987  -0.86882
 Alpha  occ. eigenvalues --   -0.82900  -0.81944  -0.67643  -0.65174  -0.64279
 Alpha  occ. eigenvalues --   -0.60783  -0.58796  -0.58276  -0.56139  -0.54641
 Alpha  occ. eigenvalues --   -0.51815  -0.50857  -0.49530  -0.47991  -0.46925
 Alpha  occ. eigenvalues --   -0.46075  -0.45487  -0.44980  -0.44726  -0.44277
 Alpha  occ. eigenvalues --   -0.37763
 Alpha virt. eigenvalues --    0.03821   0.04380   0.04619   0.05326   0.05466
 Alpha virt. eigenvalues --    0.05948   0.06130   0.06518   0.06771   0.07001
 Alpha virt. eigenvalues --    0.07483   0.07626   0.08637   0.09330   0.09764

 Mulliken charges:
               1
     1  C   -4.742464
     2  C   -2.957315
     3  H    1.422063
     4  H    1.710691
     5  Cl   0.084160
     6  C   -2.566978
     7  H    1.421098
     8  H    1.514754
     9  C   -2.441833
    10  H    1.562729
    11  H    1.541863
    12  C   -2.052406
    13  H    1.570682
    14  H    1.625852
    15  C   -2.602378
    16  H    1.607139
    17  H    1.578339
    18  C   -3.466318
    19  H    1.583353
    20  H    1.575490
    21  C   -4.714726
    22  H    1.482073
    23  H    1.485950
    24  H    1.346353
    25  H    1.083690
    26  H    1.348138
 Sum of Mulliken charges =   0.00000

 Dipole moment (field-independent basis, Debye):
    X=              1.2162    Y=              2.0797    Z=              0.6603  Tot=              2.4981

 Test job not archived.
 1\1\GINC-SE086\SP\RHF\Aug-CC-pVDZ\C8H17Cl1\OHZDE\08-Apr-2025\0\\#t hf
 aug-cc-pvdz iop(5/13=1,5/36=2,99/5=2) pseudo=read geom=check guess=(re
 ad,tcheck) scf=(maxcycle=1)\\title\\0,1\C,0,-3.493385,0.694189,0.34491
 3\C,0,-2.122164,1.069005,-0.195412\H,0,-4.264086,1.381706,0.001256\H,0
 ,-3.506874,0.652797,1.433843\Cl,0,-4.03896,-0.955889,-0.214161\C,0,-0.
 964981,0.220502,0.340533\H,0,-1.9583,2.12147,0.073849\H,0,-2.144993,1.
 028734,-1.289398\C,0,0.399315,0.654452,-0.20725\H,0,-1.14117,-0.830489
 ,0.089948\H,0,-0.952766,0.279146,1.436585\C,0,1.564978,-0.186853,0.324

 Normal termination of Gaussian 16 at Tue Apr  8 22:53:05 2025.
