 Gaussian 16, Revision C.01,

 ----------------------------------------------------------------------
 #t hf aug-cc-pvdz symm=none int=(grid=ultrafine) guess=(read,tcheck) s
 table=(opt,rrhf)
 ----------------------------------------------------------------------
 -----
 title
 -----
 Symbolic Z-matrix:
 Charge =  0 Multiplicity = 1

 SCF Done:  E(RHF) =  -971.480369167     A.U. after   14 cycles
 Normal termination of Gaussian 16 at Wed Apr  9 00:20:37 2025.
 Gaussian 16:  ES64L-G16RevC.01  3-Jul-2019

 ----------------------------------------------------------------------
 #t hf aug-cc-pvdz iop(5/13=1,5/36=2,99/5=2) pseudo=read geom=check gue
 ss=(read,tcheck) scf=(maxcycle=1)
 ----------------------------------------------------------------------
 -----
 title
 -----
 Structure from the checkpoint file:  "BDE49_nonexpt_2606_mol1.chk"
 Charge =  0 Multiplicity = 1

                         Standard orientation:
 ---------------------------------------------------------------------
 Center     Atomic      Atomic             Coordinates (Angstroms)
 Number     Number       Type             X           Y           Z
 ---------------------------------------------------------------------
      1         16           0       -0.057569    0.911860    0.158492
      2         17           0       -1.596337   -0.506319   -0.034448
      3          8           0        1.234364    0.208081   -0.558851
      4          6           0        1.958579   -0.769770    0.222322
      5          1           0        2.864898   -0.979693   -0.344468
      6          1           0        1.362295   -1.678918    0.323190
      7          1           0        2.205244   -0.369747    1.207905
 ---------------------------------------------------------------------

 SCF Done:  E(RHF) =  -972.458248709     A.U. after    2 cycles

 The electronic state is 1-A.
 Alpha  occ. eigenvalues --  -99.90701 -75.78390 -21.10536 -13.25046 -13.12269
 Alpha  occ. eigenvalues --  -13.11936 -11.42763 -10.47822  -9.67545  -9.66939
 Alpha  occ. eigenvalues --   -9.66844  -8.11852  -1.79847  -1.31990  -1.08059
 Alpha  occ. eigenvalues --   -0.95144  -0.64852  -0.63981  -0.59665  -0.55807
 Alpha  occ. eigenvalues --   -0.55095  -0.51077  -0.41668  -0.38391  -0.25587
 Alpha virt. eigenvalues --    0.02943   0.04403   0.05917   0.06987   0.07577
 Alpha virt. eigenvalues --    0.09589   0.12316   0.13310   0.14031   0.14558
 Alpha virt. eigenvalues --    0.14747   0.15847   0.18087   0.19003   0.20072

 Mulliken charges:
               1
     1  S    1.373590
     2  Cl  -0.437966
     3  O   -2.203597
     4  C   -2.447483
     5  H    1.196392
     6  H    1.221281
     7  H    1.297783
 Sum of Mulliken charges =  -0.00000

 Dipole moment (field-independent basis, Debye):
    X=              3.0455    Y=              1.8248    Z=              0.6443  Tot=              3.6084

 Test job not archived.
 1\1\GINC-SE166\SP\RHF\Aug-CC-pVDZ\C1H3Cl1O1S1\OHZDE\09-Apr-2025\0\\#t
 hf aug-cc-pvdz iop(5/13=1,5/36=2,99/5=2) pseudo=read geom=check guess=
 (read,tcheck) scf=(maxcycle=1)\\title\\0,1\S,0,-0.057569,0.91186,0.158
 492\Cl,0,-1.596337,-0.506319,-0.034448\O,0,1.234364,0.208081,-0.558851
 \C,0,1.958579,-0.76977,0.222322\H,0,2.864898,-0.979693,-0.344468\H,0,1
 .362295,-1.678918,0.32319\H,0,2.205244,-0.369747,1.207905\\Version=ES6
 4L-G16RevC.01\State=1-A\HF=-972.4582487\RMSD=5.114e-02\Dipole=1.198209
 5,0.717944,0.2534914\Quadrupole=0.0746796,2.3508848,-2.4255643,-0.9656

 Normal termination of Gaussian 16 at Wed Apr  9 00:20:40 2025.
