 Gaussian 16, Revision C.01,

 ----------------------------------------------------------------------
 #t hf aug-cc-pvdz symm=none int=(grid=ultrafine) guess=(read,tcheck) s
 table=(opt,rrhf)
 ----------------------------------------------------------------------
 -----
 title
 -----
 Symbolic Z-matrix:
 Charge =  0 Multiplicity = 1

 SCF Done:  E(RHF) =  -749.689776619     A.U. after   12 cycles
 Normal termination of Gaussian 16 at Tue Apr  8 23:54:39 2025.
 Gaussian 16:  ES64L-G16RevC.01  3-Jul-2019

 ----------------------------------------------------------------------
 #t hf aug-cc-pvdz iop(5/13=1,5/36=2,99/5=2) pseudo=read geom=check gue
 ss=(read,tcheck) scf=(maxcycle=1)
 ----------------------------------------------------------------------
 -----
 title
 -----
 Structure from the checkpoint file:  "BDE49_nonexpt_1953_mol1.chk"
 Charge =  0 Multiplicity = 1

                         Standard orientation:
 ---------------------------------------------------------------------
 Center     Atomic      Atomic             Coordinates (Angstroms)
 Number     Number       Type             X           Y           Z
 ---------------------------------------------------------------------
      1         14           0        2.258073   -0.022833   -0.025066
      2          6           0        0.557576   -0.715290    0.409248
      3         15           0       -0.861865   -0.008273   -0.574640
      4          1           0        2.582670   -0.297343   -1.443630
      5          1           0        3.289355   -0.657593    0.831654
      6          6           0       -2.272416   -0.936286    0.200973
      7          1           0       -2.264887   -0.874026    1.293773
      8          1           0       -2.222620   -1.987138   -0.094229
      9          1           0       -3.217690   -0.531530   -0.170103
     10          6           0       -1.077358    1.625107    0.281634
     11          1           0       -0.245789    2.288568    0.035695
     12          1           0       -1.139495    1.523217    1.369959
     13          1           0       -1.994616    2.096399   -0.080251
     14          1           0        2.313843    1.441964    0.196672
     15          1           0        0.378155   -0.610216    1.486567
     16          1           0        0.589217   -1.789737    0.193287
 ---------------------------------------------------------------------

 SCF Done:  E(RHF) =  -750.693888342     A.U. after    2 cycles

 The electronic state is 1-A.
 Alpha  occ. eigenvalues -- -105.15805 -76.21121 -11.36755 -11.36642 -11.35750
 Alpha  occ. eigenvalues --   -5.54595  -2.74539  -2.18426  -2.16821  -2.16772
 Alpha  occ. eigenvalues --   -1.47020  -1.46756  -1.43951  -1.06194  -0.97011
 Alpha  occ. eigenvalues --   -0.96494  -0.74355  -0.64075  -0.58863  -0.57287
 Alpha  occ. eigenvalues --   -0.56232  -0.55034  -0.54426  -0.47226  -0.46185
 Alpha  occ. eigenvalues --   -0.43664  -0.21334  -0.20312  -0.01339
 Alpha virt. eigenvalues --    0.04696   0.05334   0.05641   0.05937   0.06252
 Alpha virt. eigenvalues --    0.06699   0.06874   0.07015   0.08105   0.08603
 Alpha virt. eigenvalues --    0.09358   0.09977   0.10051   0.10794   0.11829

 Mulliken charges:
               1
     1  Si   5.887196
     2  C   -5.596295
     3  P    8.635133
     4  H   -1.760754
     5  H   -1.698728
     6  C   -6.163541
     7  H    1.033854
     8  H    1.078152
     9  H    1.095051
    10  C   -6.342215
    11  H    1.105359
    12  H    1.037845
    13  H    1.067156
    14  H   -1.759839
    15  H    1.143150
    16  H    1.238474
 Sum of Mulliken charges =  -0.00000

 Dipole moment (field-independent basis, Debye):
    X=             -0.2021    Y=             -0.3296    Z=             -3.0816  Tot=              3.1057

 Test job not archived.
 1\1\GINC-SE331\SP\RHF\Aug-CC-pVDZ\C3H11P1Si1\OHZDE\08-Apr-2025\0\\#t h
 f aug-cc-pvdz iop(5/13=1,5/36=2,99/5=2) pseudo=read geom=check guess=(
 read,tcheck) scf=(maxcycle=1)\\title\\0,1\Si,0,2.258073,-0.022833,-0.0
 25066\C,0,0.557576,-0.71529,0.409248\P,0,-0.861865,-0.008273,-0.57464\
 H,0,2.58267,-0.297343,-1.44363\H,0,3.289355,-0.657593,0.831654\C,0,-2.
 272416,-0.936286,0.200973\H,0,-2.264887,-0.874026,1.293773\H,0,-2.2226
 2,-1.987138,-0.094229\H,0,-3.21769,-0.53153,-0.170103\C,0,-1.077358,1.
 625107,0.281634\H,0,-0.245789,2.288568,0.035695\H,0,-1.139495,1.523217

 Normal termination of Gaussian 16 at Tue Apr  8 23:54:44 2025.
