 Gaussian 16, Revision C.01,

 ----------------------------------------------------------------------
 #t hf aug-cc-pvdz symm=none int=(grid=ultrafine) guess=(read,tcheck) s
 table=opt
 ----------------------------------------------------------------------
 -----
 title
 -----
 Symbolic Z-matrix:
 Charge =  0 Multiplicity = 2

 SCF Done:  E(UHF) =  -661.757281571     A.U. after   40 cycles
 Normal termination of Gaussian 16 at Wed Apr  9 00:23:51 2025.
 Gaussian 16:  ES64L-G16RevC.01  3-Jul-2019

 ----------------------------------------------------------------------
 #t hf aug-cc-pvdz iop(5/13=1,5/36=2,99/5=2) pseudo=read geom=check gue
 ss=(read,tcheck) scf=(maxcycle=1)
 ----------------------------------------------------------------------
 -----
 title
 -----
 Structure from the checkpoint file:  "BDE49_nonexpt_2677_mol2.chk"
 Charge =  0 Multiplicity = 2

                         Standard orientation:
 ---------------------------------------------------------------------
 Center     Atomic      Atomic             Coordinates (Angstroms)
 Number     Number       Type             X           Y           Z
 ---------------------------------------------------------------------
      1         16           0       -1.512776   -0.000095    0.035670
      2          6           0        0.334998   -0.000003   -0.021581
      3          8           0        0.801590   -1.098369   -0.729385
      4          1           0        0.602754   -1.880611   -0.201695
      5          8           0        0.799890    0.000024    1.299161
      6          1           0        1.767287    0.000041    1.238509
      7          8           0        0.801275    1.098524   -0.729340
      8          1           0        0.602339    1.880674   -0.201547
 ---------------------------------------------------------------------

 SCF Done:  E(UHF) =  -663.032692653     A.U. after    2 cycles

 The electronic state is 2-A.
 Alpha  occ. eigenvalues --  -75.71828 -21.11175 -21.10462 -21.10449 -13.16318
 Alpha  occ. eigenvalues --  -13.06368 -13.04486 -11.52118  -8.05508  -1.88736
 Alpha  occ. eigenvalues --   -1.69551  -1.68683  -1.14339  -0.87523  -0.73777
 Alpha  occ. eigenvalues --   -0.61509  -0.61183  -0.55176  -0.53894  -0.42170
 Alpha  occ. eigenvalues --   -0.38950  -0.33580  -0.33307  -0.29276  -0.24938
 Alpha virt. eigenvalues --    0.03242   0.05648   0.05718   0.07211   0.11477
 Alpha virt. eigenvalues --    0.12771   0.13140   0.13444   0.15055   0.17597
 Alpha virt. eigenvalues --    0.18887   0.19433   0.20625   0.21296   0.22783

  Beta  occ. eigenvalues --  -75.70818 -21.11116 -21.10426 -21.10413 -13.15705
  Beta  occ. eigenvalues --  -13.03892 -13.00306 -11.52257  -8.04378  -1.88673
  Beta  occ. eigenvalues --   -1.69442  -1.68616  -1.06858  -0.85848  -0.72950
  Beta  occ. eigenvalues --   -0.61153  -0.60594  -0.54553  -0.53856  -0.41905
  Beta  occ. eigenvalues --   -0.38796  -0.33167  -0.31377  -0.23482
  Beta virt. eigenvalues --    0.03292   0.03814   0.05679   0.05735   0.07395
  Beta virt. eigenvalues --    0.11825   0.13223   0.13703   0.15200   0.15896
  Beta virt. eigenvalues --    0.17709   0.19116   0.19495   0.21117   0.21689

 Mulliken charges and spin densities:
               1          2
     1  S    0.887772   1.104246
     2  C    5.123029  -0.074358
     3  O   -2.715789   0.007146
     4  H    0.714258  -0.001863
     5  O   -2.531508  -0.038515
     6  H    0.523637  -0.001912
     7  O   -2.715670   0.007137
     8  H    0.714272  -0.001882
 Sum of Mulliken charges =  -0.00000   1.00000

 Dipole moment (field-independent basis, Debye):
    X=             -0.0181    Y=              0.0000    Z=              0.3931  Tot=              0.3935
                          Isotropic Fermi Contact Couplings
        Atom                 a.u.       MegaHertz       Gauss      10(-4) cm-1
     1  S(33)              0.28180      96.79047      34.53725      32.28582
     2  C(13)             -0.01627     -18.29338      -6.52753      -6.10201
     3  O(17)              0.00545      -3.30268      -1.17848      -1.10166
     4  H(1)              -0.00017      -0.75163      -0.26820      -0.25072
     5  O(17)              0.02711     -16.43374      -5.86397      -5.48171
     6  H(1)               0.00301      13.46296       4.80392       4.49076
     7  O(17)              0.00547      -3.31407      -1.18254      -1.10546
     8  H(1)              -0.00017      -0.75323      -0.26877      -0.25125

 Normal termination of Gaussian 16 at Wed Apr  9 00:23:54 2025.
