 Gaussian 16, Revision C.01,

 ----------------------------------------------------------------------
 #t hf aug-cc-pvdz symm=none int=(grid=ultrafine) guess=(read,tcheck) s
 table=(opt,rrhf)
 ----------------------------------------------------------------------
 -----
 title
 -----
 Symbolic Z-matrix:
 Charge =  0 Multiplicity = 1

 SCF Done:  E(RHF) =  -1767.12079076     A.U. after   10 cycles
 Normal termination of Gaussian 16 at Tue Apr  8 23:49:16 2025.
 Gaussian 16:  ES64L-G16RevC.01  3-Jul-2019

 ----------------------------------------------------------------------
 #t hf aug-cc-pvdz iop(5/13=1,5/36=2,99/5=2) pseudo=read geom=check gue
 ss=(read,tcheck) scf=(maxcycle=1)
 ----------------------------------------------------------------------
 -----
 title
 -----
 Structure from the checkpoint file:  "BDE49_nonexpt_1823_mol1.chk"
 Charge =  0 Multiplicity = 1

                         Standard orientation:
 ---------------------------------------------------------------------
 Center     Atomic      Atomic             Coordinates (Angstroms)
 Number     Number       Type             X           Y           Z
 ---------------------------------------------------------------------
      1         14           0        0.000002   -0.000004    0.245957
      2         17           0       -1.645822   -1.011053   -0.390625
      3         17           0        1.698525   -0.919771   -0.390625
      4          9           0       -0.000001    0.000070    1.831190
      5         17           0       -0.052704    1.930790   -0.390757
 ---------------------------------------------------------------------

 SCF Done:  E(RHF) =  -1768.33142843     A.U. after    2 cycles

 The electronic state is 1-A.
 Alpha  occ. eigenvalues --  -99.92357 -99.92356 -99.92355 -76.38284 -29.31372
 Alpha  occ. eigenvalues --  -10.49950 -10.49950 -10.49840  -9.69726  -9.69726
 Alpha  occ. eigenvalues --   -9.69700  -9.69155  -9.69155  -9.69054  -9.68974
 Alpha  occ. eigenvalues --   -9.68974  -9.68934  -5.73116  -2.36816  -2.34022
 Alpha  occ. eigenvalues --   -2.34022  -1.36303  -1.32140  -1.32140  -0.90839
 Alpha  occ. eigenvalues --   -0.69453  -0.64942  -0.64942  -0.58935  -0.58935
 Alpha  occ. eigenvalues --   -0.57368  -0.55592  -0.55592  -0.53566  -0.38064
 Alpha  occ. eigenvalues --   -0.38025  -0.38024
 Alpha virt. eigenvalues --    0.03722   0.05819   0.05819   0.06451   0.08402
 Alpha virt. eigenvalues --    0.10862   0.10862   0.12587   0.13259   0.13259
 Alpha virt. eigenvalues --    0.15291   0.15291   0.15541   0.17423   0.17623

 Mulliken charges:
               1
     1  Si   2.625584
     2  Cl  -0.676390
     3  Cl  -0.676390
     4  F   -0.596416
     5  Cl  -0.676387
 Sum of Mulliken charges =  -0.00000

 Dipole moment (field-independent basis, Debye):
    X=              0.0000    Y=              0.0001    Z=              3.1146  Tot=              3.1146

 Test job not archived.
 1\1\GINC-SE343\SP\RHF\Aug-CC-pVDZ\Cl3F1Si1\OHZDE\08-Apr-2025\0\\#t hf
 aug-cc-pvdz iop(5/13=1,5/36=2,99/5=2) pseudo=read geom=check guess=(re
 ad,tcheck) scf=(maxcycle=1)\\title\\0,1\Si,0,-0.000002,0.000004,0.2459
 57\Cl,0,1.651987,1.000948,-0.390625\Cl,0,-1.692856,0.930163,-0.390625\
 F,0,0.000001,-0.00007,1.83119\Cl,0,0.04087,-1.931077,-0.390757\\Versio
 n=ES64L-G16RevC.01\State=1-A\HF=-1768.3314284\RMSD=2.673e-02\Dipole=-0
 .0000056,-0.0000328,1.2253631\Quadrupole=-1.4942072,-1.4942522,2.98845
 93,-0.0000121,0.000008,-0.0001703\PG=C01 [X(Cl3F1Si1)]\\@

 Normal termination of Gaussian 16 at Tue Apr  8 23:49:20 2025.
