 Gaussian 16, Revision C.01,

 ----------------------------------------------------------------------
 #t hf aug-cc-pvdz symm=none int=(grid=ultrafine) guess=(read,tcheck) s
 table=(opt,rrhf)
 ----------------------------------------------------------------------
 -----
 title
 -----
 Symbolic Z-matrix:
 Charge =  0 Multiplicity = 1

 SCF Done:  E(RHF) =  -491.543573232     A.U. after   13 cycles
 Normal termination of Gaussian 16 at Tue Apr  8 23:37:08 2025.
 Gaussian 16:  ES64L-G16RevC.01  3-Jul-2019

 ----------------------------------------------------------------------
 #t hf aug-cc-pvdz iop(5/13=1,5/36=2,99/5=2) pseudo=read geom=check gue
 ss=(read,tcheck) scf=(maxcycle=1)
 ----------------------------------------------------------------------
 -----
 title
 -----
 Structure from the checkpoint file:  "BDE49_nonexpt_1514_mol1.chk"
 Charge =  0 Multiplicity = 1

                         Standard orientation:
 ---------------------------------------------------------------------
 Center     Atomic      Atomic             Coordinates (Angstroms)
 Number     Number       Type             X           Y           Z
 ---------------------------------------------------------------------
      1          7           0        0.353015    0.025584   -0.275442
      2          7           0        0.894632    1.303494    0.041974
      3         15           0       -1.336732   -0.174163   -0.011046
      4          6           0        1.217578   -1.106120    0.052648
      5          1           0        2.158335   -1.019703   -0.501020
      6          1           0        0.734533   -2.040081   -0.240920
      7          1           0        1.458735   -1.160718    1.127658
      8          1           0        1.687059    1.471868   -0.573520
      9          1           0        1.244960    1.304777    1.003502
     10          1           0       -1.757575    1.022042   -0.637610
     11          1           0       -1.514064    0.367431    1.305986
 ---------------------------------------------------------------------

 SCF Done:  E(RHF) =  -492.469615653     A.U. after    2 cycles

 The electronic state is 1-A.
 Alpha  occ. eigenvalues -- -105.18727 -15.75665 -15.72912 -11.39021  -2.75852
 Alpha  occ. eigenvalues --   -1.58306  -1.45186  -1.43265  -1.38354  -1.13232
 Alpha  occ. eigenvalues --   -0.91372  -0.71729  -0.67208  -0.61159  -0.57558
 Alpha  occ. eigenvalues --   -0.56912  -0.40157  -0.35537  -0.25935  -0.25015
 Alpha  occ. eigenvalues --   -0.01845
 Alpha virt. eigenvalues --    0.03699   0.05927   0.05987   0.06440   0.07303
 Alpha virt. eigenvalues --    0.07539   0.09199   0.10134   0.11440   0.12024
 Alpha virt. eigenvalues --    0.15166   0.15837   0.16333   0.17777   0.19018

 Mulliken charges:
               1
     1  N   -0.623157
     2  N   -1.528709
     3  P    1.931016
     4  C   -3.177246
     5  H    1.275536
     6  H    1.216113
     7  H    1.289533
     8  H    0.675590
     9  H    0.592531
    10  H   -0.750914
    11  H   -0.900292
 Sum of Mulliken charges =   0.00000

 Dipole moment (field-independent basis, Debye):
    X=              1.8835    Y=             -1.1942    Z=             -0.3215  Tot=              2.2532

 Test job not archived.
 1\1\GINC-SE058\SP\RHF\Aug-CC-pVDZ\C1H7N2P1\OHZDE\08-Apr-2025\0\\#t hf
 aug-cc-pvdz iop(5/13=1,5/36=2,99/5=2) pseudo=read geom=check guess=(re
 ad,tcheck) scf=(maxcycle=1)\\title\\0,1\N,0,0.353015,0.025584,-0.27544
 2\N,0,0.894632,1.303494,0.041974\P,0,-1.336732,-0.174163,-0.011046\C,0
 ,1.217579,-1.10612,0.052648\H,0,2.158336,-1.019702,-0.50102\H,0,0.7345
 34,-2.040081,-0.24092\H,0,1.458736,-1.160718,1.127658\H,0,1.687059,1.4
 71868,-0.57352\H,0,1.24496,1.304777,1.003502\H,0,-1.757575,1.022041,-0
 .63761\H,0,-1.514064,0.36743,1.305986\\Version=ES64L-G16RevC.01\State=

 Normal termination of Gaussian 16 at Tue Apr  8 23:37:12 2025.
