 Gaussian 16, Revision C.01,

 ----------------------------------------------------------------------
 #t hf aug-cc-pvdz symm=none int=(grid=ultrafine) guess=(read,tcheck) s
 table=(opt,rrhf)
 ----------------------------------------------------------------------
 -----
 title
 -----
 Symbolic Z-matrix:
 Charge =  0 Multiplicity = 1

 SCF Done:  E(RHF) =  -558.082672038     A.U. after   14 cycles
 Normal termination of Gaussian 16 at Wed Apr  9 00:08:57 2025.
 Gaussian 16:  ES64L-G16RevC.01  3-Jul-2019

 ----------------------------------------------------------------------
 #t hf aug-cc-pvdz iop(5/13=1,5/36=2,99/5=2) pseudo=read geom=check gue
 ss=(read,tcheck) scf=(maxcycle=1)
 ----------------------------------------------------------------------
 -----
 title
 -----
 Structure from the checkpoint file:  "BDE49_nonexpt_2291_mol1.chk"
 Charge =  0 Multiplicity = 1

                         Standard orientation:
 ---------------------------------------------------------------------
 Center     Atomic      Atomic             Coordinates (Angstroms)
 Number     Number       Type             X           Y           Z
 ---------------------------------------------------------------------
      1         14           0       -0.357980    0.005956    0.039975
      2          8           0        0.965036   -0.182961   -1.011567
      3          8           0        2.189656    0.057772   -0.238360
      4          1           0        2.683298   -0.739101   -0.472172
      5          6           0       -1.800218   -0.256597   -1.123285
      6          1           0       -1.795772    0.482214   -1.928889
      7          1           0       -2.747001   -0.159179   -0.582328
      8          1           0       -1.772809   -1.251510   -1.575471
      9          6           0       -0.296491   -1.296978    1.384618
     10          1           0       -0.311742   -2.305097    0.960256
     11          1           0       -1.154386   -1.204609    2.058381
     12          1           0        0.611123   -1.194205    1.985201
     13          6           0       -0.351560    1.725927    0.773990
     14          1           0       -0.405105    2.486249   -0.010070
     15          1           0        0.561607    1.899616    1.348885
     16          1           0       -1.205412    1.869635    1.444036
 ---------------------------------------------------------------------

 SCF Done:  E(RHF) =  -559.482639761     A.U. after    2 cycles

 The electronic state is 1-A.
 Alpha  occ. eigenvalues --  -76.20730 -21.11677 -21.07114 -11.34365 -11.34294
 Alpha  occ. eigenvalues --  -11.34025  -5.55050  -2.21267  -2.18533  -2.18334
 Alpha  occ. eigenvalues --   -1.89072  -1.39363  -1.06837  -1.01139  -1.00956
 Alpha  occ. eigenvalues --   -0.65249  -0.62038  -0.57246  -0.56604  -0.56355
 Alpha  occ. eigenvalues --   -0.55137  -0.54093  -0.53290  -0.48537  -0.46169
 Alpha  occ. eigenvalues --   -0.40829  -0.38821  -0.34056  -0.28733
 Alpha virt. eigenvalues --    0.02996   0.05204   0.05610   0.05691   0.06151
 Alpha virt. eigenvalues --    0.06332   0.06642   0.07493   0.07677   0.09030
 Alpha virt. eigenvalues --    0.09284   0.10080   0.11037   0.12870   0.14766

 Mulliken charges:
               1
     1  Si   9.689494
     2  O   -2.099915
     3  O   -1.501108
     4  H    1.028316
     5  C   -5.734476
     6  H    1.135528
     7  H    1.095477
     8  H    1.113318
     9  C   -5.676549
    10  H    1.121668
    11  H    1.128173
    12  H    1.049351
    13  C   -5.707486
    14  H    1.144038
    15  H    1.088778
    16  H    1.125392
 Sum of Mulliken charges =   0.00000

 Dipole moment (field-independent basis, Debye):
    X=             -0.1265    Y=             -0.4371    Z=              0.3937  Tot=              0.6017

 Test job not archived.
 1\1\GINC-SE335\SP\RHF\Aug-CC-pVDZ\C3H10O2Si1\OHZDE\09-Apr-2025\0\\#t h
 f aug-cc-pvdz iop(5/13=1,5/36=2,99/5=2) pseudo=read geom=check guess=(
 read,tcheck) scf=(maxcycle=1)\\title\\0,1\Si,0,-0.35798,0.005956,0.039
 975\O,0,0.965036,-0.182961,-1.011567\O,0,2.189656,0.057772,-0.23836\H,
 0,2.683298,-0.739101,-0.472172\C,0,-1.800218,-0.256597,-1.123285\H,0,-
 1.795772,0.482214,-1.928889\H,0,-2.747001,-0.159179,-0.582328\H,0,-1.7
 72809,-1.25151,-1.575471\C,0,-0.296491,-1.296978,1.384618\H,0,-0.31174
 2,-2.305097,0.960256\H,0,-1.154386,-1.204609,2.058381\H,0,0.611123,-1.

 Normal termination of Gaussian 16 at Wed Apr  9 00:09:02 2025.
