 Gaussian 16, Revision C.01,

 ----------------------------------------------------------------------
 #t hf aug-cc-pvdz symm=none int=(grid=ultrafine) guess=(read,tcheck) s
 table=opt
 ----------------------------------------------------------------------
 -----
 title
 -----
 Symbolic Z-matrix:
 Charge =  0 Multiplicity = 2

 SCF Done:  E(UHF) =  -365.190053405     A.U. after   26 cycles
 Normal termination of Gaussian 16 at Tue Apr  8 23:38:37 2025.
 Gaussian 16:  ES64L-G16RevC.01  3-Jul-2019

 ----------------------------------------------------------------------
 #t hf aug-cc-pvdz iop(5/13=1,5/36=2,99/5=2) pseudo=read geom=check gue
 ss=(read,tcheck) scf=(maxcycle=1)
 ----------------------------------------------------------------------
 -----
 title
 -----
 Structure from the checkpoint file:  "BDE49_nonexpt_154_mol2.chk"
 Charge =  0 Multiplicity = 2

                         Standard orientation:
 ---------------------------------------------------------------------
 Center     Atomic      Atomic             Coordinates (Angstroms)
 Number     Number       Type             X           Y           Z
 ---------------------------------------------------------------------
      1          5           0        2.495189   -0.793402   -0.545460
      2          6           0        1.314778   -0.104556    0.081571
      3          8           0        1.559913    0.947715    0.639193
      4          8           0        0.054966   -0.673902   -0.003633
      5          6           0       -1.096131    0.118550   -0.139344
      6          8           0       -1.074166    1.233202   -0.554645
      7          6           0       -2.300474   -0.680486    0.270953
      8          1           0       -2.316364   -1.635671   -0.257419
      9          1           0       -3.202539   -0.111704    0.056050
     10          1           0       -2.242842   -0.898441    1.340360
     11          1           0        3.451063   -1.444336   -0.338087
 ---------------------------------------------------------------------

 SCF Done:  E(UHF) =  -366.698279609     A.U. after    2 cycles

 The electronic state is 2-A.
 Alpha  occ. eigenvalues --  -21.11688 -21.08805 -21.07413 -11.54573 -11.48473
 Alpha  occ. eigenvalues --  -11.40921  -7.68316  -1.87848  -1.73579  -1.67034
 Alpha  occ. eigenvalues --   -1.13139  -0.97819  -0.83044  -0.69190  -0.64518
 Alpha  occ. eigenvalues --   -0.64333  -0.62031  -0.58812  -0.55056  -0.52730
 Alpha  occ. eigenvalues --   -0.49044  -0.44886  -0.35218  -0.33632  -0.32115
 Alpha  occ. eigenvalues --   -0.27893
 Alpha virt. eigenvalues --    0.02812   0.03425   0.03944   0.04367   0.06027
 Alpha virt. eigenvalues --    0.06307   0.07552   0.08774   0.10825   0.11515
 Alpha virt. eigenvalues --    0.12419   0.13531   0.13719   0.14230   0.15224

  Beta  occ. eigenvalues --  -21.11765 -21.07429 -21.07397 -11.54566 -11.49054
  Beta  occ. eigenvalues --  -11.40921  -7.66679  -1.87811  -1.72343  -1.65847
  Beta  occ. eigenvalues --   -1.13084  -0.95328  -0.81414  -0.68735  -0.64714
  Beta  occ. eigenvalues --   -0.64217  -0.61868  -0.58693  -0.54567  -0.51500
  Beta  occ. eigenvalues --   -0.48722  -0.43575  -0.33840  -0.32468  -0.28807
  Beta virt. eigenvalues --    0.02895   0.03337   0.03705   0.04194   0.06044
  Beta virt. eigenvalues --    0.06304   0.06990   0.08604   0.09801   0.11605
  Beta virt. eigenvalues --    0.12114   0.12832   0.13617   0.14274   0.14825

 Mulliken charges and spin densities:
               1          2
     1  B    2.539676   0.898775
     2  C    2.941076  -0.321933
     3  O   -2.361630   0.402736
     4  O   -3.022796   0.006454
     5  C    5.130381   0.021882
     6  O   -2.931693  -0.001533
     7  C   -4.218869   0.007885
     8  H    1.283442  -0.000800
     9  H    1.215416   0.000215
    10  H    1.315050  -0.000548
    11  H   -1.890054  -0.013133
 Sum of Mulliken charges =  -0.00000   1.00000

 Dipole moment (field-independent basis, Debye):
    X=             -0.5258    Y=             -1.6579    Z=              0.5779  Tot=              1.8328
                          Isotropic Fermi Contact Couplings
        Atom                 a.u.       MegaHertz       Gauss      10(-4) cm-1
     1  B(11)              0.12961     185.91310      66.33842      62.01393
     2  C(13)             -0.03681     -41.38121     -14.76585     -13.80329
     3  O(17)              0.07941     -48.14080     -17.17783     -16.05804
     4  O(17)             -0.01358       8.23217       2.93744       2.74595
     5  C(13)             -0.00021      -0.23596      -0.08420      -0.07871
     6  O(17)             -0.00033       0.20172       0.07198       0.06729
     7  C(13)             -0.00011      -0.12828      -0.04577      -0.04279
     8  H(1)              -0.00000      -0.00607      -0.00217      -0.00202

 Normal termination of Gaussian 16 at Tue Apr  8 23:38:41 2025.
