 Gaussian 16, Revision C.01,

 ----------------------------------------------------------------------
 #t hf aug-cc-pvdz symm=none int=(grid=ultrafine) guess=(read,tcheck) s
 table=(opt,rrhf)
 ----------------------------------------------------------------------
 -----
 title
 -----
 Symbolic Z-matrix:
 Charge =  0 Multiplicity = 1

 SCF Done:  E(RHF) =  -1100.92257077     A.U. after   14 cycles
 Normal termination of Gaussian 16 at Tue Apr  8 23:39:11 2025.
 Gaussian 16:  ES64L-G16RevC.01  3-Jul-2019

 ----------------------------------------------------------------------
 #t hf aug-cc-pvdz iop(5/13=1,5/36=2,99/5=2) pseudo=read geom=check gue
 ss=(read,tcheck) scf=(maxcycle=1)
 ----------------------------------------------------------------------
 -----
 title
 -----
 Structure from the checkpoint file:  "BDE49_nonexpt_1589_mol1.chk"
 Charge =  0 Multiplicity = 1

                         Standard orientation:
 ---------------------------------------------------------------------
 Center     Atomic      Atomic             Coordinates (Angstroms)
 Number     Number       Type             X           Y           Z
 ---------------------------------------------------------------------
      1         17           0        2.084844    0.003254   -0.000000
      2          8           0        0.596243    0.909438   -0.000003
      3         15           0       -0.800700    0.064355   -0.000000
      4          8           0       -0.707160   -0.971322   -1.195109
      5          8           0       -1.876122    1.049429   -0.000003
      6          8           0       -0.707160   -0.971314    1.195115
      7          1           0       -0.939127   -0.575236    2.043613
      8          1           0       -0.939126   -0.575249   -2.043610
 ---------------------------------------------------------------------

 SCF Done:  E(RHF) =  -1102.59343717     A.U. after    2 cycles

 The electronic state is 1-A.
 Alpha  occ. eigenvalues -- -105.34737 -99.96985 -21.14348 -21.14215 -21.14190
 Alpha  occ. eigenvalues --  -21.04412 -10.53623  -9.73475  -9.72700  -9.72575
 Alpha  occ. eigenvalues --   -2.98230  -2.03784  -1.94077  -1.93568  -1.77619
 Alpha  occ. eigenvalues --   -1.48561  -1.42686  -1.28238  -1.22000  -0.73212
 Alpha  occ. eigenvalues --   -0.62876  -0.62230  -0.61083  -0.60735  -0.54534
 Alpha  occ. eigenvalues --   -0.47032  -0.45344  -0.40454  -0.38989  -0.36450
 Alpha  occ. eigenvalues --   -0.30124  -0.30055  -0.18277
 Alpha virt. eigenvalues --    0.02006   0.03573   0.05629   0.08712   0.10830
 Alpha virt. eigenvalues --    0.11676   0.11875   0.13342   0.13639   0.14838
 Alpha virt. eigenvalues --    0.18265   0.19827   0.20517   0.21417   0.22655

 Mulliken charges:
               1
     1  Cl   0.378251
     2  O   -2.165447
     3  P    8.108638
     4  O   -2.674727
     5  O   -2.735805
     6  O   -2.674729
     7  H    0.881909
     8  H    0.881909
 Sum of Mulliken charges =  -0.00000

 Dipole moment (field-independent basis, Debye):
    X=             -0.3972    Y=             -1.1591    Z=              0.0000  Tot=              1.2252

 Test job not archived.
 1\1\GINC-SE080\SP\RHF\Aug-CC-pVDZ\Cl1H2O4P1\OHZDE\08-Apr-2025\0\\#t hf
  aug-cc-pvdz iop(5/13=1,5/36=2,99/5=2) pseudo=read geom=check guess=(r
 ead,tcheck) scf=(maxcycle=1)\\title\\0,1\Cl,0,2.084844,-0.003254,0.\O,
 0,0.596243,-0.909438,0.000003\P,0,-0.8007,-0.064355,0.\O,0,-0.70716,0.
 971322,1.195109\O,0,-1.876122,-1.049429,0.000003\O,0,-0.70716,0.971314
 ,-1.195115\H,0,-0.939127,0.575236,-2.043613\H,0,-0.939126,0.575249,2.0
 4361\\Version=ES64L-G16RevC.01\State=1-A\HF=-1102.5934372\RMSD=9.234e-
 02\Dipole=-0.1562708,0.4560062,-0.0000019\Quadrupole=-4.8202413,-2.173

 Normal termination of Gaussian 16 at Tue Apr  8 23:39:14 2025.
