 Gaussian 16, Revision C.01,

 ----------------------------------------------------------------------
 #t hf aug-cc-pvdz symm=none int=(grid=ultrafine) guess=(read,tcheck) s
 table=(opt,rrhf)
 ----------------------------------------------------------------------
 -----
 title
 -----
 Symbolic Z-matrix:
 Charge =  0 Multiplicity = 1

 SCF Done:  E(RHF) =  -731.187052212     A.U. after   11 cycles

 1\1\GINC-SE069\Stability\RHF\Aug-CC-pVDZ\H6O2Si2\OHZDE\09-Apr-2025\0\\
 #t hf aug-cc-pvdz symm=none int=(grid=ultrafine) guess=(read,tcheck) s
 table=(opt,rrhf)\\title\\0,1\Si,0,-0.580251,0.,0.372139\Si,0,1.746744,
 -0.000001,-0.05631\O,0,-1.260286,-1.385157,-0.220151\H,0,-1.017407,-1.
 704121,-1.091898\O,0,-1.260284,1.385158,-0.220151\H,0,-1.01739,1.70413
 2,-1.09189\H,0,2.404546,1.205745,0.504412\H,0,1.98125,0.000001,-1.5267
 86\H,0,2.404544,-1.20575,0.504409\H,0,-0.921885,-0.000002,1.802555\\Ve
 rsion=ES64L-G16RevC.01\HF=-731.1870522\RMSD=7.810e-09\Dipole=0.5057609

 Normal termination of Gaussian 16 at Wed Apr  9 00:09:31 2025.
 Gaussian 16:  ES64L-G16RevC.01  3-Jul-2019

 ----------------------------------------------------------------------
 #t hf aug-cc-pvdz iop(5/13=1,5/36=2,99/5=2) pseudo=read geom=check gue
 ss=(read,tcheck) scf=(maxcycle=1)
 ----------------------------------------------------------------------
 -----
 title
 -----
 Structure from the checkpoint file:  "BDE49_nonexpt_2335_mol1.chk"
 Charge =  0 Multiplicity = 1

                         Standard orientation:
 ---------------------------------------------------------------------
 Center     Atomic      Atomic             Coordinates (Angstroms)
 Number     Number       Type             X           Y           Z
 ---------------------------------------------------------------------
      1         14           0       -0.580251    0.000000    0.372139
      2         14           0        1.746744   -0.000001   -0.056310
      3          8           0       -1.260286   -1.385157   -0.220151
      4          1           0       -1.017407   -1.704121   -1.091898
      5          8           0       -1.260284    1.385158   -0.220151
      6          1           0       -1.017390    1.704132   -1.091890
      7          1           0        2.404546    1.205745    0.504412
      8          1           0        1.981250    0.000001   -1.526786
      9          1           0        2.404544   -1.205750    0.504409
     10          1           0       -0.921885   -0.000002    1.802555
 ---------------------------------------------------------------------

 SCF Done:  E(RHF) =  -732.133737216     A.U. after    2 cycles

 The electronic state is 1-A.
 Alpha  occ. eigenvalues --  -76.25071 -76.21781 -21.08109 -21.08083  -5.59128
 Alpha  occ. eigenvalues --   -5.55245  -2.26941  -2.22579  -2.19724  -2.17323
 Alpha  occ. eigenvalues --   -2.17250  -2.16443  -1.68508  -1.64124  -0.79948
 Alpha  occ. eigenvalues --   -0.72493  -0.60681  -0.53632  -0.49949  -0.47905
 Alpha  occ. eigenvalues --   -0.47162  -0.43366  -0.41747  -0.36177  -0.31253
 Alpha virt. eigenvalues --    0.03437   0.04889   0.05538   0.05981   0.07446
 Alpha virt. eigenvalues --    0.07809   0.08228   0.08313   0.08977   0.09263
 Alpha virt. eigenvalues --    0.10309   0.10452   0.12959   0.14565   0.15183

 Mulliken charges:
               1
     1  Si   5.565326
     2  Si   4.226501
     3  O   -2.782675
     4  H    1.085371
     5  O   -2.782681
     6  H    1.085376
     7  H   -1.519634
     8  H   -1.461608
     9  H   -1.519633
    10  H   -1.896343
 Sum of Mulliken charges =   0.00000

 Dipole moment (field-independent basis, Debye):
    X=             -0.4152    Y=              0.0000    Z=             -1.2713  Tot=              1.3374

 Test job not archived.
 1\1\GINC-SE069\SP\RHF\Aug-CC-pVDZ\H6O2Si2\OHZDE\09-Apr-2025\0\\#t hf a
 ug-cc-pvdz iop(5/13=1,5/36=2,99/5=2) pseudo=read geom=check guess=(rea
 d,tcheck) scf=(maxcycle=1)\\title\\0,1\Si,0,-0.580251,0.,0.372139\Si,0
 ,1.746744,-0.000001,-0.05631\O,0,-1.260286,-1.385157,-0.220151\H,0,-1.
 017407,-1.704121,-1.091898\O,0,-1.260284,1.385158,-0.220151\H,0,-1.017
 39,1.704132,-1.09189\H,0,2.404546,1.205745,0.504412\H,0,1.98125,0.0000
 01,-1.526786\H,0,2.404544,-1.20575,0.504409\H,0,-0.921885,-0.000002,1.
 802555\\Version=ES64L-G16RevC.01\State=1-A\HF=-732.1337372\RMSD=7.982e

 Normal termination of Gaussian 16 at Wed Apr  9 00:09:34 2025.
