 Gaussian 16, Revision C.01,

 ----------------------------------------------------------------------
 #t hf aug-cc-pvdz symm=none int=(grid=ultrafine) guess=(read,tcheck) s
 table=opt
 ----------------------------------------------------------------------
 -----
 title
 -----
 Symbolic Z-matrix:
 Charge =  0 Multiplicity = 2

 SCF Done:  E(UHF) =  -465.764004499     A.U. after   16 cycles
 Normal termination of Gaussian 16 at Tue Apr  8 23:54:56 2025.
 Gaussian 16:  ES64L-G16RevC.01  3-Jul-2019

 ----------------------------------------------------------------------
 #t hf aug-cc-pvdz iop(5/13=1,5/36=2,99/5=2) pseudo=read geom=check gue
 ss=(read,tcheck) scf=(maxcycle=1)
 ----------------------------------------------------------------------
 -----
 title
 -----
 Structure from the checkpoint file:  "BDE49_nonexpt_1958_mol2.chk"
 Charge =  0 Multiplicity = 2

                         Standard orientation:
 ---------------------------------------------------------------------
 Center     Atomic      Atomic             Coordinates (Angstroms)
 Number     Number       Type             X           Y           Z
 ---------------------------------------------------------------------
      1         14           0       -1.485579   -0.022784   -0.074518
      2          5           0        0.527447   -0.005071    0.011755
      3          1           0       -2.196532   -1.196892    0.480313
      4          1           0       -2.160527    1.236060    0.336350
      5          8           0        1.283825    1.137682    0.011792
      6          1           0        0.774718    1.951518    0.036753
      7          8           0        1.167994   -1.205272    0.003496
      8          1           0        2.128664   -1.105629    0.008754
 ---------------------------------------------------------------------

 SCF Done:  E(UHF) =  -466.615503680     A.U. after    2 cycles

 The electronic state is 2-A.
 Alpha  occ. eigenvalues --  -76.21518 -21.07318 -21.06220  -7.64983  -5.55054
 Alpha  occ. eigenvalues --   -2.18064  -2.17120  -2.15448  -1.81298  -1.66076
 Alpha  occ. eigenvalues --   -0.81529  -0.71928  -0.63309  -0.54842  -0.49471
 Alpha  occ. eigenvalues --   -0.47051  -0.43399  -0.37296  -0.36208  -0.25361
 Alpha virt. eigenvalues --    0.03585   0.04161   0.05094   0.05839   0.08103
 Alpha virt. eigenvalues --    0.08575   0.09292   0.09448   0.10018   0.10185
 Alpha virt. eigenvalues --    0.10677   0.13394   0.16256   0.16902   0.17997

  Beta  occ. eigenvalues --  -76.20993 -21.07268 -21.06167  -7.65020  -5.54261
  Beta  occ. eigenvalues --   -2.17434  -2.16447  -2.11786  -1.81188  -1.65965
  Beta  occ. eigenvalues --   -0.78684  -0.70195  -0.63011  -0.54609  -0.48832
  Beta  occ. eigenvalues --   -0.47009  -0.43351  -0.36911  -0.35234
  Beta virt. eigenvalues --    0.02976   0.03732   0.04383   0.05159   0.07281
  Beta virt. eigenvalues --    0.08262   0.08735   0.09492   0.10149   0.10443
  Beta virt. eigenvalues --    0.10902   0.11312   0.15528   0.16799   0.18800

 Mulliken charges and spin densities:
               1          2
     1  Si   3.643562   1.127472
     2  B    4.009191  -0.053495
     3  H   -1.440266  -0.058269
     4  H   -1.442892  -0.067515
     5  O   -3.795472   0.030161
     6  H    1.414916  -0.004088
     7  O   -3.711409   0.032413
     8  H    1.322370  -0.006678
 Sum of Mulliken charges =   0.00000   1.00000

 Dipole moment (field-independent basis, Debye):
    X=              0.6695    Y=              0.8469    Z=             -0.1031  Tot=              1.0845
                          Isotropic Fermi Contact Couplings
        Atom                 a.u.       MegaHertz       Gauss      10(-4) cm-1
     1  Si(29)             0.31256    -277.78245     -99.11968     -92.65825
     2  B(11)             -0.00274      -3.92500      -1.40054      -1.30924
     3  H(1)              -0.00593     -26.50323      -9.45701      -8.84052
     4  H(1)              -0.00592     -26.46718      -9.44415      -8.82850
     5  O(17)              0.00417      -2.52515      -0.90104      -0.84230
     6  H(1)              -0.00020      -0.89668      -0.31996      -0.29910
     7  O(17)              0.00124      -0.75099      -0.26797      -0.25050
     8  H(1)              -0.00051      -2.28830      -0.81652      -0.76329

 Normal termination of Gaussian 16 at Tue Apr  8 23:54:58 2025.
