 Gaussian 16, Revision C.01,

 ----------------------------------------------------------------------
 #t hf aug-cc-pvdz symm=none int=(grid=ultrafine) guess=(read,tcheck) s
 table=(opt,rrhf)
 ----------------------------------------------------------------------
 -----
 title
 -----
 Symbolic Z-matrix:
 Charge =  0 Multiplicity = 1

 SCF Done:  E(RHF) =  -684.422839598     A.U. after   16 cycles

 1\1\GINC-SE109\Stability\RHF\Aug-CC-pVDZ\Cl1H1O3\OHZDE\08-Apr-2025\0\\
 #t hf aug-cc-pvdz symm=none int=(grid=ultrafine) guess=(read,tcheck) s
 table=(opt,rrhf)\\title\\0,1\Cl,0,1.433611,-0.256271,0.038151\O,0,0.00
 2981,0.81202,-0.326615\O,0,-1.066786,0.476904,0.432666\O,0,-1.794423,-
 0.575987,-0.223605\H,0,-1.505563,-1.346891,0.291873\\Version=ES64L-G16
 RevC.01\HF=-684.4228396\RMSD=4.737e-09\Dipole=0.1502533,-0.7455004,0.3
 492051\Quadrupole=-0.5939751,1.6673668,-1.0733917,1.0666512,-0.791504,
 -1.0031092\PG=Unknown\\@

 Normal termination of Gaussian 16 at Tue Apr  8 23:18:49 2025.
 Gaussian 16:  ES64L-G16RevC.01  3-Jul-2019

 ----------------------------------------------------------------------
 #t hf aug-cc-pvdz iop(5/13=1,5/36=2,99/5=2) pseudo=read geom=check gue
 ss=(read,tcheck) scf=(maxcycle=1)
 ----------------------------------------------------------------------
 -----
 title
 -----
 Structure from the checkpoint file:  "BDE49_nonexpt_1048_mol1.chk"
 Charge =  0 Multiplicity = 1

                         Standard orientation:
 ---------------------------------------------------------------------
 Center     Atomic      Atomic             Coordinates (Angstroms)
 Number     Number       Type             X           Y           Z
 ---------------------------------------------------------------------
      1         17           0        1.433611   -0.256271    0.038151
      2          8           0        0.002981    0.812020   -0.326615
      3          8           0       -1.066786    0.476904    0.432666
      4          8           0       -1.794423   -0.575987   -0.223605
      5          1           0       -1.505563   -1.346891    0.291873
 ---------------------------------------------------------------------

 SCF Done:  E(RHF) =  -685.572861255     A.U. after    2 cycles

 The electronic state is 1-A.
 Alpha  occ. eigenvalues --  -99.96005 -21.19564 -21.18962 -21.16048 -10.52596
 Alpha  occ. eigenvalues --   -9.72318  -9.71691  -9.71602  -2.12639  -1.73394
 Alpha  occ. eigenvalues --   -1.36550  -1.20099  -0.69203  -0.65446  -0.64433
 Alpha  occ. eigenvalues --   -0.59062  -0.53800  -0.50673  -0.40361  -0.36675
 Alpha  occ. eigenvalues --   -0.34533
 Alpha virt. eigenvalues --    0.02616   0.04433   0.10894   0.11781   0.12678
 Alpha virt. eigenvalues --    0.13899   0.17366   0.17924   0.19551   0.20912
 Alpha virt. eigenvalues --    0.21728   0.22837   0.25118   0.25958   0.28049

 Mulliken charges:
               1
     1  Cl   0.188235
     2  O   -0.489061
     3  O    0.363754
     4  O   -0.933084
     5  H    0.870156
 Sum of Mulliken charges =  -0.00000

 Dipole moment (field-independent basis, Debye):
    X=             -2.5893    Y=              0.0904    Z=              0.1670  Tot=              2.5962

 Test job not archived.
 1\1\GINC-SE109\SP\RHF\Aug-CC-pVDZ\Cl1H1O3\OHZDE\08-Apr-2025\0\\#t hf a
 ug-cc-pvdz iop(5/13=1,5/36=2,99/5=2) pseudo=read geom=check guess=(rea
 d,tcheck) scf=(maxcycle=1)\\title\\0,1\Cl,0,1.433611,-0.256271,0.03815
 1\O,0,0.002981,0.81202,-0.326615\O,0,-1.066786,0.476904,0.432666\O,0,-
 1.794423,-0.575987,-0.223605\H,0,-1.505563,-1.346891,0.291873\\Version
 =ES64L-G16RevC.01\State=1-A\HF=-685.5728613\RMSD=4.329e-02\Dipole=-1.0
 186973,0.0355543,0.0657086\Quadrupole=-1.0885605,1.8521623,-0.7636018,
 0.4372062,-0.2771437,-1.0338811\PG=C01 [X(Cl1H1O3)]\\@

 Normal termination of Gaussian 16 at Tue Apr  8 23:18:55 2025.
