 Gaussian 16, Revision C.01,

 ----------------------------------------------------------------------
 #t hf aug-cc-pvdz symm=none int=(grid=ultrafine) guess=(read,tcheck) s
 table=(opt,rrhf)
 ----------------------------------------------------------------------
 -----
 title
 -----
 Symbolic Z-matrix:
 Charge =  0 Multiplicity = 1

 SCF Done:  E(RHF) =  -476.205255202     A.U. after   16 cycles
 Normal termination of Gaussian 16 at Tue Apr  8 23:21:59 2025.
 Gaussian 16:  ES64L-G16RevC.01  3-Jul-2019

 ----------------------------------------------------------------------
 #t hf aug-cc-pvdz iop(5/13=1,5/36=2,99/5=2) pseudo=read geom=check gue
 ss=(read,tcheck) scf=(maxcycle=1)
 ----------------------------------------------------------------------
 -----
 title
 -----
 Structure from the checkpoint file:  "BDE49_nonexpt_1167_mol1.chk"
 Charge =  0 Multiplicity = 1

                         Standard orientation:
 ---------------------------------------------------------------------
 Center     Atomic      Atomic             Coordinates (Angstroms)
 Number     Number       Type             X           Y           Z
 ---------------------------------------------------------------------
      1          9           0        2.394567    0.261294    0.720982
      2          8           0        1.842077   -0.211040   -0.539551
      3          8           0        0.668368   -0.850018   -0.215599
      4          6           0       -0.396168    0.075362   -0.160082
      5          8           0       -0.311543    1.243033   -0.349754
      6          8           0       -1.449334   -0.664428    0.136854
      7          6           0       -2.695984    0.063750    0.237254
      8          1           0       -2.926953    0.542626   -0.714230
      9          1           0       -2.625918    0.816758    1.022008
     10          1           0       -3.441858   -0.686088    0.484757
 ---------------------------------------------------------------------

 SCF Done:  E(RHF) =  -478.087718056     A.U. after    2 cycles

 The electronic state is 1-A.
 Alpha  occ. eigenvalues --  -29.31627 -21.22928 -21.18062 -21.13603 -21.09193
 Alpha  occ. eigenvalues --  -11.57853 -11.44815  -2.10519  -1.87400  -1.71877
 Alpha  occ. eigenvalues --   -1.49954  -1.05211  -0.82696  -0.74485  -0.72805
 Alpha  occ. eigenvalues --   -0.67473  -0.65063  -0.60214  -0.58954  -0.54289
 Alpha  occ. eigenvalues --   -0.48739  -0.45326  -0.43319  -0.36431  -0.33886
 Alpha  occ. eigenvalues --   -0.33323  -0.27180  -0.23707
 Alpha virt. eigenvalues --    0.03094   0.05436   0.05823   0.08745   0.10977
 Alpha virt. eigenvalues --    0.12193   0.13046   0.13627   0.15010   0.15109
 Alpha virt. eigenvalues --    0.16782   0.17706   0.18870   0.20533   0.21253

 Mulliken charges:
               1
     1  F   -0.103527
     2  O   -0.035981
     3  O   -1.456221
     4  C    6.140361
     5  O   -2.471706
     6  O   -2.948476
     7  C   -3.023250
     8  H    1.272621
     9  H    1.271743
    10  H    1.354435
 Sum of Mulliken charges =  -0.00000

 Dipole moment (field-independent basis, Debye):
    X=             -1.2840    Y=             -0.0277    Z=              1.3593  Tot=              1.8701

 Test job not archived.
 1\1\GINC-SE328\SP\RHF\Aug-CC-pVDZ\C2H3F1O4\OHZDE\08-Apr-2025\0\\#t hf
 aug-cc-pvdz iop(5/13=1,5/36=2,99/5=2) pseudo=read geom=check guess=(re
 ad,tcheck) scf=(maxcycle=1)\\title\\0,1\F,0,2.394567,0.261294,0.720982
 \O,0,1.842077,-0.21104,-0.539551\O,0,0.668368,-0.850018,-0.215599\C,0,
 -0.396168,0.075362,-0.160082\O,0,-0.311543,1.243033,-0.349754\O,0,-1.4
 49334,-0.664428,0.136854\C,0,-2.695984,0.06375,0.237254\H,0,-2.926953,
 0.542626,-0.71423\H,0,-2.625918,0.816758,1.022008\H,0,-3.441858,-0.686
 088,0.484757\\Version=ES64L-G16RevC.01\State=1-A\HF=-478.0877181\RMSD=

 Normal termination of Gaussian 16 at Tue Apr  8 23:22:02 2025.
