 Gaussian 16, Revision C.01,

 ----------------------------------------------------------------------
 #t hf aug-cc-pvdz symm=none int=(grid=ultrafine) guess=(read,tcheck) s
 table=(opt,rrhf)
 ----------------------------------------------------------------------
 -----
 title
 -----
 Symbolic Z-matrix:
 Charge =  0 Multiplicity = 1

 SCF Done:  E(RHF) =  -535.739457697     A.U. after   12 cycles

 1\1\GINC-SE186\Stability\RHF\Aug-CC-pVDZ\C2H1Cl1\OHZDE\08-Apr-2025\0\\
 #t hf aug-cc-pvdz symm=none int=(grid=ultrafine) guess=(read,tcheck) s
 table=(opt,rrhf)\\title\\0,1\C,0,0.,0.617259,0.\Cl,0,-0.021855,-1.0281
 32,0.\C,0,0.043928,1.816389,0.\H,0,0.107957,2.876366,0.\\Version=ES64L
 -G16RevC.01\HF=-535.7394577\RMSD=5.902e-09\Dipole=0.0268354,0.2463097,
 0.\Quadrupole=-1.926237,3.8633304,-1.9370935,0.2490388,0.,0.\PG=Unknow
 n\\@
 The archive entry for this job was punched.

 Normal termination of Gaussian 16 at Tue Apr  8 22:48:28 2025.
 Gaussian 16:  ES64L-G16RevC.01  3-Jul-2019

 ----------------------------------------------------------------------
 #t hf aug-cc-pvdz iop(5/13=1,5/36=2,99/5=2) pseudo=read geom=check gue
 ss=(read,tcheck) scf=(maxcycle=1)
 ----------------------------------------------------------------------
 -----
 title
 -----
 Structure from the checkpoint file:  "BDE49_expt_1621_mol1.chk"
 Charge =  0 Multiplicity = 1

                         Standard orientation:
 ---------------------------------------------------------------------
 Center     Atomic      Atomic             Coordinates (Angstroms)
 Number     Number       Type             X           Y           Z
 ---------------------------------------------------------------------
      1          6           0       -0.000000    0.617259   -0.000000
      2         17           0       -0.021854   -1.028132    0.000000
      3          6           0        0.043927    1.816389   -0.000000
      4          1           0        0.107956    2.876366   -0.000000
 ---------------------------------------------------------------------

 SCF Done:  E(RHF) =  -536.339561898     A.U. after    2 cycles

 The electronic state is 1-A'.
 Alpha  occ. eigenvalues --  -99.94765 -11.45072 -11.41668 -10.52158  -9.72177
 Alpha  occ. eigenvalues --   -9.71005  -9.71005  -1.39385  -1.08741  -0.80121
 Alpha  occ. eigenvalues --   -0.68185  -0.59902  -0.59901  -0.39014  -0.39014
 Alpha virt. eigenvalues --    0.02922   0.06380   0.07997   0.10743   0.10753
 Alpha virt. eigenvalues --    0.12767   0.13158   0.13159   0.14449   0.17213
 Alpha virt. eigenvalues --    0.17219   0.20446   0.22724   0.22775   0.23506

 Mulliken charges:
               1
     1  C   -0.830592
     2  Cl  -0.030611
     3  C   -0.343893
     4  H    1.205097
 Sum of Mulliken charges =   0.00000

 Dipole moment (field-independent basis, Debye):
    X=              0.0893    Y=              1.1615    Z=             -0.0000  Tot=              1.1649

 Test job not archived.
 1\1\GINC-SE186\SP\RHF\Aug-CC-pVDZ\C2H1Cl1\OHZDE\08-Apr-2025\0\\#t hf a
 ug-cc-pvdz iop(5/13=1,5/36=2,99/5=2) pseudo=read geom=check guess=(rea
 d,tcheck) scf=(maxcycle=1)\\title\\0,1\C,0,0.,0.617259,0.\Cl,0,-0.0218
 55,-1.028132,0.\C,0,0.043928,1.816389,0.\H,0,0.107957,2.876366,0.\\Ver
 sion=ES64L-G16RevC.01\State=1-A'\HF=-536.3395619\RMSD=5.504e-01\Dipole
 =0.0351498,0.4569673,0.\Quadrupole=-2.4324269,4.8766529,-2.4442261,0.2
 8055,0.,0.\PG=CS [SG(C2H1Cl1)]\\@

 Normal termination of Gaussian 16 at Tue Apr  8 22:48:30 2025.
