 Gaussian 16, Revision C.01,

 ----------------------------------------------------------------------
 #t hf aug-cc-pvdz symm=none int=(grid=ultrafine) guess=(read,tcheck) s
 table=(opt,rrhf)
 ----------------------------------------------------------------------
 -----
 title
 -----
 Symbolic Z-matrix:
 Charge =  0 Multiplicity = 1

 SCF Done:  E(RHF) =  -1100.30603753     A.U. after   17 cycles
 Normal termination of Gaussian 16 at Tue Apr  8 22:58:05 2025.
 Gaussian 16:  ES64L-G16RevC.01  3-Jul-2019

 ----------------------------------------------------------------------
 #t hf aug-cc-pvdz iop(5/13=1,5/36=2,99/5=2) pseudo=read geom=check gue
 ss=(read,tcheck) scf=(maxcycle=1)
 ----------------------------------------------------------------------
 -----
 title
 -----
 Structure from the checkpoint file:  "BDE49_expt_1589_mol1.chk"
 Charge =  0 Multiplicity = 1

                         Standard orientation:
 ---------------------------------------------------------------------
 Center     Atomic      Atomic             Coordinates (Angstroms)
 Number     Number       Type             X           Y           Z
 ---------------------------------------------------------------------
      1          6           0        2.790224   -1.266009   -0.411421
      2          6           0        1.435231   -1.545018   -0.385220
      3          6           0        3.229152    0.002023   -0.034817
      4          6           0        2.331740    0.988384    0.356651
      5          6           0        0.972301    0.706939    0.370722
      6          6           0        0.503355   -0.564914    0.007174
      7          1           0        1.087619   -2.533166   -0.662889
      8          1           0        3.514092   -2.011726   -0.709045
      9          7           0        4.667344    0.303390   -0.054665
     10          1           0        2.705919    1.963733    0.635313
     11          1           0        0.284207    1.490573    0.652740
     12         16           0       -1.193936   -1.058439   -0.015973
     13          6           0       -2.116525    0.302531    0.905613
     14          6           0       -3.366809   -0.308594    1.468899
     15          6           0       -2.410761    1.526972    0.090464
     16          1           0       -1.454890    0.561787    1.731425
     17          6           0       -3.276149    1.606044   -0.941081
     18          6           0       -4.451601   -0.666539    0.752031
     19          6           0       -4.705272   -0.419699   -0.646487
     20          6           0       -4.188592    0.588937   -1.395595
     21          1           0       -3.356994   -0.515437    2.534188
     22          1           0       -5.236916   -1.198156    1.283250
     23          1           0       -1.850640    2.420200    0.351893
     24          1           0       -3.300206    2.541737   -1.493438
     25          1           0       -5.466658   -1.042327   -1.106845
     26          1           0       -4.571757    0.706684   -2.404816
     27          8           0        5.430901   -0.588096   -0.407271
     28          8           0        5.019103    1.428226    0.282876
 ---------------------------------------------------------------------

 SCF Done:  E(RHF) =  -1103.77156650     A.U. after    2 cycles

 The electronic state is 1-A.
 Alpha  occ. eigenvalues --  -75.70434 -21.08865 -21.08745 -15.99559 -13.19724
 Alpha  occ. eigenvalues --  -13.15765 -13.06511 -11.54755 -11.49910 -11.49763
 Alpha  occ. eigenvalues --  -11.48172 -11.47097 -11.46833 -11.45249 -11.45015
 Alpha  occ. eigenvalues --  -11.44186 -11.42507 -11.41963 -11.40255 -11.38744
 Alpha  occ. eigenvalues --   -8.04501  -1.99168  -1.68440  -1.39752  -1.34279
 Alpha  occ. eigenvalues --   -1.22647  -1.16903  -1.15606  -1.12830  -1.08424
 Alpha  occ. eigenvalues --   -0.98413  -0.93847  -0.92854  -0.90607  -0.82572
 Alpha  occ. eigenvalues --   -0.75593  -0.74081  -0.73142  -0.72848  -0.67177
 Alpha  occ. eigenvalues --   -0.66926  -0.64966  -0.64348  -0.63758  -0.61555
 Alpha  occ. eigenvalues --   -0.60620  -0.57836  -0.54291  -0.53259  -0.52393
 Alpha  occ. eigenvalues --   -0.51561  -0.49597  -0.48046  -0.47486  -0.42731
 Alpha  occ. eigenvalues --   -0.39737  -0.39050  -0.36652  -0.36321  -0.35390
 Alpha  occ. eigenvalues --   -0.30893  -0.30686  -0.28021  -0.23196
 Alpha virt. eigenvalues --    0.02544   0.03850   0.04494   0.04834   0.05133
 Alpha virt. eigenvalues --    0.05232   0.05823   0.06374   0.07038   0.07218
 Alpha virt. eigenvalues --    0.07586   0.08193   0.08658   0.09275   0.10038

 Mulliken charges:
               1
     1  C   -2.179682
     2  C   -2.379092
     3  C    1.496410
     4  C   -3.727428
     5  C    0.757949
     6  C    0.289253
     7  H    1.900710
     8  H    1.894440
     9  N    3.290495
    10  H    1.805641
    11  H    2.519987
    12  S    0.383270
    13  C    0.953549
    14  C   -2.691672
    15  C   -2.733945
    16  H    1.374296
    17  C   -1.941090
    18  C   -0.736237
    19  C   -1.966696
    20  C   -0.740948
    21  H    1.318113
    22  H    1.405840
    23  H    1.480135
    24  H    1.432261
    25  H    1.361686
    26  H    1.427978
    27  O   -3.021750
    28  O   -2.973472
 Sum of Mulliken charges =  -0.00000

 Dipole moment (field-independent basis, Debye):
    X=             -5.5002    Y=             -1.2619    Z=             -0.1483  Tot=              5.6450

 Test job not archived.
 1\1\GINC-SE043\SP\RHF\Aug-CC-pVDZ\C13H11N1O2S1\OHZDE\08-Apr-2025\0\\#t
  hf aug-cc-pvdz iop(5/13=1,5/36=2,99/5=2) pseudo=read geom=check guess
 =(read,tcheck) scf=(maxcycle=1)\\title\\0,1\C,0,-2.790224,-1.266009,0.
 411421\C,0,-1.435231,-1.545018,0.38522\C,0,-3.229152,0.002023,0.034817
 \C,0,-2.33174,0.988384,-0.356651\C,0,-0.972301,0.706939,-0.370722\C,0,
 -0.503355,-0.564914,-0.007174\H,0,-1.087619,-2.533166,0.662889\H,0,-3.
 514092,-2.011726,0.709045\N,0,-4.667344,0.30339,0.054665\H,0,-2.705919
 ,1.963733,-0.635313\H,0,-0.284207,1.490573,-0.65274\S,0,1.193936,-1.05

 Normal termination of Gaussian 16 at Tue Apr  8 22:58:41 2025.
