 Gaussian 16, Revision C.01,

 ----------------------------------------------------------------------
 #t hf aug-cc-pvdz symm=none int=(grid=ultrafine) guess=(read,tcheck) s
 table=(opt,rrhf)
 ----------------------------------------------------------------------
 -----
 title
 -----
 Symbolic Z-matrix:
 Charge =  0 Multiplicity = 1

 SCF Done:  E(RHF) =  -433.628873563     A.U. after   13 cycles
 Normal termination of Gaussian 16 at Wed Apr  9 00:45:45 2025.
 Gaussian 16:  ES64L-G16RevC.01  3-Jul-2019

 ----------------------------------------------------------------------
 #t hf aug-cc-pvdz iop(5/13=1,5/36=2,99/5=2) pseudo=read geom=check gue
 ss=(read,tcheck) scf=(maxcycle=1)
 ----------------------------------------------------------------------
 -----
 title
 -----
 Structure from the checkpoint file:  "BDE49_nonexpt_780_mol1.chk"
 Charge =  0 Multiplicity = 1

                         Standard orientation:
 ---------------------------------------------------------------------
 Center     Atomic      Atomic             Coordinates (Angstroms)
 Number     Number       Type             X           Y           Z
 ---------------------------------------------------------------------
      1          5           0       -1.461824   -0.000522   -1.493980
      2         14           0       -0.025780   -0.000011   -0.071968
      3          6           0       -0.944310   -0.000352    1.590822
      4          1           0       -1.577264   -0.885082    1.704170
      5          1           0       -1.577913    0.883915    1.704174
      6          6           0        1.066184    1.540743   -0.163567
      7          1           0       -0.222694   -0.000089    2.414698
      8          1           0        1.801082    1.551647    0.647903
      9          1           0        1.617331    1.586098   -1.107893
     10          1           0        0.467851    2.453381   -0.086560
     11          6           0        1.067307   -1.539966   -0.163578
     12          1           0        0.469640   -2.453042   -0.086587
     13          1           0        1.802210   -1.550344    0.647895
     14          1           0        1.618492   -1.584906   -1.107902
     15          1           0       -1.932284    1.013395   -1.917215
     16          1           0       -1.931500   -1.014770   -1.917293
 ---------------------------------------------------------------------

 SCF Done:  E(RHF) =  -434.548632424     A.U. after    2 cycles

 The electronic state is 1-A.
 Alpha  occ. eigenvalues --  -76.17458 -11.34094 -11.33875 -11.33794  -7.60762
 Alpha  occ. eigenvalues --   -5.51588  -2.15124  -2.15099  -2.14177  -1.07521
 Alpha  occ. eigenvalues --   -1.00087  -0.99981  -0.83731  -0.62792  -0.56411
 Alpha  occ. eigenvalues --   -0.55813  -0.55575  -0.53950  -0.53917  -0.52723
 Alpha  occ. eigenvalues --   -0.47623  -0.38772  -0.38164  -0.33756
 Alpha virt. eigenvalues --    0.02555   0.03039   0.03801   0.04130   0.06427
 Alpha virt. eigenvalues --    0.06495   0.06600   0.06791   0.07656   0.07783
 Alpha virt. eigenvalues --    0.08266   0.09103   0.09939   0.10137   0.11588

 Mulliken charges:
               1
     1  B    2.742359
     2  Si   8.433216
     3  C   -5.649226
     4  H    1.263214
     5  H    1.263224
     6  C   -5.729068
     7  H    1.099741
     8  H    1.141320
     9  H    1.191475
    10  H    1.195721
    11  C   -5.729083
    12  H    1.195715
    13  H    1.141320
    14  H    1.191472
    15  H   -2.375665
    16  H   -2.375733
 Sum of Mulliken charges =   0.00000

 Dipole moment (field-independent basis, Debye):
    X=              0.3180    Y=              0.0001    Z=              0.2527  Tot=              0.4061

 Test job not archived.
 1\1\GINC-SE184\SP\RHF\Aug-CC-pVDZ\C3H11B1Si1\OHZDE\09-Apr-2025\0\\#t h
 f aug-cc-pvdz iop(5/13=1,5/36=2,99/5=2) pseudo=read geom=check guess=(
 read,tcheck) scf=(maxcycle=1)\\title\\0,1\B,0,-1.461824,-0.00053,-1.49
 398\Si,0,-0.02578,-0.000011,-0.071968\C,0,-0.94431,-0.000357,1.590822\
 H,0,-1.577259,-0.885091,1.70417\H,0,-1.577918,0.883906,1.704174\C,0,1.
 066175,1.540749,-0.163567\H,0,-0.222694,-0.00009,2.414698\H,0,1.801073
 ,1.551657,0.647903\H,0,1.617322,1.586107,-1.107893\H,0,0.467837,2.4533
 84,-0.08656\C,0,1.067316,-1.53996,-0.163578\H,0,0.469654,-2.453039,-0.

 Normal termination of Gaussian 16 at Wed Apr  9 00:45:50 2025.
