 Gaussian 16, Revision C.01,

 ----------------------------------------------------------------------
 #t hf aug-cc-pvdz symm=none int=(grid=ultrafine) guess=(read,tcheck) s
 table=(opt,rrhf)
 ----------------------------------------------------------------------
 -----
 title
 -----
 Symbolic Z-matrix:
 Charge =  0 Multiplicity = 1

 SCF Done:  E(RHF) =  -668.492286408     A.U. after   14 cycles
 Normal termination of Gaussian 16 at Wed Apr  9 00:24:47 2025.
 Gaussian 16:  ES64L-G16RevC.01  3-Jul-2019

 ----------------------------------------------------------------------
 #t hf aug-cc-pvdz iop(5/13=1,5/36=2,99/5=2) pseudo=read geom=check gue
 ss=(read,tcheck) scf=(maxcycle=1)
 ----------------------------------------------------------------------
 -----
 title
 -----
 Structure from the checkpoint file:  "BDE49_nonexpt_2708_mol1.chk"
 Charge =  0 Multiplicity = 1

                         Standard orientation:
 ---------------------------------------------------------------------
 Center     Atomic      Atomic             Coordinates (Angstroms)
 Number     Number       Type             X           Y           Z
 ---------------------------------------------------------------------
      1          9           0       -2.489268   -0.687365    0.000147
      2          7           0       -0.008315   -0.478613   -0.000003
      3          6           0        1.617928    1.353949    0.000030
      4          6           0        1.214062   -0.099037    0.000016
      5          6           0        2.289615   -1.150547    0.000018
      6         16           0       -1.318317    0.495913   -0.000115
      7          1           0        1.204848    1.858483    0.882455
      8          1           0        1.204837    1.858490   -0.882385
      9          1           0        2.699653    1.490377    0.000027
     10          1           0        1.848597   -2.146245   -0.000001
     11          1           0        2.933544   -1.042674    0.880228
     12          1           0        2.933579   -1.042654   -0.880164
 ---------------------------------------------------------------------

 SCF Done:  E(RHF) =  -669.893552206     A.U. after    2 cycles

 The electronic state is 1-A.
 Alpha  occ. eigenvalues --  -75.77125 -29.26009 -15.76055 -13.26777 -13.20883
 Alpha  occ. eigenvalues --  -13.08410 -11.47588 -11.40547 -11.38875  -8.11305
 Alpha  occ. eigenvalues --   -1.45660  -1.21665  -1.06428  -1.04128  -0.77455
 Alpha  occ. eigenvalues --   -0.68461  -0.63705  -0.62954  -0.58593  -0.56729
 Alpha  occ. eigenvalues --   -0.53546  -0.51608  -0.49047  -0.37051  -0.36654
 Alpha  occ. eigenvalues --   -0.32254  -0.28455  -0.16580
 Alpha virt. eigenvalues --    0.02353   0.04808   0.05636   0.05786   0.06609
 Alpha virt. eigenvalues --    0.06838   0.08505   0.09565   0.10835   0.12573
 Alpha virt. eigenvalues --    0.13670   0.14092   0.14105   0.14529   0.15512

 Mulliken charges:
               1
     1  F   -0.387304
     2  N   -3.129259
     3  C   -3.807713
     4  C    2.255162
     5  C   -3.816186
     6  S    1.064886
     7  H    1.284300
     8  H    1.284309
     9  H    1.454458
    10  H    1.357517
    11  H    1.219910
    12  H    1.219920
 Sum of Mulliken charges =   0.00000

 Dipole moment (field-independent basis, Debye):
    X=             -0.5279    Y=             -0.2557    Z=              0.0002  Tot=              0.5866

 Test job not archived.
 1\1\GINC-SE366\SP\RHF\Aug-CC-pVDZ\C3H6F1N1S1\OHZDE\09-Apr-2025\0\\#t h
 f aug-cc-pvdz iop(5/13=1,5/36=2,99/5=2) pseudo=read geom=check guess=(
 read,tcheck) scf=(maxcycle=1)\\title\\0,1\F,0,2.489268,-0.687365,-0.00
 0147\N,0,0.008315,-0.478613,0.000003\C,0,-1.617928,1.353949,-0.00003\C
 ,0,-1.214062,-0.099037,-0.000016\C,0,-2.289615,-1.150547,-0.000018\S,0
 ,1.318317,0.495913,0.000115\H,0,-1.204848,1.858483,-0.882455\H,0,-1.20
 4837,1.85849,0.882385\H,0,-2.699653,1.490377,-0.000027\H,0,-1.848597,-
 2.146245,0.000001\H,0,-2.933544,-1.042674,-0.880228\H,0,-2.933579,-1.0

 Normal termination of Gaussian 16 at Wed Apr  9 00:24:50 2025.
