 Gaussian 16, Revision C.01,

 ----------------------------------------------------------------------
 #t hf aug-cc-pvdz symm=none int=(grid=ultrafine) guess=(read,tcheck) s
 table=(opt,rrhf)
 ----------------------------------------------------------------------
 -----
 title
 -----
 Symbolic Z-matrix:
 Charge =  0 Multiplicity = 1

 SCF Done:  E(RHF) =  -394.572621922     A.U. after   12 cycles
 Normal termination of Gaussian 16 at Wed Apr  9 00:47:03 2025.
 Gaussian 16:  ES64L-G16RevC.01  3-Jul-2019

 ----------------------------------------------------------------------
 #t hf aug-cc-pvdz iop(5/13=1,5/36=2,99/5=2) pseudo=read geom=check gue
 ss=(read,tcheck) scf=(maxcycle=1)
 ----------------------------------------------------------------------
 -----
 title
 -----
 Structure from the checkpoint file:  "BDE49_nonexpt_815_mol1.chk"
 Charge =  0 Multiplicity = 1

                         Standard orientation:
 ---------------------------------------------------------------------
 Center     Atomic      Atomic             Coordinates (Angstroms)
 Number     Number       Type             X           Y           Z
 ---------------------------------------------------------------------
      1          6           0       -1.211545    0.445130   -0.136937
      2          5           0       -0.005837   -0.540144   -0.135292
      3         14           0        1.926844    0.038927    0.048556
      4          6           0       -2.616290   -0.113544    0.138297
      5          1           0       -1.162600    0.820292   -1.181734
      6          1           0       -1.019056    1.347251    0.456714
      7          1           0       -2.834865   -0.967090   -0.508717
      8          1           0       -3.393290    0.639245   -0.022404
      9          1           0       -2.703736   -0.458247    1.172400
     10          1           0       -0.211564   -1.710049   -0.295611
     11          1           0        2.124638    1.511572    0.024612
     12          1           0        2.781931   -0.556348   -1.011715
     13          1           0        2.438915   -0.460398    1.354967
 ---------------------------------------------------------------------

 SCF Done:  E(RHF) =  -395.274791541     A.U. after    2 cycles

 The electronic state is 1-A.
 Alpha  occ. eigenvalues --  -76.19662 -11.39006 -11.33885  -7.60725  -5.53202
 Alpha  occ. eigenvalues --   -2.15981  -2.15220  -2.15175  -1.17377  -0.93577
 Alpha  occ. eigenvalues --   -0.79887  -0.69666  -0.60318  -0.56058  -0.51604
 Alpha  occ. eigenvalues --   -0.48537  -0.46207  -0.46085  -0.41825  -0.34210
 Alpha virt. eigenvalues --    0.03206   0.03906   0.03977   0.04245   0.06395
 Alpha virt. eigenvalues --    0.06743   0.07414   0.07663   0.08640   0.08848
 Alpha virt. eigenvalues --    0.09052   0.09558   0.10032   0.11363   0.11908

 Mulliken charges:
               1
     1  C   -4.522984
     2  B    2.369171
     3  Si   6.430096
     4  C   -3.613279
     5  H    1.474426
     6  H    1.573322
     7  H    1.286415
     8  H    1.151317
     9  H    1.229910
    10  H   -2.357069
    11  H   -1.686742
    12  H   -1.685714
    13  H   -1.648868
 Sum of Mulliken charges =  -0.00000

 Dipole moment (field-independent basis, Debye):
    X=             -1.3620    Y=              0.3177    Z=             -0.2112  Tot=              1.4144

 Test job not archived.
 1\1\GINC-SE247\SP\RHF\Aug-CC-pVDZ\C2H9B1Si1\OHZDE\09-Apr-2025\0\\#t hf
  aug-cc-pvdz iop(5/13=1,5/36=2,99/5=2) pseudo=read geom=check guess=(r
 ead,tcheck) scf=(maxcycle=1)\\title\\0,1\C,0,-1.211545,0.44513,-0.1369
 37\B,0,-0.005837,-0.540144,-0.135292\Si,0,1.926844,0.038927,0.048556\C
 ,0,-2.61629,-0.113544,0.138297\H,0,-1.1626,0.820292,-1.181734\H,0,-1.0
 19056,1.347251,0.456714\H,0,-2.834865,-0.96709,-0.508717\H,0,-3.39329,
 0.639245,-0.022404\H,0,-2.703736,-0.458247,1.1724\H,0,-0.211564,-1.710
 049,-0.295611\H,0,2.124638,1.511572,0.024612\H,0,2.781931,-0.556348,-1

 Normal termination of Gaussian 16 at Wed Apr  9 00:47:06 2025.
