 Gaussian 16, Revision C.01,

 ----------------------------------------------------------------------
 #t hf aug-cc-pvdz symm=none int=(grid=ultrafine) guess=(read,tcheck) s
 table=(opt,rrhf)
 ----------------------------------------------------------------------
 -----
 title
 -----
 Symbolic Z-matrix:
 Charge =  0 Multiplicity = 1

 SCF Done:  E(RHF) =  -2624.99865140     A.U. after   12 cycles
 Normal termination of Gaussian 16 at Tue Apr  8 23:49:25 2025.
 Gaussian 16:  ES64L-G16RevC.01  3-Jul-2019

 ----------------------------------------------------------------------
 #t hf aug-cc-pvdz iop(5/13=1,5/36=2,99/5=2) pseudo=read geom=check gue
 ss=(read,tcheck) scf=(maxcycle=1)
 ----------------------------------------------------------------------
 -----
 title
 -----
 Structure from the checkpoint file:  "BDE49_nonexpt_1817_mol1.chk"
 Charge =  0 Multiplicity = 1

                         Standard orientation:
 ---------------------------------------------------------------------
 Center     Atomic      Atomic             Coordinates (Angstroms)
 Number     Number       Type             X           Y           Z
 ---------------------------------------------------------------------
      1         14           0        0.793565    0.801277   -0.000000
      2          6           0       -0.181002   -0.850640    0.000000
      3         17           0        0.307552    1.873959    1.677513
      4         17           0        0.307552    1.873959   -1.677513
      5         17           0       -1.950611   -0.590374    0.000000
      6         17           0        0.307552   -1.772835    1.467541
      7         17           0        0.307552   -1.772835   -1.467541
      8          1           0        2.222941    0.484107   -0.000000
 ---------------------------------------------------------------------

 SCF Done:  E(RHF) =  -2626.55592716     A.U. after    2 cycles

 The electronic state is 1-A'.
 Alpha  occ. eigenvalues --  -99.92933 -99.92923 -99.92784 -99.91350 -99.91350
 Alpha  occ. eigenvalues --  -76.33399 -11.54306 -10.50434 -10.50079 -10.50003
 Alpha  occ. eigenvalues --  -10.48866 -10.48808  -9.70130  -9.70075  -9.69945
 Alpha  occ. eigenvalues --   -9.69393  -9.69388  -9.69302  -9.69253  -9.69165
 Alpha  occ. eigenvalues --   -9.69115  -9.68716  -9.68688  -9.68112  -9.68056
 Alpha  occ. eigenvalues --   -9.68054  -9.67949  -5.67036  -2.29764  -2.29560
 Alpha  occ. eigenvalues --   -2.28649  -1.45959  -1.33301  -1.31769  -1.31657
 Alpha  occ. eigenvalues --   -1.30683  -0.99590  -0.82259  -0.71510  -0.71489
 Alpha  occ. eigenvalues --   -0.68171  -0.61387  -0.61383  -0.57336  -0.57235
 Alpha  occ. eigenvalues --   -0.56666  -0.55780  -0.53849  -0.52836  -0.52337
 Alpha  occ. eigenvalues --   -0.51768  -0.51002  -0.45781
 Alpha virt. eigenvalues --   -0.01227   0.03724   0.04336   0.05136   0.05858
 Alpha virt. eigenvalues --    0.06121   0.06433   0.08076   0.09929   0.10739
 Alpha virt. eigenvalues --    0.10755   0.11680   0.12063   0.12537   0.13062

 Mulliken charges:
               1
     1  Si   4.821656
     2  C   -1.804631
     3  Cl  -0.819522
     4  Cl  -0.819522
     5  Cl   0.208795
     6  Cl   0.183041
     7  Cl   0.183041
     8  H   -1.952859
 Sum of Mulliken charges =  -0.00000

 Dipole moment (field-independent basis, Debye):
    X=              0.7492    Y=              0.1372    Z=              0.0000  Tot=              0.7616

 Test job not archived.
 1\1\GINC-SE250\SP\RHF\Aug-CC-pVDZ\C1H1Cl5Si1\OHZDE\08-Apr-2025\0\\#t h
 f aug-cc-pvdz iop(5/13=1,5/36=2,99/5=2) pseudo=read geom=check guess=(
 read,tcheck) scf=(maxcycle=1)\\title\\0,1\Si,0,0.793565,0.801277,0.\C,
 0,-0.181002,-0.85064,0.\Cl,0,0.307552,1.873959,1.677513\Cl,0,0.307552,
 1.873959,-1.677513\Cl,0,-1.950611,-0.590374,0.\Cl,0,0.307552,-1.772835
 ,1.467541\Cl,0,0.307552,-1.772835,-1.467541\H,0,2.222941,0.484107,0.\\
 Version=ES64L-G16RevC.01\State=1-A'\HF=-2626.5559272\RMSD=5.336e-02\Di
 pole=0.2947397,0.0539971,0.\Quadrupole=0.6081069,-1.3448077,0.7367008,

 Normal termination of Gaussian 16 at Tue Apr  8 23:49:29 2025.
