 Gaussian 16, Revision C.01,

 ----------------------------------------------------------------------
 #t hf aug-cc-pvdz symm=none int=(grid=ultrafine) guess=(read,tcheck) s
 table=opt
 ----------------------------------------------------------------------
 -----
 title
 -----
 Symbolic Z-matrix:
 Charge =  0 Multiplicity = 2

 SCF Done:  E(UHF) =  -527.393641793     A.U. after   15 cycles
 Normal termination of Gaussian 16 at Tue Apr  8 23:55:20 2025.
 Gaussian 16:  ES64L-G16RevC.01  3-Jul-2019

 ----------------------------------------------------------------------
 #t hf aug-cc-pvdz iop(5/13=1,5/36=2,99/5=2) pseudo=read geom=check gue
 ss=(read,tcheck) scf=(maxcycle=1)
 ----------------------------------------------------------------------
 -----
 title
 -----
 Structure from the checkpoint file:  "BDE49_nonexpt_1976_mol2.chk"
 Charge =  0 Multiplicity = 2

                         Standard orientation:
 ---------------------------------------------------------------------
 Center     Atomic      Atomic             Coordinates (Angstroms)
 Number     Number       Type             X           Y           Z
 ---------------------------------------------------------------------
      1          6           0       -0.488682    0.019696    0.398913
      2         14           0        1.387163   -0.132343    0.002100
      3          9           0       -0.993610    1.151032   -0.213531
      4          1           0       -0.743569    0.086468    1.460517
      5          9           0       -1.163313   -1.061637   -0.123356
      6          1           0        2.109494    1.007881    0.617647
      7          1           0        1.558189   -0.164287   -1.469058
 ---------------------------------------------------------------------

 SCF Done:  E(UHF) =  -528.387155509     A.U. after    2 cycles

 The electronic state is 2-A.
 Alpha  occ. eigenvalues --  -76.25045 -29.28157 -29.28052 -11.48782  -5.58554
 Alpha  occ. eigenvalues --   -2.21956  -2.20605  -2.19694  -1.25710  -0.80105
 Alpha  occ. eigenvalues --   -0.78308  -0.72732  -0.57968  -0.49755  -0.44024
 Alpha  occ. eigenvalues --   -0.38267  -0.33513  -0.30265  -0.28434  -0.22335
 Alpha  occ. eigenvalues --   -0.20948
 Alpha virt. eigenvalues --    0.03881   0.04963   0.06687   0.07103   0.07582
 Alpha virt. eigenvalues --    0.09294   0.11638   0.13922   0.14201   0.15495
 Alpha virt. eigenvalues --    0.16352   0.17419   0.18669   0.21828   0.24119

  Beta  occ. eigenvalues --  -76.24474 -29.28170 -29.27911 -11.48733  -5.57656
  Beta  occ. eigenvalues --   -2.21222  -2.19943  -2.16065  -1.25399  -0.78121
  Beta  occ. eigenvalues --   -0.75936  -0.72578  -0.56992  -0.48983  -0.43898
  Beta  occ. eigenvalues --   -0.37942  -0.30399  -0.29965  -0.23490  -0.22090
  Beta virt. eigenvalues --    0.02785   0.04804   0.05156   0.06857   0.07580
  Beta virt. eigenvalues --    0.09449   0.09537   0.12045   0.14372   0.15464
  Beta virt. eigenvalues --    0.15837   0.18154   0.18898   0.21017   0.23003

 Mulliken charges and spin densities:
               1          2
     1  C   -2.672934   0.008111
     2  Si   3.787482   0.985851
     3  F    0.201073   0.021562
     4  H    1.414824  -0.003156
     5  F    0.236736  -0.020671
     6  H   -1.437391   0.002398
     7  H   -1.529789   0.005905
 Sum of Mulliken charges =   0.00000   1.00000

 Dipole moment (field-independent basis, Debye):
    X=             -1.6003    Y=             -0.1094    Z=             -0.8405  Tot=              1.8109
                          Isotropic Fermi Contact Couplings
        Atom                 a.u.       MegaHertz       Gauss      10(-4) cm-1
     1  C(13)              0.01296      14.57407       5.20039       4.86139
     2  Si(29)             0.44551    -395.94009    -141.28127    -132.07140
     3  F(19)              0.01406      59.15920      21.10947      19.73338
     4  H(1)              -0.00085      -3.78074      -1.34906      -1.26112
     5  F(19)             -0.00263     -11.04545      -3.94129      -3.68437
     6  H(1)               0.00511      22.86126       8.15747       7.62569
     7  H(1)               0.00508      22.69375       8.09769       7.56982
 --------------------------------------------------------

 Normal termination of Gaussian 16 at Tue Apr  8 23:55:22 2025.
