 Gaussian 16, Revision C.01,

 ----------------------------------------------------------------------
 #t hf aug-cc-pvdz symm=none int=(grid=ultrafine) guess=(read,tcheck) s
 table=(opt,rrhf)
 ----------------------------------------------------------------------
 -----
 title
 -----
 Symbolic Z-matrix:
 Charge =  0 Multiplicity = 1

 SCF Done:  E(RHF) =  -817.899798130     A.U. after   16 cycles
 Normal termination of Gaussian 16 at Tue Apr  8 23:38:34 2025.
 Gaussian 16:  ES64L-G16RevC.01  3-Jul-2019

 ----------------------------------------------------------------------
 #t hf aug-cc-pvdz iop(5/13=1,5/36=2,99/5=2) pseudo=read geom=check gue
 ss=(read,tcheck) scf=(maxcycle=1)
 ----------------------------------------------------------------------
 -----
 title
 -----
 Structure from the checkpoint file:  "BDE49_nonexpt_1479_mol1.chk"
 Charge =  0 Multiplicity = 1

                         Standard orientation:
 ---------------------------------------------------------------------
 Center     Atomic      Atomic             Coordinates (Angstroms)
 Number     Number       Type             X           Y           Z
 ---------------------------------------------------------------------
      1          6           0        2.525419   -0.579276    1.446443
      2          6           0        1.371453   -0.926229    0.751017
      3          6           0        3.405760    0.366129    0.918854
      4          6           0        3.128112    0.962248   -0.307787
      5          6           0        1.972730    0.612992   -1.006803
      6          6           0        1.081537   -0.332375   -0.486366
      7          1           0        0.688465   -1.658340    1.167385
      8          1           0        2.739858   -1.047777    2.400638
      9          1           0        3.810618    1.694424   -0.724811
     10          1           0        1.765898    1.072242   -1.967732
     11         15           0       -0.426805   -0.770019   -1.466391
     12          6           0       -1.752158   -0.625822   -0.099985
     13          8           0       -2.187553   -1.638745    0.423766
     14          7           0       -2.198021    0.628560    0.216922
     15          1           0        4.305071    0.633493    1.462372
     16          6           0       -1.680507    1.859282   -0.354878
     17          1           0       -1.119768    1.654275   -1.265650
     18          1           0       -1.025525    2.386151    0.348992
     19          1           0       -2.512397    2.521051   -0.615869
     20          6           0       -3.174639    0.782166    1.289623
     21          1           0       -3.474375   -0.206584    1.626916
     22          1           0       -4.051698    1.327549    0.926344
     23          1           0       -2.741275    1.338470    2.128610
     24          1           0       -0.362474   -2.169309   -1.300626
 ---------------------------------------------------------------------

 SCF Done:  E(RHF) =  -820.340388330     A.U. after    2 cycles

 The electronic state is 1-A.
 Alpha  occ. eigenvalues -- -105.18879 -21.02174 -15.74914 -11.52392 -11.47876
 Alpha  occ. eigenvalues --  -11.44118 -11.43909 -11.41895 -11.41353 -11.40915
 Alpha  occ. eigenvalues --  -11.39216 -11.37119  -2.76280  -1.70444  -1.51463
 Alpha  occ. eigenvalues --   -1.47943  -1.47324  -1.41904  -1.33276  -1.09904
 Alpha  occ. eigenvalues --   -1.08464  -1.05502  -0.98581  -0.87036  -0.85992
 Alpha  occ. eigenvalues --   -0.78363  -0.71901  -0.69447  -0.65472  -0.63630
 Alpha  occ. eigenvalues --   -0.61723  -0.59398  -0.58992  -0.57328  -0.55924
 Alpha  occ. eigenvalues --   -0.52485  -0.51475  -0.50955  -0.49232  -0.48344
 Alpha  occ. eigenvalues --   -0.45426  -0.38233  -0.34843  -0.33757  -0.29314
 Alpha  occ. eigenvalues --   -0.24640  -0.17989  -0.01769
 Alpha virt. eigenvalues --    0.03447   0.04812   0.04983   0.05174   0.05474
 Alpha virt. eigenvalues --    0.05934   0.06725   0.07129   0.07609   0.07720
 Alpha virt. eigenvalues --    0.08695   0.08951   0.09525   0.09920   0.10269

 Mulliken charges:
               1
     1  C   -0.769999
     2  C   -3.101254
     3  C   -2.439320
     4  C   -1.075913
     5  C   -4.410698
     6  C    2.732988
     7  H    1.957787
     8  H    1.516447
     9  H    1.558193
    10  H    2.011201
    11  P    2.392518
    12  C    4.292578
    13  O   -3.223786
    14  N   -3.722008
    15  H    1.484075
    16  C   -4.078733
    17  H    1.562671
    18  H    1.472726
    19  H    1.393539
    20  C   -3.688114
    21  H    1.473446
    22  H    1.439775
    23  H    1.480439
    24  H   -0.258558
 Sum of Mulliken charges =   0.00000

 Dipole moment (field-independent basis, Debye):
    X=              1.0890    Y=              2.4107    Z=              0.7708  Tot=              2.7553

 Test job not archived.
 1\1\GINC-SE331\SP\RHF\Aug-CC-pVDZ\C9H12N1O1P1\OHZDE\08-Apr-2025\0\\#t
 hf aug-cc-pvdz iop(5/13=1,5/36=2,99/5=2) pseudo=read geom=check guess=
 (read,tcheck) scf=(maxcycle=1)\\title\\0,1\C,0,-2.525419,0.579276,1.44
 6443\C,0,-1.371453,0.926229,0.751017\C,0,-3.40576,-0.366129,0.918854\C
 ,0,-3.128112,-0.962248,-0.307787\C,0,-1.97273,-0.612992,-1.006803\C,0,
 -1.081537,0.332375,-0.486366\H,0,-0.688465,1.65834,1.167385\H,0,-2.739
 858,1.047777,2.400638\H,0,-3.810618,-1.694424,-0.724811\H,0,-1.765898,
 -1.072242,-1.967732\P,0,0.426805,0.770019,-1.466391\C,0,1.752158,0.625

 Normal termination of Gaussian 16 at Tue Apr  8 23:38:50 2025.
