 Gaussian 16, Revision C.01,

 ----------------------------------------------------------------------
 #t hf aug-cc-pvdz symm=none int=(grid=ultrafine) guess=(read,tcheck) s
 table=(opt,rrhf)
 ----------------------------------------------------------------------
 -----
 title
 -----
 Symbolic Z-matrix:
 Charge =  0 Multiplicity = 1

 SCF Done:  E(RHF) =  -1073.01659761     A.U. after   14 cycles
 Normal termination of Gaussian 16 at Tue Apr  8 23:57:20 2025.
 Gaussian 16:  ES64L-G16RevC.01  3-Jul-2019

 ----------------------------------------------------------------------
 #t hf aug-cc-pvdz iop(5/13=1,5/36=2,99/5=2) pseudo=read geom=check gue
 ss=(read,tcheck) scf=(maxcycle=1)
 ----------------------------------------------------------------------
 -----
 title
 -----
 Structure from the checkpoint file:  "BDE49_nonexpt_203_mol1.chk"
 Charge =  0 Multiplicity = 1

                         Standard orientation:
 ---------------------------------------------------------------------
 Center     Atomic      Atomic             Coordinates (Angstroms)
 Number     Number       Type             X           Y           Z
 ---------------------------------------------------------------------
      1         17           0        0.846415    1.556836   -0.019489
      2         17           0        0.852129   -1.553803   -0.019494
      3          5           0        0.029228   -0.000013   -0.003443
      4          7           0       -1.350123   -0.002428    0.290178
      5          8           0       -2.446315   -0.004311   -0.168915
 ---------------------------------------------------------------------

 SCF Done:  E(RHF) =  -1074.11971353     A.U. after    2 cycles

 The electronic state is 1-A.
 Alpha  occ. eigenvalues --  -99.92483 -99.92471 -21.18459 -15.86774 -10.49833
 Alpha  occ. eigenvalues --  -10.49653  -9.69751  -9.69637  -9.69203  -9.69120
 Alpha  occ. eigenvalues --   -9.69021  -9.68966  -7.76162  -1.89781  -1.43940
 Alpha  occ. eigenvalues --   -1.32508  -1.13971  -0.78102  -0.68477  -0.67866
 Alpha  occ. eigenvalues --   -0.64479  -0.57680  -0.55050  -0.54022  -0.53804
 Alpha  occ. eigenvalues --   -0.52620  -0.29711
 Alpha virt. eigenvalues --    0.03302   0.04029   0.04110   0.04326   0.07582
 Alpha virt. eigenvalues --    0.07775   0.10032   0.13766   0.13805   0.15815
 Alpha virt. eigenvalues --    0.16182   0.16751   0.17083   0.17169   0.18902

 Mulliken charges:
               1
     1  Cl  -1.078729
     2  Cl  -1.078783
     3  B    3.264222
     4  N    0.805764
     5  O   -1.912473
 Sum of Mulliken charges =  -0.00000

 Dipole moment (field-independent basis, Debye):
    X=             -1.0029    Y=             -0.0021    Z=             -0.5934  Tot=              1.1653

 Test job not archived.
 1\1\GINC-SE070\SP\RHF\Aug-CC-pVDZ\B1Cl2N1O1\OHZDE\08-Apr-2025\0\\#t hf
  aug-cc-pvdz iop(5/13=1,5/36=2,99/5=2) pseudo=read geom=check guess=(r
 ead,tcheck) scf=(maxcycle=1)\\title\\0,1\Cl,0,-0.846424,-1.55683,-0.01
 9489\Cl,0,-0.852119,1.553809,-0.019494\B,0,-0.029228,0.000013,-0.00344
 3\N,0,1.350123,0.00242,0.290178\O,0,2.446315,0.004296,-0.168915\\Versi
 on=ES64L-G16RevC.01\State=1-A\HF=-1074.1197135\RMSD=6.424e-02\Dipole=0
 .3945525,0.0008092,-0.2334742\Quadrupole=0.4998619,0.7498025,-1.249664
 4,-0.0005899,-0.6916146,-0.0012225\PG=C01 [X(B1Cl2N1O1)]\\@

 Normal termination of Gaussian 16 at Tue Apr  8 23:57:22 2025.
