 Gaussian 16, Revision C.01,

 ----------------------------------------------------------------------
 #t hf aug-cc-pvdz symm=none int=(grid=ultrafine) guess=(read,tcheck) s
 table=(opt,rrhf)
 ----------------------------------------------------------------------
 -----
 title
 -----
 Symbolic Z-matrix:
 Charge =  0 Multiplicity = 1

 SCF Done:  E(RHF) =  -1530.58824242     A.U. after   13 cycles
 Normal termination of Gaussian 16 at Wed Apr  9 00:01:35 2025.
 Gaussian 16:  ES64L-G16RevC.01  3-Jul-2019

 ----------------------------------------------------------------------
 #t hf aug-cc-pvdz iop(5/13=1,5/36=2,99/5=2) pseudo=read geom=check gue
 ss=(read,tcheck) scf=(maxcycle=1)
 ----------------------------------------------------------------------
 -----
 title
 -----
 Structure from the checkpoint file:  "BDE49_nonexpt_213_mol1.chk"
 Charge =  0 Multiplicity = 1

                         Standard orientation:
 ---------------------------------------------------------------------
 Center     Atomic      Atomic             Coordinates (Angstroms)
 Number     Number       Type             X           Y           Z
 ---------------------------------------------------------------------
      1         17           0       -1.786808   -1.343566   -0.000025
      2         17           0       -1.404394    1.683639   -0.000003
      3          5           0       -0.773000    0.058332    0.000031
      4         16           0        1.104299   -0.265589    0.000010
      5          8           0        1.408302   -0.916081   -1.265542
      6          6           0        1.931013    1.330704    0.000016
      7          8           0        1.408329   -0.916105    1.265544
      8          1           0        1.666264    1.880640   -0.901630
      9          1           0        2.994970    1.088527    0.000003
     10          1           0        1.666281    1.880624    0.901677
 ---------------------------------------------------------------------

 SCF Done:  E(RHF) =  -1532.26666588     A.U. after    2 cycles

 The electronic state is 1-A.
 Alpha  occ. eigenvalues --  -99.94645 -99.93606 -75.88607 -21.05132 -21.05112
 Alpha  occ. eigenvalues --  -13.50590 -13.38991 -13.32416 -11.43262 -10.51924
 Alpha  occ. eigenvalues --  -10.50863  -9.71880  -9.71459  -9.71237  -9.70809
 Alpha  occ. eigenvalues --   -9.70392  -9.70187  -8.23665  -7.76712  -1.83324
 Alpha  occ. eigenvalues --   -1.65271  -1.44181  -1.33994  -1.16223  -0.97504
 Alpha  occ. eigenvalues --   -0.82070  -0.69667  -0.68467  -0.64125  -0.61576
 Alpha  occ. eigenvalues --   -0.61387  -0.57343  -0.56025  -0.54432  -0.52988
 Alpha  occ. eigenvalues --   -0.45472  -0.40325  -0.38574  -0.35841  -0.35061
 Alpha virt. eigenvalues --    0.01321   0.02067   0.02850   0.03475   0.04514
 Alpha virt. eigenvalues --    0.06944   0.07964   0.08209   0.09347   0.10978
 Alpha virt. eigenvalues --    0.12721   0.13436   0.14248   0.14767   0.15694

 Mulliken charges:
               1
     1  Cl  -1.186723
     2  Cl  -1.085702
     3  B    3.192029
     4  S    4.815716
     5  O   -2.483781
     6  C   -4.670902
     7  O   -2.483774
     8  H    1.256168
     9  H    1.390801
    10  H    1.256168
 Sum of Mulliken charges =  -0.00000

 Dipole moment (field-independent basis, Debye):
    X=              0.3571    Y=              1.5562    Z=              0.0000  Tot=              1.5967

 Test job not archived.
 1\1\GINC-SE458\SP\RHF\Aug-CC-pVDZ\C1H3B1Cl2O2S1\OHZDE\09-Apr-2025\0\\#
 t hf aug-cc-pvdz iop(5/13=1,5/36=2,99/5=2) pseudo=read geom=check gues
 s=(read,tcheck) scf=(maxcycle=1)\\title\\0,1\Cl,0,1.786808,-1.343566,0
 .000025\Cl,0,1.404394,1.683639,0.000003\B,0,0.773,0.058332,-0.000031\S
 ,0,-1.104299,-0.265589,-0.00001\O,0,-1.408302,-0.916081,1.265542\C,0,-
 1.931013,1.330704,-0.000016\O,0,-1.408329,-0.916105,-1.265544\H,0,-1.6
 66263,1.88064,0.90163\H,0,-2.99497,1.088528,-0.000003\H,0,-1.66628,1.8
 80624,-0.901677\\Version=ES64L-G16RevC.01\State=1-A\HF=-1532.2666659\R

 Normal termination of Gaussian 16 at Wed Apr  9 00:01:39 2025.
