 Gaussian 16, Revision C.01,

 ----------------------------------------------------------------------
 #t hf aug-cc-pvdz symm=none int=(grid=ultrafine) guess=(read,tcheck) s
 table=opt
 ----------------------------------------------------------------------
 -----
 title
 -----
 Symbolic Z-matrix:
 Charge =  0 Multiplicity = 2

 SCF Done:  E(UHF) =  -202.789556737     A.U. after   14 cycles
 Normal termination of Gaussian 16 at Wed Apr  9 00:32:25 2025.
 Gaussian 16:  ES64L-G16RevC.01  3-Jul-2019

 ----------------------------------------------------------------------
 #t hf aug-cc-pvdz iop(5/13=1,5/36=2,99/5=2) pseudo=read geom=check gue
 ss=(read,tcheck) scf=(maxcycle=1)
 ----------------------------------------------------------------------
 -----
 title
 -----
 Structure from the checkpoint file:  "BDE49_nonexpt_370_mol2.chk"
 Charge =  0 Multiplicity = 2

                         Standard orientation:
 ---------------------------------------------------------------------
 Center     Atomic      Atomic             Coordinates (Angstroms)
 Number     Number       Type             X           Y           Z
 ---------------------------------------------------------------------
      1          9           0        1.988394   -0.019690   -0.000001
      2          5           0        0.751754   -0.479357   -0.000001
      3          6           0       -0.495980    0.463668   -0.000001
      4          6           0       -1.872187   -0.214012    0.000002
      5          1           0       -0.384387    1.126551    0.872290
      6          1           0       -1.998241   -0.849572   -0.879955
      7          1           0       -2.680065    0.522103    0.000001
      8          1           0       -1.998239   -0.849569    0.879961
      9          1           0       -0.384389    1.126548   -0.872294
 ---------------------------------------------------------------------

 SCF Done:  E(UHF) =  -203.622910080     A.U. after    2 cycles

 The electronic state is 2-A.
 Alpha  occ. eigenvalues --  -29.25657 -11.39532 -11.34774  -7.66884  -1.19615
 Alpha  occ. eigenvalues --   -0.99056  -0.84779  -0.61932  -0.61651  -0.52159
 Alpha  occ. eigenvalues --   -0.49973  -0.49690  -0.46218  -0.40707  -0.36439
 Alpha  occ. eigenvalues --   -0.21169
 Alpha virt. eigenvalues --    0.03666   0.04041   0.04149   0.05596   0.06855
 Alpha virt. eigenvalues --    0.07565   0.08076   0.08702   0.12835   0.14696
 Alpha virt. eigenvalues --    0.14712   0.15053   0.15632   0.17376   0.17383

  Beta  occ. eigenvalues --  -29.25354 -11.39430 -11.34562  -7.65086  -1.18458
  Beta  occ. eigenvalues --   -0.97206  -0.82898  -0.61772  -0.60527  -0.50466
  Beta  occ. eigenvalues --   -0.49833  -0.48817  -0.40351  -0.40275  -0.33838
  Beta virt. eigenvalues --    0.02587   0.04152   0.04229   0.05624   0.06673
  Beta virt. eigenvalues --    0.07631   0.07769   0.08159   0.11805   0.13098
  Beta virt. eigenvalues --    0.14814   0.15699   0.16069   0.16349   0.18027

 Mulliken charges and spin densities:
               1          2
     1  F   -0.427494  -0.124989
     2  B    1.063492   1.145010
     3  C   -3.895484   0.102421
     4  C   -3.094496  -0.150414
     5  H    1.254370   0.024851
     6  H    1.346717  -0.007900
     7  H    1.151808  -0.005930
     8  H    1.346717  -0.007899
     9  H    1.254370   0.024851
 Sum of Mulliken charges =  -0.00000   1.00000

 Dipole moment (field-independent basis, Debye):
    X=              2.5740    Y=              1.6806    Z=             -0.0000  Tot=              3.0740
                          Isotropic Fermi Contact Couplings
        Atom                 a.u.       MegaHertz       Gauss      10(-4) cm-1
     1  F(19)              0.05975     251.39421      89.70371      83.85608
     2  B(11)              0.15885     227.84698      81.30147      76.00157
     3  C(13)              0.08147      91.58783      32.68082      30.55041
     4  C(13)              0.01013      11.38751       4.06335       3.79846
     5  H(1)               0.00048       2.13019       0.76011       0.71056
     6  H(1)              -0.00013      -0.59788      -0.21334      -0.19943
     7  H(1)              -0.00041      -1.82569      -0.65145      -0.60898
     8  H(1)              -0.00013      -0.59787      -0.21334      -0.19943

 Normal termination of Gaussian 16 at Wed Apr  9 00:32:30 2025.
