 Gaussian 16, Revision C.01,

 ----------------------------------------------------------------------
 #t hf aug-cc-pvdz symm=none int=(grid=ultrafine) guess=(read,tcheck) s
 table=(opt,rrhf)
 ----------------------------------------------------------------------
 -----
 title
 -----
 Symbolic Z-matrix:
 Charge =  0 Multiplicity = 1

 SCF Done:  E(RHF) =  -1039.56468212     A.U. after   14 cycles
 Normal termination of Gaussian 16 at Tue Apr  8 23:44:17 2025.
 Gaussian 16:  ES64L-G16RevC.01  3-Jul-2019

 ----------------------------------------------------------------------
 #t hf aug-cc-pvdz iop(5/13=1,5/36=2,99/5=2) pseudo=read geom=check gue
 ss=(read,tcheck) scf=(maxcycle=1)
 ----------------------------------------------------------------------
 -----
 title
 -----
 Structure from the checkpoint file:  "BDE49_nonexpt_1715_mol1.chk"
 Charge =  0 Multiplicity = 1

                         Standard orientation:
 ---------------------------------------------------------------------
 Center     Atomic      Atomic             Coordinates (Angstroms)
 Number     Number       Type             X           Y           Z
 ---------------------------------------------------------------------
      1         16           0        1.217575   -0.867378    0.034679
      2         15           0       -0.736823   -0.046596   -0.064139
      3          8           0       -1.741137   -1.078953   -0.304681
      4          8           0       -0.580921    1.118769   -1.128646
      5          8           0        2.044715    0.637094   -0.021346
      6          1           0        2.163425    0.925222    0.893582
      7          8           0       -0.924589    0.809900    1.285908
      8          1           0       -1.294712    0.271612    1.997244
      9          1           0        0.317886    1.485670   -1.133490
 ---------------------------------------------------------------------

 SCF Done:  E(RHF) =  -1041.22434122     A.U. after    2 cycles

 The electronic state is 1-A.
 Alpha  occ. eigenvalues -- -105.33389 -75.76157 -21.13957 -21.13491 -21.13042
 Alpha  occ. eigenvalues --  -21.04452 -13.20085 -13.14492 -13.09375  -8.09892
 Alpha  occ. eigenvalues --   -2.95900  -2.01717  -1.92022  -1.80245  -1.75759
 Alpha  occ. eigenvalues --   -1.54505  -1.41861  -1.27047  -1.03731  -0.71258
 Alpha  occ. eigenvalues --   -0.64146  -0.60985  -0.56809  -0.48655  -0.45624
 Alpha  occ. eigenvalues --   -0.44499  -0.43521  -0.37035  -0.35267  -0.29865
 Alpha  occ. eigenvalues --   -0.28341  -0.22064  -0.15416
 Alpha virt. eigenvalues --    0.02810   0.04720   0.06254   0.07298   0.10054
 Alpha virt. eigenvalues --    0.11101   0.12143   0.12662   0.12944   0.13634
 Alpha virt. eigenvalues --    0.17576   0.19878   0.20523   0.21203   0.21526

 Mulliken charges:
               1
     1  S   -0.486090
     2  P    7.646646
     3  O   -2.653365
     4  O   -2.921444
     5  O   -1.964435
     6  H    0.949732
     7  O   -2.620359
     8  H    0.862831
     9  H    1.186483
 Sum of Mulliken charges =   0.00000

 Dipole moment (field-independent basis, Debye):
    X=              1.3251    Y=              2.4505    Z=              1.4392  Tot=              3.1357

 Test job not archived.
 1\1\GINC-SE404\SP\RHF\Aug-CC-pVDZ\H3O4P1S1\OHZDE\08-Apr-2025\0\\#t hf
 aug-cc-pvdz iop(5/13=1,5/36=2,99/5=2) pseudo=read geom=check guess=(re
 ad,tcheck) scf=(maxcycle=1)\\title\\0,1\S,0,1.217575,-0.867378,0.03467
 9\P,0,-0.736823,-0.046596,-0.064139\O,0,-1.741137,-1.078953,-0.304681\
 O,0,-0.580921,1.118769,-1.128646\O,0,2.044715,0.637094,-0.021346\H,0,2
 .163425,0.925222,0.893582\O,0,-0.924589,0.8099,1.285908\H,0,-1.294712,
 0.271612,1.997244\H,0,0.317886,1.48567,-1.13349\\Version=ES64L-G16RevC
 .01\State=1-A\HF=-1041.2243412\RMSD=9.551e-02\Dipole=0.5213364,0.96411

 Normal termination of Gaussian 16 at Tue Apr  8 23:44:20 2025.
