 Gaussian 16, Revision C.01,

 ----------------------------------------------------------------------
 #t hf aug-cc-pvdz symm=none int=(grid=ultrafine) guess=(read,tcheck) s
 table=opt
 ----------------------------------------------------------------------
 -----
 title
 -----
 Symbolic Z-matrix:
 Charge =  0 Multiplicity = 2

 SCF Done:  E(UHF) =  -285.439214447     A.U. after   21 cycles
 Normal termination of Gaussian 16 at Tue Apr  8 23:05:18 2025.
 Gaussian 16:  ES64L-G16RevC.01  3-Jul-2019

 ----------------------------------------------------------------------
 #t hf aug-cc-pvdz iop(5/13=1,5/36=2,99/5=2) pseudo=read geom=check gue
 ss=(read,tcheck) scf=(maxcycle=1)
 ----------------------------------------------------------------------
 -----
 title
 -----
 Structure from the checkpoint file:  "BDE49_expt_355_mol2.chk"
 Charge =  0 Multiplicity = 2

                         Standard orientation:
 ---------------------------------------------------------------------
 Center     Atomic      Atomic             Coordinates (Angstroms)
 Number     Number       Type             X           Y           Z
 ---------------------------------------------------------------------
      1          7           0        0.570944    0.051851   -0.056491
      2          6           0        1.186015    1.368217   -0.026050
      3          1           0        2.135630    1.327216   -0.565443
      4          1           0        1.393968    1.712499    0.996210
      5          1           0        0.561883    2.106712   -0.526680
      6          6           0        1.471819   -1.085734    0.050731
      7          1           0        2.203469   -1.070181   -0.763843
      8          1           0        0.881556   -1.996463   -0.007249
      9          1           0        2.015243   -1.069790    1.004009
     10          6           0       -0.792168   -0.176564   -0.021656
     11          8           0       -1.261384   -1.317250   -0.023887
     12          6           0       -1.692533    0.967585    0.038152
     13          1           0       -1.390745    1.982751    0.253550
     14          1           0       -2.745348    0.741274   -0.051081
 ---------------------------------------------------------------------

 SCF Done:  E(UHF) =  -286.748965681     A.U. after    2 cycles

 The electronic state is 2-A.
 Alpha  occ. eigenvalues --  -21.02332 -15.73919 -11.49221 -11.40905 -11.40835
 Alpha  occ. eigenvalues --  -11.38711  -1.70524  -1.42191  -1.11248  -1.04559
 Alpha  occ. eigenvalues --   -0.95908  -0.74127  -0.68185  -0.65322  -0.63307
 Alpha  occ. eigenvalues --   -0.58231  -0.55938  -0.52931  -0.52259  -0.51307
 Alpha  occ. eigenvalues --   -0.46633  -0.34430  -0.30263  -0.29122
 Alpha virt. eigenvalues --    0.03129   0.04977   0.05265   0.05561   0.06417
 Alpha virt. eigenvalues --    0.06501   0.07866   0.08490   0.10009   0.12136
 Alpha virt. eigenvalues --    0.13293   0.13439   0.13701   0.14146   0.14998

  Beta  occ. eigenvalues --  -21.01338 -15.73917 -11.49546 -11.40891 -11.39037
  Beta  occ. eigenvalues --  -11.38640  -1.68869  -1.41875  -1.07014  -1.03296
  Beta  occ. eigenvalues --   -0.93757  -0.73561  -0.67572  -0.65092  -0.62841
  Beta  occ. eigenvalues --   -0.57558  -0.55919  -0.52479  -0.51935  -0.48125
  Beta  occ. eigenvalues --   -0.46153  -0.28162  -0.27625
  Beta virt. eigenvalues --    0.03209   0.05004   0.05133   0.05361   0.05985
  Beta virt. eigenvalues --    0.06457   0.07463   0.07936   0.08657   0.10100
  Beta virt. eigenvalues --    0.12291   0.13501   0.13699   0.13927   0.14546

 Mulliken charges and spin densities:
               1          2
     1  N   -2.985456  -0.023366
     2  C   -3.403072   0.001384
     3  H    1.430611  -0.001256
     4  H    1.349288  -0.002247
     5  H    1.459577  -0.007483
     6  C   -3.319425  -0.000586
     7  H    1.354282   0.000437
     8  H    1.441402  -0.003355
     9  H    1.385739   0.000369
    10  C    5.739960  -0.486042
    11  O   -3.349798   0.279367
    12  C   -4.191799   1.345500
    13  H    1.618540  -0.046055
    14  H    1.470153  -0.056668
 Sum of Mulliken charges =   0.00000   1.00000

 Dipole moment (field-independent basis, Debye):
    X=              1.4868    Y=              1.9513    Z=              0.0923  Tot=              2.4549
                          Isotropic Fermi Contact Couplings
        Atom                 a.u.       MegaHertz       Gauss      10(-4) cm-1
     1  N(14)             -0.00550      -1.77779      -0.63436      -0.59301
     2  C(13)              0.00030       0.33795       0.12059       0.11273
     3  H(1)              -0.00015      -0.66447      -0.23710      -0.22164
     4  H(1)              -0.00084      -3.77212      -1.34599      -1.25824
     5  H(1)              -0.00030      -1.34061      -0.47836      -0.44718
     6  C(13)             -0.00141      -1.58993      -0.56733      -0.53035
     7  H(1)               0.00033       1.46311       0.52207       0.48804
     8  H(1)               0.00014       0.62570       0.22327       0.20871

 Normal termination of Gaussian 16 at Tue Apr  8 23:05:23 2025.
