 Gaussian 16, Revision C.01,

 ----------------------------------------------------------------------
 #t hf aug-cc-pvdz symm=none int=(grid=ultrafine) guess=(read,tcheck) s
 table=(opt,rrhf)
 ----------------------------------------------------------------------
 -----
 title
 -----
 Symbolic Z-matrix:
 Charge =  0 Multiplicity = 1

 SCF Done:  E(RHF) =  -472.325280799     A.U. after   12 cycles
 Normal termination of Gaussian 16 at Tue Apr  8 23:38:49 2025.
 Gaussian 16:  ES64L-G16RevC.01  3-Jul-2019

 ----------------------------------------------------------------------
 #t hf aug-cc-pvdz iop(5/13=1,5/36=2,99/5=2) pseudo=read geom=check gue
 ss=(read,tcheck) scf=(maxcycle=1)
 ----------------------------------------------------------------------
 -----
 title
 -----
 Structure from the checkpoint file:  "BDE49_nonexpt_1565_mol1.chk"
 Charge =  0 Multiplicity = 1

                         Standard orientation:
 ---------------------------------------------------------------------
 Center     Atomic      Atomic             Coordinates (Angstroms)
 Number     Number       Type             X           Y           Z
 ---------------------------------------------------------------------
      1         15           0        1.106213   -0.018638   -0.004018
      2          7           0       -0.501878    0.593031    0.138186
      3          8           0       -1.550373   -0.357822   -0.134043
      4          1           0       -2.013061   -0.407521    0.710433
      5          1           0        0.979807   -0.969704   -1.058381
      6          1           0        1.014969   -0.999614    1.012638
      7          1           0       -0.658772    1.367779   -0.499367
 ---------------------------------------------------------------------

 SCF Done:  E(RHF) =  -473.078645100     A.U. after    2 cycles

 The electronic state is 1-A.
 Alpha  occ. eigenvalues -- -105.19674 -21.09852 -15.77335  -2.77147  -1.76671
 Alpha  occ. eigenvalues --   -1.52827  -1.45020  -1.44133  -1.10321  -0.73846
 Alpha  occ. eigenvalues --   -0.61703  -0.58627  -0.40069  -0.36651  -0.25762
 Alpha  occ. eigenvalues --   -0.25484  -0.02776
 Alpha virt. eigenvalues --    0.04425   0.05989   0.06592   0.08499   0.09946
 Alpha virt. eigenvalues --    0.10741   0.13798   0.16041   0.17826   0.19972
 Alpha virt. eigenvalues --    0.20515   0.21221   0.22675   0.24381   0.26006

 Mulliken charges:
               1
     1  P    2.111524
     2  N   -0.331735
     3  O   -1.879055
     4  H    0.751293
     5  H   -0.630904
     6  H   -0.680975
     7  H    0.659853
 Sum of Mulliken charges =   0.00000

 Dipole moment (field-independent basis, Debye):
    X=              0.4082    Y=              0.6789    Z=             -0.0035  Tot=              0.7922

 Test job not archived.
 1\1\GINC-SE195\SP\RHF\Aug-CC-pVDZ\H4N1O1P1\OHZDE\08-Apr-2025\0\\#t hf
 aug-cc-pvdz iop(5/13=1,5/36=2,99/5=2) pseudo=read geom=check guess=(re
 ad,tcheck) scf=(maxcycle=1)\\title\\0,1\P,0,1.106213,-0.018638,-0.0040
 18\N,0,-0.501878,0.593031,0.138186\O,0,-1.550373,-0.357822,-0.134043\H
 ,0,-2.013061,-0.407521,0.710433\H,0,0.979807,-0.969704,-1.058381\H,0,1
 .014969,-0.999614,1.012638\H,0,-0.658772,1.367779,-0.499367\\Version=E
 S64L-G16RevC.01\State=1-A\HF=-473.0786451\RMSD=2.309e-01\Dipole=0.1606
 085,0.2670889,-0.0013705\Quadrupole=0.5643658,-3.1445334,2.5801676,-3.

 Normal termination of Gaussian 16 at Tue Apr  8 23:38:51 2025.
