 Gaussian 16, Revision C.01,

 ----------------------------------------------------------------------
 #t hf aug-cc-pvdz symm=none int=(grid=ultrafine) guess=(read,tcheck) s
 table=(opt,rrhf)
 ----------------------------------------------------------------------
 -----
 title
 -----
 Symbolic Z-matrix:
 Charge =  0 Multiplicity = 1

 SCF Done:  E(RHF) =  -1423.63164791     A.U. after   14 cycles
 Normal termination of Gaussian 16 at Wed Apr  9 00:17:00 2025.
 Gaussian 16:  ES64L-G16RevC.01  3-Jul-2019

 ----------------------------------------------------------------------
 #t hf aug-cc-pvdz iop(5/13=1,5/36=2,99/5=2) pseudo=read geom=check gue
 ss=(read,tcheck) scf=(maxcycle=1)
 ----------------------------------------------------------------------
 -----
 title
 -----
 Structure from the checkpoint file:  "BDE49_nonexpt_2549_mol1.chk"
 Charge =  0 Multiplicity = 1

                         Standard orientation:
 ---------------------------------------------------------------------
 Center     Atomic      Atomic             Coordinates (Angstroms)
 Number     Number       Type             X           Y           Z
 ---------------------------------------------------------------------
      1         17           0       -2.206778   -0.391006    0.005343
      2         16           0       -0.756876    1.111012   -0.021019
      3         15           0        1.037620   -0.006501   -0.022406
      4          8           0        2.101907    0.990996   -0.077997
      5          8           0        0.977690   -1.009798    1.224194
      6          1           0        1.006779   -0.560587    2.078545
      7          8           0        0.986705   -1.055450   -1.208242
      8          1           0        0.523762   -1.876970   -1.000622
 ---------------------------------------------------------------------

 SCF Done:  E(RHF) =  -1425.21881533     A.U. after    2 cycles

 The electronic state is 1-A.
 Alpha  occ. eigenvalues -- -105.34576 -99.93390 -75.76879 -21.14890 -21.14532
 Alpha  occ. eigenvalues --  -21.05171 -13.15975 -13.12854 -13.09417 -10.50455
 Alpha  occ. eigenvalues --   -9.70211  -9.69614  -9.69486  -8.10745  -2.97239
 Alpha  occ. eigenvalues --   -2.03450  -1.93243  -1.81284  -1.56443  -1.43132
 Alpha  occ. eigenvalues --   -1.35025  -1.27610  -1.05100  -0.72283  -0.65170
 Alpha  occ. eigenvalues --   -0.58786  -0.57782  -0.57391  -0.52505  -0.46315
 Alpha  occ. eigenvalues --   -0.45295  -0.39349  -0.36894  -0.31098  -0.29673
 Alpha  occ. eigenvalues --   -0.24653  -0.17354
 Alpha virt. eigenvalues --    0.02647   0.03581   0.05588   0.06808   0.10596
 Alpha virt. eigenvalues --    0.11689   0.11982   0.12160   0.13154   0.13419
 Alpha virt. eigenvalues --    0.15072   0.16618   0.16873   0.19295   0.19804

 Mulliken charges:
               1
     1  Cl  -0.474256
     2  S   -1.325988
     3  P    7.908332
     4  O   -2.735656
     5  O   -2.588326
     6  H    0.934399
     7  O   -2.597239
     8  H    0.878735
 Sum of Mulliken charges =   0.00000

 Dipole moment (field-independent basis, Debye):
    X=              1.6972    Y=             -0.9808    Z=              0.6936  Tot=              2.0793

 Test job not archived.
 1\1\GINC-SE150\SP\RHF\Aug-CC-pVDZ\Cl1H2O3P1S1\OHZDE\09-Apr-2025\0\\#t
 hf aug-cc-pvdz iop(5/13=1,5/36=2,99/5=2) pseudo=read geom=check guess=
 (read,tcheck) scf=(maxcycle=1)\\title\\0,1\Cl,0,-2.206778,-0.391006,0.
 005343\S,0,-0.756876,1.111012,-0.021019\P,0,1.03762,-0.006501,-0.02240
 6\O,0,2.101907,0.990996,-0.077997\O,0,0.97769,-1.009798,1.224194\H,0,1
 .006779,-0.560587,2.078545\O,0,0.986705,-1.05545,-1.208242\H,0,0.52376
 2,-1.87697,-1.000622\\Version=ES64L-G16RevC.01\State=1-A\HF=-1425.2188
 153\RMSD=9.810e-02\Dipole=0.6677225,-0.3858854,0.2728989\Quadrupole=-6

 Normal termination of Gaussian 16 at Wed Apr  9 00:17:04 2025.
