 Gaussian 16, Revision C.01,

 ----------------------------------------------------------------------
 #t hf aug-cc-pvdz symm=none int=(grid=ultrafine) guess=(read,tcheck) s
 table=(opt,rrhf)
 ----------------------------------------------------------------------
 -----
 title
 -----
 Symbolic Z-matrix:
 Charge =  0 Multiplicity = 1

 SCF Done:  E(RHF) =  -994.598677436     A.U. after   14 cycles
 Normal termination of Gaussian 16 at Wed Apr  9 00:15:41 2025.
 Gaussian 16:  ES64L-G16RevC.01  3-Jul-2019

 ----------------------------------------------------------------------
 #t hf aug-cc-pvdz iop(5/13=1,5/36=2,99/5=2) pseudo=read geom=check gue
 ss=(read,tcheck) scf=(maxcycle=1)
 ----------------------------------------------------------------------
 -----
 title
 -----
 Structure from the checkpoint file:  "BDE49_nonexpt_2482_mol1.chk"
 Charge =  0 Multiplicity = 1

                         Standard orientation:
 ---------------------------------------------------------------------
 Center     Atomic      Atomic             Coordinates (Angstroms)
 Number     Number       Type             X           Y           Z
 ---------------------------------------------------------------------
      1         16           0        0.732132    0.235876   -0.316754
      2         14           0        2.685381   -0.617600    0.406446
      3          8           0        0.940896    1.665934   -0.534972
      4          8           0        0.286809   -0.613921   -1.420206
      5          6           0       -0.449728    0.060645    1.059914
      6          6           0       -1.757166    0.828484    0.815989
      7          1           0        0.070934    0.461357    1.934268
      8          1           0       -0.602973   -1.011957    1.195170
      9          6           0       -2.682231    0.268184   -0.277037
     10          1           0       -1.504186    1.867536    0.588401
     11          1           0       -2.294132    0.840023    1.772204
     12          6           0       -3.170855   -1.161431   -0.024910
     13          1           0       -3.546708    0.937411   -0.343861
     14          1           0       -2.178329    0.313681   -1.245294
     15          1           0       -3.647785   -1.256007    0.956649
     16          1           0       -2.352582   -1.884295   -0.077738
     17          1           0       -3.905068   -1.456424   -0.778729
     18          1           0        3.573841   -0.455682   -0.757382
     19          1           0        2.473864   -2.036479    0.757108
     20          1           0        3.141924    0.161829    1.574708
 ---------------------------------------------------------------------

 SCF Done:  E(RHF) =  -996.467517700     A.U. after    2 cycles

 The electronic state is 1-A.
 Alpha  occ. eigenvalues --  -76.26980 -75.86096 -21.03280 -21.03161 -13.47876
 Alpha  occ. eigenvalues --  -13.35776 -13.30528 -11.45433 -11.42022 -11.38898
 Alpha  occ. eigenvalues --  -11.35317  -8.21107  -5.60333  -2.22914  -2.22560
 Alpha  occ. eigenvalues --   -2.22472  -1.80670  -1.63375  -1.25943  -1.12063
 Alpha  occ. eigenvalues --   -0.99713  -0.90643  -0.82752  -0.78899  -0.66272
 Alpha  occ. eigenvalues --   -0.65942  -0.59678  -0.57307  -0.56430  -0.53696
 Alpha  occ. eigenvalues --   -0.52175  -0.51742  -0.50175  -0.46912  -0.45447
 Alpha  occ. eigenvalues --   -0.44713  -0.42907  -0.38396  -0.35920  -0.33991
 Alpha  occ. eigenvalues --   -0.30307
 Alpha virt. eigenvalues --    0.02904   0.03789   0.04785   0.05100   0.05763
 Alpha virt. eigenvalues --    0.05884   0.06262   0.06665   0.07075   0.08083
 Alpha virt. eigenvalues --    0.08294   0.08717   0.09487   0.09945   0.10735

 Mulliken charges:
               1
     1  S    4.658409
     2  Si   5.662460
     3  O   -2.424123
     4  O   -2.412040
     5  C   -3.845593
     6  C   -2.659077
     7  H    1.567064
     8  H    1.843219
     9  C   -3.317889
    10  H    1.448041
    11  H    1.288982
    12  C   -3.750844
    13  H    1.300538
    14  H    1.695078
    15  H    1.305344
    16  H    1.457516
    17  H    1.133575
    18  H   -1.690509
    19  H   -1.625321
    20  H   -1.634831
 Sum of Mulliken charges =  -0.00000

 Dipole moment (field-independent basis, Debye):
    X=             -0.1429    Y=             -0.5830    Z=              1.5006  Tot=              1.6162

 Test job not archived.
 1\1\GINC-SE461\SP\RHF\Aug-CC-pVDZ\C4H12O2S1Si1\OHZDE\09-Apr-2025\0\\#t
  hf aug-cc-pvdz iop(5/13=1,5/36=2,99/5=2) pseudo=read geom=check guess
 =(read,tcheck) scf=(maxcycle=1)\\title\\0,1\S,0,0.732132,0.235876,-0.3
 16754\Si,0,2.685381,-0.6176,0.406446\O,0,0.940896,1.665934,-0.534972\O
 ,0,0.286809,-0.613921,-1.420206\C,0,-0.449728,0.060645,1.059914\C,0,-1
 .757166,0.828484,0.815989\H,0,0.070934,0.461357,1.934268\H,0,-0.602973
 ,-1.011957,1.19517\C,0,-2.682231,0.268184,-0.277037\H,0,-1.504186,1.86
 7536,0.588401\H,0,-2.294132,0.840023,1.772204\C,0,-3.170855,-1.161431,

 Normal termination of Gaussian 16 at Wed Apr  9 00:15:51 2025.
