 Gaussian 16, Revision C.01,

 ----------------------------------------------------------------------
 #t hf aug-cc-pvdz symm=none int=(grid=ultrafine) guess=(read,tcheck) s
 table=(opt,rrhf)
 ----------------------------------------------------------------------
 -----
 title
 -----
 Symbolic Z-matrix:
 Charge =  0 Multiplicity = 1

 SCF Done:  E(RHF) =  -840.991899333     A.U. after   16 cycles
 Normal termination of Gaussian 16 at Wed Apr  9 00:25:31 2025.
 Gaussian 16:  ES64L-G16RevC.01  3-Jul-2019

 ----------------------------------------------------------------------
 #t hf aug-cc-pvdz iop(5/13=1,5/36=2,99/5=2) pseudo=read geom=check gue
 ss=(read,tcheck) scf=(maxcycle=1)
 ----------------------------------------------------------------------
 -----
 title
 -----
 Structure from the checkpoint file:  "BDE49_nonexpt_2696_mol1.chk"
 Charge =  0 Multiplicity = 1

                         Standard orientation:
 ---------------------------------------------------------------------
 Center     Atomic      Atomic             Coordinates (Angstroms)
 Number     Number       Type             X           Y           Z
 ---------------------------------------------------------------------
      1          9           0        3.303288   -0.186261    1.135329
      2         16           0        2.784614   -0.134958   -0.481710
      3          6           0        1.051619    0.025837   -0.273327
      4          6           0        0.455499    1.296432   -0.159848
      5          6           0       -0.912681    1.421060   -0.021231
      6          6           0       -1.725192    0.275185    0.005547
      7          6           0        0.232505   -1.109841   -0.243837
      8          1           0        0.686902   -2.089425   -0.327077
      9          6           0       -1.146173   -0.995879   -0.108201
     10          1           0       -1.754686   -1.889504   -0.090561
     11          1           0        1.084170    2.177980   -0.180701
     12          8           0       -3.051531    0.503963    0.141732
     13          6           0       -3.944092   -0.606382    0.183651
     14          1           0       -3.902928   -1.185171   -0.744600
     15          1           0       -4.938123   -0.179297    0.299473
     16          1           0       -3.727118   -1.259019    1.035211
     17          1           0       -1.388304    2.389930    0.067277
 ---------------------------------------------------------------------

 SCF Done:  E(RHF) =  -843.152229786     A.U. after    2 cycles

 The electronic state is 1-A.
 Alpha  occ. eigenvalues --  -75.74923 -29.24419 -21.09625 -13.23613 -13.16618
 Alpha  occ. eigenvalues --  -13.11699 -11.54653 -11.48393 -11.45578 -11.44195
 Alpha  occ. eigenvalues --  -11.43034 -11.42161 -11.38733  -8.08787  -1.81112
 Alpha  occ. eigenvalues --   -1.36147  -1.20084  -1.12042  -1.07416  -0.99557
 Alpha  occ. eigenvalues --   -0.89641  -0.84314  -0.72368  -0.67878  -0.65437
 Alpha  occ. eigenvalues --   -0.64129  -0.63349  -0.60319  -0.58759  -0.54851
 Alpha  occ. eigenvalues --   -0.53648  -0.48480  -0.46033  -0.42582  -0.40968
 Alpha  occ. eigenvalues --   -0.38109  -0.35410  -0.32920  -0.27240  -0.25565
 Alpha  occ. eigenvalues --   -0.16315
 Alpha virt. eigenvalues --    0.02848   0.04407   0.05055   0.05633   0.05884
 Alpha virt. eigenvalues --    0.06545   0.07594   0.08149   0.08813   0.10156
 Alpha virt. eigenvalues --    0.10844   0.11193   0.12767   0.13210   0.13419

 Mulliken charges:
               1
     1  F   -0.254736
     2  S    0.239147
     3  C    3.594903
     4  C   -2.538741
     5  C   -3.922376
     6  C    5.108078
     7  C   -2.155848
     8  H    1.732067
     9  C   -3.132083
    10  H    1.917212
    11  H    1.764781
    12  O   -4.750503
    13  C   -3.701910
    14  H    1.372218
    15  H    1.423336
    16  H    1.378223
    17  H    1.926232
 Sum of Mulliken charges =  -0.00000

 Dipole moment (field-independent basis, Debye):
    X=             -1.7003    Y=             -0.4776    Z=              2.0478  Tot=              2.7042

 Test job not archived.
 1\1\GINC-SE126\SP\RHF\Aug-CC-pVDZ\C7H7F1O1S1\OHZDE\09-Apr-2025\0\\#t h
 f aug-cc-pvdz iop(5/13=1,5/36=2,99/5=2) pseudo=read geom=check guess=(
 read,tcheck) scf=(maxcycle=1)\\title\\0,1\F,0,3.303288,-0.186261,1.135
 329\S,0,2.784614,-0.134958,-0.48171\C,0,1.051619,0.025837,-0.273327\C,
 0,0.455499,1.296432,-0.159848\C,0,-0.912681,1.42106,-0.021231\C,0,-1.7
 25192,0.275185,0.005547\C,0,0.232505,-1.109841,-0.243837\H,0,0.686902,
 -2.089425,-0.327077\C,0,-1.146173,-0.995879,-0.108201\H,0,-1.754686,-1
 .889504,-0.090561\H,0,1.08417,2.17798,-0.180701\O,0,-3.051531,0.503963

 Normal termination of Gaussian 16 at Wed Apr  9 00:25:40 2025.
