 Gaussian 16, Revision C.01,

 ----------------------------------------------------------------------
 #t hf aug-cc-pvdz symm=none int=(grid=ultrafine) guess=(read,tcheck) s
 table=(opt,rrhf)
 ----------------------------------------------------------------------
 -----
 title
 -----
 Symbolic Z-matrix:
 Charge =  0 Multiplicity = 1

 SCF Done:  E(RHF) =  -422.035960150     A.U. after   13 cycles
 Normal termination of Gaussian 16 at Tue Apr  8 23:52:54 2025.
 Gaussian 16:  ES64L-G16RevC.01  3-Jul-2019

 ----------------------------------------------------------------------
 #t hf aug-cc-pvdz iop(5/13=1,5/36=2,99/5=2) pseudo=read geom=check gue
 ss=(read,tcheck) scf=(maxcycle=1)
 ----------------------------------------------------------------------
 -----
 title
 -----
 Structure from the checkpoint file:  "BDE49_nonexpt_1918_mol1.chk"
 Charge =  0 Multiplicity = 1

                         Standard orientation:
 ---------------------------------------------------------------------
 Center     Atomic      Atomic             Coordinates (Angstroms)
 Number     Number       Type             X           Y           Z
 ---------------------------------------------------------------------
      1         14           0        1.423100   -0.260095   -0.000002
      2          6           0       -0.121296    0.864706    0.000007
      3          1           0        2.613584    0.618809   -0.000037
      4          1           0        1.415528   -1.103635   -1.212532
      5          1           0        1.415570   -1.103594    1.212558
      6          6           0       -1.361752    0.110467    0.000054
      7          7           0       -2.327362   -0.521177   -0.000047
      8          1           0       -0.089137    1.513463   -0.880870
      9          1           0       -0.089113    1.513489    0.880863
 ---------------------------------------------------------------------

 SCF Done:  E(RHF) =  -422.809025305     A.U. after    2 cycles

 The electronic state is 1-A.
 Alpha  occ. eigenvalues --  -76.24271 -15.75625 -11.45393 -11.41417  -5.57723
 Alpha  occ. eigenvalues --   -2.21173  -2.20059  -2.19902  -1.31496  -1.11752
 Alpha  occ. eigenvalues --   -0.78916  -0.69745  -0.63849  -0.53798  -0.50732
 Alpha  occ. eigenvalues --   -0.49014  -0.48854  -0.43294  -0.39783
 Alpha virt. eigenvalues --    0.02751   0.04070   0.05118   0.06209   0.07373
 Alpha virt. eigenvalues --    0.07756   0.08699   0.09348   0.09833   0.12532
 Alpha virt. eigenvalues --    0.13453   0.13554   0.14444   0.15311   0.16470

 Mulliken charges:
               1
     1  Si   5.921575
     2  C   -3.982556
     3  H   -1.609220
     4  H   -1.647063
     5  H   -1.647065
     6  C    2.393320
     7  N   -2.264220
     8  H    1.417602
     9  H    1.417627
 Sum of Mulliken charges =  -0.00000

 Dipole moment (field-independent basis, Debye):
    X=              3.0425    Y=              1.9678    Z=              0.0000  Tot=              3.6234

 Test job not archived.
 1\1\GINC-SE094\SP\RHF\Aug-CC-pVDZ\C2H5N1Si1\OHZDE\08-Apr-2025\0\\#t hf
  aug-cc-pvdz iop(5/13=1,5/36=2,99/5=2) pseudo=read geom=check guess=(r
 ead,tcheck) scf=(maxcycle=1)\\title\\0,1\Si,0,-1.4231,-0.260095,0.0000
 02\C,0,0.121296,0.864706,-0.000007\H,0,-2.613584,0.618809,0.000037\H,0
 ,-1.415528,-1.103635,1.212532\H,0,-1.41557,-1.103594,-1.212558\C,0,1.3
 61752,0.110467,-0.000054\N,0,2.327362,-0.521177,0.000047\H,0,0.089137,
 1.513463,0.88087\H,0,0.089113,1.513489,-0.880863\\Version=ES64L-G16Rev
 C.01\State=1-A\HF=-422.8090253\RMSD=2.004e-01\Dipole=-1.1969949,0.7742

 Normal termination of Gaussian 16 at Tue Apr  8 23:52:56 2025.
