 Gaussian 16, Revision C.01,

 ----------------------------------------------------------------------
 #t hf aug-cc-pvdz symm=none int=(grid=ultrafine) guess=(read,tcheck) s
 table=(opt,rrhf)
 ----------------------------------------------------------------------
 -----
 title
 -----
 Symbolic Z-matrix:
 Charge =  0 Multiplicity = 1

 SCF Done:  E(RHF) =  -1914.91256366     A.U. after   12 cycles

 1\1\GINC-SE179\Stability\RHF\Aug-CC-pVDZ\C2H2Cl4\OHZDE\08-Apr-2025\0\\
 #t hf aug-cc-pvdz symm=none int=(grid=ultrafine) guess=(read,tcheck) s
 table=(opt,rrhf)\\title\\0,1\C,0,0.231256,-0.730765,-0.490486\C,0,-0.2
 31256,0.730765,-0.490486\Cl,0,-1.19089,-1.811758,-0.690872\Cl,0,1.1908
 9,-1.175853,0.943834\H,0,0.864676,-0.894047,-1.357434\H,0,-0.864676,0.
 894047,-1.357434\Cl,0,1.19089,1.811758,-0.690872\Cl,0,-1.19089,1.17585
 3,0.943834\\Version=ES64L-G16RevC.01\HF=-1914.9125637\RMSD=5.301e-09\D
 ipole=0.,0.,-0.7334613\Quadrupole=-0.0537691,-1.8631933,1.9169624,-0.8

 Normal termination of Gaussian 16 at Tue Apr  8 22:31:26 2025.
 Gaussian 16:  ES64L-G16RevC.01  3-Jul-2019

 ----------------------------------------------------------------------
 #t hf aug-cc-pvdz iop(5/13=1,5/36=2,99/5=2) pseudo=read geom=check gue
 ss=(read,tcheck) scf=(maxcycle=1)
 ----------------------------------------------------------------------
 -----
 title
 -----
 Structure from the checkpoint file:  "BDE49_expt_1015_mol1.chk"
 Charge =  0 Multiplicity = 1

                         Standard orientation:
 ---------------------------------------------------------------------
 Center     Atomic      Atomic             Coordinates (Angstroms)
 Number     Number       Type             X           Y           Z
 ---------------------------------------------------------------------
      1          6           0       -0.231256    0.730765   -0.490486
      2          6           0        0.231256   -0.730765   -0.490486
      3         17           0        1.190890    1.811758   -0.690872
      4         17           0       -1.190890    1.175853    0.943834
      5          1           0       -0.864676    0.894047   -1.357434
      6          1           0        0.864676   -0.894047   -1.357434
      7         17           0       -1.190890   -1.811758   -0.690872
      8         17           0        1.190890   -1.175853    0.943834
 ---------------------------------------------------------------------

 SCF Done:  E(RHF) =  -1916.26547995     A.U. after    2 cycles

 The electronic state is 1-A.
 Alpha  occ. eigenvalues --  -99.91711 -99.91704 -99.91341 -99.91337 -11.55152
 Alpha  occ. eigenvalues --  -11.50898 -10.49045 -10.49022 -10.48695 -10.48676
 Alpha  occ. eigenvalues --   -9.68964  -9.68867  -9.68551  -9.68548  -9.68190
 Alpha  occ. eigenvalues --   -9.68088  -9.68073  -9.68022  -9.67801  -9.67717
 Alpha  occ. eigenvalues --   -9.67704  -9.67648  -1.46845  -1.36397  -1.30332
 Alpha  occ. eigenvalues --   -1.30321  -1.09953  -0.93333  -0.75889  -0.72998
 Alpha  occ. eigenvalues --   -0.70116  -0.63885  -0.62541  -0.56211  -0.54893
 Alpha  occ. eigenvalues --   -0.53493  -0.51802  -0.50810  -0.50795  -0.50587
 Alpha  occ. eigenvalues --   -0.48763
 Alpha virt. eigenvalues --    0.01794   0.03495   0.03744   0.05876   0.07141
 Alpha virt. eigenvalues --    0.07510   0.08722   0.09555   0.12192   0.12758
 Alpha virt. eigenvalues --    0.13048   0.13124   0.14382   0.15368   0.15513

 Mulliken charges:
               1
     1  C   -2.444562
     2  C   -2.444562
     3  Cl   0.219963
     4  Cl   0.309692
     5  H    1.914907
     6  H    1.914907
     7  Cl   0.219963
     8  Cl   0.309692
 Sum of Mulliken charges =   0.00000

 Dipole moment (field-independent basis, Debye):
    X=             -0.0000    Y=             -0.0000    Z=             -1.6754  Tot=              1.6754

 Test job not archived.
 1\1\GINC-SE179\SP\RHF\Aug-CC-pVDZ\C2H2Cl4\OHZDE\08-Apr-2025\0\\#t hf a
 ug-cc-pvdz iop(5/13=1,5/36=2,99/5=2) pseudo=read geom=check guess=(rea
 d,tcheck) scf=(maxcycle=1)\\title\\0,1\C,0,0.231256,-0.730765,-0.49048
 6\C,0,-0.231256,0.730765,-0.490486\Cl,0,-1.19089,-1.811758,-0.690872\C
 l,0,1.19089,-1.175853,0.943834\H,0,0.864676,-0.894047,-1.357434\H,0,-0
 .864676,0.894047,-1.357434\Cl,0,1.19089,1.811758,-0.690872\Cl,0,-1.190
 89,1.175853,0.943834\\Version=ES64L-G16RevC.01\State=1-A\HF=-1916.2654
 8\RMSD=1.340e-01\Dipole=0.,0.,-0.6591711\Quadrupole=0.2782946,-1.79016

 Normal termination of Gaussian 16 at Tue Apr  8 22:31:29 2025.
