 Gaussian 16, Revision C.01,

 ----------------------------------------------------------------------
 #t hf aug-cc-pvdz symm=none int=(grid=ultrafine) guess=(read,tcheck) s
 table=(opt,rrhf)
 ----------------------------------------------------------------------
 -----
 title
 -----
 Symbolic Z-matrix:
 Charge =  0 Multiplicity = 1

 SCF Done:  E(RHF) =  -805.627855806     A.U. after   14 cycles
 Normal termination of Gaussian 16 at Wed Apr  9 00:54:26 2025.
 Gaussian 16:  ES64L-G16RevC.01  3-Jul-2019

 ----------------------------------------------------------------------
 #t hf aug-cc-pvdz iop(5/13=1,5/36=2,99/5=2) pseudo=read geom=check gue
 ss=(read,tcheck) scf=(maxcycle=1)
 ----------------------------------------------------------------------
 -----
 title
 -----
 Structure from the checkpoint file:  "BDE49_nonexpt_984_mol1.chk"
 Charge =  0 Multiplicity = 1

                         Standard orientation:
 ---------------------------------------------------------------------
 Center     Atomic      Atomic             Coordinates (Angstroms)
 Number     Number       Type             X           Y           Z
 ---------------------------------------------------------------------
      1          7           0        1.509765    0.158502   -0.000109
      2         16           0        0.000000   -0.959577   -0.000026
      3          7           0       -1.509765    0.158502    0.000111
      4          8           0        2.504311   -0.526223    0.000340
      5          8           0        1.393249    1.347111   -0.000455
      6          8           0       -2.504311   -0.526223   -0.000290
      7          8           0       -1.393249    1.347111    0.000456
 ---------------------------------------------------------------------

 SCF Done:  E(RHF) =  -807.548484583     A.U. after    2 cycles

 The electronic state is 1-A.
 Alpha  occ. eigenvalues --  -75.84152 -21.16130 -21.16065 -21.15376 -21.15367
 Alpha  occ. eigenvalues --  -16.06904 -16.06900 -13.29009 -13.23725 -13.14552
 Alpha  occ. eigenvalues --   -8.17514  -2.06376  -2.04647  -1.76323  -1.75909
 Alpha  occ. eigenvalues --   -1.26924  -1.02308  -0.88049  -0.75970  -0.73308
 Alpha  occ. eigenvalues --   -0.71476  -0.71205  -0.65967  -0.65799  -0.41498
 Alpha  occ. eigenvalues --   -0.37542  -0.36420  -0.36075  -0.35982  -0.34152
 Alpha  occ. eigenvalues --   -0.33146
 Alpha virt. eigenvalues --    0.05327   0.07777   0.08315   0.08377   0.10884
 Alpha virt. eigenvalues --    0.11851   0.12672   0.14935   0.15457   0.16298
 Alpha virt. eigenvalues --    0.16306   0.18411   0.18698   0.18935   0.21366

 Mulliken charges:
               1
     1  N    4.364622
     2  S    1.401309
     3  N    4.364622
     4  O   -2.505935
     5  O   -2.559342
     6  O   -2.505935
     7  O   -2.559342
 Sum of Mulliken charges =  -0.00000

 Dipole moment (field-independent basis, Debye):
    X=             -0.0000    Y=             -2.0752    Z=             -0.0000  Tot=              2.0752

 Test job not archived.
 1\1\GINC-SE249\SP\RHF\Aug-CC-pVDZ\N2O4S1\OHZDE\09-Apr-2025\0\\#t hf au
 g-cc-pvdz iop(5/13=1,5/36=2,99/5=2) pseudo=read geom=check guess=(read
 ,tcheck) scf=(maxcycle=1)\\title\\0,1\N,0,-1.509765,-0.158502,-0.00010
 9\S,0,0.,0.959577,-0.000026\N,0,1.509765,-0.158502,0.000111\O,0,-2.504
 311,0.526223,0.00034\O,0,-1.393249,-1.347111,-0.000455\O,0,2.504311,0.
 526223,-0.00029\O,0,1.393249,-1.347111,0.000456\\Version=ES64L-G16RevC
 .01\State=1-A\HF=-807.5484846\RMSD=9.307e-02\Dipole=0.,0.816456,-0.000
 0189\Quadrupole=-2.7833374,1.9452624,0.838075,0.,0.0000878,-0.0000891\

 Normal termination of Gaussian 16 at Wed Apr  9 00:54:30 2025.
