 Gaussian 16, Revision C.01,

 ----------------------------------------------------------------------
 #t hf aug-cc-pvdz symm=none int=(grid=ultrafine) guess=(read,tcheck) s
 table=(opt,rrhf)
 ----------------------------------------------------------------------
 -----
 title
 -----
 Symbolic Z-matrix:
 Charge =  0 Multiplicity = 1

 SCF Done:  E(RHF) =  -293.417711672     A.U. after   13 cycles
 Normal termination of Gaussian 16 at Wed Apr  9 00:27:33 2025.
 Gaussian 16:  ES64L-G16RevC.01  3-Jul-2019

 ----------------------------------------------------------------------
 #t hf aug-cc-pvdz iop(5/13=1,5/36=2,99/5=2) pseudo=read geom=check gue
 ss=(read,tcheck) scf=(maxcycle=1)
 ----------------------------------------------------------------------
 -----
 title
 -----
 Structure from the checkpoint file:  "BDE49_nonexpt_276_mol1.chk"
 Charge =  0 Multiplicity = 1

                         Standard orientation:
 ---------------------------------------------------------------------
 Center     Atomic      Atomic             Coordinates (Angstroms)
 Number     Number       Type             X           Y           Z
 ---------------------------------------------------------------------
      1          6           0        0.716690   -0.154084   -0.385317
      2          5           0       -0.826102    0.052953   -0.079087
      3          8           0       -1.375612    1.219134    0.393766
      4          8           0       -1.677905   -0.993125   -0.294102
      5          6           0        1.285500   -1.330503    0.437646
      6          1           0        0.698637   -2.238267    0.284405
      7          1           0        1.274935   -1.105571    1.509850
      8          6           0        1.567294    1.114297   -0.203626
      9          1           0        0.773474   -0.447932   -1.443149
     10          1           0        1.557512    1.458120    0.838245
     11          1           0        1.217177    1.938893   -0.834196
     12          1           0        2.614656    0.934362   -0.464490
     13          1           0        2.322653   -1.542901    0.158177
     14          1           0       -0.729728    1.916796    0.531386
     15          1           0       -2.587574   -0.764584   -0.074323
 ---------------------------------------------------------------------

 SCF Done:  E(RHF) =  -294.763485045     A.U. after    2 cycles

 The electronic state is 1-A.
 Alpha  occ. eigenvalues --  -21.05725 -21.04632 -11.39625 -11.38415 -11.33452
 Alpha  occ. eigenvalues --   -7.62242  -1.81317  -1.64813  -1.21099  -0.99849
 Alpha  occ. eigenvalues --   -0.87280  -0.72698  -0.64874  -0.62936  -0.58989
 Alpha  occ. eigenvalues --   -0.54805  -0.53200  -0.50798  -0.48596  -0.46622
 Alpha  occ. eigenvalues --   -0.43877  -0.40330  -0.35948  -0.34674
 Alpha virt. eigenvalues --    0.03381   0.04643   0.05011   0.05087   0.06484
 Alpha virt. eigenvalues --    0.06782   0.07117   0.07452   0.07568   0.09063
 Alpha virt. eigenvalues --    0.09518   0.09712   0.11223   0.13520   0.14833

 Mulliken charges:
               1
     1  C   -3.666206
     2  B    7.990737
     3  O   -4.075953
     4  O   -4.121527
     5  C   -3.617688
     6  H    1.367919
     7  H    1.171860
     8  C   -3.892643
     9  H    1.680278
    10  H    1.106479
    11  H    1.056461
    12  H    1.204165
    13  H    1.233129
    14  H    1.474966
    15  H    1.088020
 Sum of Mulliken charges =   0.00000

 Dipole moment (field-independent basis, Debye):
    X=              0.2815    Y=              0.7331    Z=              0.0842  Tot=              0.7898

 Test job not archived.
 1\1\GINC-SE102\SP\RHF\Aug-CC-pVDZ\C3H9B1O2\OHZDE\09-Apr-2025\0\\#t hf
 aug-cc-pvdz iop(5/13=1,5/36=2,99/5=2) pseudo=read geom=check guess=(re
 ad,tcheck) scf=(maxcycle=1)\\title\\0,1\C,0,0.71669,-0.154084,-0.38531
 7\B,0,-0.826102,0.052953,-0.079087\O,0,-1.375612,1.219134,0.393766\O,0
 ,-1.677905,-0.993125,-0.294102\C,0,1.2855,-1.330503,0.437646\H,0,0.698
 637,-2.238267,0.284405\H,0,1.274935,-1.105571,1.50985\C,0,1.567294,1.1
 14297,-0.203626\H,0,0.773474,-0.447932,-1.443149\H,0,1.557512,1.45812,
 0.838245\H,0,1.217177,1.938893,-0.834196\H,0,2.614656,0.934362,-0.4644

 Normal termination of Gaussian 16 at Wed Apr  9 00:27:38 2025.
