 Gaussian 16, Revision C.01,

 ----------------------------------------------------------------------
 #t hf aug-cc-pvdz symm=none int=(grid=ultrafine) guess=(read,tcheck) s
 table=(opt,rrhf)
 ----------------------------------------------------------------------
 -----
 title
 -----
 Symbolic Z-matrix:
 Charge =  0 Multiplicity = 1

 SCF Done:  E(RHF) =  -1030.95939921     A.U. after   15 cycles
 Normal termination of Gaussian 16 at Tue Apr  8 23:33:45 2025.
 Gaussian 16:  ES64L-G16RevC.01  3-Jul-2019

 ----------------------------------------------------------------------
 #t hf aug-cc-pvdz iop(5/13=1,5/36=2,99/5=2) pseudo=read geom=check gue
 ss=(read,tcheck) scf=(maxcycle=1)
 ----------------------------------------------------------------------
 -----
 title
 -----
 Structure from the checkpoint file:  "BDE49_nonexpt_1418_mol1.chk"
 Charge =  0 Multiplicity = 1

                         Standard orientation:
 ---------------------------------------------------------------------
 Center     Atomic      Atomic             Coordinates (Angstroms)
 Number     Number       Type             X           Y           Z
 ---------------------------------------------------------------------
      1          6           0       -2.338776   -0.914138    0.000783
      2          6           0       -1.068959   -1.481939    0.012187
      3          6           0        0.088128   -0.689098    0.016302
      4          6           0       -2.482745    0.471233   -0.001881
      5          6           0       -1.353934    1.284245    0.001827
      6          6           0       -0.092236    0.698575    0.002190
      7          1           0       -3.213663   -1.553759    0.001142
      8          1           0       -0.969275   -2.561256    0.024304
      9          1           0       -1.442777    2.362997    0.001831
     10         15           0        1.772547   -1.436613   -0.111994
     11         17           0        1.313990    1.759353   -0.001841
     12          1           0       -3.468098    0.922144   -0.005626
     13          1           0        1.389395   -2.720587    0.351149
     14          1           0        2.269524   -1.022620    1.149968
 ---------------------------------------------------------------------

 SCF Done:  E(RHF) =  -1032.50351104     A.U. after    2 cycles

 The electronic state is 1-A.
 Alpha  occ. eigenvalues -- -105.19063 -99.89749 -11.52564 -11.46711 -11.45170
 Alpha  occ. eigenvalues --  -11.42876 -11.42580 -11.38313 -10.47105  -9.67091
 Alpha  occ. eigenvalues --   -9.66344  -9.66078  -2.76014  -1.51559  -1.46124
 Alpha  occ. eigenvalues --   -1.43809  -1.39303  -1.28220  -1.10282  -1.08143
 Alpha  occ. eigenvalues --   -0.88337  -0.86609  -0.75826  -0.69908  -0.64417
 Alpha  occ. eigenvalues --   -0.61850  -0.60166  -0.57850  -0.52443  -0.49738
 Alpha  occ. eigenvalues --   -0.49581  -0.47234  -0.35620  -0.34210  -0.26475
 Alpha  occ. eigenvalues --   -0.24810  -0.03105
 Alpha virt. eigenvalues --    0.03310   0.05014   0.05217   0.06203   0.06764
 Alpha virt. eigenvalues --    0.08077   0.08615   0.09160   0.09552   0.10254
 Alpha virt. eigenvalues --    0.11316   0.12108   0.12792   0.13604   0.13646

 Mulliken charges:
               1
     1  C   -1.464957
     2  C   -2.408251
     3  C    2.301456
     4  C   -0.838744
     5  C   -1.697714
     6  C   -1.761473
     7  H    1.533097
     8  H    1.813665
     9  H    1.718848
    10  P    1.390912
    11  Cl  -0.785953
    12  H    1.487739
    13  H   -0.932481
    14  H   -0.356143
 Sum of Mulliken charges =   0.00000

 Dipole moment (field-independent basis, Debye):
    X=             -0.4634    Y=             -0.6021    Z=             -2.8014  Tot=              2.9026

 Test job not archived.
 1\1\GINC-SE174\SP\RHF\Aug-CC-pVDZ\C6H6Cl1P1\OHZDE\08-Apr-2025\0\\#t hf
  aug-cc-pvdz iop(5/13=1,5/36=2,99/5=2) pseudo=read geom=check guess=(r
 ead,tcheck) scf=(maxcycle=1)\\title\\0,1\C,0,-2.338776,-0.914137,0.000
 783\C,0,-1.06896,-1.481939,0.012187\C,0,0.088128,-0.689098,0.016302\C,
 0,-2.482745,0.471234,-0.001881\C,0,-1.353934,1.284245,0.001827\C,0,-0.
 092236,0.698575,0.00219\H,0,-3.213664,-1.553758,0.001142\H,0,-0.969276
 ,-2.561256,0.024304\H,0,-1.442777,2.362997,0.001831\P,0,1.772546,-1.43
 6613,-0.111994\Cl,0,1.31399,1.759353,-0.001841\H,0,-3.468098,0.922145,

 Normal termination of Gaussian 16 at Tue Apr  8 23:33:50 2025.
