 Gaussian 16, Revision C.01,

 ----------------------------------------------------------------------
 #t hf aug-cc-pvdz symm=none int=(grid=ultrafine) guess=(read,tcheck) s
 table=(opt,rrhf)
 ----------------------------------------------------------------------
 -----
 title
 -----
 Symbolic Z-matrix:
 Charge =  0 Multiplicity = 1

 SCF Done:  E(RHF) =  -588.832663565     A.U. after   15 cycles
 Normal termination of Gaussian 16 at Wed Apr  9 00:01:33 2025.
 Gaussian 16:  ES64L-G16RevC.01  3-Jul-2019

 ----------------------------------------------------------------------
 #t hf aug-cc-pvdz iop(5/13=1,5/36=2,99/5=2) pseudo=read geom=check gue
 ss=(read,tcheck) scf=(maxcycle=1)
 ----------------------------------------------------------------------
 -----
 title
 -----
 Structure from the checkpoint file:  "BDE49_nonexpt_2131_mol1.chk"
 Charge =  0 Multiplicity = 1

                         Standard orientation:
 ---------------------------------------------------------------------
 Center     Atomic      Atomic             Coordinates (Angstroms)
 Number     Number       Type             X           Y           Z
 ---------------------------------------------------------------------
      1          7           0       -0.050248    0.478763    0.000080
      2         14           0       -1.717926   -0.152357    0.000037
      3          7           0        0.908492   -0.501386    0.000153
      4          8           0        0.457219   -1.653635   -0.000190
      5          8           0        2.085917   -0.187799   -0.000123
      6          6           0        0.430264    1.857070    0.000035
      7          1           0       -0.442731    2.507628   -0.000022
      8          1           0        1.034366    2.058568   -0.887028
      9          1           0        1.034308    2.058640    0.887121
     10          1           0       -2.000829   -0.921907   -1.222874
     11          1           0       -2.507590    1.099268   -0.000057
     12          1           0       -2.000939   -0.921792    1.222995
 ---------------------------------------------------------------------

 SCF Done:  E(RHF) =  -590.303724279     A.U. after    2 cycles

 The electronic state is 1-A.
 Alpha  occ. eigenvalues --  -76.25831 -21.09826 -21.08613 -16.02349 -15.78817
 Alpha  occ. eigenvalues --  -11.42916  -5.59282  -2.24425  -2.21854  -2.21169
 Alpha  occ. eigenvalues --   -2.01693  -1.70541  -1.44299  -1.07500  -0.90046
 Alpha  occ. eigenvalues --   -0.76117  -0.72736  -0.71658  -0.66045  -0.60344
 Alpha  occ. eigenvalues --   -0.58094  -0.51519  -0.50307  -0.49544  -0.38356
 Alpha  occ. eigenvalues --   -0.37878  -0.32588  -0.31792
 Alpha virt. eigenvalues --    0.03129   0.04415   0.05504   0.05795   0.06830
 Alpha virt. eigenvalues --    0.06947   0.07711   0.09760   0.09893   0.11763
 Alpha virt. eigenvalues --    0.13455   0.14556   0.14781   0.15723   0.16274

 Mulliken charges:
               1
     1  N   -2.245847
     2  Si   6.104673
     3  N    5.970492
     4  O   -2.857255
     5  O   -2.953634
     6  C   -3.164543
     7  H    1.563492
     8  H    1.441012
     9  H    1.441038
    10  H   -1.780166
    11  H   -1.739001
    12  H   -1.780261
 Sum of Mulliken charges =   0.00000

 Dipole moment (field-independent basis, Debye):
    X=             -0.8250    Y=              1.8971    Z=             -0.0002  Tot=              2.0687

 Test job not archived.
 1\1\GINC-SE341\SP\RHF\Aug-CC-pVDZ\C1H6N2O2Si1\OHZDE\09-Apr-2025\0\\#t
 hf aug-cc-pvdz iop(5/13=1,5/36=2,99/5=2) pseudo=read geom=check guess=
 (read,tcheck) scf=(maxcycle=1)\\title\\0,1\N,0,0.050248,0.478763,-0.00
 008\Si,0,1.717926,-0.152356,-0.000037\N,0,-0.908492,-0.501386,-0.00015
 3\O,0,-0.457219,-1.653635,0.00019\O,0,-2.085917,-0.1878,0.000123\C,0,-
 0.430265,1.85707,-0.000035\H,0,0.44273,2.507628,0.000022\H,0,-1.034367
 ,2.058568,0.887028\H,0,-1.034309,2.05864,-0.887121\H,0,2.000829,-0.921
 906,1.222874\H,0,2.50759,1.099269,0.000057\H,0,2.000939,-0.921791,-1.2

 Normal termination of Gaussian 16 at Wed Apr  9 00:01:36 2025.
