 Gaussian 16, Revision C.01,

 ----------------------------------------------------------------------
 #t hf aug-cc-pvdz symm=none int=(grid=ultrafine) guess=(read,tcheck) s
 table=opt
 ----------------------------------------------------------------------
 -----
 title
 -----
 Symbolic Z-matrix:
 Charge =  0 Multiplicity = 2

 SCF Done:  E(UHF) =  -407.745087598     A.U. after   14 cycles

 1\1\GINC-SE366\Stability\UHF\Aug-CC-pVDZ\C3H9Si1\OHZDE\08-Apr-2025\0\\
 #t hf aug-cc-pvdz symm=none int=(grid=ultrafine) guess=(read,tcheck) s
 table=opt\\title\\0,2\Si,0,-1.434408,0.,-0.136484\C,0,0.402658,0.,0.36
 5339\C,0,1.132159,-1.272558,-0.097949\H,0,1.175734,-1.328735,-1.190441
 \H,0,0.640943,-2.181099,0.261616\C,0,1.132159,1.272558,-0.097949\H,0,2
 .163104,-1.284985,0.27259\H,0,0.382914,0.,1.465828\H,0,2.163104,1.2849
 85,0.27259\H,0,1.175734,1.328735,-1.190441\H,0,0.640943,2.181099,0.261
 616\H,0,-2.131308,-1.214033,0.37039\H,0,-2.131308,1.214034,0.370387\\V

 Normal termination of Gaussian 16 at Tue Apr  8 23:42:30 2025.
 Gaussian 16:  ES64L-G16RevC.01  3-Jul-2019

 ----------------------------------------------------------------------
 #t hf aug-cc-pvdz iop(5/13=1,5/36=2,99/5=2) pseudo=read geom=check gue
 ss=(read,tcheck) scf=(maxcycle=1)
 ----------------------------------------------------------------------
 -----
 title
 -----
 Structure from the checkpoint file:  "BDE49_nonexpt_1668_mol2.chk"
 Charge =  0 Multiplicity = 2

                         Standard orientation:
 ---------------------------------------------------------------------
 Center     Atomic      Atomic             Coordinates (Angstroms)
 Number     Number       Type             X           Y           Z
 ---------------------------------------------------------------------
      1         14           0       -1.434408   -0.000000   -0.136484
      2          6           0        0.402658    0.000000    0.365339
      3          6           0        1.132159   -1.272558   -0.097949
      4          1           0        1.175734   -1.328735   -1.190441
      5          1           0        0.640943   -2.181099    0.261616
      6          6           0        1.132159    1.272558   -0.097949
      7          1           0        2.163104   -1.284985    0.272590
      8          1           0        0.382914    0.000000    1.465828
      9          1           0        2.163104    1.284985    0.272590
     10          1           0        1.175734    1.328735   -1.190441
     11          1           0        0.640943    2.181099    0.261616
     12          1           0       -2.131308   -1.214033    0.370390
     13          1           0       -2.131308    1.214034    0.370387
 ---------------------------------------------------------------------

 SCF Done:  E(UHF) =  -408.512660654     A.U. after    2 cycles

 The electronic state is 2-A.
 Alpha  occ. eigenvalues --  -76.21553 -11.40312 -11.38469 -11.34722  -5.54968
 Alpha  occ. eigenvalues --   -2.18835  -2.17385  -2.16506  -1.20930  -1.00098
 Alpha  occ. eigenvalues --   -0.85137  -0.72792  -0.62303  -0.58438  -0.56095
 Alpha  occ. eigenvalues --   -0.53444  -0.47369  -0.47076  -0.44807  -0.38272
 Alpha  occ. eigenvalues --   -0.26553
 Alpha virt. eigenvalues --    0.03716   0.05352   0.05727   0.05992   0.06286
 Alpha virt. eigenvalues --    0.06350   0.06774   0.06982   0.08199   0.09888
 Alpha virt. eigenvalues --    0.09915   0.10975   0.13808   0.14298   0.14902

  Beta  occ. eigenvalues --  -76.21018 -11.40280 -11.38469 -11.34699  -5.54134
  Beta  occ. eigenvalues --   -2.18173  -2.16767  -2.13061  -1.20669  -1.00093
  Beta  occ. eigenvalues --   -0.84281  -0.69013  -0.62017  -0.58041  -0.56033
  Beta  occ. eigenvalues --   -0.53443  -0.46905  -0.46763  -0.44546  -0.37231
  Beta virt. eigenvalues --    0.03131   0.04742   0.05597   0.05757   0.06189
  Beta virt. eigenvalues --    0.06407   0.06410   0.06927   0.07070   0.09903
  Beta virt. eigenvalues --    0.10045   0.10666   0.11206   0.14009   0.14947

 Mulliken charges and spin densities:
               1          2
     1  Si   3.506536   1.148261
     2  C   -2.871170  -0.178526
     3  C   -3.536903   0.054727
     4  H    1.323574  -0.009026
     5  H    1.302708  -0.007030
     6  C   -3.536903   0.054727
     7  H    1.252736   0.002975
     8  H    1.701689  -0.029430
     9  H    1.252736   0.002975
    10  H    1.323574  -0.009026
    11  H    1.302708  -0.007030
    12  H   -1.510643  -0.011798
    13  H   -1.510643  -0.011798
 Sum of Mulliken charges =  -0.00000   1.00000

 Dipole moment (field-independent basis, Debye):
    X=              0.9906    Y=              0.0000    Z=              0.1195  Tot=              0.9978
                          Isotropic Fermi Contact Couplings
        Atom                 a.u.       MegaHertz       Gauss      10(-4) cm-1
     1  Si(29)             0.42101    -374.16171    -133.51020    -124.80691
     2  C(13)              0.01199      13.47361       4.80772       4.49431
     3  C(13)              0.00049       0.55196       0.19695       0.18411
     4  H(1)              -0.00022      -0.99780      -0.35604      -0.33283
     5  H(1)              -0.00008      -0.34393      -0.12272      -0.11472
     6  C(13)              0.00049       0.55193       0.19694       0.18411
     7  H(1)              -0.00032      -1.44326      -0.51499      -0.48142
     8  H(1)               0.00549      24.51996       8.74933       8.17898

 Normal termination of Gaussian 16 at Tue Apr  8 23:42:33 2025.
