 Gaussian 16, Revision C.01,

 ----------------------------------------------------------------------
 #t hf aug-cc-pvdz symm=none int=(grid=ultrafine) guess=(read,tcheck) s
 table=(opt,rrhf)
 ----------------------------------------------------------------------
 -----
 title
 -----
 Symbolic Z-matrix:
 Charge =  0 Multiplicity = 1

 SCF Done:  E(RHF) =  -309.104423159     A.U. after   14 cycles

 1\1\GINC-SE362\Stability\RHF\Aug-CC-pVDZ\C6H12O1\OHZDE\08-Apr-2025\0\\
 #t hf aug-cc-pvdz symm=none int=(grid=ultrafine) guess=(read,tcheck) s
 table=(opt,rrhf)\\title\\0,1\C,0,1.125006,0.231028,-0.408964\C,0,2.102
 991,-0.947171,-0.473208\C,0,-0.262168,-0.228682,0.055923\O,0,-0.390104
 ,-1.056479,0.930812\C,0,-1.461832,0.422581,-0.617213\H,0,1.786143,-1.6
 8859,-1.211661\H,0,2.155897,-1.444911,0.496734\H,0,3.103786,-0.602645,
 -0.746905\C,0,1.623172,1.324887,0.557922\H,0,1.022315,0.677675,-1.4049
 15\H,0,2.598299,1.699991,0.236518\H,0,1.727309,0.918439,1.567173\H,0,0

 Normal termination of Gaussian 16 at Tue Apr  8 22:37:03 2025.
 Gaussian 16:  ES64L-G16RevC.01  3-Jul-2019

 ----------------------------------------------------------------------
 #t hf aug-cc-pvdz iop(5/13=1,5/36=2,99/5=2) pseudo=read geom=check gue
 ss=(read,tcheck) scf=(maxcycle=1)
 ----------------------------------------------------------------------
 -----
 title
 -----
 Structure from the checkpoint file:  "BDE49_expt_1091_mol1.chk"
 Charge =  0 Multiplicity = 1

                         Standard orientation:
 ---------------------------------------------------------------------
 Center     Atomic      Atomic             Coordinates (Angstroms)
 Number     Number       Type             X           Y           Z
 ---------------------------------------------------------------------
      1          6           0        1.125006    0.231028   -0.408964
      2          6           0        2.102991   -0.947171   -0.473208
      3          6           0       -0.262168   -0.228682    0.055923
      4          8           0       -0.390104   -1.056479    0.930812
      5          6           0       -1.461832    0.422581   -0.617213
      6          1           0        1.786143   -1.688590   -1.211661
      7          1           0        2.155897   -1.444911    0.496734
      8          1           0        3.103786   -0.602645   -0.746905
      9          6           0        1.623172    1.324887    0.557922
     10          1           0        1.022315    0.677675   -1.404915
     11          1           0        2.598299    1.699991    0.236518
     12          1           0        1.727309    0.918439    1.567173
     13          1           0        0.936605    2.175087    0.603074
     14          6           0       -2.802441    0.061455    0.014961
     15          1           0       -1.431302    0.123106   -1.674008
     16          1           0       -1.300913    1.508029   -0.628576
     17          1           0       -2.950958   -1.019647    0.017405
     18          1           0       -3.627265    0.524925   -0.531522
     19          1           0       -2.847454    0.395789    1.053653
 ---------------------------------------------------------------------

 SCF Done:  E(RHF) =  -310.609984206     A.U. after    2 cycles

 The electronic state is 1-A.
 Alpha  occ. eigenvalues --  -21.04266 -11.50010 -11.42227 -11.41505 -11.38928
 Alpha  occ. eigenvalues --  -11.37064 -11.35896  -1.70325  -1.24589  -1.16001
 Alpha  occ. eigenvalues --   -1.00653  -0.96134  -0.86635  -0.72163  -0.66577
 Alpha  occ. eigenvalues --   -0.63121  -0.61558  -0.56655  -0.55714  -0.53967
 Alpha  occ. eigenvalues --   -0.52696  -0.49904  -0.49125  -0.46723  -0.44622
 Alpha  occ. eigenvalues --   -0.44559  -0.39578  -0.27286
 Alpha virt. eigenvalues --    0.03550   0.04902   0.05083   0.05361   0.05451
 Alpha virt. eigenvalues --    0.05628   0.06380   0.07009   0.07487   0.08198
 Alpha virt. eigenvalues --    0.08546   0.09254   0.11767   0.12925   0.14047

 Mulliken charges:
               1
     1  C   -2.813856
     2  C   -3.948895
     3  C    5.909296
     4  O   -3.614225
     5  C   -3.830260
     6  H    1.235690
     7  H    1.444021
     8  H    1.172632
     9  C   -4.027439
    10  H    1.877117
    11  H    1.293543
    12  H    1.312902
    13  H    1.291236
    14  C   -3.922715
    15  H    1.417815
    16  H    1.526709
    17  H    1.335774
    18  H    1.027008
    19  H    1.313648
 Sum of Mulliken charges =   0.00000

 Dipole moment (field-independent basis, Debye):
    X=              0.1847    Y=              0.8895    Z=             -0.8799  Tot=              1.2647

 Test job not archived.
 1\1\GINC-SE362\SP\RHF\Aug-CC-pVDZ\C6H12O1\OHZDE\08-Apr-2025\0\\#t hf a
 ug-cc-pvdz iop(5/13=1,5/36=2,99/5=2) pseudo=read geom=check guess=(rea
 d,tcheck) scf=(maxcycle=1)\\title\\0,1\C,0,1.125006,0.231028,-0.408964
 \C,0,2.102991,-0.947171,-0.473208\C,0,-0.262168,-0.228682,0.055923\O,0
 ,-0.390104,-1.056479,0.930812\C,0,-1.461832,0.422581,-0.617213\H,0,1.7
 86143,-1.68859,-1.211661\H,0,2.155897,-1.444911,0.496734\H,0,3.103786,
 -0.602645,-0.746905\C,0,1.623172,1.324887,0.557922\H,0,1.022315,0.6776
 75,-1.404915\H,0,2.598299,1.699991,0.236518\H,0,1.727309,0.918439,1.56

 Normal termination of Gaussian 16 at Tue Apr  8 22:37:09 2025.
