 Gaussian 16, Revision C.01,

 ----------------------------------------------------------------------
 #t hf aug-cc-pvdz symm=none int=(grid=ultrafine) guess=(read,tcheck) s
 table=(opt,rrhf)
 ----------------------------------------------------------------------
 -----
 title
 -----
 Symbolic Z-matrix:
 Charge =  0 Multiplicity = 1

 SCF Done:  E(RHF) =  -1200.56533473     A.U. after   15 cycles
 Normal termination of Gaussian 16 at Tue Apr  8 22:39:34 2025.
 Gaussian 16:  ES64L-G16RevC.01  3-Jul-2019

 ----------------------------------------------------------------------
 #t hf aug-cc-pvdz iop(5/13=1,5/36=2,99/5=2) pseudo=read geom=check gue
 ss=(read,tcheck) scf=(maxcycle=1)
 ----------------------------------------------------------------------
 -----
 title
 -----
 Structure from the checkpoint file:  "BDE49_expt_1241_mol1.chk"
 Charge =  0 Multiplicity = 1

                         Standard orientation:
 ---------------------------------------------------------------------
 Center     Atomic      Atomic             Coordinates (Angstroms)
 Number     Number       Type             X           Y           Z
 ---------------------------------------------------------------------
      1          6           0        0.225957    0.000003    0.321654
      2          7           0       -1.268097   -0.000048   -0.204874
      3          8           0       -1.427405   -0.000047   -1.401843
      4          8           0       -2.127763   -0.000038    0.654286
      5          6           0        0.270089    0.000008    1.830218
      6          1           0       -0.229198    0.887784    2.216209
      7          1           0        1.312733    0.000045    2.147110
      8          1           0       -0.229135   -0.887802    2.216213
      9         17           0        0.984973   -1.469542   -0.355178
     10         17           0        0.984871    1.469597   -0.355186
 ---------------------------------------------------------------------

 SCF Done:  E(RHF) =  -1202.29402176     A.U. after    2 cycles

 The electronic state is 1-A.
 Alpha  occ. eigenvalues --  -99.93270 -99.93263 -21.12139 -21.11946 -16.01975
 Alpha  occ. eigenvalues --  -11.58525 -11.42528 -10.50708 -10.50527  -9.70672
 Alpha  occ. eigenvalues --   -9.70491  -9.69762  -9.69714  -9.69655  -9.69602
 Alpha  occ. eigenvalues --   -2.02250  -1.72171  -1.44930  -1.32464  -1.17689
 Alpha  occ. eigenvalues --   -1.06102  -0.85551  -0.75400  -0.75387  -0.68789
 Alpha  occ. eigenvalues --   -0.65870  -0.61837  -0.59175  -0.57601  -0.56828
 Alpha  occ. eigenvalues --   -0.54151  -0.52324  -0.51636  -0.37528  -0.33740
 Alpha  occ. eigenvalues --   -0.33391
 Alpha virt. eigenvalues --    0.02239   0.03536   0.04994   0.06065   0.06674
 Alpha virt. eigenvalues --    0.07781   0.09791   0.10873   0.11956   0.13025
 Alpha virt. eigenvalues --    0.13407   0.15286   0.15901   0.16123   0.16615

 Mulliken charges:
               1
     1  C   -0.350062
     2  N    4.629845
     3  O   -3.042398
     4  O   -2.604737
     5  C   -2.653445
     6  H    1.255224
     7  H    1.224409
     8  H    1.255216
     9  Cl   0.142968
    10  Cl   0.142981
 Sum of Mulliken charges =   0.00000

 Dipole moment (field-independent basis, Debye):
    X=              0.2001    Y=              0.0000    Z=              1.9115  Tot=              1.9220

 Test job not archived.
 1\1\GINC-SE455\SP\RHF\Aug-CC-pVDZ\C2H3Cl2N1O2\OHZDE\08-Apr-2025\0\\#t
 hf aug-cc-pvdz iop(5/13=1,5/36=2,99/5=2) pseudo=read geom=check guess=
 (read,tcheck) scf=(maxcycle=1)\\title\\0,1\C,0,0.225957,0.000003,0.321
 654\N,0,-1.268097,-0.00005,-0.204874\O,0,-1.427405,-0.000049,-1.401843
 \O,0,-2.127763,-0.000041,0.654286\C,0,0.270089,0.000008,1.830218\H,0,-
 0.229199,0.887784,2.216209\H,0,1.312733,0.000047,2.14711\H,0,-0.229134
 ,-0.887802,2.216213\Cl,0,0.984975,-1.469541,-0.355178\Cl,0,0.984869,1.
 469598,-0.355186\\Version=ES64L-G16RevC.01\State=1-A\HF=-1202.2940218\

 Normal termination of Gaussian 16 at Tue Apr  8 22:39:37 2025.
