 Gaussian 16, Revision C.01,

 ----------------------------------------------------------------------
 #t hf aug-cc-pvdz symm=none int=(grid=ultrafine) guess=(read,tcheck) s
 table=(opt,rrhf)
 ----------------------------------------------------------------------
 -----
 title
 -----
 Symbolic Z-matrix:
 Charge =  0 Multiplicity = 1

 SCF Done:  E(RHF) =  -345.990589594     A.U. after   14 cycles

 1\1\GINC-SE339\Stability\RHF\Aug-CC-pVDZ\C5H12O2\OHZDE\08-Apr-2025\0\\
 #t hf aug-cc-pvdz symm=none int=(grid=ultrafine) guess=(read,tcheck) s
 table=(opt,rrhf)\\title\\0,1\O,0,2.808763,0.246142,0.067075\O,0,1.5042
 27,-0.391446,0.059684\H,0,3.178253,-0.10803,-0.753395\C,0,0.535555,0.6
 43242,-0.095095\C,0,-0.865099,0.012499,-0.00361\C,0,-1.048419,-1.03361
 ,-1.118783\H,0,-0.91828,-0.581379,-2.107215\H,0,-2.052989,-1.464721,-1
 .077985\H,0,-0.324932,-1.845247,-1.0213\C,0,-1.888227,1.14835,-0.18588
 1\H,0,-1.776207,1.635702,-1.159298\H,0,-1.77941,1.912103,0.590095\H,0,

 Normal termination of Gaussian 16 at Tue Apr  8 22:57:25 2025.
 Gaussian 16:  ES64L-G16RevC.01  3-Jul-2019

 ----------------------------------------------------------------------
 #t hf aug-cc-pvdz iop(5/13=1,5/36=2,99/5=2) pseudo=read geom=check gue
 ss=(read,tcheck) scf=(maxcycle=1)
 ----------------------------------------------------------------------
 -----
 title
 -----
 Structure from the checkpoint file:  "BDE49_expt_1849_mol1.chk"
 Charge =  0 Multiplicity = 1

                         Standard orientation:
 ---------------------------------------------------------------------
 Center     Atomic      Atomic             Coordinates (Angstroms)
 Number     Number       Type             X           Y           Z
 ---------------------------------------------------------------------
      1          8           0        2.808763    0.246142    0.067075
      2          8           0        1.504227   -0.391446    0.059684
      3          1           0        3.178253   -0.108030   -0.753395
      4          6           0        0.535555    0.643242   -0.095095
      5          6           0       -0.865099    0.012499   -0.003610
      6          6           0       -1.048419   -1.033610   -1.118783
      7          1           0       -0.918280   -0.581379   -2.107215
      8          1           0       -2.052989   -1.464721   -1.077985
      9          1           0       -0.324932   -1.845247   -1.021300
     10          6           0       -1.888227    1.148350   -0.185881
     11          1           0       -1.776207    1.635702   -1.159298
     12          1           0       -1.779410    1.912103    0.590095
     13          1           0       -2.906720    0.754513   -0.125459
     14          6           0       -1.057888   -0.643910    1.375844
     15          1           0       -0.325216   -1.435604    1.541039
     16          1           0       -2.058974   -1.077796    1.456359
     17          1           0       -0.944851    0.091050    2.178748
     18          1           0        0.675001    1.134497   -1.067490
     19          1           0        0.674876    1.387916    0.696981
 ---------------------------------------------------------------------

 SCF Done:  E(RHF) =  -347.615998012     A.U. after    2 cycles

 The electronic state is 1-A.
 Alpha  occ. eigenvalues --  -21.11314 -21.08681 -11.44157 -11.40827 -11.38737
 Alpha  occ. eigenvalues --  -11.38277 -11.34756  -1.93162  -1.44585  -1.26261
 Alpha  occ. eigenvalues --   -1.00588  -1.00305  -0.95691  -0.77628  -0.66249
 Alpha  occ. eigenvalues --   -0.64278  -0.60866  -0.59594  -0.56957  -0.55150
 Alpha  occ. eigenvalues --   -0.52257  -0.51544  -0.51078  -0.48535  -0.42824
 Alpha  occ. eigenvalues --   -0.42616  -0.38893  -0.33411  -0.29009
 Alpha virt. eigenvalues --    0.03982   0.05064   0.05253   0.05397   0.05775
 Alpha virt. eigenvalues --    0.05906   0.06188   0.06908   0.07423   0.08638
 Alpha virt. eigenvalues --    0.08914   0.09584   0.11925   0.13095   0.14004

 Mulliken charges:
               1
     1  O   -0.853716
     2  O   -1.966150
     3  H    0.873793
     4  C   -1.653137
     5  C    3.232176
     6  C   -4.464977
     7  H    1.206926
     8  H    1.196665
     9  H    1.318429
    10  C   -4.532442
    11  H    1.182894
    12  H    1.194412
    13  H    1.207525
    14  C   -4.671177
    15  H    1.328908
    16  H    1.192733
    17  H    1.211169
    18  H    1.464759
    19  H    1.531212
 Sum of Mulliken charges =   0.00000

 Dipole moment (field-independent basis, Debye):
    X=             -0.3088    Y=              0.0489    Z=             -0.6346  Tot=              0.7074

 Test job not archived.
 1\1\GINC-SE339\SP\RHF\Aug-CC-pVDZ\C5H12O2\OHZDE\08-Apr-2025\0\\#t hf a
 ug-cc-pvdz iop(5/13=1,5/36=2,99/5=2) pseudo=read geom=check guess=(rea
 d,tcheck) scf=(maxcycle=1)\\title\\0,1\O,0,2.808763,0.246142,0.067075\
 O,0,1.504227,-0.391446,0.059684\H,0,3.178253,-0.10803,-0.753395\C,0,0.
 535555,0.643242,-0.095095\C,0,-0.865099,0.012499,-0.00361\C,0,-1.04841
 9,-1.03361,-1.118783\H,0,-0.91828,-0.581379,-2.107215\H,0,-2.052989,-1
 .464721,-1.077985\H,0,-0.324932,-1.845247,-1.0213\C,0,-1.888227,1.1483
 5,-0.185881\H,0,-1.776207,1.635702,-1.159298\H,0,-1.77941,1.912103,0.5

 Normal termination of Gaussian 16 at Tue Apr  8 22:57:31 2025.
