 Gaussian 16, Revision C.01,

 ----------------------------------------------------------------------
 #t hf aug-cc-pvdz symm=none int=(grid=ultrafine) guess=(read,tcheck) s
 table=(opt,rrhf)
 ----------------------------------------------------------------------
 -----
 title
 -----
 Symbolic Z-matrix:
 Charge =  0 Multiplicity = 1

 SCF Done:  E(RHF) =  -944.749317426     A.U. after   15 cycles
 Normal termination of Gaussian 16 at Wed Apr  9 00:11:12 2025.
 Gaussian 16:  ES64L-G16RevC.01  3-Jul-2019

 ----------------------------------------------------------------------
 #t hf aug-cc-pvdz iop(5/13=1,5/36=2,99/5=2) pseudo=read geom=check gue
 ss=(read,tcheck) scf=(maxcycle=1)
 ----------------------------------------------------------------------
 -----
 title
 -----
 Structure from the checkpoint file:  "BDE49_nonexpt_2353_mol1.chk"
 Charge =  0 Multiplicity = 1

                         Standard orientation:
 ---------------------------------------------------------------------
 Center     Atomic      Atomic             Coordinates (Angstroms)
 Number     Number       Type             X           Y           Z
 ---------------------------------------------------------------------
      1         14           0        1.124466   -1.176727    0.210839
      2         14           0       -1.041554   -1.102473   -0.710008
      3          6           0        1.864464    0.588562   -0.025478
      4          8           0        1.311236    1.571913   -0.391442
      5          1           0        2.042567   -2.122952   -0.461244
      6          1           0        1.135457   -1.429719    1.668086
      7          9           0        3.199501    0.642945    0.296294
      8          6           0       -2.036102    0.259386    0.264753
      9          1           0       -1.721833   -2.397852   -0.492813
     10          1           0       -0.926874   -0.824500   -2.163060
     11          8           0       -2.400778   -0.039016    1.382268
     12          6           0       -2.287681    1.617717   -0.345047
     13          1           0       -2.838034    1.511297   -1.285745
     14          1           0       -1.326880    2.084795   -0.586089
     15          1           0       -2.848435    2.244059    0.350603
 ---------------------------------------------------------------------

 SCF Done:  E(RHF) =  -946.536812919     A.U. after    2 cycles

 The electronic state is 1-A.
 Alpha  occ. eigenvalues --  -76.25642 -76.24207 -29.30023 -21.10641 -21.07223
 Alpha  occ. eigenvalues --  -11.52945 -11.48200 -11.38880  -5.59248  -5.57807
 Alpha  occ. eigenvalues --   -2.22561  -2.21604  -2.21283  -2.20848  -2.20210
 Alpha  occ. eigenvalues --   -2.19129  -1.77015  -1.71544  -1.11329  -1.05075
 Alpha  occ. eigenvalues --   -0.86286  -0.79845  -0.70961  -0.64763  -0.61107
 Alpha  occ. eigenvalues --   -0.59711  -0.57890  -0.56981  -0.55643  -0.49939
 Alpha  occ. eigenvalues --   -0.49490  -0.47536  -0.44637  -0.43006  -0.38744
 Alpha  occ. eigenvalues --   -0.30135  -0.28711  -0.28132  -0.26821
 Alpha virt. eigenvalues --    0.03516   0.04353   0.05173   0.05842   0.06290
 Alpha virt. eigenvalues --    0.06713   0.07375   0.07663   0.07856   0.08356
 Alpha virt. eigenvalues --    0.08645   0.09267   0.09802   0.10850   0.11266

 Mulliken charges:
               1
     1  Si   4.399023
     2  Si   4.270799
     3  C    0.878891
     4  O   -2.406825
     5  H   -1.751931
     6  H   -1.710026
     7  F    0.470721
     8  C    1.500849
     9  H   -1.888697
    10  H   -1.543139
    11  O   -2.635302
    12  C   -3.612754
    13  H    1.383025
    14  H    1.415024
    15  H    1.230342
 Sum of Mulliken charges =  -0.00000

 Dipole moment (field-independent basis, Debye):
    X=              2.3765    Y=             -0.3517    Z=              0.2849  Tot=              2.4192

 Test job not archived.
 1\1\GINC-SE453\SP\RHF\Aug-CC-pVDZ\C3H7F1O2Si2\OHZDE\09-Apr-2025\0\\#t
 hf aug-cc-pvdz iop(5/13=1,5/36=2,99/5=2) pseudo=read geom=check guess=
 (read,tcheck) scf=(maxcycle=1)\\title\\0,1\Si,0,1.124466,-1.176727,0.2
 10839\Si,0,-1.041554,-1.102473,-0.710008\C,0,1.864464,0.588562,-0.0254
 78\O,0,1.311236,1.571913,-0.391442\H,0,2.042567,-2.122952,-0.461244\H,
 0,1.135457,-1.429719,1.668086\F,0,3.199501,0.642945,0.296294\C,0,-2.03
 6102,0.259386,0.264753\H,0,-1.721833,-2.397852,-0.492813\H,0,-0.926874
 ,-0.8245,-2.16306\O,0,-2.400778,-0.039016,1.382268\C,0,-2.287681,1.617

 Normal termination of Gaussian 16 at Wed Apr  9 00:11:18 2025.
