 Gaussian 16, Revision C.01,

 ----------------------------------------------------------------------
 #t hf aug-cc-pvdz symm=none int=(grid=ultrafine) guess=(read,tcheck) s
 table=(opt,rrhf)
 ----------------------------------------------------------------------
 -----
 title
 -----
 Symbolic Z-matrix:
 Charge =  0 Multiplicity = 1

 SCF Done:  E(RHF) =  -178.178378096     A.U. after   13 cycles
 Normal termination of Gaussian 16 at Wed Apr  9 00:27:57 2025.
 Gaussian 16:  ES64L-G16RevC.01  3-Jul-2019

 ----------------------------------------------------------------------
 #t hf aug-cc-pvdz iop(5/13=1,5/36=2,99/5=2) pseudo=read geom=check gue
 ss=(read,tcheck) scf=(maxcycle=1)
 ----------------------------------------------------------------------
 -----
 title
 -----
 Structure from the checkpoint file:  "BDE49_nonexpt_293_mol1.chk"
 Charge =  0 Multiplicity = 1

                         Standard orientation:
 ---------------------------------------------------------------------
 Center     Atomic      Atomic             Coordinates (Angstroms)
 Number     Number       Type             X           Y           Z
 ---------------------------------------------------------------------
      1          6           0        1.482241   -0.287924    0.000016
      2          6           0        0.014544   -0.032526    0.000037
      3          1           0        2.040747    0.649811   -0.000039
      4          1           0        1.745751   -0.885590   -0.878612
      5          1           0        1.745780   -0.885504    0.878693
      6          5           0       -1.350130   -0.749030    0.000033
      7          8           0       -0.499085    1.088694   -0.000075
      8          1           0       -1.884793   -0.960277    1.040316
      9          1           0       -1.884862   -0.960143   -1.040244
 ---------------------------------------------------------------------

 SCF Done:  E(RHF) =  -178.993384411     A.U. after    2 cycles

 The electronic state is 1-A.
 Alpha  occ. eigenvalues --  -21.07199 -11.46938 -11.39843  -7.62876  -1.74077
 Alpha  occ. eigenvalues --   -1.12300  -0.93284  -0.72682  -0.60867  -0.60546
 Alpha  occ. eigenvalues --   -0.55163  -0.52214  -0.45735  -0.39843  -0.30077
 Alpha virt. eigenvalues --    0.02857   0.04202   0.04238   0.05149   0.06820
 Alpha virt. eigenvalues --    0.07043   0.07806   0.10529   0.12201   0.12468
 Alpha virt. eigenvalues --    0.13889   0.14018   0.14711   0.16458   0.17001

 Mulliken charges:
               1
     1  C   -3.995939
     2  C    1.585971
     3  H    1.218686
     4  H    1.292279
     5  H    1.292302
     6  B    7.070600
     7  O   -2.433317
     8  H   -3.015266
     9  H   -3.015316
 Sum of Mulliken charges =   0.00000

 Dipole moment (field-independent basis, Debye):
    X=              1.7006    Y=             -0.1187    Z=             -0.0000  Tot=              1.7047

 Test job not archived.
 1\1\GINC-SE109\SP\RHF\Aug-CC-pVDZ\C2H5B1O1\OHZDE\09-Apr-2025\0\\#t hf
 aug-cc-pvdz iop(5/13=1,5/36=2,99/5=2) pseudo=read geom=check guess=(re
 ad,tcheck) scf=(maxcycle=1)\\title\\0,1\C,0,1.482241,-0.287924,0.00001
 6\C,0,0.014544,-0.032526,0.000037\H,0,2.040747,0.649811,-0.000039\H,0,
 1.745751,-0.88559,-0.878612\H,0,1.74578,-0.885504,0.878693\B,0,-1.3501
 3,-0.74903,0.000033\O,0,-0.499085,1.088694,-0.000075\H,0,-1.884793,-0.
 960277,1.040316\H,0,-1.884862,-0.960143,-1.040244\\Version=ES64L-G16Re
 vC.01\State=1-A\HF=-178.9933844\RMSD=2.619e-01\Dipole=0.6690525,-0.046

 Normal termination of Gaussian 16 at Wed Apr  9 00:28:00 2025.
