 Gaussian 16, Revision C.01,

 ----------------------------------------------------------------------
 #t hf aug-cc-pvdz symm=none int=(grid=ultrafine) guess=(read,tcheck) s
 table=(opt,rrhf)
 ----------------------------------------------------------------------
 -----
 title
 -----
 Symbolic Z-matrix:
 Charge =  0 Multiplicity = 1

 SCF Done:  E(RHF) =  -632.919218061     A.U. after   12 cycles

 1\1\GINC-SE016\Stability\RHF\Aug-CC-pVDZ\C6H14S1\OHZDE\08-Apr-2025\0\\
 #t hf aug-cc-pvdz symm=none int=(grid=ultrafine) guess=(read,tcheck) s
 table=(opt,rrhf)\\title\\0,1\C,0,1.094778,1.172735,-0.193254\C,0,-0.20
 5937,0.904526,0.57195\C,0,-3.686667,-0.693857,-0.304291\C,0,-2.588018,
 -0.033511,0.53353\H,0,-3.353452,-1.656475,-0.704116\H,0,-4.5877,-0.873
 828,0.288447\C,0,-1.303092,0.232272,-0.258856\H,0,-2.354327,-0.670873,
 1.395085\H,0,-2.962758,0.910699,0.947561\H,0,-1.536784,0.866416,-1.124
 448\H,0,-0.921529,-0.710913,-0.66423\H,0,-0.575407,1.868357,0.946708\H

 Normal termination of Gaussian 16 at Tue Apr  8 22:48:29 2025.
 Gaussian 16:  ES64L-G16RevC.01  3-Jul-2019

 ----------------------------------------------------------------------
 #t hf aug-cc-pvdz iop(5/13=1,5/36=2,99/5=2) pseudo=read geom=check gue
 ss=(read,tcheck) scf=(maxcycle=1)
 ----------------------------------------------------------------------
 -----
 title
 -----
 Structure from the checkpoint file:  "BDE49_expt_1573_mol1.chk"
 Charge =  0 Multiplicity = 1

                         Standard orientation:
 ---------------------------------------------------------------------
 Center     Atomic      Atomic             Coordinates (Angstroms)
 Number     Number       Type             X           Y           Z
 ---------------------------------------------------------------------
      1          6           0        1.094778    1.172735   -0.193254
      2          6           0       -0.205937    0.904526    0.571950
      3          6           0       -3.686667   -0.693857   -0.304291
      4          6           0       -2.588018   -0.033511    0.533530
      5          1           0       -3.353452   -1.656475   -0.704116
      6          1           0       -4.587700   -0.873828    0.288447
      7          6           0       -1.303092    0.232272   -0.258856
      8          1           0       -2.354327   -0.670873    1.395085
      9          1           0       -2.962758    0.910699    0.947561
     10          1           0       -1.536784    0.866416   -1.124448
     11          1           0       -0.921529   -0.710913   -0.664230
     12          1           0       -0.575407    1.868357    0.946708
     13          1           0        0.006494    0.299603    1.460975
     14         16           0        2.040897   -0.307604   -0.721411
     15          1           0        1.768289    1.804796    0.392141
     16          6           0        2.734681   -0.852105    0.873195
     17          1           0        1.956129   -1.162758    1.571115
     18          1           0        3.345243   -0.065332    1.320903
     19          1           0        3.371176   -1.711082    0.657063
     20          1           0        0.884204    1.706561   -1.124506
     21          1           0       -3.968405   -0.063861   -1.153776
 ---------------------------------------------------------------------

 SCF Done:  E(RHF) =  -634.391715993     A.U. after    2 cycles

 The electronic state is 1-A.
 Alpha  occ. eigenvalues --  -75.66555 -13.10876 -13.07525 -13.02883 -11.43052
 Alpha  occ. eigenvalues --  -11.41583 -11.39196 -11.38825 -11.36641 -11.34129
 Alpha  occ. eigenvalues --   -8.00565  -1.28015  -1.18994  -1.09660  -0.99739
 Alpha  occ. eigenvalues --   -0.91844  -0.84473  -0.81161  -0.65284  -0.61973
 Alpha  occ. eigenvalues --   -0.59696  -0.58239  -0.57155  -0.56025  -0.55158
 Alpha  occ. eigenvalues --   -0.50418  -0.48849  -0.45384  -0.44869  -0.42205
 Alpha  occ. eigenvalues --   -0.41218  -0.34743  -0.21506
 Alpha virt. eigenvalues --    0.03506   0.04330   0.04597   0.05499   0.05679
 Alpha virt. eigenvalues --    0.05854   0.06112   0.06362   0.07760   0.07926
 Alpha virt. eigenvalues --    0.08375   0.08708   0.09258   0.10390   0.11421

 Mulliken charges:
               1
     1  C   -4.376218
     2  C   -2.268307
     3  C   -4.248655
     4  C   -2.666948
     5  H    1.316527
     6  H    1.078595
     7  C   -2.810747
     8  H    1.457750
     9  H    1.437725
    10  H    1.531803
    11  H    1.761791
    12  H    1.357479
    13  H    1.757693
    14  S    0.935510
    15  H    1.326008
    16  C   -4.819284
    17  H    1.542791
    18  H    1.396756
    19  H    1.376962
    20  H    1.602265
    21  H    1.310505
 Sum of Mulliken charges =  -0.00000

 Dipole moment (field-independent basis, Debye):
    X=              0.0244    Y=             -0.0258    Z=             -0.1623  Tot=              0.1661

 Test job not archived.
 1\1\GINC-SE016\SP\RHF\Aug-CC-pVDZ\C6H14S1\OHZDE\08-Apr-2025\0\\#t hf a
 ug-cc-pvdz iop(5/13=1,5/36=2,99/5=2) pseudo=read geom=check guess=(rea
 d,tcheck) scf=(maxcycle=1)\\title\\0,1\C,0,1.094778,1.172735,-0.193254
 \C,0,-0.205937,0.904526,0.57195\C,0,-3.686667,-0.693857,-0.304291\C,0,
 -2.588018,-0.033511,0.53353\H,0,-3.353452,-1.656475,-0.704116\H,0,-4.5
 877,-0.873828,0.288447\C,0,-1.303092,0.232272,-0.258856\H,0,-2.354327,
 -0.670873,1.395085\H,0,-2.962758,0.910699,0.947561\H,0,-1.536784,0.866
 416,-1.124448\H,0,-0.921529,-0.710913,-0.66423\H,0,-0.575407,1.868357,

 Normal termination of Gaussian 16 at Tue Apr  8 22:48:38 2025.
