 Gaussian 16, Revision C.01,

 ----------------------------------------------------------------------
 #t hf aug-cc-pvdz symm=none int=(grid=ultrafine) guess=(read,tcheck) s
 table=(opt,rrhf)
 ----------------------------------------------------------------------
 -----
 title
 -----
 Symbolic Z-matrix:
 Charge =  0 Multiplicity = 1

 SCF Done:  E(RHF) =  -840.545210821     A.U. after   13 cycles
 Normal termination of Gaussian 16 at Tue Apr  8 23:58:27 2025.
 Gaussian 16:  ES64L-G16RevC.01  3-Jul-2019

 ----------------------------------------------------------------------
 #t hf aug-cc-pvdz iop(5/13=1,5/36=2,99/5=2) pseudo=read geom=check gue
 ss=(read,tcheck) scf=(maxcycle=1)
 ----------------------------------------------------------------------
 -----
 title
 -----
 Structure from the checkpoint file:  "BDE49_nonexpt_2057_mol1.chk"
 Charge =  0 Multiplicity = 1

                         Standard orientation:
 ---------------------------------------------------------------------
 Center     Atomic      Atomic             Coordinates (Angstroms)
 Number     Number       Type             X           Y           Z
 ---------------------------------------------------------------------
      1         14           0        1.916578   -0.369456    0.000009
      2          6           0        0.050435    0.025757   -0.000041
      3         16           0       -0.564760    1.546622   -0.000005
      4          8           0       -0.660127   -1.105805   -0.000017
      5          6           0       -2.102015   -1.048481    0.000022
      6          1           0       -2.424142   -2.087035    0.000036
      7          1           0       -2.457248   -0.526525   -0.889609
      8          1           0       -2.457200   -0.526515    0.889667
      9          1           0        2.678606    0.890698   -0.000301
     10          1           0        2.227264   -1.170994   -1.205400
     11          1           0        2.227291   -1.170408    1.205801
 ---------------------------------------------------------------------

 SCF Done:  E(RHF) =  -841.618477193     A.U. after    2 cycles

 The electronic state is 1-A.
 Alpha  occ. eigenvalues --  -76.23504 -75.66341 -21.11735 -13.13357 -13.03187
 Alpha  occ. eigenvalues --  -12.98003 -11.47720 -11.42550  -8.00541  -5.57012
 Alpha  occ. eigenvalues --   -2.20853  -2.19484  -2.19054  -1.82007  -1.15494
 Alpha  occ. eigenvalues --   -1.03006  -0.84177  -0.72755  -0.64110  -0.63442
 Alpha  occ. eigenvalues --   -0.56352  -0.50859  -0.50606  -0.47983  -0.45613
 Alpha  occ. eigenvalues --   -0.36933  -0.27655  -0.22416
 Alpha virt. eigenvalues --    0.03045   0.04563   0.05793   0.05811   0.06141
 Alpha virt. eigenvalues --    0.06757   0.07184   0.08292   0.08557   0.09712
 Alpha virt. eigenvalues --    0.10479   0.12009   0.13334   0.14667   0.15110

 Mulliken charges:
               1
     1  Si   6.029640
     2  C   -0.288897
     3  S    0.887413
     4  O   -2.945070
     5  C   -2.886989
     6  H    1.378952
     7  H    1.391427
     8  H    1.391443
     9  H   -1.649337
    10  H   -1.654227
    11  H   -1.654354
 Sum of Mulliken charges =   0.00000

 Dipole moment (field-independent basis, Debye):
    X=             -1.4148    Y=              0.2175    Z=              0.0000  Tot=              1.4314

 Test job not archived.
 1\1\GINC-SE341\SP\RHF\Aug-CC-pVDZ\C2H6O1S1Si1\OHZDE\08-Apr-2025\0\\#t
 hf aug-cc-pvdz iop(5/13=1,5/36=2,99/5=2) pseudo=read geom=check guess=
 (read,tcheck) scf=(maxcycle=1)\\title\\0,1\Si,0,1.916578,-0.369456,0.0
 00009\C,0,0.050435,0.025757,-0.000041\S,0,-0.56476,1.546622,-0.000005\
 O,0,-0.660127,-1.105805,-0.000017\C,0,-2.102015,-1.048481,0.000022\H,0
 ,-2.424141,-2.087035,0.000036\H,0,-2.457248,-0.526525,-0.889609\H,0,-2
 .4572,-0.526515,0.889667\H,0,2.678606,0.890699,-0.000301\H,0,2.227264,
 -1.170993,-1.2054\H,0,2.227291,-1.170407,1.205801\\Version=ES64L-G16Re

 Normal termination of Gaussian 16 at Tue Apr  8 23:58:30 2025.
