 Gaussian 16, Revision C.01,

 ----------------------------------------------------------------------
 #t hf aug-cc-pvdz symm=none int=(grid=ultrafine) guess=(read,tcheck) s
 table=opt
 ----------------------------------------------------------------------
 -----
 title
 -----
 Symbolic Z-matrix:
 Charge =  0 Multiplicity = 2

 SCF Done:  E(UHF) =  -458.430808171     A.U. after   19 cycles
 Normal termination of Gaussian 16 at Wed Apr  9 00:11:35 2025.
 Gaussian 16:  ES64L-G16RevC.01  3-Jul-2019

 ----------------------------------------------------------------------
 #t hf aug-cc-pvdz iop(5/13=1,5/36=2,99/5=2) pseudo=read geom=check gue
 ss=(read,tcheck) scf=(maxcycle=1)
 ----------------------------------------------------------------------
 -----
 title
 -----
 Structure from the checkpoint file:  "BDE49_nonexpt_2369_mol2.chk"
 Charge =  0 Multiplicity = 2

                         Standard orientation:
 ---------------------------------------------------------------------
 Center     Atomic      Atomic             Coordinates (Angstroms)
 Number     Number       Type             X           Y           Z
 ---------------------------------------------------------------------
      1         14           0       -1.382420   -0.251639    0.000001
      2          6           0        0.519350    0.134270   -0.000005
      3          1           0       -1.944929    0.400087    1.210388
      4          1           0       -1.944935    0.400084   -1.210383
      5          8           0        0.823159    1.315497   -0.000004
      6          7           0        1.427382   -0.873787    0.000003
      7          1           0        1.136226   -1.837016    0.000009
      8          1           0        2.414466   -0.653294    0.000005
 ---------------------------------------------------------------------

 SCF Done:  E(UHF) =  -459.293161299     A.U. after    2 cycles

 The electronic state is 2-A.
 Alpha  occ. eigenvalues --  -76.24460 -21.03660 -15.79026 -11.46871  -5.57801
 Alpha  occ. eigenvalues --   -2.21013  -2.19653  -2.19341  -1.70414  -1.34744
 Alpha  occ. eigenvalues --   -0.87164  -0.76692  -0.70601  -0.57218  -0.54724
 Alpha  occ. eigenvalues --   -0.47853  -0.47471  -0.34056  -0.33043  -0.24588
 Alpha virt. eigenvalues --    0.03143   0.05087   0.05686   0.05767   0.06793
 Alpha virt. eigenvalues --    0.07945   0.09264   0.12234   0.12866   0.13843
 Alpha virt. eigenvalues --    0.14505   0.15211   0.16420   0.17515   0.18876

  Beta  occ. eigenvalues --  -76.23923 -21.03426 -15.79046 -11.46749  -5.56960
  Beta  occ. eigenvalues --   -2.20314  -2.19048  -2.15918  -1.69990  -1.34709
  Beta  occ. eigenvalues --   -0.85465  -0.74935  -0.69502  -0.55868  -0.54537
  Beta  occ. eigenvalues --   -0.47064  -0.47059  -0.32994  -0.27842
  Beta virt. eigenvalues --    0.02351   0.03960   0.05378   0.05949   0.06599
  Beta virt. eigenvalues --    0.07043   0.09183   0.09486   0.12704   0.13606
  Beta virt. eigenvalues --    0.14427   0.14577   0.16846   0.16990   0.18244

 Mulliken charges and spin densities:
               1          2
     1  Si   3.997394   0.894118
     2  C    2.618783   0.018830
     3  H   -1.511014   0.024546
     4  H   -1.511014   0.024546
     5  O   -2.505046   0.048627
     6  N   -2.591008   0.005372
     7  H    0.822195  -0.004041
     8  H    0.679711  -0.012000
 Sum of Mulliken charges =  -0.00000   1.00000

 Dipole moment (field-independent basis, Debye):
    X=              0.8990    Y=             -2.4014    Z=              0.0000  Tot=              2.5642
                          Isotropic Fermi Contact Couplings
        Atom                 a.u.       MegaHertz       Gauss      10(-4) cm-1
     1  Si(29)             0.42253    -375.51436    -133.99286    -125.25811
     2  C(13)              0.02201      24.74497       8.82962       8.25404
     3  H(1)               0.00694      31.01246      11.06602      10.34464
     4  H(1)               0.00694      31.01192      11.06582      10.34446
     5  O(17)              0.02462     -14.92443      -5.32541      -4.97825
     6  N(14)             -0.01103      -3.56351      -1.27155      -1.18866
     7  H(1)              -0.00002      -0.10402      -0.03712      -0.03470
     8  H(1)              -0.00049      -2.17274      -0.77529      -0.72475

 1\1\GINC-SE097\SP\UHF\Aug-CC-pVDZ\C1H4N1O1Si1(2)\OHZDE\09-Apr-2025\0\\
 #t hf aug-cc-pvdz iop(5/13=1,5/36=2,99/5=2) pseudo=read geom=check gue
 ss=(read,tcheck) scf=(maxcycle=1)\\title\\0,2\Si,0,-1.38242,-0.251639,
 0.000001\C,0,0.51935,0.13427,-0.000005\H,0,-1.944929,0.400087,1.210388
 \H,0,-1.944935,0.400084,-1.210383\O,0,0.823159,1.315497,-0.000004\N,0,
 1.427382,-0.873787,0.000003\H,0,1.136226,-1.837016,0.000009\H,0,2.4144
 66,-0.653294,0.000005\\Version=ES64L-G16RevC.01\State=2-A\HF=-459.2931
 613\S2=0.755022\S2-1=0.\S2A=0.750009\RMSD=7.875e-02\Dipole=0.3537115,-

 Normal termination of Gaussian 16 at Wed Apr  9 00:11:38 2025.
