 Gaussian 16, Revision C.01,

 ----------------------------------------------------------------------
 #t hf aug-cc-pvdz symm=none int=(grid=ultrafine) guess=(read,tcheck) s
 table=(opt,rrhf)
 ----------------------------------------------------------------------
 -----
 title
 -----
 Symbolic Z-matrix:
 Charge =  0 Multiplicity = 1

 SCF Done:  E(RHF) =  -1064.44518349     A.U. after   14 cycles
 Normal termination of Gaussian 16 at Wed Apr  9 00:18:42 2025.
 Gaussian 16:  ES64L-G16RevC.01  3-Jul-2019

 ----------------------------------------------------------------------
 #t hf aug-cc-pvdz iop(5/13=1,5/36=2,99/5=2) pseudo=read geom=check gue
 ss=(read,tcheck) scf=(maxcycle=1)
 ----------------------------------------------------------------------
 -----
 title
 -----
 Structure from the checkpoint file:  "BDE49_nonexpt_2565_mol1.chk"
 Charge =  0 Multiplicity = 1

                         Standard orientation:
 ---------------------------------------------------------------------
 Center     Atomic      Atomic             Coordinates (Angstroms)
 Number     Number       Type             X           Y           Z
 ---------------------------------------------------------------------
      1         17           0        2.011695   -0.834410   -0.000066
      2         16           0        0.963353    0.981168    0.000038
      3          6           0       -0.801658    0.556907    0.000030
      4          8           0       -1.511016    1.539386   -0.000005
      5          7           0       -1.163262   -0.734719    0.000032
      6          6           0       -2.562557   -1.145772    0.000012
      7          1           0       -0.436516   -1.434297    0.000054
      8          1           0       -2.791141   -1.735288   -0.891112
      9          1           0       -3.177360   -0.247764   -0.000035
     10          1           0       -2.791187   -1.735225    0.891167
 ---------------------------------------------------------------------

 SCF Done:  E(RHF) =  -1065.83297234     A.U. after    2 cycles

 The electronic state is 1-A.
 Alpha  occ. eigenvalues --  -99.92603 -75.76173 -21.05727 -15.79325 -13.18593
 Alpha  occ. eigenvalues --  -13.12202 -13.07217 -11.52971 -11.41860 -10.49699
 Alpha  occ. eigenvalues --   -9.69436  -9.69024  -9.68701  -8.09969  -1.74135
 Alpha  occ. eigenvalues --   -1.42667  -1.34576  -1.12837  -1.02434  -0.81853
 Alpha  occ. eigenvalues --   -0.71625  -0.64422  -0.62884  -0.58067  -0.57228
 Alpha  occ. eigenvalues --   -0.55849  -0.53697  -0.52362  -0.47228  -0.34150
 Alpha  occ. eigenvalues --   -0.30265  -0.27181
 Alpha virt. eigenvalues --    0.02832   0.04350   0.05554   0.05726   0.06736
 Alpha virt. eigenvalues --    0.07768   0.11021   0.12046   0.12133   0.13012
 Alpha virt. eigenvalues --    0.14019   0.14133   0.14360   0.14766   0.15708

 Mulliken charges:
               1
     1  Cl  -0.492920
     2  S    1.302921
     3  C    2.792910
     4  O   -2.661862
     5  N   -2.545947
     6  C   -3.183738
     7  H    0.734615
     8  H    1.330674
     9  H    1.392671
    10  H    1.330677
 Sum of Mulliken charges =  -0.00000

 Dipole moment (field-independent basis, Debye):
    X=             -1.6811    Y=              0.5210    Z=              0.0001  Tot=              1.7599

 Test job not archived.
 1\1\GINC-SE165\SP\RHF\Aug-CC-pVDZ\C2H4Cl1N1O1S1\OHZDE\09-Apr-2025\0\\#
 t hf aug-cc-pvdz iop(5/13=1,5/36=2,99/5=2) pseudo=read geom=check gues
 s=(read,tcheck) scf=(maxcycle=1)\\title\\0,1\Cl,0,2.011695,-0.83441,-0
 .000066\S,0,0.963353,0.981168,0.000038\C,0,-0.801658,0.556907,0.00003\
 O,0,-1.511016,1.539386,-0.000005\N,0,-1.163262,-0.734719,0.000032\C,0,
 -2.562557,-1.145772,0.000012\H,0,-0.436516,-1.434297,0.000054\H,0,-2.7
 91141,-1.735288,-0.891112\H,0,-3.17736,-0.247764,-0.000035\H,0,-2.7911
 87,-1.735225,0.891167\\Version=ES64L-G16RevC.01\State=1-A\HF=-1065.832

 Normal termination of Gaussian 16 at Wed Apr  9 00:18:46 2025.
