 Gaussian 16, Revision C.01,

 ----------------------------------------------------------------------
 #t hf aug-cc-pvdz symm=none int=(grid=ultrafine) guess=(read,tcheck) s
 table=(opt,rrhf)
 ----------------------------------------------------------------------
 -----
 title
 -----
 Symbolic Z-matrix:
 Charge =  0 Multiplicity = 1

 SCF Done:  E(RHF) =  -1363.76728618     A.U. after   13 cycles
 Normal termination of Gaussian 16 at Tue Apr  8 23:45:22 2025.
 Gaussian 16:  ES64L-G16RevC.01  3-Jul-2019

 ----------------------------------------------------------------------
 #t hf aug-cc-pvdz iop(5/13=1,5/36=2,99/5=2) pseudo=read geom=check gue
 ss=(read,tcheck) scf=(maxcycle=1)
 ----------------------------------------------------------------------
 -----
 title
 -----
 Structure from the checkpoint file:  "BDE49_nonexpt_173_mol1.chk"
 Charge =  0 Multiplicity = 1

                         Standard orientation:
 ---------------------------------------------------------------------
 Center     Atomic      Atomic             Coordinates (Angstroms)
 Number     Number       Type             X           Y           Z
 ---------------------------------------------------------------------
      1         17           0        0.172763   -1.503929    1.516757
      2         17           0        0.172763   -1.503929   -1.516757
      3          5           0       -0.022188   -0.611202   -0.000000
      4         15           0       -0.650575    1.175373    0.000000
      5          6           0        0.172763    1.974899   -1.458851
      6          6           0        0.172763    1.974899    1.458851
      7          1           0       -0.139117    1.462876   -2.369953
      8          1           0        1.262488    1.954987   -1.394238
      9          1           0       -0.162126    3.012243   -1.522770
     10          1           0       -0.139117    1.462876    2.369953
     11          1           0       -0.162126    3.012243    1.522770
     12          1           0        1.262488    1.954987    1.394238
 ---------------------------------------------------------------------

 SCF Done:  E(RHF) =  -1364.97938551     A.U. after    2 cycles

 The electronic state is 1-A'.
 Alpha  occ. eigenvalues -- -105.16316 -99.90066 -99.90050 -11.38417 -11.38151
 Alpha  occ. eigenvalues --  -10.47451 -10.47211  -9.67390  -9.67143  -9.66979
 Alpha  occ. eigenvalues --   -9.66866  -9.66767  -9.66602  -7.71290  -2.75310
 Alpha  occ. eigenvalues --   -1.52381  -1.48458  -1.44024  -1.36568  -1.29605
 Alpha  occ. eigenvalues --   -1.05139  -0.97565  -0.80318  -0.66783  -0.62759
 Alpha  occ. eigenvalues --   -0.58398  -0.58148  -0.57147  -0.56877  -0.56332
 Alpha  occ. eigenvalues --   -0.55085  -0.52395  -0.49902  -0.20823  -0.19153
 Alpha  occ. eigenvalues --   -0.04355
 Alpha virt. eigenvalues --    0.02143   0.04323   0.04372   0.05010   0.06487
 Alpha virt. eigenvalues --    0.06734   0.07678   0.07980   0.08321   0.09348
 Alpha virt. eigenvalues --    0.10855   0.11627   0.12207   0.12716   0.13676

 Mulliken charges:
               1
     1  Cl  -1.395171
     2  Cl  -1.395171
     3  B    1.721471
     4  P    5.819113
     5  C   -6.073876
     6  C   -6.073876
     7  H    1.199625
     8  H    1.301957
     9  H    1.197173
    10  H    1.199625
    11  H    1.197173
    12  H    1.301957
 Sum of Mulliken charges =   0.00000

 Dipole moment (field-independent basis, Debye):
    X=             -5.4875    Y=              9.2782    Z=             -0.0000  Tot=             10.7795

 Test job not archived.
 1\1\GINC-SE398\SP\RHF\Aug-CC-pVDZ\C2H6B1Cl2P1\OHZDE\08-Apr-2025\0\\#t
 hf aug-cc-pvdz iop(5/13=1,5/36=2,99/5=2) pseudo=read geom=check guess=
 (read,tcheck) scf=(maxcycle=1)\\title\\0,1\Cl,0,-0.172763,-1.503929,-1
 .516757\Cl,0,-0.172763,-1.503929,1.516757\B,0,0.022188,-0.611202,0.\P,
 0,0.650575,1.175373,0.\C,0,-0.172763,1.974899,1.458851\C,0,-0.172763,1
 .974899,-1.458851\H,0,0.139117,1.462876,2.369953\H,0,-1.262488,1.95498
 7,1.394238\H,0,0.162126,3.012243,1.52277\H,0,0.139117,1.462876,-2.3699
 53\H,0,0.162126,3.012243,-1.52277\H,0,-1.262488,1.954987,-1.394238\\Ve

 Normal termination of Gaussian 16 at Tue Apr  8 23:45:26 2025.
