 Gaussian 16, Revision C.01,

 ----------------------------------------------------------------------
 #t hf aug-cc-pvdz symm=none int=(grid=ultrafine) guess=(read,tcheck) s
 table=(opt,rrhf)
 ----------------------------------------------------------------------
 -----
 title
 -----
 Symbolic Z-matrix:
 Charge =  0 Multiplicity = 1

 SCF Done:  E(RHF) =  -1174.96108114     A.U. after   10 cycles
 Normal termination of Gaussian 16 at Tue Apr  8 22:59:43 2025.
 Gaussian 16:  ES64L-G16RevC.01  3-Jul-2019

 ----------------------------------------------------------------------
 #t hf aug-cc-pvdz iop(5/13=1,5/36=2,99/5=2) pseudo=read geom=check gue
 ss=(read,tcheck) scf=(maxcycle=1)
 ----------------------------------------------------------------------
 -----
 title
 -----
 Structure from the checkpoint file:  "BDE49_expt_1942_mol1.chk"
 Charge =  0 Multiplicity = 1

                         Standard orientation:
 ---------------------------------------------------------------------
 Center     Atomic      Atomic             Coordinates (Angstroms)
 Number     Number       Type             X           Y           Z
 ---------------------------------------------------------------------
      1         14           0       -1.167143   -0.000006   -0.000005
      2         14           0        1.167143    0.000006    0.000006
      3          9           0        1.723659   -1.078183    1.016335
      4          9           0        1.723651   -0.341087   -1.441897
      5          9           0        1.723634    1.419283    0.425555
      6          9           0       -1.723657    1.078191   -1.016327
      7          9           0       -1.723634   -1.419279   -0.425567
      8          9           0       -1.723653    0.341076    1.441899
 ---------------------------------------------------------------------

 SCF Done:  E(RHF) =  -1177.28300125     A.U. after    2 cycles

 The electronic state is 1-A.
 Alpha  occ. eigenvalues --  -76.35005 -76.35001 -29.32285 -29.32282 -29.32278
 Alpha  occ. eigenvalues --  -29.32278 -29.32277 -29.32277  -5.71755  -5.71754
 Alpha  occ. eigenvalues --   -2.36319  -2.36318  -2.35763  -2.35762  -2.31066
 Alpha  occ. eigenvalues --   -2.30698  -1.06073  -1.00518  -0.75448  -0.75448
 Alpha  occ. eigenvalues --   -0.74220  -0.74219  -0.59900  -0.46059  -0.45731
 Alpha  occ. eigenvalues --   -0.45730  -0.44991  -0.44727  -0.44727  -0.43809
 Alpha  occ. eigenvalues --   -0.40729  -0.40729  -0.37565  -0.37564  -0.33476
 Alpha  occ. eigenvalues --   -0.33476  -0.32721  -0.32721  -0.31663  -0.31116
 Alpha  occ. eigenvalues --   -0.26181
 Alpha virt. eigenvalues --    0.05922   0.07639   0.08089   0.08089   0.09038
 Alpha virt. eigenvalues --    0.09038   0.13471   0.18202   0.18202   0.20014
 Alpha virt. eigenvalues --    0.20014   0.20417   0.22231   0.23217   0.23290

 Mulliken charges:
               1
     1  Si   1.945227
     2  Si   1.945225
     3  F   -0.648422
     4  F   -0.648392
     5  F   -0.648412
     6  F   -0.648419
     7  F   -0.648412
     8  F   -0.648395
 Sum of Mulliken charges =  -0.00000

 Dipole moment (field-independent basis, Debye):
    X=             -0.0000    Y=              0.0000    Z=             -0.0000  Tot=              0.0000

 Test job not archived.
 1\1\GINC-SE366\SP\RHF\Aug-CC-pVDZ\F6Si2\OHZDE\08-Apr-2025\0\\#t hf aug
 -cc-pvdz iop(5/13=1,5/36=2,99/5=2) pseudo=read geom=check guess=(read,
 tcheck) scf=(maxcycle=1)\\title\\0,1\Si,0,1.167143,0.000006,-0.000005\
 Si,0,-1.167143,-0.000006,0.000006\F,0,-1.723659,1.073554,1.021224\F,0,
 -1.723651,0.347635,-1.440332\F,0,-1.723634,-1.421202,0.419102\F,0,1.72
 3657,-1.073562,-1.021216\F,0,1.723634,1.421198,-0.419114\F,0,1.723653,
 -0.347624,1.440334\\Version=ES64L-G16RevC.01\State=1-A\HF=-1177.283001
 2\RMSD=4.207e-02\Dipole=0.0000004,-0.0000003,-0.0000004\Quadrupole=1.7

 Normal termination of Gaussian 16 at Tue Apr  8 22:59:46 2025.
