 Gaussian 16, Revision C.01,

 ----------------------------------------------------------------------
 #t hf aug-cc-pvdz symm=none int=(grid=ultrafine) guess=(read,tcheck) s
 table=(opt,rrhf)
 ----------------------------------------------------------------------
 -----
 title
 -----
 Symbolic Z-matrix:
 Charge =  0 Multiplicity = 1

 SCF Done:  E(RHF) =  -650.115702252     A.U. after   15 cycles

 1\1\GINC-SE166\Stability\RHF\Aug-CC-pVDZ\C8H11P1\OHZDE\08-Apr-2025\0\\
 #t hf aug-cc-pvdz symm=none int=(grid=ultrafine) guess=(read,tcheck) s
 table=(opt,rrhf)\\title\\0,1\C,0,0.170271,-0.034685,0.296621\C,0,1.026
 027,-1.062894,0.707844\C,0,2.387409,-1.025957,0.417116\C,0,2.921472,0.
 044893,-0.295228\C,0,2.081823,1.07464,-0.713963\C,0,0.720773,1.033941,
 -0.422414\P,0,-2.24368,-0.702401,-0.924813\H,0,3.030456,-1.833378,0.74
 9552\H,0,3.981125,0.077275,-0.521708\H,0,2.486569,1.913115,-1.270021\H
 ,0,0.084282,1.844778,-0.759001\H,0,0.61963,-1.901917,1.263699\C,0,-1.3

 Normal termination of Gaussian 16 at Tue Apr  8 23:31:31 2025.
 Gaussian 16:  ES64L-G16RevC.01  3-Jul-2019

 ----------------------------------------------------------------------
 #t hf aug-cc-pvdz iop(5/13=1,5/36=2,99/5=2) pseudo=read geom=check gue
 ss=(read,tcheck) scf=(maxcycle=1)
 ----------------------------------------------------------------------
 -----
 title
 -----
 Structure from the checkpoint file:  "BDE49_nonexpt_1349_mol1.chk"
 Charge =  0 Multiplicity = 1

                         Standard orientation:
 ---------------------------------------------------------------------
 Center     Atomic      Atomic             Coordinates (Angstroms)
 Number     Number       Type             X           Y           Z
 ---------------------------------------------------------------------
      1          6           0        0.170271   -0.034685    0.296621
      2          6           0        1.026027   -1.062894    0.707844
      3          6           0        2.387409   -1.025957    0.417116
      4          6           0        2.921472    0.044893   -0.295228
      5          6           0        2.081823    1.074640   -0.713963
      6          6           0        0.720773    1.033941   -0.422414
      7         15           0       -2.243680   -0.702401   -0.924813
      8          1           0        3.030456   -1.833378    0.749552
      9          1           0        3.981125    0.077275   -0.521708
     10          1           0        2.486569    1.913115   -1.270021
     11          1           0        0.084282    1.844778   -0.759001
     12          1           0        0.619630   -1.901917    1.263699
     13          6           0       -1.314504   -0.099790    0.612894
     14          6           0       -1.874532    1.190548    1.230229
     15          1           0       -1.456198   -0.912824    1.332988
     16          1           0       -1.834037    2.026989    0.528733
     17          1           0       -1.303049    1.470797    2.120921
     18          1           0       -2.918761    1.058065    1.522239
     19          1           0       -2.188717    0.518257   -1.649037
     20          1           0       -3.558522   -0.449324   -0.444770
 ---------------------------------------------------------------------

 SCF Done:  E(RHF) =  -651.839396597     A.U. after    2 cycles

 The electronic state is 1-A.
 Alpha  occ. eigenvalues -- -105.17931 -11.51792 -11.44867 -11.43095 -11.41694
 Alpha  occ. eigenvalues --  -11.40557 -11.40475 -11.37769 -11.35955  -2.74355
 Alpha  occ. eigenvalues --   -1.47311  -1.43825  -1.43347  -1.34565  -1.16835
 Alpha  occ. eigenvalues --   -1.09014  -1.05892  -0.91078  -0.86192  -0.81725
 Alpha  occ. eigenvalues --   -0.71642  -0.69972  -0.64878  -0.60920  -0.57676
 Alpha  occ. eigenvalues --   -0.56912  -0.55445  -0.52428  -0.49981  -0.49298
 Alpha  occ. eigenvalues --   -0.43730  -0.43231  -0.34143  -0.32942  -0.25529
 Alpha  occ. eigenvalues --   -0.20466  -0.02396
 Alpha virt. eigenvalues --    0.03596   0.04936   0.05184   0.05815   0.06204
 Alpha virt. eigenvalues --    0.06657   0.06787   0.07054   0.07533   0.08487
 Alpha virt. eigenvalues --    0.09704   0.10545   0.10902   0.11657   0.11995

 Mulliken charges:
               1
     1  C    6.170429
     2  C   -3.645951
     3  C   -1.456969
     4  C   -3.361969
     5  C   -2.050868
     6  C   -2.727362
     7  P    2.410311
     8  H    1.523156
     9  H    1.542973
    10  H    1.472921
    11  H    1.986115
    12  H    1.583529
    13  C   -1.231290
    14  C   -5.069576
    15  H    1.322515
    16  H    1.307519
    17  H    1.296255
    18  H    1.175343
    19  H   -1.222983
    20  H   -1.024097
 Sum of Mulliken charges =  -0.00000

 Dipole moment (field-independent basis, Debye):
    X=              0.6986    Y=             -2.2960    Z=             -0.1272  Tot=              2.4033

 Test job not archived.
 1\1\GINC-SE166\SP\RHF\Aug-CC-pVDZ\C8H11P1\OHZDE\08-Apr-2025\0\\#t hf a
 ug-cc-pvdz iop(5/13=1,5/36=2,99/5=2) pseudo=read geom=check guess=(rea
 d,tcheck) scf=(maxcycle=1)\\title\\0,1\C,0,0.170271,-0.034685,0.296621
 \C,0,1.026027,-1.062894,0.707844\C,0,2.387409,-1.025957,0.417116\C,0,2
 .921472,0.044893,-0.295228\C,0,2.081823,1.07464,-0.713963\C,0,0.720773
 ,1.033941,-0.422414\P,0,-2.24368,-0.702401,-0.924813\H,0,3.030456,-1.8
 33378,0.749552\H,0,3.981125,0.077275,-0.521708\H,0,2.486569,1.913115,-
 1.270021\H,0,0.084282,1.844778,-0.759001\H,0,0.61963,-1.901917,1.26369

 Normal termination of Gaussian 16 at Tue Apr  8 23:31:42 2025.
