 Gaussian 16, Revision C.01,

 ----------------------------------------------------------------------
 #t hf aug-cc-pvdz symm=none int=(grid=ultrafine) guess=(read,tcheck) s
 table=(opt,rrhf)
 ----------------------------------------------------------------------
 -----
 title
 -----
 Symbolic Z-matrix:
 Charge =  0 Multiplicity = 1

 SCF Done:  E(RHF) =  -934.103575443     A.U. after   14 cycles
 Normal termination of Gaussian 16 at Wed Apr  9 00:20:37 2025.
 Gaussian 16:  ES64L-G16RevC.01  3-Jul-2019

 ----------------------------------------------------------------------
 #t hf aug-cc-pvdz iop(5/13=1,5/36=2,99/5=2) pseudo=read geom=check gue
 ss=(read,tcheck) scf=(maxcycle=1)
 ----------------------------------------------------------------------
 -----
 title
 -----
 Structure from the checkpoint file:  "BDE49_nonexpt_2617_mol1.chk"
 Charge =  0 Multiplicity = 1

                         Standard orientation:
 ---------------------------------------------------------------------
 Center     Atomic      Atomic             Coordinates (Angstroms)
 Number     Number       Type             X           Y           Z
 ---------------------------------------------------------------------
      1          9           0        1.772098    0.788944   -0.446415
      2         16           0       -0.844316   -0.560801   -0.413445
      3         16           0        0.942394   -0.369703    0.474772
      4          6           0       -1.875860    0.782089    0.296695
      5          1           0       -2.877392    0.648035   -0.117963
      6          1           0       -1.478229    1.748476   -0.007026
      7          1           0       -1.907359    0.698522    1.381306
 ---------------------------------------------------------------------

 SCF Done:  E(RHF) =  -935.100732610     A.U. after    2 cycles

 The electronic state is 1-A.
 Alpha  occ. eigenvalues --  -75.77958 -75.73055 -29.26241 -13.20237 -13.13613
 Alpha  occ. eigenvalues --  -13.13493 -13.10166 -13.08795 -13.05438 -11.41627
 Alpha  occ. eigenvalues --   -8.11795  -8.07180  -1.29711  -1.12310  -0.94487
 Alpha  occ. eigenvalues --   -0.66442  -0.61030  -0.60510  -0.49240  -0.43971
 Alpha  occ. eigenvalues --   -0.38671  -0.35306  -0.26232  -0.24808  -0.19120
 Alpha virt. eigenvalues --    0.02434   0.04699   0.05538   0.07323   0.07656
 Alpha virt. eigenvalues --    0.11902   0.12978   0.13336   0.14489   0.15113
 Alpha virt. eigenvalues --    0.15537   0.17514   0.17745   0.19892   0.21500

 Mulliken charges:
               1
     1  F   -0.123620
     2  S    0.092587
     3  S    0.218498
     4  C   -4.400303
     5  H    1.346913
     6  H    1.454426
     7  H    1.411499
 Sum of Mulliken charges =  -0.00000

 Dipole moment (field-independent basis, Debye):
    X=              1.5053    Y=              1.4449    Z=             -1.2769  Tot=              2.4462

 Test job not archived.
 1\1\GINC-SE072\SP\RHF\Aug-CC-pVDZ\C1H3F1S2\OHZDE\09-Apr-2025\0\\#t hf
 aug-cc-pvdz iop(5/13=1,5/36=2,99/5=2) pseudo=read geom=check guess=(re
 ad,tcheck) scf=(maxcycle=1)\\title\\0,1\F,0,1.772098,0.788944,-0.44641
 5\S,0,-0.844316,-0.560801,-0.413445\S,0,0.942394,-0.369703,0.474772\C,
 0,-1.87586,0.782089,0.296695\H,0,-2.877392,0.648035,-0.117963\H,0,-1.4
 78229,1.748476,-0.007026\H,0,-1.907359,0.698522,1.381306\\Version=ES64
 L-G16RevC.01\State=1-A\HF=-935.1007326\RMSD=6.661e-02\Dipole=0.5922261
 ,0.568477,-0.5023541\Quadrupole=3.1378168,-1.5110359,-1.626781,0.93414

 Normal termination of Gaussian 16 at Wed Apr  9 00:20:39 2025.
