 Gaussian 16, Revision C.01,

 ----------------------------------------------------------------------
 #t hf aug-cc-pvdz symm=none int=(grid=ultrafine) guess=(read,tcheck) s
 table=opt
 ----------------------------------------------------------------------
 -----
 title
 -----
 Symbolic Z-matrix:
 Charge =  0 Multiplicity = 2

 SCF Done:  E(UHF) =  -142.882636413     A.U. after   17 cycles
 Normal termination of Gaussian 16 at Wed Apr  9 00:35:56 2025.
 Gaussian 16:  ES64L-G16RevC.01  3-Jul-2019

 ----------------------------------------------------------------------
 #t hf aug-cc-pvdz iop(5/13=1,5/36=2,99/5=2) pseudo=read geom=check gue
 ss=(read,tcheck) scf=(maxcycle=1)
 ----------------------------------------------------------------------
 -----
 title
 -----
 Structure from the checkpoint file:  "BDE49_nonexpt_468_mol2.chk"
 Charge =  0 Multiplicity = 2

                         Standard orientation:
 ---------------------------------------------------------------------
 Center     Atomic      Atomic             Coordinates (Angstroms)
 Number     Number       Type             X           Y           Z
 ---------------------------------------------------------------------
      1          1           0       -1.681171    1.961698    0.173307
      2          5           0       -0.551778    1.574572    0.165498
      3          6           0       -0.025096    0.187561   -0.263263
      4          6           0        1.440739   -0.133558    0.084622
      5          1           0        2.107021    0.683274   -0.200844
      6          1           0        1.778672   -1.044832   -0.419434
      7          1           0        1.554918   -0.290808    1.161389
      8          6           0       -0.967882   -0.993385    0.069429
      9          1           0       -0.080088    0.345817   -1.364453
     10          1           0       -0.988112   -1.179583    1.147314
     11          1           0       -0.626527   -1.914287   -0.414499
     12          1           0       -1.992388   -0.797847   -0.254997
 ---------------------------------------------------------------------

 SCF Done:  E(UHF) =  -143.597648923     A.U. after    2 cycles

 The electronic state is 2-A.
 Alpha  occ. eigenvalues --  -11.39504 -11.38180 -11.33836  -7.62522  -1.22719
 Alpha  occ. eigenvalues --   -0.99849  -0.89831  -0.71515  -0.61814  -0.57995
 Alpha  occ. eigenvalues --   -0.55912  -0.53130  -0.46749  -0.46122  -0.41456
 Alpha  occ. eigenvalues --   -0.28279
 Alpha virt. eigenvalues --    0.03080   0.03873   0.04475   0.04800   0.06598
 Alpha virt. eigenvalues --    0.06641   0.07048   0.07556   0.07717   0.09872
 Alpha virt. eigenvalues --    0.11279   0.11784   0.13757   0.14691   0.15142

  Beta  occ. eigenvalues --  -11.39463 -11.38103 -11.33805  -7.60823  -1.22113
  Beta  occ. eigenvalues --   -0.99615  -0.88197  -0.68393  -0.61703  -0.57544
  Beta  occ. eigenvalues --   -0.54872  -0.53032  -0.46591  -0.45127  -0.40407
  Beta virt. eigenvalues --    0.03260   0.03789   0.04079   0.04559   0.06613
  Beta virt. eigenvalues --    0.06668   0.07250   0.07608   0.07711   0.09211
  Beta virt. eigenvalues --    0.10536   0.11823   0.12386   0.14367   0.14934

 Mulliken charges and spin densities:
               1          2
     1  H   -1.726585   0.035383
     2  B    1.575461   0.941615
     3  C   -2.009805  -0.032901
     4  C   -3.619027   0.004027
     5  H    1.318154   0.005618
     6  H    1.217345  -0.002519
     7  H    1.300164  -0.001300
     8  C   -3.753402   0.062096
     9  H    1.900175  -0.010616
    10  H    1.296039  -0.003739
    11  H    1.216682   0.000406
    12  H    1.284798   0.001932
 Sum of Mulliken charges =  -0.00000   1.00000

 Dipole moment (field-independent basis, Debye):
    X=             -0.1921    Y=             -1.0443    Z=             -0.4147  Tot=              1.1400
                          Isotropic Fermi Contact Couplings
        Atom                 a.u.       MegaHertz       Gauss      10(-4) cm-1
     1  H(1)               0.00794      35.47123      12.65702      11.83193
     2  B(11)              0.16270     233.37643      83.27451      77.84600
     3  C(13)              0.01116      12.54185       4.47525       4.18351
     4  C(13)              0.01627      18.29144       6.52684       6.10137
     5  H(1)              -0.00021      -0.94116      -0.33583      -0.31394
     6  H(1)              -0.00013      -0.57026      -0.20348      -0.19022
     7  H(1)              -0.00028      -1.25974      -0.44951      -0.42020
     8  C(13)              0.01967      22.10796       7.88867       7.37442

 Normal termination of Gaussian 16 at Wed Apr  9 00:36:00 2025.
