 Gaussian 16, Revision C.01,

 ----------------------------------------------------------------------
 #t hf aug-cc-pvdz symm=none int=(grid=ultrafine) guess=(read,tcheck) s
 table=(opt,rrhf)
 ----------------------------------------------------------------------
 -----
 title
 -----
 Symbolic Z-matrix:
 Charge =  0 Multiplicity = 1

 SCF Done:  E(RHF) =  -1083.74954700     A.U. after   15 cycles
 Normal termination of Gaussian 16 at Wed Apr  9 00:23:02 2025.
 Gaussian 16:  ES64L-G16RevC.01  3-Jul-2019

 ----------------------------------------------------------------------
 #t hf aug-cc-pvdz iop(5/13=1,5/36=2,99/5=2) pseudo=read geom=check gue
 ss=(read,tcheck) scf=(maxcycle=1)
 ----------------------------------------------------------------------
 -----
 title
 -----
 Structure from the checkpoint file:  "BDE49_nonexpt_2671_mol1.chk"
 Charge =  0 Multiplicity = 1

                         Standard orientation:
 ---------------------------------------------------------------------
 Center     Atomic      Atomic             Coordinates (Angstroms)
 Number     Number       Type             X           Y           Z
 ---------------------------------------------------------------------
      1          9           0       -2.088166    0.718413    0.212966
      2         16           0       -1.283367   -0.650717   -0.285858
      3         16           0        0.724435   -0.080475    0.157996
      4          8           0        1.419729   -1.298482   -0.196069
      5          6           0        1.081436    1.200899   -1.045255
      6          8           0        0.803602    0.511504    1.467410
      7          1           0        1.045971    0.762446   -2.039991
      8          1           0        2.078507    1.575031   -0.807769
      9          1           0        0.336667    1.986299   -0.922340
 ---------------------------------------------------------------------

 SCF Done:  E(RHF) =  -1085.40677426     A.U. after    2 cycles

 The electronic state is 1-A.
 Alpha  occ. eigenvalues --  -75.92596 -75.80320 -29.30714 -21.08220 -21.08192
 Alpha  occ. eigenvalues --  -13.55470 -13.42236 -13.35079 -13.23705 -13.17561
 Alpha  occ. eigenvalues --  -13.11640 -11.44851  -8.27641  -8.14240  -1.86334
 Alpha  occ. eigenvalues --   -1.68104  -1.25880  -1.15852  -0.92560  -0.71755
 Alpha  occ. eigenvalues --   -0.66048  -0.65048  -0.60896  -0.57164  -0.48206
 Alpha  occ. eigenvalues --   -0.45313  -0.43807  -0.41456  -0.40314  -0.38431
 Alpha  occ. eigenvalues --   -0.35644  -0.27873  -0.22463
 Alpha virt. eigenvalues --    0.02321   0.05055   0.05597   0.06839   0.08751
 Alpha virt. eigenvalues --    0.11423   0.12065   0.12681   0.13240   0.13696
 Alpha virt. eigenvalues --    0.14470   0.15466   0.16256   0.16941   0.19289

 Mulliken charges:
               1
     1  F   -0.205987
     2  S    0.669467
     3  S    4.864828
     4  O   -2.464868
     5  C   -4.455226
     6  O   -2.443779
     7  H    1.335879
     8  H    1.337459
     9  H    1.362229
 Sum of Mulliken charges =  -0.00000

 Dipole moment (field-independent basis, Debye):
    X=             -3.2208    Y=              2.5006    Z=             -0.8246  Tot=              4.1601

 Test job not archived.
 1\1\GINC-SE120\SP\RHF\Aug-CC-pVDZ\C1H3F1O2S2\OHZDE\09-Apr-2025\0\\#t h
 f aug-cc-pvdz iop(5/13=1,5/36=2,99/5=2) pseudo=read geom=check guess=(
 read,tcheck) scf=(maxcycle=1)\\title\\0,1\F,0,-2.088166,0.718413,0.212
 966\S,0,-1.283367,-0.650717,-0.285858\S,0,0.724435,-0.080475,0.157996\
 O,0,1.419729,-1.298482,-0.196069\C,0,1.081436,1.200899,-1.045255\O,0,0
 .803602,0.511504,1.46741\H,0,1.045971,0.762446,-2.039991\H,0,2.078507,
 1.575031,-0.807769\H,0,0.336667,1.986299,-0.92234\\Version=ES64L-G16Re
 vC.01\State=1-A\HF=-1085.4067743\RMSD=1.006e-01\Dipole=-1.2671556,0.98

 Normal termination of Gaussian 16 at Wed Apr  9 00:23:06 2025.
