 Gaussian 16, Revision C.01,

 ----------------------------------------------------------------------
 #t hf aug-cc-pvdz symm=none int=(grid=ultrafine) guess=(read,tcheck) s
 table=opt
 ----------------------------------------------------------------------
 -----
 title
 -----
 Symbolic Z-matrix:
 Charge =  0 Multiplicity = 2

 SCF Done:  E(UHF) =  -518.436426965     A.U. after   16 cycles
 Normal termination of Gaussian 16 at Wed Apr  9 00:08:44 2025.
 Gaussian 16:  ES64L-G16RevC.01  3-Jul-2019

 ----------------------------------------------------------------------
 #t hf aug-cc-pvdz iop(5/13=1,5/36=2,99/5=2) pseudo=read geom=check gue
 ss=(read,tcheck) scf=(maxcycle=1)
 ----------------------------------------------------------------------
 -----
 title
 -----
 Structure from the checkpoint file:  "BDE49_nonexpt_2275_mol2.chk"
 Charge =  0 Multiplicity = 2

                         Standard orientation:
 ---------------------------------------------------------------------
 Center     Atomic      Atomic             Coordinates (Angstroms)
 Number     Number       Type             X           Y           Z
 ---------------------------------------------------------------------
      1         14           0       -0.083957   -1.191164   -0.127634
      2          6           0        1.556626   -0.260936    0.198940
      3          8           0        1.346833    1.142737   -0.082462
      4          1           0        2.358186   -0.671447   -0.428002
      5          1           0        1.851132   -0.399397    1.247527
      6          1           0        2.128053    1.638126    0.184625
      7          6           0       -1.483168   -0.046159    0.477614
      8          8           0       -1.467919    1.134636   -0.331828
      9          1           0       -1.368403    0.184535    1.546063
     10          1           0       -2.462691   -0.511425    0.350281
     11          1           0       -0.573931    1.503480   -0.271548
     12          1           0       -0.229008   -1.443992   -1.587066
 ---------------------------------------------------------------------

 SCF Done:  E(UHF) =  -519.584780063     A.U. after    2 cycles

 The electronic state is 2-A.
 Alpha  occ. eigenvalues --  -76.21756 -21.08916 -21.05079 -11.39938 -11.38166
 Alpha  occ. eigenvalues --   -5.55435  -2.19142  -2.18390  -2.17061  -1.72206
 Alpha  occ. eigenvalues --   -1.68364  -1.00230  -0.95151  -0.72470  -0.65033
 Alpha  occ. eigenvalues --   -0.62988  -0.60877  -0.53957  -0.50338  -0.46892
 Alpha  occ. eigenvalues --   -0.43114  -0.37485  -0.33889  -0.31524  -0.24416
 Alpha virt. eigenvalues --    0.03271   0.04913   0.05166   0.05319   0.06128
 Alpha virt. eigenvalues --    0.06967   0.07699   0.08297   0.09007   0.09703
 Alpha virt. eigenvalues --    0.12818   0.13650   0.14741   0.15337   0.15927

  Beta  occ. eigenvalues --  -76.21225 -21.08822 -21.04893 -11.39879 -11.38092
  Beta  occ. eigenvalues --   -5.54607  -2.18532  -2.17493  -2.13871  -1.71968
  Beta  occ. eigenvalues --   -1.67985  -0.99317  -0.94935  -0.69800  -0.63969
  Beta  occ. eigenvalues --   -0.62452  -0.60723  -0.53719  -0.49181  -0.46572
  Beta  occ. eigenvalues --   -0.42147  -0.37162  -0.33750  -0.28526
  Beta virt. eigenvalues --    0.03019   0.04020   0.05109   0.05417   0.06040
  Beta virt. eigenvalues --    0.06712   0.06996   0.08384   0.09061   0.09407
  Beta virt. eigenvalues --    0.10162   0.13135   0.13924   0.14822   0.15992

 Mulliken charges and spin densities:
               1          2
     1  Si   4.071879   0.873092
     2  C   -2.463455   0.036471
     3  O   -2.448081   0.006571
     4  H    1.317215   0.002476
     5  H    1.391908  -0.022581
     6  H    0.903184   0.003558
     7  C   -2.557854   0.059794
     8  O   -2.479161   0.046357
     9  H    1.404389  -0.016437
    10  H    1.316974  -0.007225
    11  H    1.262454  -0.024757
    12  H   -1.719452   0.042681
 Sum of Mulliken charges =  -0.00000   1.00000

 Dipole moment (field-independent basis, Debye):
    X=              1.3999    Y=              0.1850    Z=              1.0266  Tot=              1.7458
                          Isotropic Fermi Contact Couplings
        Atom                 a.u.       MegaHertz       Gauss      10(-4) cm-1
     1  Si(29)             0.40952    -363.94932    -129.86617    -121.40043
     2  C(13)              0.02223      24.99238       8.91790       8.33656
     3  O(17)              0.02651     -16.07255      -5.73509      -5.36123
     4  H(1)              -0.00033      -1.45978      -0.52089      -0.48693
     5  H(1)               0.00084       3.75730       1.34070       1.25330
     6  H(1)               0.00198       8.84562       3.15634       2.95058
     7  C(13)              0.01922      21.60861       7.71049       7.20786
     8  O(17)              0.01023      -6.20429      -2.21385      -2.06953

 Normal termination of Gaussian 16 at Wed Apr  9 00:08:48 2025.
