 Gaussian 16, Revision C.01,

 ----------------------------------------------------------------------
 #t hf aug-cc-pvdz symm=none int=(grid=ultrafine) guess=(read,tcheck) s
 table=(opt,rrhf)
 ----------------------------------------------------------------------
 -----
 title
 -----
 Symbolic Z-matrix:
 Charge =  0 Multiplicity = 1

 SCF Done:  E(RHF) =  -1508.66218315     A.U. after   13 cycles

 1\1\GINC-SE455\Stability\RHF\Aug-CC-pVDZ\C2Cl3N1\OHZDE\08-Apr-2025\0\\
 #t hf aug-cc-pvdz symm=none int=(grid=ultrafine) guess=(read,tcheck) s
 table=(opt,rrhf)\\title\\0,1\C,0,-1.495632,0.001309,0.000776\C,0,-0.04
 0814,0.000065,0.00005\N,0,-2.647639,0.002235,0.001236\Cl,0,0.543048,-1
 .580582,0.61659\Cl,0,0.545893,1.323812,1.059696\Cl,0,0.543538,0.255365
 ,-1.677087\\Version=ES64L-G16RevC.01\HF=-1508.6621831\RMSD=3.868e-09\D
 ipole=0.9058904,-0.0007077,-0.0003764\Quadrupole=-5.1734209,2.5867732,
 2.5866477,0.0066225,0.0035883,0.0000857\PG=Unknown\\@

 Normal termination of Gaussian 16 at Tue Apr  8 22:50:34 2025.
 Gaussian 16:  ES64L-G16RevC.01  3-Jul-2019

 ----------------------------------------------------------------------
 #t hf aug-cc-pvdz iop(5/13=1,5/36=2,99/5=2) pseudo=read geom=check gue
 ss=(read,tcheck) scf=(maxcycle=1)
 ----------------------------------------------------------------------
 -----
 title
 -----
 Structure from the checkpoint file:  "BDE49_expt_1706_mol1.chk"
 Charge =  0 Multiplicity = 1

                         Standard orientation:
 ---------------------------------------------------------------------
 Center     Atomic      Atomic             Coordinates (Angstroms)
 Number     Number       Type             X           Y           Z
 ---------------------------------------------------------------------
      1          6           0       -1.495632   -0.001305   -0.000782
      2          6           0       -0.040814   -0.000065   -0.000050
      3          7           0       -2.647639   -0.002229   -0.001246
      4         17           0        0.543050    1.582730   -0.611055
      5         17           0        0.545893   -1.320096   -1.064322
      6         17           0        0.543536   -0.261232    1.676184
 ---------------------------------------------------------------------

 SCF Done:  E(RHF) =  -1509.96775419     A.U. after    2 cycles

 The electronic state is 1-A.
 Alpha  occ. eigenvalues --  -99.94743 -99.94743 -99.94733 -15.80958 -11.61948
 Alpha  occ. eigenvalues --  -11.47515 -10.52259 -10.51933 -10.51933  -9.72001
 Alpha  occ. eigenvalues --   -9.72000  -9.71743  -9.71115  -9.71115  -9.71099
 Alpha  occ. eigenvalues --   -9.71098  -9.70949  -9.70949  -1.50419  -1.33478
 Alpha  occ. eigenvalues --   -1.33477  -1.33206  -1.07462  -0.81916  -0.74377
 Alpha  occ. eigenvalues --   -0.74377  -0.59732  -0.59732  -0.59343  -0.53981
 Alpha  occ. eigenvalues --   -0.53981  -0.52991  -0.52772  -0.47874  -0.47874
 Alpha virt. eigenvalues --   -0.02846   0.02940   0.02940   0.04237   0.08869
 Alpha virt. eigenvalues --    0.09291   0.09291   0.12609   0.12609   0.13079
 Alpha virt. eigenvalues --    0.13427   0.13427   0.13724   0.16870   0.16870

 Mulliken charges:
               1
     1  C    2.987754
     2  C   -1.553598
     3  N   -2.277125
     4  Cl   0.280995
     5  Cl   0.280977
     6  Cl   0.280996
 Sum of Mulliken charges =   0.00000

 Dipole moment (field-independent basis, Debye):
    X=              1.4932    Y=              0.0011    Z=              0.0006  Tot=              1.4932

 Test job not archived.
 1\1\GINC-SE455\SP\RHF\Aug-CC-pVDZ\C2Cl3N1\OHZDE\08-Apr-2025\0\\#t hf a
 ug-cc-pvdz iop(5/13=1,5/36=2,99/5=2) pseudo=read geom=check guess=(rea
 d,tcheck) scf=(maxcycle=1)\\title\\0,1\C,0,-1.495632,0.001309,0.000776
 \C,0,-0.040814,0.000065,0.00005\N,0,-2.647639,0.002235,0.001236\Cl,0,0
 .543048,-1.580582,0.61659\Cl,0,0.545893,1.323812,1.059696\Cl,0,0.54353
 8,0.255365,-1.677087\\Version=ES64L-G16RevC.01\State=1-A\HF=-1509.9677
 542\RMSD=1.480e-01\Dipole=0.5874591,-0.000446,-0.0002508\Quadrupole=-4
 .3212841,2.1607034,2.1605806,0.0056349,0.0030803,0.0000997\PG=C01 [X(C

 Normal termination of Gaussian 16 at Tue Apr  8 22:50:37 2025.
