 Gaussian 16, Revision C.01,

 ----------------------------------------------------------------------
 #t hf aug-cc-pvdz symm=none int=(grid=ultrafine) guess=(read,tcheck) s
 table=(opt,rrhf)
 ----------------------------------------------------------------------
 -----
 title
 -----
 Symbolic Z-matrix:
 Charge =  0 Multiplicity = 1

 SCF Done:  E(RHF) =  -341.648911091     A.U. after   14 cycles
 Normal termination of Gaussian 16 at Tue Apr  8 22:56:43 2025.
 Gaussian 16:  ES64L-G16RevC.01  3-Jul-2019

 ----------------------------------------------------------------------
 #t hf aug-cc-pvdz iop(5/13=1,5/36=2,99/5=2) pseudo=read geom=check gue
 ss=(read,tcheck) scf=(maxcycle=1)
 ----------------------------------------------------------------------
 -----
 title
 -----
 Structure from the checkpoint file:  "BDE49_expt_1850_mol1.chk"
 Charge =  0 Multiplicity = 1

                         Standard orientation:
 ---------------------------------------------------------------------
 Center     Atomic      Atomic             Coordinates (Angstroms)
 Number     Number       Type             X           Y           Z
 ---------------------------------------------------------------------
      1          8           0        2.365017   -0.087468    0.171894
      2          8           0        1.103702   -0.776232    0.070695
      3          1           0        2.064547    0.844397    0.086401
      4          6           0        0.081208    0.087060   -0.128709
      5          8           0        0.254938    1.282291   -0.174904
      6          6           0       -1.221815   -0.652405   -0.295264
      7          6           0       -2.403410    0.117867    0.300412
      8          1           0       -1.122476   -1.649968    0.137126
      9          1           0       -1.362272   -0.788780   -1.373710
     10          1           0       -2.309097    0.207693    1.384883
     11          1           0       -3.338894   -0.400975    0.082815
     12          1           0       -2.456954    1.123766   -0.117628
 ---------------------------------------------------------------------

 SCF Done:  E(RHF) =  -343.117937300     A.U. after    2 cycles

 The electronic state is 1-A.
 Alpha  occ. eigenvalues --  -21.14200 -21.13402 -21.07504 -11.54365 -11.43657
 Alpha  occ. eigenvalues --  -11.38586  -2.00013  -1.72695  -1.47218  -1.19841
 Alpha  occ. eigenvalues --   -0.96083  -0.77993  -0.71673  -0.66273  -0.59850
 Alpha  occ. eigenvalues --   -0.58596  -0.56329  -0.51521  -0.50865  -0.46292
 Alpha  occ. eigenvalues --   -0.43739  -0.42399  -0.32843  -0.29732
 Alpha virt. eigenvalues --    0.03274   0.05341   0.05736   0.05950   0.06537
 Alpha virt. eigenvalues --    0.06665   0.10750   0.11695   0.12213   0.12835
 Alpha virt. eigenvalues --    0.13497   0.15328   0.15766   0.17621   0.18039

 Mulliken charges:
               1
     1  O   -1.083414
     2  O   -1.830365
     3  H    0.910001
     4  C    5.610554
     5  O   -2.943584
     6  C   -3.650333
     7  C   -3.627659
     8  H    1.451088
     9  H    1.425460
    10  H    1.268190
    11  H    1.133763
    12  H    1.336298
 Sum of Mulliken charges =   0.00000

 Dipole moment (field-independent basis, Debye):
    X=             -1.0420    Y=             -0.6315    Z=             -0.0701  Tot=              1.2205

 Test job not archived.
 1\1\GINC-SE069\SP\RHF\Aug-CC-pVDZ\C3H6O3\OHZDE\08-Apr-2025\0\\#t hf au
 g-cc-pvdz iop(5/13=1,5/36=2,99/5=2) pseudo=read geom=check guess=(read
 ,tcheck) scf=(maxcycle=1)\\title\\0,1\O,0,2.365017,-0.087468,0.171894\
 O,0,1.103702,-0.776232,0.070695\H,0,2.064547,0.844397,0.086401\C,0,0.0
 81208,0.08706,-0.128709\O,0,0.254938,1.282291,-0.174904\C,0,-1.221815,
 -0.652405,-0.295264\C,0,-2.40341,0.117867,0.300412\H,0,-1.122476,-1.64
 9968,0.137126\H,0,-1.362272,-0.78878,-1.37371\H,0,-2.309097,0.207693,1
 .384883\H,0,-3.338894,-0.400975,0.082815\H,0,-2.456954,1.123766,-0.117

 Normal termination of Gaussian 16 at Tue Apr  8 22:56:46 2025.
