 Gaussian 16, Revision C.01,

 ----------------------------------------------------------------------
 #t hf aug-cc-pvdz symm=none int=(grid=ultrafine) guess=(read,tcheck) s
 table=(opt,rrhf)
 ----------------------------------------------------------------------
 -----
 title
 -----
 Symbolic Z-matrix:
 Charge =  0 Multiplicity = 1

 SCF Done:  E(RHF) =  -456.403327444     A.U. after   12 cycles
 Normal termination of Gaussian 16 at Tue Apr  8 23:40:08 2025.
 Gaussian 16:  ES64L-G16RevC.01  3-Jul-2019

 ----------------------------------------------------------------------
 #t hf aug-cc-pvdz iop(5/13=1,5/36=2,99/5=2) pseudo=read geom=check gue
 ss=(read,tcheck) scf=(maxcycle=1)
 ----------------------------------------------------------------------
 -----
 title
 -----
 Structure from the checkpoint file:  "BDE49_nonexpt_1600_mol1.chk"
 Charge =  0 Multiplicity = 1

                         Standard orientation:
 ---------------------------------------------------------------------
 Center     Atomic      Atomic             Coordinates (Angstroms)
 Number     Number       Type             X           Y           Z
 ---------------------------------------------------------------------
      1         15           0       -0.113527   -0.588361   -0.113026
      2          6           0        1.423074    0.425964    0.000443
      3          1           0        1.351815    1.162293    0.803576
      4          1           0        1.600645    0.940824   -0.945756
      5          1           0        2.270170   -0.238822    0.195872
      6          8           0       -1.254963    0.619504    0.116950
      7          1           0       -0.053825   -1.065643    1.226062
      8          1           0       -1.964633    0.514947   -0.522617
 ---------------------------------------------------------------------

 SCF Done:  E(RHF) =  -457.122082311     A.U. after    2 cycles

 The electronic state is 1-A.
 Alpha  occ. eigenvalues -- -105.20081 -21.08100 -11.36675  -2.78100  -1.77324
 Alpha  occ. eigenvalues --   -1.48307  -1.44994  -1.35517  -1.00064  -0.68619
 Alpha  occ. eigenvalues --   -0.56961  -0.56350  -0.53087  -0.38394  -0.27312
 Alpha  occ. eigenvalues --   -0.22494  -0.02058
 Alpha virt. eigenvalues --    0.04952   0.05845   0.06346   0.07076   0.07694
 Alpha virt. eigenvalues --    0.10087   0.10782   0.12482   0.15111   0.16689
 Alpha virt. eigenvalues --    0.16773   0.18586   0.22404   0.22799   0.24827

 Mulliken charges:
               1
     1  P    4.618827
     2  C   -5.389440
     3  H    0.943089
     4  H    1.169783
     5  H    1.189901
     6  O   -2.362660
     7  H   -0.851153
     8  H    0.681653
 Sum of Mulliken charges =  -0.00000

 Dipole moment (field-independent basis, Debye):
    X=             -0.3647    Y=             -0.6254    Z=              0.4873  Tot=              0.8727

 Test job not archived.
 1\1\GINC-SE229\SP\RHF\Aug-CC-pVDZ\C1H5O1P1\OHZDE\08-Apr-2025\0\\#t hf
 aug-cc-pvdz iop(5/13=1,5/36=2,99/5=2) pseudo=read geom=check guess=(re
 ad,tcheck) scf=(maxcycle=1)\\title\\0,1\P,0,-0.113527,-0.588361,-0.113
 026\C,0,1.423074,0.425964,0.000443\H,0,1.351816,1.162293,0.803576\H,0,
 1.600646,0.940823,-0.945756\H,0,2.27017,-0.238823,0.195872\O,0,-1.2549
 63,0.619504,0.11695\H,0,-0.053825,-1.065643,1.226062\H,0,-1.964633,0.5
 14948,-0.522617\\Version=ES64L-G16RevC.01\State=1-A\HF=-457.1220823\RM
 SD=2.301e-01\Dipole=-0.1434962,-0.2460426,0.1917065\Quadrupole=0.04213

 Normal termination of Gaussian 16 at Tue Apr  8 23:40:11 2025.
