 Gaussian 16, Revision C.01,

 ----------------------------------------------------------------------
 #t hf aug-cc-pvdz symm=none int=(grid=ultrafine) guess=(read,tcheck) s
 table=(opt,rrhf)
 ----------------------------------------------------------------------
 -----
 title
 -----
 Symbolic Z-matrix:
 Charge =  0 Multiplicity = 1

 SCF Done:  E(RHF) =  -811.182324061     A.U. after   11 cycles

 1\1\GINC-SE092\Stability\RHF\Aug-CC-pVDZ\B1F5Si1\OHZDE\09-Apr-2025\0\\
 #t hf aug-cc-pvdz symm=none int=(grid=ultrafine) guess=(read,tcheck) s
 table=(opt,rrhf)\\title\\0,1\F,0,-2.031655,1.131955,-0.000005\F,0,-2.0
 14739,-1.129916,0.00002\B,0,-1.345952,0.006672,-0.000008\Si,0,0.674968
 ,0.003562,-0.000004\F,0,1.239367,-0.74283,-1.28114\F,0,1.265471,1.4743
 15,-0.000034\F,0,1.239358,-0.742772,1.281169\\Version=ES64L-G16RevC.01
 \HF=-811.1823241\RMSD=3.038e-09\Dipole=-0.3331601,0.0186527,-0.0000191
 \Quadrupole=-1.2243783,-0.9166319,2.1410102,-0.0240133,0.0000849,0.000

 Normal termination of Gaussian 16 at Wed Apr  9 00:31:18 2025.
 Gaussian 16:  ES64L-G16RevC.01  3-Jul-2019

 ----------------------------------------------------------------------
 #t hf aug-cc-pvdz iop(5/13=1,5/36=2,99/5=2) pseudo=read geom=check gue
 ss=(read,tcheck) scf=(maxcycle=1)
 ----------------------------------------------------------------------
 -----
 title
 -----
 Structure from the checkpoint file:  "BDE49_nonexpt_359_mol1.chk"
 Charge =  0 Multiplicity = 1

                         Standard orientation:
 ---------------------------------------------------------------------
 Center     Atomic      Atomic             Coordinates (Angstroms)
 Number     Number       Type             X           Y           Z
 ---------------------------------------------------------------------
      1          9           0       -2.031655    1.131955   -0.000005
      2          9           0       -2.014739   -1.129916    0.000020
      3          5           0       -1.345952    0.006672   -0.000008
      4         14           0        0.674968    0.003562   -0.000004
      5          9           0        1.239367   -0.742830   -1.281140
      6          9           0        1.265471    1.474315   -0.000034
      7          9           0        1.239358   -0.742772    1.281169
 ---------------------------------------------------------------------

 SCF Done:  E(RHF) =  -813.109465844     A.U. after    2 cycles

 The electronic state is 1-A.
 Alpha  occ. eigenvalues --  -76.33101 -29.31082 -29.31078 -29.31007 -29.29307
 Alpha  occ. eigenvalues --  -29.29206  -7.74333  -5.69943  -2.34192  -2.34059
 Alpha  occ. eigenvalues --   -2.30659  -1.15884  -1.01196  -0.79125  -0.73767
 Alpha  occ. eigenvalues --   -0.73169  -0.63035  -0.53986  -0.48929  -0.47766
 Alpha  occ. eigenvalues --   -0.44470  -0.44115  -0.43860  -0.42014  -0.38300
 Alpha  occ. eigenvalues --   -0.38031  -0.37068  -0.36020  -0.32044  -0.31882
 Alpha  occ. eigenvalues --   -0.30187  -0.23594
 Alpha virt. eigenvalues --    0.04173   0.04903   0.06257   0.07667   0.09751
 Alpha virt. eigenvalues --    0.09794   0.10328   0.13665   0.15094   0.16002
 Alpha virt. eigenvalues --    0.19704   0.19879   0.21400   0.22695   0.23095

 Mulliken charges:
               1
     1  F   -0.206800
     2  F   -0.191802
     3  B   -0.854192
     4  Si   3.282495
     5  F   -0.592679
     6  F   -0.844342
     7  F   -0.592679
 Sum of Mulliken charges =  -0.00000

 Dipole moment (field-independent basis, Debye):
    X=              0.3187    Y=              0.0121    Z=              0.0001  Tot=              0.3189

 Test job not archived.
 1\1\GINC-SE092\SP\RHF\Aug-CC-pVDZ\B1F5Si1\OHZDE\09-Apr-2025\0\\#t hf a
 ug-cc-pvdz iop(5/13=1,5/36=2,99/5=2) pseudo=read geom=check guess=(rea
 d,tcheck) scf=(maxcycle=1)\\title\\0,1\F,0,-2.031655,1.131955,-0.00000
 5\F,0,-2.014739,-1.129916,0.00002\B,0,-1.345952,0.006672,-0.000008\Si,
 0,0.674968,0.003562,-0.000004\F,0,1.239367,-0.74283,-1.28114\F,0,1.265
 471,1.474315,-0.000034\F,0,1.239358,-0.742772,1.281169\\Version=ES64L-
 G16RevC.01\State=1-A\HF=-813.1094658\RMSD=1.954e-01\Dipole=0.1253751,0
 .0047663,0.000027\Quadrupole=0.9866045,1.9825211,-2.9691256,-0.1680872

 Normal termination of Gaussian 16 at Wed Apr  9 00:31:21 2025.
