 Gaussian 16, Revision C.01,

 ----------------------------------------------------------------------
 #t hf aug-cc-pvdz symm=none int=(grid=ultrafine) guess=(read,tcheck) s
 table=opt
 ----------------------------------------------------------------------
 -----
 title
 -----
 Symbolic Z-matrix:
 Charge =  0 Multiplicity = 2

 SCF Done:  E(UHF) =  -666.741561691     A.U. after   18 cycles
 Normal termination of Gaussian 16 at Wed Apr  9 00:35:57 2025.
 Gaussian 16:  ES64L-G16RevC.01  3-Jul-2019

 ----------------------------------------------------------------------
 #t hf aug-cc-pvdz iop(5/13=1,5/36=2,99/5=2) pseudo=read geom=check gue
 ss=(read,tcheck) scf=(maxcycle=1)
 ----------------------------------------------------------------------
 -----
 title
 -----
 Structure from the checkpoint file:  "BDE49_nonexpt_480_mol2.chk"
 Charge =  0 Multiplicity = 2

                         Standard orientation:
 ---------------------------------------------------------------------
 Center     Atomic      Atomic             Coordinates (Angstroms)
 Number     Number       Type             X           Y           Z
 ---------------------------------------------------------------------
      1          1           0        2.583485    0.197157    0.923443
      2          5           0        2.346672   -0.144223   -0.198015
      3         15           0       -0.356519   -0.005462   -0.094226
      4          8           0       -1.451711   -0.238105   -1.025767
      5          8           0       -0.387927   -0.909277    1.224416
      6          1           0       -0.920434   -1.703510    1.093648
      7          8           0       -0.153207    1.461216    0.484045
      8          1           0       -0.987078    1.901108    0.689082
      9          8           0        1.110152   -0.262798   -0.720533
 ---------------------------------------------------------------------

 SCF Done:  E(UHF) =  -668.251425958     A.U. after    2 cycles

 The electronic state is 2-A.
 Alpha  occ. eigenvalues -- -105.34842 -21.13852 -21.13531 -21.08489 -21.04250
 Alpha  occ. eigenvalues --   -7.68227  -2.98124  -2.03424  -1.94274  -1.93573
 Alpha  occ. eigenvalues --   -1.77728  -1.47448  -1.42601  -1.27059  -0.78675
 Alpha  occ. eigenvalues --   -0.70473  -0.62816  -0.57993  -0.51629  -0.50340
 Alpha  occ. eigenvalues --   -0.47668  -0.44367  -0.41380  -0.36118  -0.35583
 Alpha  occ. eigenvalues --   -0.30888  -0.23914  -0.17194
 Alpha virt. eigenvalues --    0.03252   0.04087   0.04908   0.05253   0.05606
 Alpha virt. eigenvalues --    0.09518   0.10997   0.11459   0.12128   0.12760
 Alpha virt. eigenvalues --    0.13144   0.15085   0.20089   0.20741   0.20946

  Beta  occ. eigenvalues -- -105.34805 -21.13842 -21.13519 -21.08353 -21.04243
  Beta  occ. eigenvalues --   -7.66288  -2.98014  -2.03250  -1.94085  -1.93266
  Beta  occ. eigenvalues --   -1.77603  -1.46784  -1.42548  -1.26889  -0.75765
  Beta  occ. eigenvalues --   -0.69137  -0.62757  -0.57470  -0.51410  -0.48229
  Beta  occ. eigenvalues --   -0.45605  -0.41405  -0.41270  -0.36096  -0.32483
  Beta  occ. eigenvalues --   -0.30809  -0.18234
  Beta virt. eigenvalues --    0.03203   0.04236   0.04443   0.05091   0.05683
  Beta virt. eigenvalues --    0.08907   0.10250   0.11032   0.12065   0.12410
  Beta virt. eigenvalues --    0.14271   0.14457   0.17326   0.20182   0.20963

 Mulliken charges and spin densities:
               1          2
     1  H   -1.805147   0.065348
     2  B    2.305056   1.161489
     3  P    8.709906  -0.012542
     4  O   -2.818307   0.004474
     5  O   -2.802649   0.001933
     6  H    0.908929  -0.000891
     7  O   -2.823684  -0.000248
     8  H    0.923185  -0.000200
     9  O   -2.597288  -0.219363
 Sum of Mulliken charges =   0.00000   1.00000

 Dipole moment (field-independent basis, Debye):
    X=             -0.0245    Y=              0.4671    Z=              2.2857  Tot=              2.3330
                          Isotropic Fermi Contact Couplings
        Atom                 a.u.       MegaHertz       Gauss      10(-4) cm-1
     1  H(1)               0.02978     133.10550      47.49535      44.39922
     2  B(11)              0.21065     302.15440     107.81620     100.78786
     3  P(31)              0.07458     135.07901      48.19955      45.05751
     4  O(17)              0.00289      -1.75484      -0.62617      -0.58535
     5  O(17)              0.00197      -1.19619      -0.42683      -0.39901
     6  H(1)              -0.00006      -0.27450      -0.09795      -0.09156
     7  O(17)              0.00173      -1.05088      -0.37498      -0.35054
     8  H(1)              -0.00005      -0.21008      -0.07496      -0.07007

 Normal termination of Gaussian 16 at Wed Apr  9 00:36:00 2025.
