 Gaussian 16, Revision C.01,

 ----------------------------------------------------------------------
 #t hf aug-cc-pvdz symm=none int=(grid=ultrafine) guess=(read,tcheck) s
 table=(opt,rrhf)
 ----------------------------------------------------------------------
 -----
 title
 -----
 Symbolic Z-matrix:
 Charge =  0 Multiplicity = 1

 SCF Done:  E(RHF) =  -610.264676363     A.U. after   14 cycles
 Normal termination of Gaussian 16 at Wed Apr  9 00:21:55 2025.
 Gaussian 16:  ES64L-G16RevC.01  3-Jul-2019

 ----------------------------------------------------------------------
 #t hf aug-cc-pvdz iop(5/13=1,5/36=2,99/5=2) pseudo=read geom=check gue
 ss=(read,tcheck) scf=(maxcycle=1)
 ----------------------------------------------------------------------
 -----
 title
 -----
 Structure from the checkpoint file:  "BDE49_nonexpt_2646_mol1.chk"
 Charge =  0 Multiplicity = 1

                         Standard orientation:
 ---------------------------------------------------------------------
 Center     Atomic      Atomic             Coordinates (Angstroms)
 Number     Number       Type             X           Y           Z
 ---------------------------------------------------------------------
      1          9           0        1.660665    0.576116   -0.000001
      2         16           0        0.488734   -0.601443    0.000000
      3          6           0       -0.944701    0.460919    0.000001
      4          8           0       -2.055577    0.018082   -0.000001
      5          1           0       -0.652908    1.527872    0.000002
 ---------------------------------------------------------------------

 SCF Done:  E(RHF) =  -611.289076049     A.U. after    2 cycles

 The electronic state is 1-A.
 Alpha  occ. eigenvalues --  -75.79242 -29.30395 -21.10807 -13.23031 -13.17955
 Alpha  occ. eigenvalues --  -13.09581 -11.52913  -8.13390  -1.75576  -1.25969
 Alpha  occ. eigenvalues --   -0.89449  -0.74224  -0.58093  -0.56062  -0.53191
 Alpha  occ. eigenvalues --   -0.42518  -0.38363  -0.34752  -0.28161  -0.20573
 Alpha virt. eigenvalues --    0.03944   0.06346   0.09499   0.09778   0.11140
 Alpha virt. eigenvalues --    0.12245   0.12620   0.14537   0.16222   0.18327
 Alpha virt. eigenvalues --    0.22116   0.24428   0.26762   0.27510   0.28392

 Mulliken charges:
               1
     1  F   -0.163867
     2  S    1.115939
     3  C   -0.216300
     4  O   -2.253217
     5  H    1.517444
 Sum of Mulliken charges =  -0.00000

 Dipole moment (field-independent basis, Debye):
    X=              3.5507    Y=              0.8769    Z=             -0.0000  Tot=              3.6573

 Test job not archived.
 1\1\GINC-SE109\SP\RHF\Aug-CC-pVDZ\C1H1F1O1S1\OHZDE\09-Apr-2025\0\\#t h
 f aug-cc-pvdz iop(5/13=1,5/36=2,99/5=2) pseudo=read geom=check guess=(
 read,tcheck) scf=(maxcycle=1)\\title\\0,1\F,0,1.660665,0.576116,-0.000
 001\S,0,0.488734,-0.601443,0.\C,0,-0.944701,0.460919,0.000001\O,0,-2.0
 55577,0.018082,-0.000001\H,0,-0.652908,1.527872,0.000002\\Version=ES64
 L-G16RevC.01\State=1-A\HF=-611.289076\RMSD=7.242e-02\Dipole=1.3969408,
 0.344996,-0.0000011\Quadrupole=0.2303579,1.122084,-1.3524419,0.0613252
 ,-0.000004,0.0000012\PG=C01 [X(C1H1F1O1S1)]\\@

 Normal termination of Gaussian 16 at Wed Apr  9 00:21:57 2025.
