 Gaussian 16, Revision C.01,

 ----------------------------------------------------------------------
 #t hf aug-cc-pvdz symm=none int=(grid=ultrafine) guess=(read,tcheck) s
 table=(opt,rrhf)
 ----------------------------------------------------------------------
 -----
 title
 -----
 Symbolic Z-matrix:
 Charge =  0 Multiplicity = 1

 SCF Done:  E(RHF) =  -1350.83751863     A.U. after   15 cycles
 Normal termination of Gaussian 16 at Tue Apr  8 23:54:56 2025.
 Gaussian 16:  ES64L-G16RevC.01  3-Jul-2019

 ----------------------------------------------------------------------
 #t hf aug-cc-pvdz iop(5/13=1,5/36=2,99/5=2) pseudo=read geom=check gue
 ss=(read,tcheck) scf=(maxcycle=1)
 ----------------------------------------------------------------------
 -----
 title
 -----
 Structure from the checkpoint file:  "BDE49_nonexpt_1942_mol1.chk"
 Charge =  0 Multiplicity = 1

                         Standard orientation:
 ---------------------------------------------------------------------
 Center     Atomic      Atomic             Coordinates (Angstroms)
 Number     Number       Type             X           Y           Z
 ---------------------------------------------------------------------
      1          6           0        1.130884   -1.034692    0.831976
      2         14           0       -0.571528   -1.235855   -0.055991
      3          6           0       -1.650960    0.324831    0.054516
      4          1           0       -1.253672   -2.340578    0.638633
      5          1           0       -0.316360   -1.563891   -1.473674
      6         16           0       -3.239793    0.035976   -0.223371
      7          8           0       -1.184303    1.536744    0.322350
      8          6           0        2.092999   -0.190028    0.070380
      9         16           0        1.962392    1.446064   -0.093311
     10          8           0        3.090282   -0.821022   -0.556666
     11          1           0       -0.194519    1.548631    0.345900
     12          1           0        3.077455   -1.765452   -0.350450
     13          1           0        1.526123   -2.039786    1.024198
     14          1           0        0.915416   -0.576033    1.799467
 ---------------------------------------------------------------------

 SCF Done:  E(RHF) =  -1352.59759073     A.U. after    2 cycles

 The electronic state is 1-A.
 Alpha  occ. eigenvalues --  -76.26193 -75.68005 -75.66218 -21.17477 -21.12827
 Alpha  occ. eigenvalues --  -13.17294 -13.14013 -13.08116 -13.01490 -13.00529
 Alpha  occ. eigenvalues --  -12.98256 -11.55765 -11.48331 -11.42577  -8.02299
 Alpha  occ. eigenvalues --   -8.00413  -5.59708  -2.23904  -2.22578  -2.22047
 Alpha  occ. eigenvalues --   -1.83297  -1.78411  -1.22702  -1.15421  -1.08883
 Alpha  occ. eigenvalues --   -0.85953  -0.82619  -0.75840  -0.70375  -0.66726
 Alpha  occ. eigenvalues --   -0.63421  -0.57942  -0.53325  -0.51104  -0.50599
 Alpha  occ. eigenvalues --   -0.48928  -0.46528  -0.44214  -0.39592  -0.29490
 Alpha  occ. eigenvalues --   -0.27159  -0.25632  -0.22145
 Alpha virt. eigenvalues --    0.01418   0.04292   0.04556   0.04953   0.05891
 Alpha virt. eigenvalues --    0.06408   0.06729   0.07087   0.07552   0.08902
 Alpha virt. eigenvalues --    0.09187   0.09674   0.10245   0.11427   0.12747

 Mulliken charges:
               1
     1  C   -4.070941
     2  Si   6.338107
     3  C   -0.668333
     4  H   -1.850856
     5  H   -1.931874
     6  S    1.126993
     7  O   -3.316963
     8  C    1.535125
     9  S    0.868428
    10  O   -3.508785
    11  H    1.693555
    12  H    1.094771
    13  H    1.252983
    14  H    1.437790
 Sum of Mulliken charges =   0.00000

 Dipole moment (field-independent basis, Debye):
    X=              1.2233    Y=             -0.5723    Z=              0.3074  Tot=              1.3851

 Test job not archived.
 1\1\GINC-SE367\SP\RHF\Aug-CC-pVDZ\C3H6O2S2Si1\OHZDE\08-Apr-2025\0\\#t
 hf aug-cc-pvdz iop(5/13=1,5/36=2,99/5=2) pseudo=read geom=check guess=
 (read,tcheck) scf=(maxcycle=1)\\title\\0,1\C,0,1.130884,-1.034692,0.83
 1976\Si,0,-0.571528,-1.235855,-0.055991\C,0,-1.65096,0.324831,0.054516
 \H,0,-1.253672,-2.340578,0.638633\H,0,-0.31636,-1.563891,-1.473674\S,0
 ,-3.239793,0.035976,-0.223371\O,0,-1.184303,1.536744,0.32235\C,0,2.092
 999,-0.190028,0.07038\S,0,1.962392,1.446064,-0.093311\O,0,3.090282,-0.
 821022,-0.556666\H,0,-0.194519,1.548631,0.3459\H,0,3.077455,-1.765452,

 Normal termination of Gaussian 16 at Tue Apr  8 23:55:01 2025.
