 Gaussian 16, Revision C.01,

 ----------------------------------------------------------------------
 #t hf aug-cc-pvdz symm=none int=(grid=ultrafine) guess=(read,tcheck) s
 table=(opt,rrhf)
 ----------------------------------------------------------------------
 -----
 title
 -----
 Symbolic Z-matrix:
 Charge =  0 Multiplicity = 1

 SCF Done:  E(RHF) =  -342.464289456     A.U. after   16 cycles
 Normal termination of Gaussian 16 at Tue Apr  8 23:21:54 2025.
 Gaussian 16:  ES64L-G16RevC.01  3-Jul-2019

 ----------------------------------------------------------------------
 #t hf aug-cc-pvdz iop(5/13=1,5/36=2,99/5=2) pseudo=read geom=check gue
 ss=(read,tcheck) scf=(maxcycle=1)
 ----------------------------------------------------------------------
 -----
 title
 -----
 Structure from the checkpoint file:  "BDE49_nonexpt_1158_mol1.chk"
 Charge =  0 Multiplicity = 1

                         Standard orientation:
 ---------------------------------------------------------------------
 Center     Atomic      Atomic             Coordinates (Angstroms)
 Number     Number       Type             X           Y           Z
 ---------------------------------------------------------------------
      1          9           0        2.119531   -0.371861   -0.279336
      2          8           0        1.105529    0.580520    0.254708
      3          6           0       -0.036025   -0.128245    0.323160
      4          7           0       -1.030090    0.378723   -0.292950
      5          1           0       -0.058449   -1.026823    0.935718
      6          8           0       -2.196450   -0.292415    0.017360
      7          1           0       -2.863186    0.187142   -0.486550
 ---------------------------------------------------------------------

 SCF Done:  E(RHF) =  -343.806860717     A.U. after    2 cycles

 The electronic state is 1-A.
 Alpha  occ. eigenvalues --  -29.31243 -21.19796 -21.13545 -15.82448 -11.47999
 Alpha  occ. eigenvalues --   -1.86707  -1.81315  -1.25440  -0.87449  -0.77410
 Alpha  occ. eigenvalues --   -0.67164  -0.64229  -0.58462  -0.54069  -0.48478
 Alpha  occ. eigenvalues --   -0.40617  -0.39373  -0.31591  -0.27469  -0.24220
 Alpha virt. eigenvalues --    0.04117   0.05585   0.09817   0.10823   0.12719
 Alpha virt. eigenvalues --    0.14303   0.15463   0.16330   0.17647   0.19957
 Alpha virt. eigenvalues --    0.21253   0.22242   0.23606   0.24200   0.25605

 Mulliken charges:
               1
     1  F    0.007578
     2  O   -1.698916
     3  C    1.829633
     4  N   -0.262920
     5  H    1.611137
     6  O   -2.361047
     7  H    0.874535
 Sum of Mulliken charges =  -0.00000

 Dipole moment (field-independent basis, Debye):
    X=              0.0522    Y=             -1.3481    Z=             -0.0067  Tot=              1.3491

 Test job not archived.
 1\1\GINC-SE232\SP\RHF\Aug-CC-pVDZ\C1H2F1N1O2\OHZDE\08-Apr-2025\0\\#t h
 f aug-cc-pvdz iop(5/13=1,5/36=2,99/5=2) pseudo=read geom=check guess=(
 read,tcheck) scf=(maxcycle=1)\\title\\0,1\F,0,-2.119531,0.371861,-0.27
 9336\O,0,-1.105529,-0.58052,0.254708\C,0,0.036025,0.128245,0.32316\N,0
 ,1.03009,-0.378723,-0.29295\H,0,0.058449,1.026823,0.935718\O,0,2.19645
 ,0.292415,0.01736\H,0,2.863186,-0.187142,-0.48655\\Version=ES64L-G16Re
 vC.01\State=1-A\HF=-343.8068607\RMSD=4.926e-02\Dipole=-0.0205223,0.530
 38,-0.0026551\Quadrupole=3.6599989,-2.1029411,-1.5570578,-1.2316575,-0

 Normal termination of Gaussian 16 at Tue Apr  8 23:21:57 2025.
