 Gaussian 16, Revision C.01,

 ----------------------------------------------------------------------
 #t hf aug-cc-pvdz symm=none int=(grid=ultrafine) guess=(read,tcheck) s
 table=(opt,rrhf)
 ----------------------------------------------------------------------
 -----
 title
 -----
 Symbolic Z-matrix:
 Charge =  0 Multiplicity = 1

 SCF Done:  E(RHF) =  -561.750293025     A.U. after   14 cycles
 Normal termination of Gaussian 16 at Wed Apr  9 00:43:38 2025.
 Gaussian 16:  ES64L-G16RevC.01  3-Jul-2019

 ----------------------------------------------------------------------
 #t hf aug-cc-pvdz iop(5/13=1,5/36=2,99/5=2) pseudo=read geom=check gue
 ss=(read,tcheck) scf=(maxcycle=1)
 ----------------------------------------------------------------------
 -----
 title
 -----
 Structure from the checkpoint file:  "BDE49_nonexpt_716_mol1.chk"
 Charge =  0 Multiplicity = 1

                         Standard orientation:
 ---------------------------------------------------------------------
 Center     Atomic      Atomic             Coordinates (Angstroms)
 Number     Number       Type             X           Y           Z
 ---------------------------------------------------------------------
      1          5           0        3.001813    0.685959    0.425037
      2          6           0        0.021362   -0.106503    0.305891
      3          6           0       -1.010812   -1.211480    0.007836
      4          6           0       -0.616820    1.142810   -0.333973
      5          6           0       -2.136262    0.990328   -0.071670
      6          1           0       -0.416260    1.138942   -1.410313
      7          1           0       -0.200494    2.069863    0.065776
      8          6           0       -2.370128   -0.519388    0.238628
      9          1           0       -2.719979    1.323578   -0.932536
     10          1           0       -2.446341    1.606739    0.775520
     11          1           0       -2.677828   -0.645861    1.280273
     12          1           0       -3.159562   -0.953361   -0.378617
     13          1           0       -0.869876   -2.100705    0.625865
     14          1           0       -0.917965   -1.525011   -1.038464
     15         15           0        1.758024   -0.514531   -0.207125
     16          1           0        0.083603    0.034713    1.392149
     17          1           0        4.014611    0.837256   -0.180071
     18          1           0        2.869896    1.146582    1.515061
     19          1           0        1.736727   -0.419171   -1.613227
 ---------------------------------------------------------------------

 SCF Done:  E(RHF) =  -563.075573767     A.U. after    2 cycles

 The electronic state is 1-A.
 Alpha  occ. eigenvalues -- -105.15331 -11.46791 -11.43317 -11.38109 -11.37776
 Alpha  occ. eigenvalues --  -11.34335  -7.61161  -2.73600  -1.53309  -1.46553
 Alpha  occ. eigenvalues --   -1.40901  -1.30739  -1.04383  -1.02827  -0.85327
 Alpha  occ. eigenvalues --   -0.81991  -0.78979  -0.67143  -0.66570  -0.60144
 Alpha  occ. eigenvalues --   -0.58293  -0.54208  -0.49014  -0.46724  -0.45673
 Alpha  occ. eigenvalues --   -0.44350  -0.44160  -0.44093  -0.22603  -0.12429
 Alpha  occ. eigenvalues --   -0.04155
 Alpha virt. eigenvalues --    0.03564   0.04138   0.04540   0.05610   0.05837
 Alpha virt. eigenvalues --    0.05947   0.06131   0.06437   0.06525   0.08555
 Alpha virt. eigenvalues --    0.08748   0.09198   0.09627   0.10515   0.11288

 Mulliken charges:
               1
     1  B    4.589416
     2  C   -0.558945
     3  C   -3.143995
     4  C   -3.911828
     5  C   -2.968971
     6  H    1.437423
     7  H    1.509347
     8  C   -2.995392
     9  H    1.304198
    10  H    1.311522
    11  H    1.340215
    12  H    1.341837
    13  H    1.388508
    14  H    1.483194
    15  P    2.243121
    16  H    1.794490
    17  H   -2.767443
    18  H   -2.152719
    19  H   -1.243977
 Sum of Mulliken charges =   0.00000

 Dipole moment (field-independent basis, Debye):
    X=             -4.7737    Y=             -7.0395    Z=             -0.8117  Tot=              8.5441

 Test job not archived.
 1\1\GINC-SE368\SP\RHF\Aug-CC-pVDZ\C5H12B1P1\OHZDE\09-Apr-2025\0\\#t hf
  aug-cc-pvdz iop(5/13=1,5/36=2,99/5=2) pseudo=read geom=check guess=(r
 ead,tcheck) scf=(maxcycle=1)\\title\\0,1\B,0,3.001813,0.685959,0.42503
 7\C,0,0.021362,-0.106503,0.305891\C,0,-1.010812,-1.21148,0.007836\C,0,
 -0.61682,1.14281,-0.333973\C,0,-2.136262,0.990328,-0.07167\H,0,-0.4162
 6,1.138942,-1.410313\H,0,-0.200494,2.069863,0.065776\C,0,-2.370128,-0.
 519388,0.238628\H,0,-2.719979,1.323578,-0.932536\H,0,-2.446341,1.60673
 9,0.77552\H,0,-2.677828,-0.645861,1.280273\H,0,-3.159562,-0.953361,-0.

 Normal termination of Gaussian 16 at Wed Apr  9 00:43:44 2025.
