 Gaussian 16, Revision C.01,

 ----------------------------------------------------------------------
 #t hf aug-cc-pvdz symm=none int=(grid=ultrafine) guess=(read,tcheck) s
 table=(opt,rrhf)
 ----------------------------------------------------------------------
 -----
 title
 -----
 Symbolic Z-matrix:
 Charge =  0 Multiplicity = 1

 SCF Done:  E(RHF) =  -435.908145762     A.U. after   13 cycles
 Normal termination of Gaussian 16 at Wed Apr  9 00:32:45 2025.
 Gaussian 16:  ES64L-G16RevC.01  3-Jul-2019

 ----------------------------------------------------------------------
 #t hf aug-cc-pvdz iop(5/13=1,5/36=2,99/5=2) pseudo=read geom=check gue
 ss=(read,tcheck) scf=(maxcycle=1)
 ----------------------------------------------------------------------
 -----
 title
 -----
 Structure from the checkpoint file:  "BDE49_nonexpt_381_mol1.chk"
 Charge =  0 Multiplicity = 1

                         Standard orientation:
 ---------------------------------------------------------------------
 Center     Atomic      Atomic             Coordinates (Angstroms)
 Number     Number       Type             X           Y           Z
 ---------------------------------------------------------------------
      1          9           0        1.337803    1.182068   -0.000039
      2          9           0        1.514557   -1.080004    0.000025
      3          5           0        0.772475   -0.000526    0.000024
      4          6           0       -0.822501   -0.159078    0.000011
      5          8           0       -1.433556   -1.171807   -0.000048
      6          9           0       -1.458906    1.045886    0.000036
 ---------------------------------------------------------------------

 SCF Done:  E(RHF) =  -437.471661862     A.U. after    2 cycles

 The electronic state is 1-A.
 Alpha  occ. eigenvalues --  -29.31987 -29.30111 -29.29890 -21.12688 -11.54582
 Alpha  occ. eigenvalues --   -7.76222  -1.79155  -1.23850  -1.03367  -0.81314
 Alpha  occ. eigenvalues --   -0.76025  -0.61878  -0.60864  -0.52807  -0.51639
 Alpha  occ. eigenvalues --   -0.50007  -0.44649  -0.39183  -0.38189  -0.36914
 Alpha  occ. eigenvalues --   -0.31445  -0.30352  -0.25126
 Alpha virt. eigenvalues --    0.03169   0.03514   0.05418   0.05644   0.08406
 Alpha virt. eigenvalues --    0.10687   0.13503   0.14058   0.14809   0.18044
 Alpha virt. eigenvalues --    0.19849   0.20593   0.21216   0.21844   0.23674

 Mulliken charges:
               1
     1  F    0.078384
     2  F    0.276814
     3  B    1.365568
     4  C   -0.157419
     5  O   -2.317988
     6  F    0.754641
 Sum of Mulliken charges =   0.00000

 Dipole moment (field-independent basis, Debye):
    X=              2.3288    Y=              3.1901    Z=              0.0000  Tot=              3.9497

 Test job not archived.
 1\1\GINC-SE054\SP\RHF\Aug-CC-pVDZ\C1B1F3O1\OHZDE\09-Apr-2025\0\\#t hf
 aug-cc-pvdz iop(5/13=1,5/36=2,99/5=2) pseudo=read geom=check guess=(re
 ad,tcheck) scf=(maxcycle=1)\\title\\0,1\F,0,-1.337803,1.182068,0.00003
 9\F,0,-1.514557,-1.080004,-0.000025\B,0,-0.772475,-0.000526,-0.000024\
 C,0,0.822501,-0.159078,-0.000011\O,0,1.433556,-1.171807,0.000048\F,0,1
 .458906,1.045886,-0.000036\\Version=ES64L-G16RevC.01\State=1-A\HF=-437
 .4716619\RMSD=2.642e-01\Dipole=-0.9162137,1.2550905,-0.0000127\Quadrup
 ole=0.1110711,2.1252614,-2.2363325,3.9714928,-0.0001825,0.0002185\PG=C

 Normal termination of Gaussian 16 at Wed Apr  9 00:32:53 2025.
