 Gaussian 16, Revision C.01,

 ----------------------------------------------------------------------
 #t hf aug-cc-pvdz symm=none int=(grid=ultrafine) guess=(read,tcheck) s
 table=(opt,rrhf)
 ----------------------------------------------------------------------
 -----
 title
 -----
 Symbolic Z-matrix:
 Charge =  0 Multiplicity = 1

 SCF Done:  E(RHF) =  -282.881316126     A.U. after   14 cycles
 Normal termination of Gaussian 16 at Tue Apr  8 22:38:26 2025.
 Gaussian 16:  ES64L-G16RevC.01  3-Jul-2019

 ----------------------------------------------------------------------
 #t hf aug-cc-pvdz iop(5/13=1,5/36=2,99/5=2) pseudo=read geom=check gue
 ss=(read,tcheck) scf=(maxcycle=1)
 ----------------------------------------------------------------------
 -----
 title
 -----
 Structure from the checkpoint file:  "BDE49_expt_1203_mol1.chk"
 Charge =  0 Multiplicity = 1

                         Standard orientation:
 ---------------------------------------------------------------------
 Center     Atomic      Atomic             Coordinates (Angstroms)
 Number     Number       Type             X           Y           Z
 ---------------------------------------------------------------------
      1          7           0       -1.927077    0.085225   -0.000001
      2          6           0       -0.743341   -0.756055    0.000004
      3          6           0        0.636144   -0.098973   -0.000039
      4          1           0       -0.760753   -1.419676   -0.869988
      5          1           0       -0.760728   -1.419628    0.870034
      6          8           0        1.676959   -0.703699    0.000014
      7          8           0        0.574583    1.255606    0.000008
      8          1           0        1.492129    1.567992    0.000032
      9          1           0       -1.925143    0.694803   -0.811052
     10          1           0       -1.925122    0.694845    0.811018
 ---------------------------------------------------------------------

 SCF Done:  E(RHF) =  -284.106693471     A.U. after    2 cycles

 The electronic state is 1-A.
 Alpha  occ. eigenvalues --  -21.13042 -21.05759 -15.74643 -11.52624 -11.41889
 Alpha  occ. eigenvalues --   -1.83317  -1.65861  -1.34352  -1.03067  -0.81379
 Alpha  occ. eigenvalues --   -0.69361  -0.63543  -0.61971  -0.57668  -0.54395
 Alpha  occ. eigenvalues --   -0.49892  -0.47726  -0.39476  -0.34400  -0.28756
 Alpha virt. eigenvalues --    0.03517   0.05495   0.05846   0.05946   0.07177
 Alpha virt. eigenvalues --    0.09946   0.11653   0.11863   0.12311   0.14472
 Alpha virt. eigenvalues --    0.16022   0.17020   0.18001   0.18780   0.18878

 Mulliken charges:
               1
     1  N   -2.136265
     2  C   -2.217958
     3  C    5.528673
     4  H    1.289206
     5  H    1.289215
     6  O   -3.071111
     7  O   -2.781278
     8  H    0.903523
     9  H    0.597991
    10  H    0.598003
 Sum of Mulliken charges =  -0.00000

 Dipole moment (field-independent basis, Debye):
    X=             -0.4142    Y=              1.5815    Z=              0.0000  Tot=              1.6348

 Test job not archived.
 1\1\GINC-SE457\SP\RHF\Aug-CC-pVDZ\C2H5N1O2\OHZDE\08-Apr-2025\0\\#t hf
 aug-cc-pvdz iop(5/13=1,5/36=2,99/5=2) pseudo=read geom=check guess=(re
 ad,tcheck) scf=(maxcycle=1)\\title\\0,1\N,0,-1.927077,0.085225,-0.0000
 01\C,0,-0.743341,-0.756055,0.000004\C,0,0.636144,-0.098973,-0.000039\H
 ,0,-0.760753,-1.419676,-0.869988\H,0,-0.760728,-1.419628,0.870034\O,0,
 1.676959,-0.703698,0.000014\O,0,0.574583,1.255606,0.000008\H,0,1.49212
 9,1.567993,0.000032\H,0,-1.925143,0.694803,-0.811052\H,0,-1.925122,0.6
 94845,0.811018\\Version=ES64L-G16RevC.01\State=1-A\HF=-284.1066935\RMS

 Normal termination of Gaussian 16 at Tue Apr  8 22:38:28 2025.
