 Gaussian 16, Revision C.01,

 ----------------------------------------------------------------------
 #t hf aug-cc-pvdz symm=none int=(grid=ultrafine) guess=(read,tcheck) s
 table=(opt,rrhf)
 ----------------------------------------------------------------------
 -----
 title
 -----
 Symbolic Z-matrix:
 Charge =  0 Multiplicity = 1

 SCF Done:  E(RHF) =  -466.376616775     A.U. after   11 cycles
 Normal termination of Gaussian 16 at Wed Apr  9 00:47:26 2025.
 Gaussian 16:  ES64L-G16RevC.01  3-Jul-2019

 ----------------------------------------------------------------------
 #t hf aug-cc-pvdz iop(5/13=1,5/36=2,99/5=2) pseudo=read geom=check gue
 ss=(read,tcheck) scf=(maxcycle=1)
 ----------------------------------------------------------------------
 -----
 title
 -----
 Structure from the checkpoint file:  "BDE49_nonexpt_836_mol1.chk"
 Charge =  0 Multiplicity = 1

                         Standard orientation:
 ---------------------------------------------------------------------
 Center     Atomic      Atomic             Coordinates (Angstroms)
 Number     Number       Type             X           Y           Z
 ---------------------------------------------------------------------
      1         14           0        1.459374   -0.013152   -0.000001
      2          5           0       -0.579606   -0.003356   -0.000066
      3          8           0       -1.213861   -1.206024    0.000019
      4          8           0       -1.348862    1.129654    0.000008
      5          1           0       -0.840385    1.944440    0.000038
      6          1           0       -2.175784   -1.113648    0.000046
      7          1           0        1.998267   -0.698587   -1.200521
      8          1           0        1.998214   -0.698610    1.200532
      9          1           0        1.988260    1.378273    0.000023
 ---------------------------------------------------------------------

 SCF Done:  E(RHF) =  -467.263393253     A.U. after    2 cycles

 The electronic state is 1-A.
 Alpha  occ. eigenvalues --  -76.20402 -21.07242 -21.06134  -7.64396  -5.53943
 Alpha  occ. eigenvalues --   -2.16712  -2.15984  -2.15947  -1.81393  -1.65899
 Alpha  occ. eigenvalues --   -0.81464  -0.72413  -0.63300  -0.54889  -0.49623
 Alpha  occ. eigenvalues --   -0.46661  -0.45768  -0.43203  -0.37047  -0.34428
 Alpha virt. eigenvalues --    0.03519   0.04134   0.05038   0.05293   0.08130
 Alpha virt. eigenvalues --    0.08289   0.08575   0.08982   0.09992   0.10187
 Alpha virt. eigenvalues --    0.10384   0.11751   0.13062   0.16346   0.17195

 Mulliken charges:
               1
     1  Si   5.545705
     2  B    4.577391
     3  O   -3.848469
     4  O   -3.824437
     5  H    1.337603
     6  H    1.312200
     7  H   -1.699090
     8  H   -1.699090
     9  H   -1.701813
 Sum of Mulliken charges =  -0.00000

 Dipole moment (field-independent basis, Debye):
    X=             -0.8500    Y=              0.9342    Z=              0.0001  Tot=              1.2630

 Test job not archived.
 1\1\GINC-SE096\SP\RHF\Aug-CC-pVDZ\B1H5O2Si1\OHZDE\09-Apr-2025\0\\#t hf
  aug-cc-pvdz iop(5/13=1,5/36=2,99/5=2) pseudo=read geom=check guess=(r
 ead,tcheck) scf=(maxcycle=1)\\title\\0,1\Si,0,-1.459374,-0.013152,0.00
 0001\B,0,0.579606,-0.003356,0.000066\O,0,1.213861,-1.206024,-0.000019\
 O,0,1.348862,1.129654,-0.000008\H,0,0.840386,1.94444,-0.000038\H,0,2.1
 75784,-1.113648,-0.000046\H,0,-1.998267,-0.698586,1.200521\H,0,-1.9982
 14,-0.698609,-1.200532\H,0,-1.988259,1.378274,-0.000023\\Version=ES64L
 -G16RevC.01\State=1-A\HF=-467.2633933\RMSD=1.103e-01\Dipole=0.3344214,

 Normal termination of Gaussian 16 at Wed Apr  9 00:47:29 2025.
