 Gaussian 16, Revision C.01,

 ----------------------------------------------------------------------
 #t hf aug-cc-pvdz symm=none int=(grid=ultrafine) guess=(read,tcheck) s
 table=opt
 ----------------------------------------------------------------------
 -----
 title
 -----
 Symbolic Z-matrix:
 Charge =  0 Multiplicity = 2

 SCF Done:  E(UHF) =  -537.536270522     A.U. after   16 cycles

 1\1\GINC-SE435\Stability\UHF\Aug-CC-pVDZ\C2H4Cl1\OHZDE\08-Apr-2025\0\\
 #t hf aug-cc-pvdz symm=none int=(grid=ultrafine) guess=(read,tcheck) s
 table=opt\\title\\0,2\C,0,-1.654338,-0.26453,0.007441\H,0,-1.605196,-1
 .07853,-0.722783\H,0,-2.548771,0.329917,-0.196323\H,0,-1.778919,-0.728
 02,0.997616\C,0,-0.450754,0.598485,-0.059506\Cl,0,1.118503,-0.128558,0
 .004966\H,0,-0.451108,1.658382,0.149457\\Version=ES64L-G16RevC.01\HF=-
 537.5362705\S2=0.766767\S2-1=0.\S2A=0.750218\RMSD=5.803e-09\Dipole=-0.
 7201965,0.2085356,0.066183\Quadrupole=0.2832818,0.594313,-0.8775948,-0

 Normal termination of Gaussian 16 at Tue Apr  8 22:32:20 2025.
 Gaussian 16:  ES64L-G16RevC.01  3-Jul-2019

 ----------------------------------------------------------------------
 #t hf aug-cc-pvdz iop(5/13=1,5/36=2,99/5=2) pseudo=read geom=check gue
 ss=(read,tcheck) scf=(maxcycle=1)
 ----------------------------------------------------------------------
 -----
 title
 -----
 Structure from the checkpoint file:  "BDE49_expt_1027_mol2.chk"
 Charge =  0 Multiplicity = 2

                         Standard orientation:
 ---------------------------------------------------------------------
 Center     Atomic      Atomic             Coordinates (Angstroms)
 Number     Number       Type             X           Y           Z
 ---------------------------------------------------------------------
      1          6           0       -1.654338   -0.264530    0.007441
      2          1           0       -1.605196   -1.078530   -0.722783
      3          1           0       -2.548771    0.329917   -0.196323
      4          1           0       -1.778919   -0.728020    0.997616
      5          6           0       -0.450754    0.598485   -0.059506
      6         17           0        1.118503   -0.128558    0.004966
      7          1           0       -0.451108    1.658382    0.149457
 ---------------------------------------------------------------------

 SCF Done:  E(UHF) =  -538.161704720     A.U. after    2 cycles

 The electronic state is 2-A.
 Alpha  occ. eigenvalues --  -99.89074 -11.43950 -11.38281 -10.46462  -9.66128
 Alpha  occ. eigenvalues --   -9.65589  -9.65481  -1.35460  -1.12311  -0.88928
 Alpha  occ. eigenvalues --   -0.66420  -0.61901  -0.58920  -0.53738  -0.52733
 Alpha  occ. eigenvalues --   -0.47970  -0.33734
 Alpha virt. eigenvalues --    0.03144   0.05349   0.06330   0.06809   0.07628
 Alpha virt. eigenvalues --    0.10870   0.12873   0.13210   0.14312   0.15285
 Alpha virt. eigenvalues --    0.15914   0.17898   0.18655   0.18901   0.20000

  Beta  occ. eigenvalues --  -99.89049 -11.41999 -11.38008 -10.46436  -9.66415
  Beta  occ. eigenvalues --   -9.65465  -9.65192  -1.33736  -1.10198  -0.83743
  Beta  occ. eigenvalues --   -0.65397  -0.57724  -0.57110  -0.52660  -0.51291
  Beta  occ. eigenvalues --   -0.47610
  Beta virt. eigenvalues --    0.03185   0.05458   0.06326   0.06733   0.08029
  Beta virt. eigenvalues --    0.08215   0.11190   0.13058   0.13838   0.14901
  Beta virt. eigenvalues --    0.15408   0.17058   0.18117   0.19077   0.19170

 Mulliken charges and spin densities:
               1          2
     1  C   -3.112171  -0.336774
     2  H    1.290123   0.012013
     3  H    1.226866  -0.000548
     4  H    1.314046   0.028115
     5  C   -2.018113   1.389989
     6  Cl  -0.159540  -0.037406
     7  H    1.458789  -0.055389
 Sum of Mulliken charges =  -0.00000   1.00000

 Dipole moment (field-independent basis, Debye):
    X=             -1.9156    Y=              0.5893    Z=              0.1428  Tot=              2.0092
                          Isotropic Fermi Contact Couplings
        Atom                 a.u.       MegaHertz       Gauss      10(-4) cm-1
     1  C(13)             -0.03176     -35.70865     -12.74174     -11.91112
     2  H(1)               0.01028      45.93768      16.39171      15.32316
     3  H(1)               0.00259      11.58726       4.13462       3.86509
     4  H(1)               0.02012      89.95390      32.09779      30.00539
     5  C(13)              0.16804     188.90679      67.40664      63.01252
     6  Cl(35)             0.03296      14.45151       5.15666       4.82051
     7  H(1)              -0.01804     -80.64866     -28.77745     -26.90150
 --------------------------------------------------------

 Normal termination of Gaussian 16 at Tue Apr  8 22:32:22 2025.
