 Gaussian 16, Revision C.01,

 ----------------------------------------------------------------------
 #t hf aug-cc-pvdz symm=none int=(grid=ultrafine) guess=(read,tcheck) s
 table=(opt,rrhf)
 ----------------------------------------------------------------------
 -----
 title
 -----
 Symbolic Z-matrix:
 Charge =  0 Multiplicity = 1

 SCF Done:  E(RHF) =  -796.809530139     A.U. after   15 cycles
 Normal termination of Gaussian 16 at Tue Apr  8 23:20:54 2025.
 Gaussian 16:  ES64L-G16RevC.01  3-Jul-2019

 ----------------------------------------------------------------------
 #t hf aug-cc-pvdz iop(5/13=1,5/36=2,99/5=2) pseudo=read geom=check gue
 ss=(read,tcheck) scf=(maxcycle=1)
 ----------------------------------------------------------------------
 -----
 title
 -----
 Structure from the checkpoint file:  "BDE49_nonexpt_1127_mol1.chk"
 Charge =  0 Multiplicity = 1

                         Standard orientation:
 ---------------------------------------------------------------------
 Center     Atomic      Atomic             Coordinates (Angstroms)
 Number     Number       Type             X           Y           Z
 ---------------------------------------------------------------------
      1          9           0        2.023403    0.015137   -0.004582
      2          8           0        0.919041   -0.880912   -0.235003
      3         16           0       -0.474267   -0.029243    0.110177
      4          8           0       -1.449991   -0.997813   -0.238239
      5          8           0       -0.347008    0.607160    1.377046
      6          8           0       -0.444775    1.077376   -1.033940
      7          1           0       -0.040488    1.885168   -0.680503
 ---------------------------------------------------------------------

 SCF Done:  E(RHF) =  -798.633030508     A.U. after    2 cycles

 The electronic state is 1-A.
 Alpha  occ. eigenvalues --  -75.99681 -29.35484 -21.21669 -21.18741 -21.12189
 Alpha  occ. eigenvalues --  -21.11941 -13.64079 -13.53331 -13.46948  -8.35092
 Alpha  occ. eigenvalues --   -2.00327  -1.83151  -1.77518  -1.72785  -0.99609
 Alpha  occ. eigenvalues --   -0.78322  -0.72422  -0.68030  -0.63202  -0.58041
 Alpha  occ. eigenvalues --   -0.51375  -0.48905  -0.45756  -0.45528  -0.42920
 Alpha  occ. eigenvalues --   -0.41950  -0.39742  -0.29927  -0.28264
 Alpha virt. eigenvalues --    0.03120   0.08511   0.09388   0.10522   0.12855
 Alpha virt. eigenvalues --    0.16358   0.17272   0.18333   0.19234   0.20431
 Alpha virt. eigenvalues --    0.21030   0.22229   0.24060   0.26002   0.26087

 Mulliken charges:
               1
     1  F   -0.016388
     2  O   -1.359540
     3  S    8.020072
     4  O   -2.489851
     5  O   -2.438679
     6  O   -2.529758
     7  H    0.814144
 Sum of Mulliken charges =   0.00000

 Dipole moment (field-independent basis, Debye):
    X=              2.3721    Y=              2.2989    Z=             -0.7167  Tot=              3.3802

 Test job not archived.
 1\1\GINC-SE108\SP\RHF\Aug-CC-pVDZ\F1H1O4S1\OHZDE\08-Apr-2025\0\\#t hf
 aug-cc-pvdz iop(5/13=1,5/36=2,99/5=2) pseudo=read geom=check guess=(re
 ad,tcheck) scf=(maxcycle=1)\\title\\0,1\F,0,2.023403,0.015136,-0.00458
 2\O,0,0.919041,-0.880912,-0.235003\S,0,-0.474267,-0.029243,0.110177\O,
 0,-1.449992,-0.997812,-0.238239\O,0,-0.347008,0.60716,1.377046\O,0,-0.
 444775,1.077376,-1.03394\H,0,-0.040487,1.885168,-0.680503\\Version=ES6
 4L-G16RevC.01\State=1-A\HF=-798.6330305\RMSD=4.456e-02\Dipole=0.933271
 3,0.9044596,-0.2819549\Quadrupole=0.9786196,1.2090785,-2.1876981,-0.05

 Normal termination of Gaussian 16 at Tue Apr  8 23:20:56 2025.
