 Gaussian 16, Revision C.01,

 ----------------------------------------------------------------------
 #t hf aug-cc-pvdz symm=none int=(grid=ultrafine) guess=(read,tcheck) s
 table=(opt,rrhf)
 ----------------------------------------------------------------------
 -----
 title
 -----
 Symbolic Z-matrix:
 Charge =  0 Multiplicity = 1

 SCF Done:  E(RHF) =  -885.818075455     A.U. after   15 cycles
 Normal termination of Gaussian 16 at Wed Apr  9 00:12:30 2025.
 Gaussian 16:  ES64L-G16RevC.01  3-Jul-2019

 ----------------------------------------------------------------------
 #t hf aug-cc-pvdz iop(5/13=1,5/36=2,99/5=2) pseudo=read geom=check gue
 ss=(read,tcheck) scf=(maxcycle=1)
 ----------------------------------------------------------------------
 -----
 title
 -----
 Structure from the checkpoint file:  "BDE49_nonexpt_2367_mol1.chk"
 Charge =  0 Multiplicity = 1

                         Standard orientation:
 ---------------------------------------------------------------------
 Center     Atomic      Atomic             Coordinates (Angstroms)
 Number     Number       Type             X           Y           Z
 ---------------------------------------------------------------------
      1         14           0       -1.921820   -0.791695   -0.624506
      2         14           0       -2.912465    0.928714    0.660822
      3          8           0       -0.396509   -1.214601   -0.098941
      4          1           0       -1.888800   -0.391806   -2.054821
      5          1           0       -2.700577   -2.040445   -0.493291
      6          1           0       -4.324917    1.069869    0.225144
      7          1           0       -2.228719    2.229011    0.464008
      8          6           0        0.783987   -0.522971   -0.065783
      9          1           0       -2.890301    0.587878    2.103114
     10          6           0        1.848829   -1.110016    0.621886
     11          6           0        0.955092    0.714080   -0.690986
     12          6           0        3.075115   -0.458323    0.683536
     13          6           0        3.253234    0.779218    0.064398
     14          6           0        2.189464    1.358468   -0.620931
     15          1           0        1.693126   -2.070964    1.096633
     16          1           0        3.896659   -0.920406    1.219476
     17          1           0        4.210479    1.284173    0.115611
     18          1           0        2.314262    2.318616   -1.108882
     19          1           0        0.136520    1.169881   -1.236608
 ---------------------------------------------------------------------

 SCF Done:  E(RHF) =  -887.552512819     A.U. after    2 cycles

 The electronic state is 1-A.
 Alpha  occ. eigenvalues --  -76.24644 -76.21943 -21.06865 -11.53253 -11.45890
 Alpha  occ. eigenvalues --  -11.42841 -11.40739 -11.40374 -11.36576  -5.58179
 Alpha  occ. eigenvalues --   -5.55358  -2.24606  -2.20140  -2.19097  -2.17486
 Alpha  occ. eigenvalues --   -2.17430  -2.16478  -1.73847  -1.31844  -1.09670
 Alpha  occ. eigenvalues --   -1.07094  -0.87825  -0.85639  -0.79797  -0.72905
 Alpha  occ. eigenvalues --   -0.69891  -0.64138  -0.59730  -0.58595  -0.56507
 Alpha  occ. eigenvalues --   -0.54831  -0.49669  -0.47883  -0.47320  -0.46619
 Alpha  occ. eigenvalues --   -0.45167  -0.44982  -0.38421  -0.34705  -0.33475
 Alpha  occ. eigenvalues --   -0.27905
 Alpha virt. eigenvalues --    0.03474   0.04534   0.04982   0.05257   0.05623
 Alpha virt. eigenvalues --    0.06412   0.06792   0.07161   0.07590   0.08168
 Alpha virt. eigenvalues --    0.08730   0.09242   0.09327   0.09826   0.10087

 Mulliken charges:
               1
     1  Si   4.595970
     2  Si   4.953555
     3  O   -5.318853
     4  H   -1.607875
     5  H   -1.911231
     6  H   -1.623990
     7  H   -1.698906
     8  C    6.642979
     9  H   -1.604289
    10  C   -4.307267
    11  C   -4.231465
    12  C    0.333692
    13  C   -2.688482
    14  C   -0.061728
    15  H    1.800236
    16  H    1.510887
    17  H    1.541370
    18  H    1.498182
    19  H    2.177215
 Sum of Mulliken charges =   0.00000

 Dipole moment (field-independent basis, Debye):
    X=              0.5311    Y=             -0.0710    Z=              0.2382  Tot=              0.5864

 Test job not archived.
 1\1\GINC-SE103\SP\RHF\Aug-CC-pVDZ\C6H10O1Si2\OHZDE\09-Apr-2025\0\\#t h
 f aug-cc-pvdz iop(5/13=1,5/36=2,99/5=2) pseudo=read geom=check guess=(
 read,tcheck) scf=(maxcycle=1)\\title\\0,1\Si,0,-1.92182,-0.791695,-0.6
 24506\Si,0,-2.912465,0.928714,0.660822\O,0,-0.396509,-1.214601,-0.0989
 41\H,0,-1.8888,-0.391806,-2.054821\H,0,-2.700577,-2.040445,-0.493291\H
 ,0,-4.324917,1.06987,0.225144\H,0,-2.228719,2.229011,0.464008\C,0,0.78
 3987,-0.522971,-0.065783\H,0,-2.890301,0.587878,2.103114\C,0,1.848829,
 -1.110016,0.621886\C,0,0.955092,0.71408,-0.690986\C,0,3.075115,-0.4583

 Normal termination of Gaussian 16 at Wed Apr  9 00:12:41 2025.
