 Gaussian 16, Revision C.01,

 ----------------------------------------------------------------------
 #t hf aug-cc-pvdz symm=none int=(grid=ultrafine) guess=(read,tcheck) s
 table=(opt,rrhf)
 ----------------------------------------------------------------------
 -----
 title
 -----
 Symbolic Z-matrix:
 Charge =  0 Multiplicity = 1

 SCF Done:  E(RHF) =  -1290.33552423     A.U. after   17 cycles
 Normal termination of Gaussian 16 at Wed Apr  9 00:28:23 2025.
 Gaussian 16:  ES64L-G16RevC.01  3-Jul-2019

 ----------------------------------------------------------------------
 #t hf aug-cc-pvdz iop(5/13=1,5/36=2,99/5=2) pseudo=read geom=check gue
 ss=(read,tcheck) scf=(maxcycle=1)
 ----------------------------------------------------------------------
 -----
 title
 -----
 Structure from the checkpoint file:  "BDE49_nonexpt_2719_mol1.chk"
 Charge =  0 Multiplicity = 1

                         Standard orientation:
 ---------------------------------------------------------------------
 Center     Atomic      Atomic             Coordinates (Angstroms)
 Number     Number       Type             X           Y           Z
 ---------------------------------------------------------------------
      1          6           0       -3.152824    0.399572    0.565491
      2          8           0       -2.541870    0.721243    1.538335
      3         16           0       -2.519675   -0.803324   -0.680966
      4         16           0       -0.654866   -1.264631    0.066826
      5          6           0        0.313232    0.217965   -0.473624
      6          8           0       -0.221197    1.165480   -0.978346
      7          6           0       -4.505091    0.941185    0.160010
      8          1           0       -4.344169    1.851217   -0.425220
      9          1           0       -5.067222    1.198886    1.058221
     10          1           0       -5.069936    0.235323   -0.451170
     11          6           0        1.772156    0.136857   -0.177417
     12          6           0        2.513064    1.322518   -0.274595
     13          6           0        3.877027    1.315823   -0.014044
     14          6           0        4.514777    0.126096    0.338270
     15          6           0        3.784978   -1.057654    0.427929
     16          6           0        2.417720   -1.055001    0.171434
     17          1           0        1.999543    2.234078   -0.552849
     18          1           0        4.444661    2.236383   -0.085413
     19          1           0        5.579934    0.121249    0.540183
     20          1           0        4.280834   -1.983855    0.693496
     21          1           0        1.863311   -1.983970    0.228366
 ---------------------------------------------------------------------

 SCF Done:  E(RHF) =  -1293.02908770     A.U. after    2 cycles

 The electronic state is 1-A.
 Alpha  occ. eigenvalues --  -75.72453 -75.72181 -21.07437 -21.07220 -13.20256
 Alpha  occ. eigenvalues --  -13.14905 -13.13757 -13.11685 -13.06520 -13.05743
 Alpha  occ. eigenvalues --  -11.53559 -11.52609 -11.51547 -11.45379 -11.44786
 Alpha  occ. eigenvalues --  -11.43181 -11.42426 -11.40511 -11.38438  -8.06441
 Alpha  occ. eigenvalues --   -8.06246  -1.73653  -1.72975  -1.36295  -1.24780
 Alpha  occ. eigenvalues --   -1.15145  -1.11876  -1.10920  -1.02611  -0.91717
 Alpha  occ. eigenvalues --   -0.88169  -0.79157  -0.74724  -0.71655  -0.64972
 Alpha  occ. eigenvalues --   -0.62772  -0.61441  -0.60870  -0.60051  -0.58735
 Alpha  occ. eigenvalues --   -0.57319  -0.55083  -0.51893  -0.49846  -0.48029
 Alpha  occ. eigenvalues --   -0.47353  -0.46161  -0.45096  -0.37098  -0.34695
 Alpha  occ. eigenvalues --   -0.33593  -0.29384  -0.28538  -0.25916  -0.24830
 Alpha virt. eigenvalues --    0.02979   0.03125   0.04930   0.05130   0.06238
 Alpha virt. eigenvalues --    0.06372   0.06682   0.07536   0.07666   0.08294
 Alpha virt. eigenvalues --    0.08733   0.10119   0.10749   0.11068   0.11647

 Mulliken charges:
               1
     1  C    3.218605
     2  O   -2.976769
     3  S   -0.108319
     4  S   -0.175928
     5  C    0.938201
     6  O   -3.565177
     7  C   -4.341372
     8  H    1.321441
     9  H    1.242416
    10  H    1.477857
    11  C    4.465508
    12  C   -3.154855
    13  C   -1.099500
    14  C   -2.917709
    15  C   -2.503107
    16  C   -0.126912
    17  H    1.712469
    18  H    1.476474
    19  H    1.526146
    20  H    1.508519
    21  H    2.082012
 Sum of Mulliken charges =   0.00000

 Dipole moment (field-independent basis, Debye):
    X=              0.9138    Y=             -0.8080    Z=             -0.2445  Tot=              1.2441

 Test job not archived.
 1\1\GINC-SE338\SP\RHF\Aug-CC-pVDZ\C9H8O2S2\OHZDE\09-Apr-2025\0\\#t hf
 aug-cc-pvdz iop(5/13=1,5/36=2,99/5=2) pseudo=read geom=check guess=(re
 ad,tcheck) scf=(maxcycle=1)\\title\\0,1\C,0,-3.152824,0.399572,0.56549
 1\O,0,-2.54187,0.721243,1.538335\S,0,-2.519675,-0.803324,-0.680966\S,0
 ,-0.654866,-1.264631,0.066826\C,0,0.313232,0.217965,-0.473624\O,0,-0.2
 21197,1.16548,-0.978346\C,0,-4.505091,0.941185,0.16001\H,0,-4.344169,1
 .851217,-0.42522\H,0,-5.067222,1.198886,1.058221\H,0,-5.069936,0.23532
 3,-0.45117\C,0,1.772156,0.136857,-0.177417\C,0,2.513064,1.322518,-0.27

 Normal termination of Gaussian 16 at Wed Apr  9 00:28:36 2025.
