 Gaussian 16, Revision C.01,

 ----------------------------------------------------------------------
 #t hf aug-cc-pvdz symm=none int=(grid=ultrafine) guess=(read,tcheck) s
 table=(opt,rrhf)
 ----------------------------------------------------------------------
 -----
 title
 -----
 Symbolic Z-matrix:
 Charge =  0 Multiplicity = 1

 SCF Done:  E(RHF) =  -554.847615253     A.U. after   13 cycles

 1\1\GINC-SE334\Stability\RHF\Aug-CC-pVDZ\C4H10S1\OHZDE\08-Apr-2025\0\\
 #t hf aug-cc-pvdz symm=none int=(grid=ultrafine) guess=(read,tcheck) s
 table=(opt,rrhf)\\title\\0,1\S,0,1.032759,-1.168519,-0.106747\C,0,0.23
 6444,0.443241,0.362209\C,0,1.237885,1.545265,0.007047\H,0,0.138511,-1.
 986067,0.472363\H,0,0.834162,2.5211,0.291636\H,0,1.435139,1.564642,-1.
 068819\C,0,-1.122587,0.670173,-0.312369\H,0,0.105598,0.419098,1.447622
 \C,0,-2.226736,-0.307633,0.094016\H,0,-1.440586,1.689594,-0.057411\H,0
 ,-0.985001,0.647044,-1.39862\H,0,-2.361829,-0.325702,1.180415\H,0,-2.0

 Normal termination of Gaussian 16 at Tue Apr  8 22:46:46 2025.
 Gaussian 16:  ES64L-G16RevC.01  3-Jul-2019

 ----------------------------------------------------------------------
 #t hf aug-cc-pvdz iop(5/13=1,5/36=2,99/5=2) pseudo=read geom=check gue
 ss=(read,tcheck) scf=(maxcycle=1)
 ----------------------------------------------------------------------
 -----
 title
 -----
 Structure from the checkpoint file:  "BDE49_expt_1550_mol1.chk"
 Charge =  0 Multiplicity = 1

                         Standard orientation:
 ---------------------------------------------------------------------
 Center     Atomic      Atomic             Coordinates (Angstroms)
 Number     Number       Type             X           Y           Z
 ---------------------------------------------------------------------
      1         16           0        1.032759   -1.168519   -0.106747
      2          6           0        0.236444    0.443241    0.362209
      3          6           0        1.237885    1.545265    0.007047
      4          1           0        0.138511   -1.986067    0.472363
      5          1           0        0.834162    2.521100    0.291636
      6          1           0        1.435139    1.564642   -1.068819
      7          6           0       -1.122587    0.670173   -0.312369
      8          1           0        0.105598    0.419098    1.447622
      9          6           0       -2.226736   -0.307633    0.094016
     10          1           0       -1.440586    1.689594   -0.057411
     11          1           0       -0.985001    0.647044   -1.398620
     12          1           0       -2.361829   -0.325702    1.180415
     13          1           0       -2.006894   -1.325158   -0.237921
     14          1           0       -3.181477   -0.018614   -0.352563
     15          1           0        2.188194    1.404095    0.525828
 ---------------------------------------------------------------------

 SCF Done:  E(RHF) =  -555.908810683     A.U. after    2 cycles

 The electronic state is 1-A.
 Alpha  occ. eigenvalues --  -75.67602 -13.13610 -13.08595 -13.02138 -11.43948
 Alpha  occ. eigenvalues --  -11.40534 -11.37816 -11.35587  -8.01481  -1.28125
 Alpha  occ. eigenvalues --   -1.10588  -1.04162  -0.91981  -0.80898  -0.64804
 Alpha  occ. eigenvalues --   -0.60503  -0.59317  -0.57618  -0.51911  -0.50077
 Alpha  occ. eigenvalues --   -0.47502  -0.45705  -0.43501  -0.36174  -0.23542
 Alpha virt. eigenvalues --    0.03636   0.04542   0.05416   0.05502   0.06215
 Alpha virt. eigenvalues --    0.06298   0.06687   0.06815   0.08942   0.09204
 Alpha virt. eigenvalues --    0.10421   0.12500   0.13081   0.13790   0.14436

 Mulliken charges:
               1
     1  S   -0.641098
     2  C   -1.862161
     3  C   -3.944234
     4  H    0.944056
     5  H    1.230096
     6  H    1.314187
     7  C   -2.594076
     8  H    1.652921
     9  C   -3.859192
    10  H    1.383193
    11  H    1.462713
    12  H    1.230748
    13  H    1.356820
    14  H    1.112491
    15  H    1.213536
 Sum of Mulliken charges =   0.00000

 Dipole moment (field-independent basis, Debye):
    X=              0.4983    Y=              0.8884    Z=             -0.2359  Tot=              1.0456

 Test job not archived.
 1\1\GINC-SE334\SP\RHF\Aug-CC-pVDZ\C4H10S1\OHZDE\08-Apr-2025\0\\#t hf a
 ug-cc-pvdz iop(5/13=1,5/36=2,99/5=2) pseudo=read geom=check guess=(rea
 d,tcheck) scf=(maxcycle=1)\\title\\0,1\S,0,1.032759,-1.168519,-0.10674
 7\C,0,0.236444,0.443241,0.362209\C,0,1.237885,1.545265,0.007047\H,0,0.
 138511,-1.986067,0.472363\H,0,0.834162,2.5211,0.291636\H,0,1.435139,1.
 564642,-1.068819\C,0,-1.122587,0.670173,-0.312369\H,0,0.105598,0.41909
 8,1.447622\C,0,-2.226736,-0.307633,0.094016\H,0,-1.440586,1.689594,-0.
 057411\H,0,-0.985001,0.647044,-1.39862\H,0,-2.361829,-0.325702,1.18041

 Normal termination of Gaussian 16 at Tue Apr  8 22:46:50 2025.
