 Gaussian 16, Revision C.01,

 ----------------------------------------------------------------------
 #t hf aug-cc-pvdz symm=none int=(grid=ultrafine) guess=(read,tcheck) s
 table=(opt,rrhf)
 ----------------------------------------------------------------------
 -----
 title
 -----
 Symbolic Z-matrix:
 Charge =  0 Multiplicity = 1

 SCF Done:  E(RHF) =  -670.598355852     A.U. after   15 cycles
 Normal termination of Gaussian 16 at Wed Apr  9 00:05:25 2025.
 Gaussian 16:  ES64L-G16RevC.01  3-Jul-2019

 ----------------------------------------------------------------------
 #t hf aug-cc-pvdz iop(5/13=1,5/36=2,99/5=2) pseudo=read geom=check gue
 ss=(read,tcheck) scf=(maxcycle=1)
 ----------------------------------------------------------------------
 -----
 title
 -----
 Structure from the checkpoint file:  "BDE49_nonexpt_2191_mol1.chk"
 Charge =  0 Multiplicity = 1

                         Standard orientation:
 ---------------------------------------------------------------------
 Center     Atomic      Atomic             Coordinates (Angstroms)
 Number     Number       Type             X           Y           Z
 ---------------------------------------------------------------------
      1          6           0        2.441018    0.417555    0.000001
      2          6           0        1.680437   -0.751835   -0.000001
      3          6           0        0.285319   -0.689141   -0.000002
      4          6           0        1.789940    1.650569    0.000002
      5          6           0        0.404009    1.732374    0.000001
      6          6           0       -0.346498    0.552610   -0.000001
      7          1           0        2.377981    2.561276    0.000004
      8          1           0       -0.112796    2.683010    0.000002
      9          8           0       -1.708070    0.678122   -0.000003
     10         14           0       -2.906381   -0.473225    0.000002
     11          1           0       -0.274384   -1.616773   -0.000004
     12          1           0        3.525172    0.365284    0.000002
     13          8           0        2.239179   -1.998122   -0.000002
     14          1           0        3.198103   -1.913721   -0.000001
     15          1           0       -4.164732    0.292753    0.000004
     16          1           0       -2.817114   -1.329736    1.204348
     17          1           0       -2.817120   -1.329740   -1.204342
 ---------------------------------------------------------------------

 SCF Done:  E(RHF) =  -672.465865803     A.U. after    2 cycles

 The electronic state is 1-A.
 Alpha  occ. eigenvalues --  -76.24682 -21.10826 -21.07078 -11.53609 -11.48505
 Alpha  occ. eigenvalues --  -11.44561 -11.40652 -11.40388 -11.37112  -5.58191
 Alpha  occ. eigenvalues --   -2.24903  -2.20182  -2.19691  -1.76624  -1.73661
 Alpha  occ. eigenvalues --   -1.30020  -1.09149  -1.06599  -0.88361  -0.85450
 Alpha  occ. eigenvalues --   -0.76556  -0.70622  -0.65645  -0.62823  -0.59124
 Alpha  occ. eigenvalues --   -0.57095  -0.56573  -0.52421  -0.51276  -0.48882
 Alpha  occ. eigenvalues --   -0.46229  -0.46064  -0.42399  -0.39949  -0.37888
 Alpha  occ. eigenvalues --   -0.30464  -0.26976
 Alpha virt. eigenvalues --    0.03321   0.04550   0.05161   0.05564   0.06418
 Alpha virt. eigenvalues --    0.06724   0.06907   0.07842   0.09102   0.09446
 Alpha virt. eigenvalues --    0.10742   0.11629   0.12140   0.12979   0.13265

 Mulliken charges:
               1
     1  C   -5.381240
     2  C    6.968842
     3  C   -4.727296
     4  C    1.152594
     5  C   -4.178060
     6  C    6.470074
     7  H    1.452323
     8  H    1.762551
     9  O   -4.886277
    10  Si   6.447670
    11  H    2.065613
    12  H    1.699065
    13  O   -4.568532
    14  H    1.077575
    15  H   -1.837782
    16  H   -1.758560
    17  H   -1.758560
 Sum of Mulliken charges =   0.00000

 Dipole moment (field-independent basis, Debye):
    X=              0.9440    Y=              0.0724    Z=              0.0000  Tot=              0.9468

 Test job not archived.
 1\1\GINC-SE331\SP\RHF\Aug-CC-pVDZ\C6H8O2Si1\OHZDE\09-Apr-2025\0\\#t hf
  aug-cc-pvdz iop(5/13=1,5/36=2,99/5=2) pseudo=read geom=check guess=(r
 ead,tcheck) scf=(maxcycle=1)\\title\\0,1\C,0,2.441018,0.417555,0.00000
 1\C,0,1.680437,-0.751835,-0.000001\C,0,0.285319,-0.689141,-0.000002\C,
 0,1.78994,1.650569,0.000002\C,0,0.404009,1.732374,0.000001\C,0,-0.3464
 98,0.55261,-0.000001\H,0,2.377981,2.561276,0.000004\H,0,-0.112796,2.68
 301,0.000002\O,0,-1.70807,0.678122,-0.000003\Si,0,-2.906381,-0.473225,
 0.000002\H,0,-0.274384,-1.616773,-0.000004\H,0,3.525172,0.365283,0.000

 Normal termination of Gaussian 16 at Wed Apr  9 00:05:33 2025.
