 Gaussian 16, Revision C.01,

 ----------------------------------------------------------------------
 #t hf aug-cc-pvdz symm=none int=(grid=ultrafine) guess=(read,tcheck) s
 table=(opt,rrhf)
 ----------------------------------------------------------------------
 -----
 title
 -----
 Symbolic Z-matrix:
 Charge =  0 Multiplicity = 1

 SCF Done:  E(RHF) =  -683.120264233     A.U. after   13 cycles
 Normal termination of Gaussian 16 at Tue Apr  8 23:29:19 2025.
 Gaussian 16:  ES64L-G16RevC.01  3-Jul-2019

 ----------------------------------------------------------------------
 #t hf aug-cc-pvdz iop(5/13=1,5/36=2,99/5=2) pseudo=read geom=check gue
 ss=(read,tcheck) scf=(maxcycle=1)
 ----------------------------------------------------------------------
 -----
 title
 -----
 Structure from the checkpoint file:  "BDE49_nonexpt_1310_mol1.chk"
 Charge =  0 Multiplicity = 1

                         Standard orientation:
 ---------------------------------------------------------------------
 Center     Atomic      Atomic             Coordinates (Angstroms)
 Number     Number       Type             X           Y           Z
 ---------------------------------------------------------------------
      1          6           0        0.810279   -0.507035    0.189956
      2         15           0       -0.847426    0.090464   -0.056000
      3          8           0       -0.971101    1.453723   -0.591553
      4          8           0       -1.617474   -0.105177    1.356166
      5          6           0        1.859105    0.262988   -0.108383
      6          1           0        0.929356   -1.506630    0.598840
      7          6           0        3.294408   -0.120094    0.069550
      8          1           0        1.661912    1.251387   -0.518380
      9          1           0        3.403498   -1.124169    0.483823
     10          1           0        3.801663    0.588545    0.733305
     11          1           0        3.822219   -0.079273   -0.889405
     12          1           0       -1.708203    0.740638    1.810888
     13          8           0       -1.483145   -1.109332   -0.908075
     14          1           0       -2.408042   -0.956340   -1.138109
 ---------------------------------------------------------------------

 SCF Done:  E(RHF) =  -684.838468089     A.U. after    2 cycles

 The electronic state is 1-A.
 Alpha  occ. eigenvalues -- -105.29380 -21.10888 -21.10479 -21.01216 -11.45660
 Alpha  occ. eigenvalues --  -11.40925 -11.38218  -2.91889  -1.96755  -1.88014
 Alpha  occ. eigenvalues --   -1.80186  -1.54711  -1.39297  -1.25673  -1.20036
 Alpha  occ. eigenvalues --   -0.99114  -0.80207  -0.69833  -0.60533  -0.59916
 Alpha  occ. eigenvalues --   -0.58355  -0.58093  -0.52045  -0.51289  -0.44512
 Alpha  occ. eigenvalues --   -0.41342  -0.37110  -0.34472  -0.33216  -0.28844
 Alpha  occ. eigenvalues --   -0.24736  -0.14853
 Alpha virt. eigenvalues --    0.03133   0.05277   0.05763   0.05899   0.06506
 Alpha virt. eigenvalues --    0.06897   0.08034   0.10176   0.10473   0.11844
 Alpha virt. eigenvalues --    0.12050   0.13360   0.13931   0.14438   0.15733

 Mulliken charges:
               1
     1  C   -4.206442
     2  P    9.721662
     3  O   -2.905529
     4  O   -2.753223
     5  C   -0.187203
     6  H    1.148135
     7  C   -4.679612
     8  H    1.411298
     9  H    1.220592
    10  H    1.232877
    11  H    1.231351
    12  H    0.740663
    13  O   -2.936785
    14  H    0.962217
 Sum of Mulliken charges =  -0.00000

 Dipole moment (field-independent basis, Debye):
    X=              1.3709    Y=             -2.2537    Z=              1.1480  Tot=              2.8769

 Test job not archived.
 1\1\GINC-SE083\SP\RHF\Aug-CC-pVDZ\C3H7O3P1\OHZDE\08-Apr-2025\0\\#t hf
 aug-cc-pvdz iop(5/13=1,5/36=2,99/5=2) pseudo=read geom=check guess=(re
 ad,tcheck) scf=(maxcycle=1)\\title\\0,1\C,0,0.810279,-0.507035,0.18995
 6\P,0,-0.847426,0.090464,-0.056\O,0,-0.971101,1.453723,-0.591553\O,0,-
 1.617474,-0.105177,1.356166\C,0,1.859105,0.262988,-0.108383\H,0,0.9293
 56,-1.50663,0.59884\C,0,3.294408,-0.120094,0.06955\H,0,1.661912,1.2513
 87,-0.51838\H,0,3.403498,-1.124169,0.483823\H,0,3.801663,0.588545,0.73
 3305\H,0,3.822219,-0.079273,-0.889405\H,0,-1.708203,0.740638,1.810888\

 Normal termination of Gaussian 16 at Tue Apr  8 23:29:25 2025.
