 Gaussian 16, Revision C.01,

 ----------------------------------------------------------------------
 #t hf aug-cc-pvdz symm=none int=(grid=ultrafine) guess=(read,tcheck) s
 table=(opt,rrhf)
 ----------------------------------------------------------------------
 -----
 title
 -----
 Symbolic Z-matrix:
 Charge =  0 Multiplicity = 1

 SCF Done:  E(RHF) =  -689.313349719     A.U. after   15 cycles
 Normal termination of Gaussian 16 at Wed Apr  9 00:55:53 2025.
 Gaussian 16:  ES64L-G16RevC.01  3-Jul-2019

 ----------------------------------------------------------------------
 #t hf aug-cc-pvdz iop(5/13=1,5/36=2,99/5=2) pseudo=read geom=check gue
 ss=(read,tcheck) scf=(maxcycle=1)
 ----------------------------------------------------------------------
 -----
 title
 -----
 Structure from the checkpoint file:  "BDE49_nonexpt_976_mol1.chk"
 Charge =  0 Multiplicity = 1

                         Standard orientation:
 ---------------------------------------------------------------------
 Center     Atomic      Atomic             Coordinates (Angstroms)
 Number     Number       Type             X           Y           Z
 ---------------------------------------------------------------------
      1          9           0       -2.788416   -1.018013    0.197457
      2          9           0        0.403823    2.253399   -0.412498
      3          8           0       -2.195877    1.755489    0.445829
      4          8           0       -0.406191   -2.359460   -0.636230
      5          7           0       -1.596210   -0.439621   -0.091669
      6          7           0        0.025993    1.025975    0.149336
      7          6           0       -1.385191    0.920961    0.198471
      8          6           0       -0.481342   -1.179069   -0.456859
      9          6           0        0.619189   -0.110892   -0.579933
     10          1           0        0.688157    0.157867   -1.641786
     11          6           0        1.987907   -0.566556   -0.052388
     12          1           0        2.215764   -1.475016   -0.621399
     13          6           0        3.064254    0.485005   -0.354807
     14          1           0        4.046148    0.116168   -0.049491
     15          1           0        2.871345    1.415522    0.184579
     16          1           0        3.110543    0.718925   -1.422182
     17          6           0        1.945586   -0.926781    1.437933
     18          1           0        2.927502   -1.276085    1.764836
     19          1           0        1.678190   -0.057920    2.044225
     20          1           0        1.229326   -1.726651    1.641621
 ---------------------------------------------------------------------

 SCF Done:  E(RHF) =  -692.188013261     A.U. after    2 cycles

 The electronic state is 1-A.
 Alpha  occ. eigenvalues --  -29.35168 -29.31949 -21.09764 -21.09680 -15.87623
 Alpha  occ. eigenvalues --  -15.85439 -11.59266 -11.58008 -11.51846 -11.45257
 Alpha  occ. eigenvalues --  -11.40797 -11.38748  -1.79849  -1.76912  -1.59643
 Alpha  occ. eigenvalues --   -1.45490  -1.26853  -1.10553  -1.02953  -0.99539
 Alpha  occ. eigenvalues --   -0.94250  -0.85109  -0.78535  -0.74901  -0.71352
 Alpha  occ. eigenvalues --   -0.66755  -0.65753  -0.62318  -0.60107  -0.58435
 Alpha  occ. eigenvalues --   -0.56775  -0.55773  -0.54583  -0.50237  -0.48923
 Alpha  occ. eigenvalues --   -0.47460  -0.45383  -0.44421  -0.43578  -0.41016
 Alpha  occ. eigenvalues --   -0.37406  -0.35562  -0.31640  -0.28814  -0.26751
 Alpha  occ. eigenvalues --   -0.24264
 Alpha virt. eigenvalues --    0.03450   0.04616   0.04961   0.05547   0.06284
 Alpha virt. eigenvalues --    0.06425   0.06957   0.07537   0.09842   0.10546
 Alpha virt. eigenvalues --    0.11287   0.11570   0.12069   0.12566   0.12927

 Mulliken charges:
               1
     1  F   -0.193331
     2  F   -0.403732
     3  O   -3.387667
     4  O   -3.502598
     5  N   -0.744343
     6  N   -0.776398
     7  C    4.869061
     8  C    4.891916
     9  C   -2.279313
    10  H    1.853838
    11  C   -0.916236
    12  H    1.751559
    13  C   -4.220524
    14  H    1.171189
    15  H    1.322919
    16  H    1.202281
    17  C   -4.496545
    18  H    1.169694
    19  H    1.422554
    20  H    1.265675
 Sum of Mulliken charges =   0.00000

 Dipole moment (field-independent basis, Debye):
    X=              0.8909    Y=              0.4046    Z=             -0.4092  Tot=              1.0605

 Test job not archived.
 1\1\GINC-SE284\SP\RHF\Aug-CC-pVDZ\C6H8F2N2O2\OHZDE\09-Apr-2025\0\\#t h
 f aug-cc-pvdz iop(5/13=1,5/36=2,99/5=2) pseudo=read geom=check guess=(
 read,tcheck) scf=(maxcycle=1)\\title\\0,1\F,0,-2.788416,-1.018013,0.19
 7457\F,0,0.403823,2.253399,-0.412498\O,0,-2.195877,1.755489,0.445829\O
 ,0,-0.406191,-2.35946,-0.63623\N,0,-1.59621,-0.439621,-0.091669\N,0,0.
 025993,1.025975,0.149336\C,0,-1.385191,0.920961,0.198471\C,0,-0.481342
 ,-1.179069,-0.456859\C,0,0.619189,-0.110892,-0.579933\H,0,0.688157,0.1
 57867,-1.641786\C,0,1.987907,-0.566556,-0.052388\H,0,2.215764,-1.47501

 Normal termination of Gaussian 16 at Wed Apr  9 00:56:05 2025.
