 Gaussian 16, Revision C.01,

 ----------------------------------------------------------------------
 #t hf aug-cc-pvdz symm=none int=(grid=ultrafine) guess=(read,tcheck) s
 table=(opt,rrhf)
 ----------------------------------------------------------------------
 -----
 title
 -----
 Symbolic Z-matrix:
 Charge =  0 Multiplicity = 1

 SCF Done:  E(RHF) =  -699.917646392     A.U. after   16 cycles
 Normal termination of Gaussian 16 at Tue Apr  8 23:34:41 2025.
 Gaussian 16:  ES64L-G16RevC.01  3-Jul-2019

 ----------------------------------------------------------------------
 #t hf aug-cc-pvdz iop(5/13=1,5/36=2,99/5=2) pseudo=read geom=check gue
 ss=(read,tcheck) scf=(maxcycle=1)
 ----------------------------------------------------------------------
 -----
 title
 -----
 Structure from the checkpoint file:  "BDE49_nonexpt_1456_mol1.chk"
 Charge =  0 Multiplicity = 1

                         Standard orientation:
 ---------------------------------------------------------------------
 Center     Atomic      Atomic             Coordinates (Angstroms)
 Number     Number       Type             X           Y           Z
 ---------------------------------------------------------------------
      1          6           0       -1.475961   -0.476270    0.026371
      2         15           0       -0.945426    1.305113   -0.240640
      3          6           0        0.844140    0.774384    0.040067
      4          7           0        0.948988   -0.591246   -0.067037
      5          6           0       -0.257311   -1.396497   -0.115404
      6          1           0       -0.284908   -2.131136    0.698542
      7          1           0       -0.341263   -1.948773   -1.061488
      8          8           0       -2.584367   -0.885582    0.241360
      9          6           0        2.247067   -1.247472   -0.003197
     10          1           0        3.012970   -0.475294    0.026599
     11          1           0        2.399040   -1.881693   -0.881780
     12          1           0        2.326071   -1.867450    0.896300
     13          8           0        1.769917    1.536590    0.212581
     14          1           0       -1.205449    1.733441    1.082137
 ---------------------------------------------------------------------

 SCF Done:  E(RHF) =  -701.674935134     A.U. after    2 cycles

 The electronic state is 1-A.
 Alpha  occ. eigenvalues -- -105.20895 -21.08834 -21.04601 -15.77199 -11.51723
 Alpha  occ. eigenvalues --  -11.49964 -11.44633 -11.41504  -2.79028  -1.74268
 Alpha  occ. eigenvalues --   -1.72407  -1.52805  -1.48761  -1.47561  -1.44298
 Alpha  occ. eigenvalues --   -1.11780  -1.01206  -0.87536  -0.74396  -0.70230
 Alpha  occ. eigenvalues --   -0.69121  -0.63954  -0.60079  -0.59236  -0.53996
 Alpha  occ. eigenvalues --   -0.51790  -0.51459  -0.46179  -0.45814  -0.38589
 Alpha  occ. eigenvalues --   -0.31632  -0.23148  -0.15683  -0.04986
 Alpha virt. eigenvalues --    0.03133   0.05162   0.05371   0.06580   0.06859
 Alpha virt. eigenvalues --    0.07197   0.07583   0.08627   0.09439   0.11586
 Alpha virt. eigenvalues --    0.11856   0.12683   0.12888   0.13274   0.13299

 Mulliken charges:
               1
     1  C    1.819628
     2  P    3.155519
     3  C    3.409234
     4  N   -3.082829
     5  C   -2.420440
     6  H    1.586289
     7  H    1.484107
     8  O   -3.065894
     9  C   -3.516570
    10  H    1.416199
    11  H    1.419306
    12  H    1.405240
    13  O   -3.215009
    14  H   -0.394781
 Sum of Mulliken charges =   0.00000

 Dipole moment (field-independent basis, Debye):
    X=             -0.5882    Y=              1.0305    Z=             -3.1143  Tot=              3.3327

 Test job not archived.
 1\1\GINC-SE341\SP\RHF\Aug-CC-pVDZ\C4H6N1O2P1\OHZDE\08-Apr-2025\0\\#t h
 f aug-cc-pvdz iop(5/13=1,5/36=2,99/5=2) pseudo=read geom=check guess=(
 read,tcheck) scf=(maxcycle=1)\\title\\0,1\C,0,-1.475961,-0.47627,0.026
 371\P,0,-0.945426,1.305113,-0.24064\C,0,0.84414,0.774384,0.040067\N,0,
 0.948988,-0.591246,-0.067037\C,0,-0.257311,-1.396497,-0.115404\H,0,-0.
 284908,-2.131136,0.698542\H,0,-0.341263,-1.948773,-1.061488\O,0,-2.584
 367,-0.885582,0.24136\C,0,2.247067,-1.247472,-0.003197\H,0,3.01297,-0.
 475294,0.026599\H,0,2.39904,-1.881693,-0.88178\H,0,2.326071,-1.86745,0

 Normal termination of Gaussian 16 at Tue Apr  8 23:34:46 2025.
