 Gaussian 16, Revision C.01,

 ----------------------------------------------------------------------
 #t hf aug-cc-pvdz symm=none int=(grid=ultrafine) guess=(read,tcheck) s
 table=(opt,rrhf)
 ----------------------------------------------------------------------
 -----
 title
 -----
 Symbolic Z-matrix:
 Charge =  0 Multiplicity = 1

 SCF Done:  E(RHF) =  -726.660211785     A.U. after   12 cycles
 Normal termination of Gaussian 16 at Tue Apr  8 23:41:13 2025.
 Gaussian 16:  ES64L-G16RevC.01  3-Jul-2019

 ----------------------------------------------------------------------
 #t hf aug-cc-pvdz iop(5/13=1,5/36=2,99/5=2) pseudo=read geom=check gue
 ss=(read,tcheck) scf=(maxcycle=1)
 ----------------------------------------------------------------------
 -----
 title
 -----
 Structure from the checkpoint file:  "BDE49_nonexpt_1642_mol1.chk"
 Charge =  0 Multiplicity = 1

                         Standard orientation:
 ---------------------------------------------------------------------
 Center     Atomic      Atomic             Coordinates (Angstroms)
 Number     Number       Type             X           Y           Z
 ---------------------------------------------------------------------
      1         15           0       -0.531032   -0.071438   -0.597939
      2          7           0       -0.989536   -1.446875    0.333216
      3         14           0        1.633996    0.051560    0.092154
      4          6           0       -1.232735    1.403228    0.310270
      5          1           0       -2.317189    1.420099    0.173530
      6          1           0       -0.825623    2.318322   -0.130277
      7          1           0       -1.012850    1.403517    1.381846
      8          1           0       -1.807005   -1.935100   -0.004707
      9          1           0       -0.990827   -1.383773    1.344098
     10          1           0        2.394938   -1.069717   -0.503540
     11          1           0        1.738990   -0.030618    1.574330
     12          1           0        2.232272    1.335753   -0.350481
 ---------------------------------------------------------------------

 SCF Done:  E(RHF) =  -727.499944719     A.U. after    2 cycles

 The electronic state is 1-A.
 Alpha  occ. eigenvalues -- -105.16898 -76.21608 -15.74183 -11.36967  -5.55075
 Alpha  occ. eigenvalues --   -2.75613  -2.17304  -2.17129  -2.16952  -1.53931
 Alpha  occ. eigenvalues --   -1.45774  -1.42499  -1.17487  -0.99803  -0.76740
 Alpha  occ. eigenvalues --   -0.65339  -0.64172  -0.56436  -0.56274  -0.47414
 Alpha  occ. eigenvalues --   -0.47178  -0.40710  -0.25888  -0.15937  -0.01595
 Alpha virt. eigenvalues --    0.04438   0.05534   0.05766   0.06319   0.06985
 Alpha virt. eigenvalues --    0.07254   0.07655   0.08368   0.09056   0.10125
 Alpha virt. eigenvalues --    0.10735   0.11730   0.12129   0.12200   0.15497

 Mulliken charges:
               1
     1  P    4.339429
     2  N   -2.731094
     3  Si   4.892999
     4  C   -5.677643
     5  H    1.072817
     6  H    1.148370
     7  H    1.064584
     8  H    0.527010
     9  H    0.541554
    10  H   -1.713203
    11  H   -1.684653
    12  H   -1.780171
 Sum of Mulliken charges =  -0.00000

 Dipole moment (field-independent basis, Debye):
    X=             -4.5472    Y=             -1.3503    Z=             -1.7421  Tot=              5.0532

 Test job not archived.
 1\1\GINC-SE332\SP\RHF\Aug-CC-pVDZ\C1H8N1P1Si1\OHZDE\08-Apr-2025\0\\#t
 hf aug-cc-pvdz iop(5/13=1,5/36=2,99/5=2) pseudo=read geom=check guess=
 (read,tcheck) scf=(maxcycle=1)\\title\\0,1\P,0,-0.531032,-0.071438,-0.
 597939\N,0,-0.989536,-1.446875,0.333216\Si,0,1.633996,0.05156,0.092154
 \C,0,-1.232735,1.403228,0.31027\H,0,-2.317189,1.420099,0.17353\H,0,-0.
 825623,2.318322,-0.130277\H,0,-1.01285,1.403517,1.381846\H,0,-1.807005
 ,-1.9351,-0.004707\H,0,-0.990827,-1.383773,1.344098\H,0,2.394938,-1.06
 9717,-0.50354\H,0,1.73899,-0.030618,1.57433\H,0,2.232272,1.335753,-0.3

 Normal termination of Gaussian 16 at Tue Apr  8 23:41:16 2025.
