 Gaussian 16, Revision C.01,

 ----------------------------------------------------------------------
 #t hf aug-cc-pvdz symm=none int=(grid=ultrafine) guess=(read,tcheck) s
 table=(opt,rrhf)
 ----------------------------------------------------------------------
 -----
 title
 -----
 Symbolic Z-matrix:
 Charge =  0 Multiplicity = 1

 SCF Done:  E(RHF) =  -1222.31554196     A.U. after   12 cycles
 Normal termination of Gaussian 16 at Wed Apr  9 00:14:03 2025.
 Gaussian 16:  ES64L-G16RevC.01  3-Jul-2019

 ----------------------------------------------------------------------
 #t hf aug-cc-pvdz iop(5/13=1,5/36=2,99/5=2) pseudo=read geom=check gue
 ss=(read,tcheck) scf=(maxcycle=1)
 ----------------------------------------------------------------------
 -----
 title
 -----
 Structure from the checkpoint file:  "BDE49_nonexpt_2450_mol1.chk"
 Charge =  0 Multiplicity = 1

                         Standard orientation:
 ---------------------------------------------------------------------
 Center     Atomic      Atomic             Coordinates (Angstroms)
 Number     Number       Type             X           Y           Z
 ---------------------------------------------------------------------
      1         14           0        2.549320   -0.814904    0.021284
      2         14           0        1.365722    1.225458   -0.042765
      3         15           0       -1.269309   -0.200306   -0.004658
      4          8           0       -1.906564    0.205051    1.398491
      5          8           0       -2.480993    0.051182   -1.016100
      6          1           0       -2.399906   -0.497538   -1.804948
      7          8           0       -0.667169   -1.534863   -0.099081
      8          8           0       -0.297704    1.008817   -0.249218
      9          1           0        1.782165    2.060993   -1.189507
     10          1           0        1.551544    2.001395    1.203862
     11          1           0        2.217252   -1.606738    1.223735
     12          1           0        3.984165   -0.429062    0.094064
     13          1           0        2.338839   -1.602236   -1.211813
     14          1           0       -2.425582   -0.511486    1.782472
 ---------------------------------------------------------------------

 SCF Done:  E(RHF) =  -1224.07411230     A.U. after    2 cycles

 The electronic state is 1-A.
 Alpha  occ. eigenvalues -- -105.33272 -76.25575 -76.21707 -21.12379 -21.12227
 Alpha  occ. eigenvalues --  -21.08809 -21.03036  -5.59003  -5.55063  -2.96849
 Alpha  occ. eigenvalues --   -2.25022  -2.20660  -2.20179  -2.17231  -2.17129
 Alpha  occ. eigenvalues --   -2.16283  -2.00853  -1.93581  -1.92034  -1.74896
 Alpha  occ. eigenvalues --   -1.41429  -1.40146  -1.26170  -0.80866  -0.73368
 Alpha  occ. eigenvalues --   -0.67086  -0.61519  -0.55883  -0.52705  -0.51776
 Alpha  occ. eigenvalues --   -0.47316  -0.46806  -0.45489  -0.44691  -0.39860
 Alpha  occ. eigenvalues --   -0.36965  -0.35109  -0.34116  -0.30504  -0.29784
 Alpha  occ. eigenvalues --   -0.17783
 Alpha virt. eigenvalues --    0.03741   0.04881   0.05300   0.05709   0.06755
 Alpha virt. eigenvalues --    0.07600   0.07875   0.08386   0.09301   0.09861
 Alpha virt. eigenvalues --    0.09997   0.10674   0.10896   0.11450   0.11949

 Mulliken charges:
               1
     1  Si   4.453384
     2  Si   4.949047
     3  P    9.159223
     4  O   -2.595315
     5  O   -2.614570
     6  H    0.865876
     7  O   -2.745536
     8  O   -4.250685
     9  H   -1.765246
    10  H   -1.735567
    11  H   -1.493455
    12  H   -1.532858
    13  H   -1.550120
    14  H    0.855823
 Sum of Mulliken charges =   0.00000

 Dipole moment (field-independent basis, Debye):
    X=             -2.2096    Y=              1.3718    Z=             -0.0795  Tot=              2.6020

 Test job not archived.
 1\1\GINC-SE082\SP\RHF\Aug-CC-pVDZ\H7O4P1Si2\OHZDE\09-Apr-2025\0\\#t hf
  aug-cc-pvdz iop(5/13=1,5/36=2,99/5=2) pseudo=read geom=check guess=(r
 ead,tcheck) scf=(maxcycle=1)\\title\\0,1\Si,0,2.54932,-0.814904,0.0212
 84\Si,0,1.365722,1.225458,-0.042765\P,0,-1.269309,-0.200306,-0.004658\
 O,0,-1.906564,0.205051,1.398491\O,0,-2.480993,0.051182,-1.0161\H,0,-2.
 399906,-0.497538,-1.804948\O,0,-0.667169,-1.534863,-0.099081\O,0,-0.29
 7704,1.008817,-0.249218\H,0,1.782165,2.060993,-1.189507\H,0,1.551544,2
 .001395,1.203862\H,0,2.217252,-1.606738,1.223735\H,0,3.984165,-0.42906

 Normal termination of Gaussian 16 at Wed Apr  9 00:14:09 2025.
