 Gaussian 16, Revision C.01,

 ----------------------------------------------------------------------
 #t hf aug-cc-pvdz symm=none int=(grid=ultrafine) guess=(read,tcheck) s
 table=opt
 ----------------------------------------------------------------------
 -----
 title
 -----
 Symbolic Z-matrix:
 Charge =  0 Multiplicity = 2

 SCF Done:  E(UHF) =  -124.692941818     A.U. after   13 cycles
 Normal termination of Gaussian 16 at Tue Apr  8 23:19:48 2025.
 Gaussian 16:  ES64L-G16RevC.01  3-Jul-2019

 ----------------------------------------------------------------------
 #t hf aug-cc-pvdz iop(5/13=1,5/36=2,99/5=2) pseudo=read geom=check gue
 ss=(read,tcheck) scf=(maxcycle=1)
 ----------------------------------------------------------------------
 -----
 title
 -----
 Structure from the checkpoint file:  "BDE49_nonexpt_10_mol2.chk"
 Charge =  0 Multiplicity = 2

                         Standard orientation:
 ---------------------------------------------------------------------
 Center     Atomic      Atomic             Coordinates (Angstroms)
 Number     Number       Type             X           Y           Z
 ---------------------------------------------------------------------
      1          5           0        0.068721    0.742923    0.000000
      2          9           0        0.068721   -0.564267    0.000000
      3          1           0       -0.962094    1.363786    0.000000
 ---------------------------------------------------------------------

 SCF Done:  E(UHF) =  -125.124138888     A.U. after    2 cycles

 The electronic state is 2-A'.
 Alpha  occ. eigenvalues --  -29.27157  -7.69324  -0.99685  -0.61639  -0.48988
 Alpha  occ. eigenvalues --   -0.43814  -0.39528  -0.24110
 Alpha virt. eigenvalues --    0.03448   0.04137   0.05048   0.07032   0.14145
 Alpha virt. eigenvalues --    0.14193   0.21044   0.23351   0.24218   0.24316
 Alpha virt. eigenvalues --    0.24743   0.29965   0.31416   0.33446   0.34782

  Beta  occ. eigenvalues --  -29.26857  -7.67449  -0.95800  -0.59000  -0.43255
  Beta  occ. eigenvalues --   -0.41679  -0.37286
  Beta virt. eigenvalues --    0.03471   0.03628   0.04531   0.07093   0.10560
  Beta virt. eigenvalues --    0.16375   0.17362   0.21667   0.23955   0.24382
  Beta virt. eigenvalues --    0.25512   0.26415   0.30637   0.33418   0.35348

 Mulliken charges and spin densities:
               1          2
     1  B    1.616519   0.978654
     2  F   -0.204621  -0.065827
     3  H   -1.411898   0.087173
 Sum of Mulliken charges =  -0.00000   1.00000

 Dipole moment (field-independent basis, Debye):
    X=             -0.3192    Y=             -3.5181    Z=              0.0000  Tot=              3.5325
                          Isotropic Fermi Contact Couplings
        Atom                 a.u.       MegaHertz       Gauss      10(-4) cm-1
     1  B(11)              0.19037     273.06376      97.43594      91.08427
     2  F(19)              0.04920     207.02223      73.87068      69.05518
     3  H(1)               0.04056     181.29884      64.69194      60.47478
 --------------------------------------------------------
       Center         ----  Spin Dipole Couplings  ----
                      3XX-RR        3YY-RR        3ZZ-RR
 --------------------------------------------------------
     1   Atom        0.211315     -0.044356     -0.166959

 Normal termination of Gaussian 16 at Tue Apr  8 23:19:49 2025.
