 Gaussian 16, Revision C.01,

 ----------------------------------------------------------------------
 #t hf aug-cc-pvdz symm=none int=(grid=ultrafine) guess=(read,tcheck) s
 table=opt
 ----------------------------------------------------------------------
 -----
 title
 -----
 Symbolic Z-matrix:
 Charge =  0 Multiplicity = 2

 SCF Done:  E(UHF) =  -607.581213742     A.U. after   20 cycles
 Normal termination of Gaussian 16 at Tue Apr  8 23:35:23 2025.
 Gaussian 16:  ES64L-G16RevC.01  3-Jul-2019

 ----------------------------------------------------------------------
 #t hf aug-cc-pvdz iop(5/13=1,5/36=2,99/5=2) pseudo=read geom=check gue
 ss=(read,tcheck) scf=(maxcycle=1)
 ----------------------------------------------------------------------
 -----
 title
 -----
 Structure from the checkpoint file:  "BDE49_nonexpt_1473_mol2.chk"
 Charge =  0 Multiplicity = 2

                         Standard orientation:
 ---------------------------------------------------------------------
 Center     Atomic      Atomic             Coordinates (Angstroms)
 Number     Number       Type             X           Y           Z
 ---------------------------------------------------------------------
      1          6           0        0.318096    0.164885   -0.000040
      2         15           0       -1.244156   -0.861840   -0.000016
      3          8           0        1.392160   -0.655479   -0.000005
      4          8           0        0.391205    1.370101   -0.000006
      5          6           0        2.679105   -0.005819    0.000028
      6          1           0        2.791019    0.617420    0.888743
      7          1           0        2.791067    0.617413   -0.888686
      8          1           0        3.410523   -0.810381    0.000051
      9          6           0       -2.429395    0.551029    0.000029
     10          1           0       -2.277217    1.180887    0.880680
     11          1           0       -3.449571    0.163801    0.000040
     12          1           0       -2.277247    1.180918   -0.880605
 ---------------------------------------------------------------------

 SCF Done:  E(UHF) =  -608.920847759     A.U. after    2 cycles

 The electronic state is 2-A.
 Alpha  occ. eigenvalues -- -105.18820 -21.09600 -21.06210 -11.49436 -11.41764
 Alpha  occ. eigenvalues --  -11.37483  -2.77649  -1.84218  -1.67118  -1.49852
 Alpha  occ. eigenvalues --   -1.47916  -1.46388  -1.02906  -1.00797  -0.78088
 Alpha  occ. eigenvalues --   -0.69383  -0.63278  -0.59087  -0.57685  -0.56986
 Alpha  occ. eigenvalues --   -0.56618  -0.51455  -0.46148  -0.36720  -0.33395
 Alpha  occ. eigenvalues --   -0.19553  -0.06468   0.01431
 Alpha virt. eigenvalues --    0.03739   0.05432   0.06274   0.06582   0.06674
 Alpha virt. eigenvalues --    0.07205   0.08535   0.09838   0.11977   0.12150
 Alpha virt. eigenvalues --    0.13386   0.14611   0.15180   0.15285   0.15561

  Beta  occ. eigenvalues -- -105.18200 -21.09578 -21.05774 -11.49718 -11.41773
  Beta  occ. eigenvalues --  -11.37610  -2.75748  -1.84089  -1.66398  -1.47902
  Beta  occ. eigenvalues --   -1.46496  -1.22585  -1.02756  -1.00504  -0.77046
  Beta  occ. eigenvalues --   -0.68339  -0.63280  -0.57973  -0.57401  -0.56416
  Beta  occ. eigenvalues --   -0.55907  -0.51354  -0.45343  -0.36396  -0.32008
  Beta  occ. eigenvalues --   -0.20255  -0.04517
  Beta virt. eigenvalues --    0.03732   0.05443   0.06275   0.06433   0.06740
  Beta virt. eigenvalues --    0.07134   0.08850   0.08904   0.10145   0.12278
  Beta virt. eigenvalues --    0.13554   0.14391   0.14679   0.15467   0.15591

 Mulliken charges and spin densities:
               1          2
     1  C    1.472355  -0.259511
     2  P    4.404864   1.420744
     3  O   -2.631147  -0.030433
     4  O   -2.433974   0.137350
     5  C   -2.938124   0.031933
     6  H    1.332948  -0.012459
     7  H    1.332949  -0.012467
     8  H    1.346775  -0.001153
     9  C   -5.292613  -0.271115
    10  H    1.049107   0.006453
    11  H    1.307786  -0.015797
    12  H    1.049074   0.006454
 Sum of Mulliken charges =   0.00000   1.00000

 Dipole moment (field-independent basis, Debye):
    X=              0.7634    Y=             -2.2747    Z=              0.0003  Tot=              2.3994
                          Isotropic Fermi Contact Couplings
        Atom                 a.u.       MegaHertz       Gauss      10(-4) cm-1
     1  C(13)             -0.01204     -13.53191      -4.82852      -4.51376
     2  P(31)              0.27581     499.51389     178.23898     166.61990
     3  O(17)             -0.00172       1.04184       0.37176       0.34752
     4  O(17)              0.02564     -15.54020      -5.54513      -5.18365
     5  C(13)             -0.00049      -0.54995      -0.19624      -0.18344
     6  H(1)               0.00081       3.61492       1.28989       1.20581
     7  H(1)               0.00081       3.61495       1.28990       1.20582
     8  H(1)               0.00005       0.23981       0.08557       0.07999

 Normal termination of Gaussian 16 at Tue Apr  8 23:35:27 2025.
