 Gaussian 16, Revision C.01,

 ----------------------------------------------------------------------
 #t hf aug-cc-pvdz symm=none int=(grid=ultrafine) guess=(read,tcheck) s
 table=(opt,rrhf)
 ----------------------------------------------------------------------
 -----
 title
 -----
 Symbolic Z-matrix:
 Charge =  0 Multiplicity = 1

 SCF Done:  E(RHF) =  -1148.57119956     A.U. after   14 cycles

 1\1\GINC-SE334\Stability\RHF\Aug-CC-pVDZ\C6H4Cl2\OHZDE\08-Apr-2025\0\\
 #t hf aug-cc-pvdz symm=none int=(grid=ultrafine) guess=(read,tcheck) s
 table=(opt,rrhf)\\title\\0,1\C,0,0.,1.193368,-0.00081\C,0,0.,1.211747,
 1.390258\C,0,0.,0.,2.076225\C,0,0.,-1.211747,1.390258\C,0,0.,-1.193368
 ,-0.00081\C,0,0.,0.,-0.715888\Cl,0,0.,2.708947,-0.883524\H,0,0.,0.,3.1
 59841\H,0,0.,-2.15453,1.920617\H,0,0.,2.15453,1.920617\Cl,0,0.,-2.7089
 47,-0.883524\H,0,0.,0.,-1.796643\\Version=ES64L-G16RevC.01\HF=-1148.57
 11996\RMSD=9.288e-09\Dipole=0.,0.,0.7598921\Quadrupole=-2.7040909,-2.3

 Normal termination of Gaussian 16 at Tue Apr  8 22:49:48 2025.
 Gaussian 16:  ES64L-G16RevC.01  3-Jul-2019

 ----------------------------------------------------------------------
 #t hf aug-cc-pvdz iop(5/13=1,5/36=2,99/5=2) pseudo=read geom=check gue
 ss=(read,tcheck) scf=(maxcycle=1)
 ----------------------------------------------------------------------
 -----
 title
 -----
 Structure from the checkpoint file:  "BDE49_expt_1673_mol1.chk"
 Charge =  0 Multiplicity = 1

                         Standard orientation:
 ---------------------------------------------------------------------
 Center     Atomic      Atomic             Coordinates (Angstroms)
 Number     Number       Type             X           Y           Z
 ---------------------------------------------------------------------
      1          6           0        0.000000    1.193368   -0.000810
      2          6           0        0.000000    1.211747    1.390258
      3          6           0        0.000000   -0.000000    2.076225
      4          6           0       -0.000000   -1.211747    1.390258
      5          6           0       -0.000000   -1.193368   -0.000810
      6          6           0       -0.000000    0.000000   -0.715888
      7         17           0        0.000000    2.708947   -0.883524
      8          1           0        0.000000   -0.000000    3.159841
      9          1           0        0.000000   -2.154530    1.920617
     10          1           0        0.000000    2.154530    1.920617
     11         17           0       -0.000000   -2.708947   -0.883524
     12          1           0       -0.000000    0.000000   -1.796643
 ---------------------------------------------------------------------

 SCF Done:  E(RHF) =  -1150.15594055     A.U. after    2 cycles

 The electronic state is 1-A1.
 Alpha  occ. eigenvalues --  -99.90435 -99.90424 -11.53524 -11.48254 -11.46830
 Alpha  occ. eigenvalues --  -11.44688 -11.44337 -11.40013 -10.47785 -10.47774
 Alpha  occ. eigenvalues --   -9.67806  -9.67775  -9.66930  -9.66883  -9.66742
 Alpha  occ. eigenvalues --   -9.66727  -1.43680  -1.34775  -1.26286  -1.11415
 Alpha  occ. eigenvalues --   -1.09185  -0.89909  -0.87989  -0.74317  -0.68994
 Alpha  occ. eigenvalues --   -0.64655  -0.61679  -0.61512  -0.59709  -0.56290
 Alpha  occ. eigenvalues --   -0.54489  -0.50496  -0.48957  -0.48475  -0.47688
 Alpha  occ. eigenvalues --   -0.35624  -0.34963
 Alpha virt. eigenvalues --    0.02847   0.04928   0.05514   0.06106   0.06887
 Alpha virt. eigenvalues --    0.07762   0.08407   0.09463   0.10776   0.11586
 Alpha virt. eigenvalues --    0.11962   0.12401   0.12772   0.13172   0.14028

 Mulliken charges:
               1
     1  C   -0.946138
     2  C   -1.987859
     3  C    0.373926
     4  C   -1.987859
     5  C   -0.946138
     6  C    0.445984
     7  Cl  -0.795034
     8  H    1.475359
     9  H    1.693232
    10  H    1.693232
    11  Cl  -0.795034
    12  H    1.776330
 Sum of Mulliken charges =  -0.00000

 Dipole moment (field-independent basis, Debye):
    X=              0.0000    Y=              0.0000    Z=              2.3330  Tot=              2.3330

 Test job not archived.
 1\1\GINC-SE334\SP\RHF\Aug-CC-pVDZ\C6H4Cl2\OHZDE\08-Apr-2025\0\\#t hf a
 ug-cc-pvdz iop(5/13=1,5/36=2,99/5=2) pseudo=read geom=check guess=(rea
 d,tcheck) scf=(maxcycle=1)\\title\\0,1\C,0,0.,1.193368,-0.00081\C,0,0.
 ,1.211747,1.390258\C,0,0.,0.,2.076225\C,0,0.,-1.211747,1.390258\C,0,0.
 ,-1.193368,-0.00081\C,0,0.,0.,-0.715888\Cl,0,0.,2.708947,-0.883524\H,0
 ,0.,0.,3.159841\H,0,0.,-2.15453,1.920617\H,0,0.,2.15453,1.920617\Cl,0,
 0.,-2.708947,-0.883524\H,0,0.,0.,-1.796643\\Version=ES64L-G16RevC.01\S
 tate=1-A1\HF=-1150.1559406\RMSD=2.254e+00\Dipole=0.,0.,0.9178765\Quadr

 Normal termination of Gaussian 16 at Tue Apr  8 22:49:53 2025.
