 Gaussian 16, Revision C.01,

 ----------------------------------------------------------------------
 #t hf aug-cc-pvdz symm=none int=(grid=ultrafine) guess=(read,tcheck) s
 table=(opt,rrhf)
 ----------------------------------------------------------------------
 -----
 title
 -----
 Symbolic Z-matrix:
 Charge =  0 Multiplicity = 1

 SCF Done:  E(RHF) =  -710.040705658     A.U. after   17 cycles
 Normal termination of Gaussian 16 at Wed Apr  9 00:44:32 2025.
 Gaussian 16:  ES64L-G16RevC.01  3-Jul-2019

 ----------------------------------------------------------------------
 #t hf aug-cc-pvdz iop(5/13=1,5/36=2,99/5=2) pseudo=read geom=check gue
 ss=(read,tcheck) scf=(maxcycle=1)
 ----------------------------------------------------------------------
 -----
 title
 -----
 Structure from the checkpoint file:  "BDE49_nonexpt_712_mol1.chk"
 Charge =  0 Multiplicity = 1

                         Standard orientation:
 ---------------------------------------------------------------------
 Center     Atomic      Atomic             Coordinates (Angstroms)
 Number     Number       Type             X           Y           Z
 ---------------------------------------------------------------------
      1          6           0       -2.751302    0.711590    0.404405
      2          6           0       -1.444078    1.172865    0.329848
      3          6           0       -0.417051    0.315956   -0.090232
      4          6           0        0.966530    0.868544   -0.157754
      5          8           0        1.199894    2.054914   -0.127165
      6          5           0        2.584449   -1.450818    1.088470
      7          6           0       -3.048328   -0.605301    0.049193
      8          6           0       -2.034635   -1.458919   -0.380961
      9          6           0       -0.721801   -1.001855   -0.448283
     10          1           0        0.058979   -1.666363   -0.798290
     11          1           0       -3.541234    1.375795    0.735729
     12          1           0       -1.192350    2.193036    0.591841
     13          1           0       -4.070016   -0.963891    0.104566
     14          1           0       -2.266402   -2.478319   -0.666516
     15         15           0        2.428133   -0.304915   -0.357453
     16          1           0        1.625529   -2.000814    1.521455
     17          1           0        3.676280   -1.722194    1.472222
     18          1           0        3.469819    0.633961   -0.261545
 ---------------------------------------------------------------------

 SCF Done:  E(RHF) =  -711.924117254     A.U. after    2 cycles

 The electronic state is 1-A.
 Alpha  occ. eigenvalues -- -105.17452 -21.06310 -11.53114 -11.50767 -11.45094
 Alpha  occ. eigenvalues --  -11.44384 -11.42661 -11.42177 -11.38064  -7.63285
 Alpha  occ. eigenvalues --   -2.75759  -1.72488  -1.54096  -1.48122  -1.43177
 Alpha  occ. eigenvalues --   -1.35454  -1.12956  -1.10826  -0.92960  -0.88492
 Alpha  occ. eigenvalues --   -0.85927  -0.77616  -0.71643  -0.68212  -0.62668
 Alpha  occ. eigenvalues --   -0.59818  -0.58303  -0.55419  -0.53997  -0.50573
 Alpha  occ. eigenvalues --   -0.47176  -0.46507  -0.46270  -0.39768  -0.34494
 Alpha  occ. eigenvalues --   -0.33068  -0.22714  -0.12083  -0.05624
 Alpha virt. eigenvalues --    0.03097   0.03962   0.04298   0.04943   0.05397
 Alpha virt. eigenvalues --    0.05581   0.06735   0.07518   0.08398   0.08774
 Alpha virt. eigenvalues --    0.09476   0.09878   0.10899   0.11072   0.12039

 Mulliken charges:
               1
     1  C   -1.481861
     2  C   -2.899430
     3  C    3.963267
     4  C   -0.310722
     5  O   -3.182060
     6  B    5.034563
     7  C   -3.098499
     8  C   -2.677420
     9  C   -0.020776
    10  H    2.140966
    11  H    1.473027
    12  H    1.741982
    13  H    1.535317
    14  H    1.482197
    15  P    2.089503
    16  H   -2.432150
    17  H   -2.946541
    18  H   -0.411362
 Sum of Mulliken charges =  -0.00000

 Dipole moment (field-independent basis, Debye):
    X=             -1.5353    Y=              1.0185    Z=             -7.8945  Tot=              8.1066

 Test job not archived.
 1\1\GINC-SE363\SP\RHF\Aug-CC-pVDZ\C7H8B1O1P1\OHZDE\09-Apr-2025\0\\#t h
 f aug-cc-pvdz iop(5/13=1,5/36=2,99/5=2) pseudo=read geom=check guess=(
 read,tcheck) scf=(maxcycle=1)\\title\\0,1\C,0,-2.751302,0.71159,0.4044
 05\C,0,-1.444078,1.172865,0.329848\C,0,-0.417051,0.315956,-0.090232\C,
 0,0.96653,0.868544,-0.157754\O,0,1.199894,2.054914,-0.127165\B,0,2.584
 449,-1.450818,1.08847\C,0,-3.048328,-0.605301,0.049193\C,0,-2.034635,-
 1.458919,-0.380961\C,0,-0.721801,-1.001855,-0.448283\H,0,0.058979,-1.6
 66363,-0.79829\H,0,-3.541234,1.375795,0.735729\H,0,-1.19235,2.193036,0

 Normal termination of Gaussian 16 at Wed Apr  9 00:44:41 2025.
