 Gaussian 16, Revision C.01,

 ----------------------------------------------------------------------
 #t hf aug-cc-pvdz symm=none int=(grid=ultrafine) guess=(read,tcheck) s
 table=(opt,rrhf)
 ----------------------------------------------------------------------
 -----
 title
 -----
 Symbolic Z-matrix:
 Charge =  0 Multiplicity = 1

 SCF Done:  E(RHF) =  -306.958243141     A.U. after   14 cycles

 1\1\GINC-SE125\Stability\RHF\Aug-CC-pVDZ\C4H10O2\OHZDE\08-Apr-2025\0\\
 #t hf aug-cc-pvdz symm=none int=(grid=ultrafine) guess=(read,tcheck) s
 table=(opt,rrhf)\\title\\0,1\C,0,-0.391021,0.00055,0.037007\O,0,0.7277
 27,-0.058659,-0.886945\O,0,1.972902,0.102425,-0.151235\H,0,2.350809,-0
 .779914,-0.261539\C,0,-0.316753,-1.161821,1.03084\H,0,-0.273576,-2.115
 918,0.49846\H,0,-1.196411,-1.171025,1.67953\H,0,0.56855,-1.070698,1.66
 2295\C,0,-0.407631,1.35679,0.745744\H,0,0.49718,1.485894,1.340685\H,0,
 -1.273913,1.433386,1.408541\H,0,-0.456798,2.164937,0.012559\C,0,-1.581

 Normal termination of Gaussian 16 at Tue Apr  8 22:44:55 2025.
 Gaussian 16:  ES64L-G16RevC.01  3-Jul-2019

 ----------------------------------------------------------------------
 #t hf aug-cc-pvdz iop(5/13=1,5/36=2,99/5=2) pseudo=read geom=check gue
 ss=(read,tcheck) scf=(maxcycle=1)
 ----------------------------------------------------------------------
 -----
 title
 -----
 Structure from the checkpoint file:  "BDE49_expt_1466_mol1.chk"
 Charge =  0 Multiplicity = 1

                         Standard orientation:
 ---------------------------------------------------------------------
 Center     Atomic      Atomic             Coordinates (Angstroms)
 Number     Number       Type             X           Y           Z
 ---------------------------------------------------------------------
      1          6           0       -0.391021    0.000550    0.037007
      2          8           0        0.727727   -0.058659   -0.886945
      3          8           0        1.972902    0.102425   -0.151235
      4          1           0        2.350809   -0.779914   -0.261539
      5          6           0       -0.316753   -1.161821    1.030840
      6          1           0       -0.273576   -2.115918    0.498460
      7          1           0       -1.196411   -1.171025    1.679530
      8          1           0        0.568550   -1.070698    1.662295
      9          6           0       -0.407631    1.356790    0.745744
     10          1           0        0.497180    1.485894    1.340685
     11          1           0       -1.273913    1.433386    1.408541
     12          1           0       -0.456798    2.164937    0.012559
     13          6           0       -1.581807   -0.151182   -0.912847
     14          1           0       -1.538979   -1.108376   -1.437161
     15          1           0       -1.582650    0.650392   -1.654164
     16          1           0       -2.515977   -0.104831   -0.348223
 ---------------------------------------------------------------------

 SCF Done:  E(RHF) =  -308.387874415     A.U. after    2 cycles

 The electronic state is 1-A.
 Alpha  occ. eigenvalues --  -21.10668 -21.08056 -11.44760 -11.39512 -11.39129
 Alpha  occ. eigenvalues --  -11.35128  -1.92455  -1.45017  -1.18450  -1.01651
 Alpha  occ. eigenvalues --   -1.01340  -0.78062  -0.64376  -0.62923  -0.62086
 Alpha  occ. eigenvalues --   -0.58871  -0.55458  -0.53350  -0.51604  -0.47876
 Alpha  occ. eigenvalues --   -0.46541  -0.45768  -0.40177  -0.32495  -0.28698
 Alpha virt. eigenvalues --    0.03860   0.05385   0.05443   0.05616   0.05754
 Alpha virt. eigenvalues --    0.06089   0.06323   0.07354   0.07814   0.09692
 Alpha virt. eigenvalues --    0.12017   0.13968   0.14168   0.14700   0.15571

 Mulliken charges:
               1
     1  C    3.892263
     2  O   -2.615443
     3  O   -1.088543
     4  H    0.928363
     5  C   -4.199561
     6  H    1.227609
     7  H    1.185510
     8  H    1.347335
     9  C   -4.333439
    10  H    1.399684
    11  H    1.176144
    12  H    1.275438
    13  C   -3.888699
    14  H    1.247025
    15  H    1.253098
    16  H    1.193214
 Sum of Mulliken charges =  -0.00000

 Dipole moment (field-independent basis, Debye):
    X=             -0.3588    Y=             -0.5715    Z=              0.3824  Tot=              0.7756

 Test job not archived.
 1\1\GINC-SE125\SP\RHF\Aug-CC-pVDZ\C4H10O2\OHZDE\08-Apr-2025\0\\#t hf a
 ug-cc-pvdz iop(5/13=1,5/36=2,99/5=2) pseudo=read geom=check guess=(rea
 d,tcheck) scf=(maxcycle=1)\\title\\0,1\C,0,-0.391021,0.00055,0.037007\
 O,0,0.727727,-0.058659,-0.886945\O,0,1.972902,0.102425,-0.151235\H,0,2
 .350809,-0.779914,-0.261539\C,0,-0.316753,-1.161821,1.03084\H,0,-0.273
 576,-2.115918,0.49846\H,0,-1.196411,-1.171025,1.67953\H,0,0.56855,-1.0
 70698,1.662295\C,0,-0.407631,1.35679,0.745744\H,0,0.49718,1.485894,1.3
 40685\H,0,-1.273913,1.433386,1.408541\H,0,-0.456798,2.164937,0.012559\

 Normal termination of Gaussian 16 at Tue Apr  8 22:45:01 2025.
