 Gaussian 16, Revision C.01,

 ----------------------------------------------------------------------
 #t hf aug-cc-pvdz symm=none int=(grid=ultrafine) guess=(read,tcheck) s
 table=opt
 ----------------------------------------------------------------------
 -----
 title
 -----
 Symbolic Z-matrix:
 Charge =  0 Multiplicity = 2

 SCF Done:  E(UHF) =  -1223.12555548     A.U. after   20 cycles
 Normal termination of Gaussian 16 at Tue Apr  8 22:52:34 2025.
 Gaussian 16:  ES64L-G16RevC.01  3-Jul-2019

 ----------------------------------------------------------------------
 #t hf aug-cc-pvdz iop(5/13=1,5/36=2,99/5=2) pseudo=read geom=check gue
 ss=(read,tcheck) scf=(maxcycle=1)
 ----------------------------------------------------------------------
 -----
 title
 -----
 Structure from the checkpoint file:  "BDE49_expt_1719_mol2.chk"
 Charge =  0 Multiplicity = 2

                         Standard orientation:
 ---------------------------------------------------------------------
 Center     Atomic      Atomic             Coordinates (Angstroms)
 Number     Number       Type             X           Y           Z
 ---------------------------------------------------------------------
      1          6           0        0.207460   -0.677829    0.000141
      2          8           0        0.236485   -1.887507    0.000011
      3          6           0       -1.044678    0.091848    0.000039
      4          8           0        1.286155    0.123124    0.000100
      5         17           0       -2.526990   -0.747610   -0.000147
      6         17           0       -1.086971    1.800434    0.000019
      7          6           0        2.569938   -0.552643    0.000036
      8          6           0        3.642722    0.515675   -0.000004
      9          1           0        2.624673   -1.194278   -0.882472
     10          1           0        2.624751   -1.194290    0.882531
     11          1           0        3.562199    1.148715   -0.886036
     12          1           0        4.629665    0.045908   -0.000051
     13          1           0        3.562278    1.148702    0.886044
 ---------------------------------------------------------------------

 SCF Done:  E(UHF) =  -1224.94107141     A.U. after    2 cycles

 The electronic state is 2-A.
 Alpha  occ. eigenvalues --  -99.93055 -99.92616 -21.10183 -21.07715 -11.54989
 Alpha  occ. eigenvalues --  -11.49832 -11.45419 -11.38289 -10.50524 -10.50032
 Alpha  occ. eigenvalues --   -9.70246  -9.69794  -9.69552  -9.69541  -9.69107
 Alpha  occ. eigenvalues --   -9.69058  -1.86090  -1.69152  -1.43899  -1.32083
 Alpha  occ. eigenvalues --   -1.15731  -1.05618  -0.91070  -0.79976  -0.72123
 Alpha  occ. eigenvalues --   -0.69389  -0.68567  -0.65868  -0.59701  -0.56323
 Alpha  occ. eigenvalues --   -0.55700  -0.55431  -0.53370  -0.52348  -0.50951
 Alpha  occ. eigenvalues --   -0.49992  -0.43896  -0.36269  -0.35343  -0.33016
 Alpha virt. eigenvalues --    0.03324   0.03974   0.05517   0.05739   0.06252
 Alpha virt. eigenvalues --    0.06360   0.07202   0.07347   0.10450   0.11805
 Alpha virt. eigenvalues --    0.11928   0.12250   0.13422   0.14321   0.14856

  Beta  occ. eigenvalues --  -99.93025 -99.92584 -21.10210 -21.06705 -11.54854
  Beta  occ. eigenvalues --  -11.48054 -11.45421 -11.38289 -10.50491 -10.49998
  Beta  occ. eigenvalues --   -9.70557  -9.70096  -9.69537  -9.69101  -9.69039
  Beta  occ. eigenvalues --   -9.68665  -1.85873  -1.67519  -1.41847  -1.31805
  Beta  occ. eigenvalues --   -1.15452  -1.01273  -0.90118  -0.78894  -0.71749
  Beta  occ. eigenvalues --   -0.67687  -0.67451  -0.60602  -0.59599  -0.56317
  Beta  occ. eigenvalues --   -0.55108  -0.53323  -0.53012  -0.52239  -0.50150
  Beta  occ. eigenvalues --   -0.49880  -0.43488  -0.32617  -0.31951
  Beta virt. eigenvalues --    0.01697   0.03466   0.05034   0.05585   0.05788
  Beta virt. eigenvalues --    0.06268   0.06362   0.07219   0.07654   0.10701
  Beta virt. eigenvalues --    0.11838   0.12067   0.12377   0.13618   0.14748

 Mulliken charges and spin densities:
               1          2
     1  C    7.412794  -0.640496
     2  O   -2.941858   0.290205
     3  C   -2.219520   1.347289
     4  O   -2.899505   0.001548
     5  Cl  -0.155740   0.003485
     6  Cl  -0.122715  -0.004197
     7  C   -2.488144  -0.000998
     8  C   -3.487928  -0.000354
     9  H    1.635483   0.001677
    10  H    1.635541   0.001680
    11  H    1.267740  -0.000026
    12  H    1.096101   0.000215
    13  H    1.267749  -0.000027
 Sum of Mulliken charges =  -0.00000   1.00000

 Dipole moment (field-independent basis, Debye):
    X=              2.4328    Y=              0.2896    Z=             -0.0000  Tot=              2.4500
                          Isotropic Fermi Contact Couplings
        Atom                 a.u.       MegaHertz       Gauss      10(-4) cm-1
     1  C(13)             -0.04878     -54.83924     -19.56801     -18.29240
     2  O(17)              0.05693     -34.51349     -12.31527     -11.51246
     3  C(13)              0.17207     193.44346      69.02544      64.52579
     4  O(17)             -0.01354       8.20842       2.92897       2.73803
     5  Cl(35)             0.03670      16.09319       5.74245       5.36811
     6  Cl(35)             0.03870      16.96658       6.05410       5.65944
     7  C(13)             -0.00149      -1.66951      -0.59572      -0.55689
     8  C(13)              0.00009       0.10331       0.03686       0.03446

 Normal termination of Gaussian 16 at Tue Apr  8 22:52:40 2025.
