 Gaussian 16, Revision C.01,

 ----------------------------------------------------------------------
 #t hf aug-cc-pvdz symm=none int=(grid=ultrafine) guess=(read,tcheck) s
 table=(opt,rrhf)
 ----------------------------------------------------------------------
 -----
 title
 -----
 Symbolic Z-matrix:
 Charge =  0 Multiplicity = 1

 SCF Done:  E(RHF) =  -463.470432043     A.U. after   11 cycles
 Normal termination of Gaussian 16 at Wed Apr  9 00:00:40 2025.
 Gaussian 16:  ES64L-G16RevC.01  3-Jul-2019

 ----------------------------------------------------------------------
 #t hf aug-cc-pvdz iop(5/13=1,5/36=2,99/5=2) pseudo=read geom=check gue
 ss=(read,tcheck) scf=(maxcycle=1)
 ----------------------------------------------------------------------
 -----
 title
 -----
 Structure from the checkpoint file:  "BDE49_nonexpt_2104_mol1.chk"
 Charge =  0 Multiplicity = 1

                         Standard orientation:
 ---------------------------------------------------------------------
 Center     Atomic      Atomic             Coordinates (Angstroms)
 Number     Number       Type             X           Y           Z
 ---------------------------------------------------------------------
      1          7           0        0.000001   -0.775965    1.584519
      2         14           0        0.000000   -0.006096    0.028280
      3          6           0       -0.000002    1.879767    0.098825
      4          6           0       -1.549549   -0.578083   -0.867331
      5          1           0       -1.624655   -0.119079   -1.858055
      6          1           0       -1.547440   -1.663894   -0.996132
      7          1           0       -2.456022   -0.308318   -0.315304
      8          6           0        1.549549   -0.578079   -0.867332
      9          1           0        2.456022   -0.308312   -0.315305
     10          1           0        1.624654   -0.119076   -1.858055
     11          1           0        1.547444   -1.663890   -0.996132
     12          1           0       -0.828252   -0.738109    2.162486
     13          1           0        0.828254   -0.738108    2.162485
     14          1           0       -0.000003    2.317087   -0.905489
     15          1           0        0.883150    2.258584    0.623493
     16          1           0       -0.883155    2.258582    0.623493
 ---------------------------------------------------------------------

 SCF Done:  E(RHF) =  -464.537766970     A.U. after    2 cycles

 The electronic state is 1-A.
 Alpha  occ. eigenvalues --  -76.18625 -15.71197 -11.33413 -11.33296 -11.33228
 Alpha  occ. eigenvalues --   -5.52971  -2.17862  -2.16370  -2.16031  -1.24102
 Alpha  occ. eigenvalues --   -1.05658  -1.00192  -0.99955  -0.66617  -0.63425
 Alpha  occ. eigenvalues --   -0.56650  -0.55718  -0.55454  -0.53646  -0.53288
 Alpha  occ. eigenvalues --   -0.52400  -0.46065  -0.40835  -0.38544  -0.34636
 Alpha virt. eigenvalues --    0.02875   0.05414   0.05578   0.05851   0.06525
 Alpha virt. eigenvalues --    0.06529   0.06875   0.07124   0.07328   0.08497
 Alpha virt. eigenvalues --    0.08769   0.09701   0.10102   0.11975   0.12586

 Mulliken charges:
               1
     1  N   -2.793332
     2  Si   8.931661
     3  C   -5.833805
     4  C   -5.857433
     5  H    1.126813
     6  H    1.162298
     7  H    1.137979
     8  C   -5.857435
     9  H    1.137979
    10  H    1.126815
    11  H    1.162298
    12  H    0.613646
    13  H    0.613647
    14  H    1.100553
    15  H    1.114158
    16  H    1.114158
 Sum of Mulliken charges =  -0.00000

 Dipole moment (field-independent basis, Debye):
    X=              0.0000    Y=              0.2757    Z=              0.6424  Tot=              0.6990

 Test job not archived.
 1\1\GINC-SE366\SP\RHF\Aug-CC-pVDZ\C3H11N1Si1\OHZDE\09-Apr-2025\0\\#t h
 f aug-cc-pvdz iop(5/13=1,5/36=2,99/5=2) pseudo=read geom=check guess=(
 read,tcheck) scf=(maxcycle=1)\\title\\0,1\N,0,0.000001,-0.775965,1.584
 519\Si,0,0.,-0.006096,0.02828\C,0,-0.000001,1.879767,0.098825\C,0,-1.5
 49549,-0.578082,-0.867331\H,0,-1.624655,-0.119078,-1.858055\H,0,-1.547
 441,-1.663893,-0.996132\H,0,-2.456022,-0.308317,-0.315304\C,0,1.549549
 ,-0.57808,-0.867332\H,0,2.456022,-0.308314,-0.315305\H,0,1.624654,-0.1
 19077,-1.858055\H,0,1.547443,-1.663891,-0.996132\H,0,-0.828252,-0.7381

 Normal termination of Gaussian 16 at Wed Apr  9 00:00:44 2025.
