 Gaussian 16, Revision C.01,

 ----------------------------------------------------------------------
 #t hf aug-cc-pvdz symm=none int=(grid=ultrafine) guess=(read,tcheck) s
 table=(opt,rrhf)
 ----------------------------------------------------------------------
 -----
 title
 -----
 Symbolic Z-matrix:
 Charge =  0 Multiplicity = 1

 SCF Done:  E(RHF) =  -995.886869210     A.U. after   11 cycles

 1\1\GINC-SE186\Stability\RHF\Aug-CC-pVDZ\C2H2Cl2\OHZDE\08-Apr-2025\0\\
 #t hf aug-cc-pvdz symm=none int=(grid=ultrafine) guess=(read,tcheck) s
 table=(opt,rrhf)\\title\\0,1\C,0,0.564534,-0.346282,-0.000001\C,0,-0.5
 64534,0.346282,-0.000001\Cl,0,-0.564534,2.087446,0.\Cl,0,0.564534,-2.0
 87446,0.\H,0,1.550293,0.095636,0.\H,0,-1.550293,-0.095636,0.\\Version=
 ES64L-G16RevC.01\HF=-995.8868692\RMSD=4.171e-09\Dipole=0.,0.,0.0000005
 \Quadrupole=2.6478929,-1.8600246,-0.7878683,1.1386932,0.,0.\PG=Unknown
 \\@

 Normal termination of Gaussian 16 at Tue Apr  8 22:43:27 2025.
 Gaussian 16:  ES64L-G16RevC.01  3-Jul-2019

 ----------------------------------------------------------------------
 #t hf aug-cc-pvdz iop(5/13=1,5/36=2,99/5=2) pseudo=read geom=check gue
 ss=(read,tcheck) scf=(maxcycle=1)
 ----------------------------------------------------------------------
 -----
 title
 -----
 Structure from the checkpoint file:  "BDE49_expt_141_mol1.chk"
 Charge =  0 Multiplicity = 1

                         Standard orientation:
 ---------------------------------------------------------------------
 Center     Atomic      Atomic             Coordinates (Angstroms)
 Number     Number       Type             X           Y           Z
 ---------------------------------------------------------------------
      1          6           0        0.366378    0.551704    0.000001
      2          6           0       -0.366378   -0.551704    0.000001
      3         17           0        0.366378   -2.131173   -0.000000
      4         17           0       -0.366378    2.131173   -0.000000
      5          1           0        1.446571    0.565674   -0.000000
      6          1           0       -1.446571   -0.565674   -0.000000
 ---------------------------------------------------------------------

 SCF Done:  E(RHF) =  -996.742058866     A.U. after    2 cycles

 The electronic state is 1-A.
 Alpha  occ. eigenvalues --  -99.91160 -99.91151 -11.48044 -11.44538 -10.48517
 Alpha  occ. eigenvalues --  -10.48499  -9.68424  -9.68265  -9.67567  -9.67509
 Alpha  occ. eigenvalues --   -9.67453  -9.67417  -1.39866  -1.32998  -1.09979
 Alpha  occ. eigenvalues --   -0.86607  -0.70491  -0.66777  -0.59039  -0.57742
 Alpha  occ. eigenvalues --   -0.55118  -0.52360  -0.50448  -0.38152
 Alpha virt. eigenvalues --    0.03157   0.05389   0.05911   0.07458   0.07989
 Alpha virt. eigenvalues --    0.10413   0.12040   0.13005   0.13405   0.13681
 Alpha virt. eigenvalues --    0.14865   0.15789   0.16965   0.17433   0.19191

 Mulliken charges:
               1
     1  C   -1.228131
     2  C   -1.228131
     3  Cl  -0.309226
     4  Cl  -0.309226
     5  H    1.537357
     6  H    1.537357
 Sum of Mulliken charges =   0.00000

 Dipole moment (field-independent basis, Debye):
    X=             -0.0000    Y=             -0.0000    Z=             -0.0000  Tot=              0.0000

 Test job not archived.
 1\1\GINC-SE186\SP\RHF\Aug-CC-pVDZ\C2H2Cl2\OHZDE\08-Apr-2025\0\\#t hf a
 ug-cc-pvdz iop(5/13=1,5/36=2,99/5=2) pseudo=read geom=check guess=(rea
 d,tcheck) scf=(maxcycle=1)\\title\\0,1\C,0,0.564534,-0.346282,-0.00000
 1\C,0,-0.564534,0.346282,-0.000001\Cl,0,-0.564534,2.087446,0.\Cl,0,0.5
 64534,-2.087446,0.\H,0,1.550293,0.095636,0.\H,0,-1.550293,-0.095636,0.
 \\Version=ES64L-G16RevC.01\State=1-A\HF=-996.7420589\RMSD=3.996e-01\Di
 pole=0.,0.,0.0000004\Quadrupole=2.1020683,-0.6870008,-1.4150676,0.9465
 529,0.,0.\PG=C02 [X(C2H2Cl2)]\\@

 Normal termination of Gaussian 16 at Tue Apr  8 22:43:30 2025.
