 Gaussian 16, Revision C.01,

 ----------------------------------------------------------------------
 #t hf aug-cc-pvdz symm=none int=(grid=ultrafine) guess=(read,tcheck) s
 table=(opt,rrhf)
 ----------------------------------------------------------------------
 -----
 title
 -----
 Symbolic Z-matrix:
 Charge =  0 Multiplicity = 1

 SCF Done:  E(RHF) =  -408.652875742     A.U. after   16 cycles

 1\1\GINC-SE363\Stability\RHF\Aug-CC-pVDZ\C10H9B1\OHZDE\09-Apr-2025\0\\
 #t hf aug-cc-pvdz symm=none int=(grid=ultrafine) guess=(read,tcheck) s
 table=(opt,rrhf)\\title\\0,1\C,0,-0.739092,1.879528,0.\C,0,-2.111558,1
 .865288,0.\C,0,-2.80885,0.633426,0.\C,0,-2.123869,-0.558108,0.\C,0,-0.
 706023,-0.579032,0.\C,0,0.,0.665849,0.\H,0,-0.197212,2.819497,0.\H,0,-
 2.668069,2.795447,0.\H,0,-3.89315,0.634987,0.\H,0,-2.661419,-1.500444,
 0.\C,0,1.414713,0.644343,0.\C,0,2.14182,-0.542476,0.\C,0,0.038367,-1.7
 91161,0.\C,0,1.407374,-1.772136,0.\H,0,-0.501758,-2.73248,0.\H,0,1.960

 Normal termination of Gaussian 16 at Wed Apr  9 00:28:16 2025.
 Gaussian 16:  ES64L-G16RevC.01  3-Jul-2019

 ----------------------------------------------------------------------
 #t hf aug-cc-pvdz iop(5/13=1,5/36=2,99/5=2) pseudo=read geom=check gue
 ss=(read,tcheck) scf=(maxcycle=1)
 ----------------------------------------------------------------------
 -----
 title
 -----
 Structure from the checkpoint file:  "BDE49_nonexpt_273_mol1.chk"
 Charge =  0 Multiplicity = 1

                         Standard orientation:
 ---------------------------------------------------------------------
 Center     Atomic      Atomic             Coordinates (Angstroms)
 Number     Number       Type             X           Y           Z
 ---------------------------------------------------------------------
      1          6           0       -0.739092    1.879528   -0.000000
      2          6           0       -2.111558    1.865288   -0.000000
      3          6           0       -2.808850    0.633426    0.000000
      4          6           0       -2.123869   -0.558108    0.000000
      5          6           0       -0.706023   -0.579032    0.000000
      6          6           0        0.000000    0.665849   -0.000000
      7          1           0       -0.197212    2.819497   -0.000000
      8          1           0       -2.668069    2.795447   -0.000000
      9          1           0       -3.893150    0.634986    0.000000
     10          1           0       -2.661419   -1.500444    0.000000
     11          6           0        1.414713    0.644343   -0.000000
     12          6           0        2.141820   -0.542476   -0.000000
     13          6           0        0.038367   -1.791161    0.000000
     14          6           0        1.407374   -1.772136    0.000000
     15          1           0       -0.501757   -2.732480    0.000000
     16          1           0        1.960726   -2.705073    0.000000
     17          5           0        3.675861   -0.514965   -0.000000
     18          1           0        1.945580    1.591664   -0.000000
     19          1           0        4.255334    0.528618   -0.000000
     20          1           0        4.303364   -1.530509   -0.000000
 ---------------------------------------------------------------------

 SCF Done:  E(RHF) =  -410.603545416     A.U. after    2 cycles

 The electronic state is 1-A'.
 Alpha  occ. eigenvalues --  -11.52328 -11.49499 -11.45477 -11.44378 -11.43561
 Alpha  occ. eigenvalues --  -11.42302 -11.41911 -11.41136 -11.39458 -11.36387
 Alpha  occ. eigenvalues --   -7.63325  -1.40112  -1.24565  -1.14876  -1.09293
 Alpha  occ. eigenvalues --   -1.05137  -0.92191  -0.88645  -0.85336  -0.80771
 Alpha  occ. eigenvalues --   -0.71819  -0.69953  -0.64161  -0.62986  -0.57819
 Alpha  occ. eigenvalues --   -0.57584  -0.54621  -0.53871  -0.51128  -0.47859
 Alpha  occ. eigenvalues --   -0.44967  -0.44848  -0.42014  -0.39734  -0.38751
 Alpha  occ. eigenvalues --   -0.32344  -0.28220
 Alpha virt. eigenvalues --    0.03142   0.03849   0.04185   0.04337   0.05209
 Alpha virt. eigenvalues --    0.05771   0.06331   0.06775   0.06948   0.07809
 Alpha virt. eigenvalues --    0.09411   0.09814   0.10229   0.10845   0.10924

 Mulliken charges:
               1
     1  C   -2.071227
     2  C   -3.985020
     3  C   -4.104743
     4  C   -2.632697
     5  C    6.154776
     6  C    8.079712
     7  H    1.720785
     8  H    1.487134
     9  H    1.468535
    10  H    1.694809
    11  C    0.247538
    12  C   -4.317424
    13  C   -2.945168
    14  C   -4.775256
    15  H    1.894898
    16  H    1.744553
    17  B    5.733785
    18  H    1.975834
    19  H   -3.709425
    20  H   -3.661400
 Sum of Mulliken charges =  -0.00000

 Dipole moment (field-independent basis, Debye):
    X=             -1.9565    Y=              0.4280    Z=             -0.0000  Tot=              2.0028

 Test job not archived.
 1\1\GINC-SE363\SP\RHF\Aug-CC-pVDZ\C10H9B1\OHZDE\09-Apr-2025\0\\#t hf a
 ug-cc-pvdz iop(5/13=1,5/36=2,99/5=2) pseudo=read geom=check guess=(rea
 d,tcheck) scf=(maxcycle=1)\\title\\0,1\C,0,-0.739092,1.879528,0.\C,0,-
 2.111558,1.865288,0.\C,0,-2.80885,0.633426,0.\C,0,-2.123869,-0.558108,
 0.\C,0,-0.706023,-0.579032,0.\C,0,0.,0.665849,0.\H,0,-0.197212,2.81949
 7,0.\H,0,-2.668069,2.795447,0.\H,0,-3.89315,0.634987,0.\H,0,-2.661419,
 -1.500444,0.\C,0,1.414713,0.644343,0.\C,0,2.14182,-0.542476,0.\C,0,0.0
 38367,-1.791161,0.\C,0,1.407374,-1.772136,0.\H,0,-0.501758,-2.73248,0.

 Normal termination of Gaussian 16 at Wed Apr  9 00:28:28 2025.
