 Gaussian 16, Revision C.01,

 ----------------------------------------------------------------------
 #t hf aug-cc-pvdz symm=none int=(grid=ultrafine) guess=(read,tcheck) s
 table=opt
 ----------------------------------------------------------------------
 -----
 title
 -----
 Symbolic Z-matrix:
 Charge =  0 Multiplicity = 2

 SCF Done:  E(UHF) =  -932.989688791     A.U. after   16 cycles

 1\1\GINC-SE342\Stability\UHF\Aug-CC-pVDZ\C2Cl1F4\OHZDE\08-Apr-2025\0\\
 #t hf aug-cc-pvdz symm=none int=(grid=ultrafine) guess=(read,tcheck) s
 table=opt\\title\\0,2\C,0,-1.145776,0.209256,0.000005\C,0,0.341928,0.4
 5492,0.000008\F,0,-1.623516,-0.350113,1.096715\F,0,-1.623518,-0.350073
 ,-1.096724\Cl,0,1.286493,-1.088889,-0.000022\F,0,0.676446,1.157076,1.0
 92186\F,0,0.676443,1.157116,-1.092145\\Version=ES64L-G16RevC.01\HF=-93
 2.9896888\S2=0.758202\S2-1=0.\S2A=0.750049\RMSD=7.279e-09\Dipole=-0.09
 68562,0.0556726,0.0000004\Quadrupole=0.322487,0.8227642,-1.1452512,-1.

 Normal termination of Gaussian 16 at Tue Apr  8 22:48:38 2025.
 Gaussian 16:  ES64L-G16RevC.01  3-Jul-2019

 ----------------------------------------------------------------------
 #t hf aug-cc-pvdz iop(5/13=1,5/36=2,99/5=2) pseudo=read geom=check gue
 ss=(read,tcheck) scf=(maxcycle=1)
 ----------------------------------------------------------------------
 -----
 title
 -----
 Structure from the checkpoint file:  "BDE49_expt_1631_mol2.chk"
 Charge =  0 Multiplicity = 2

                         Standard orientation:
 ---------------------------------------------------------------------
 Center     Atomic      Atomic             Coordinates (Angstroms)
 Number     Number       Type             X           Y           Z
 ---------------------------------------------------------------------
      1          6           0       -1.145776    0.209256    0.000005
      2          6           0        0.341928    0.454920    0.000008
      3          9           0       -1.623516   -0.350113    1.096715
      4          9           0       -1.623518   -0.350073   -1.096724
      5         17           0        1.286493   -1.088889   -0.000022
      6          9           0        0.676446    1.157076    1.092186
      7          9           0        0.676443    1.157116   -1.092145
 ---------------------------------------------------------------------

 SCF Done:  E(UHF) =  -934.888972291     A.U. after    2 cycles

 The electronic state is 2-A.
 Alpha  occ. eigenvalues --  -99.93084 -29.35012 -29.34968 -29.34214 -29.34171
 Alpha  occ. eigenvalues --  -11.62474 -11.55200 -10.50486  -9.70449  -9.69456
 Alpha  occ. eigenvalues --   -9.69419  -1.49795  -1.33142  -1.20439  -0.95001
 Alpha  occ. eigenvalues --   -0.85234  -0.81572  -0.79854  -0.65370  -0.56046
 Alpha  occ. eigenvalues --   -0.55382  -0.51022  -0.48149  -0.44355  -0.42698
 Alpha  occ. eigenvalues --   -0.40915  -0.38312  -0.35457  -0.34133  -0.30066
 Alpha  occ. eigenvalues --   -0.29106  -0.24714  -0.22517
 Alpha virt. eigenvalues --    0.06157   0.07886   0.09774   0.11162   0.11630
 Alpha virt. eigenvalues --    0.13167   0.13610   0.14941   0.15104   0.16824
 Alpha virt. eigenvalues --    0.18544   0.21058   0.22993   0.23252   0.24148

  Beta  occ. eigenvalues --  -99.92993 -29.34623 -29.34579 -29.34236 -29.34193
  Beta  occ. eigenvalues --  -11.62278 -11.52770 -10.50390  -9.70083  -9.69374
  Beta  occ. eigenvalues --   -9.69369  -1.48063  -1.29646  -1.18693  -0.94301
  Beta  occ. eigenvalues --   -0.83218  -0.80637  -0.76743  -0.56933  -0.55888
  Beta  occ. eigenvalues --   -0.50690  -0.49567  -0.47258  -0.44015  -0.42247
  Beta  occ. eigenvalues --   -0.40607  -0.37759  -0.34451  -0.33178  -0.29072
  Beta  occ. eigenvalues --   -0.28931  -0.24633
  Beta virt. eigenvalues --    0.04449   0.07991   0.09134   0.10815   0.11244
  Beta virt. eigenvalues --    0.11830   0.13203   0.13654   0.15126   0.16183
  Beta virt. eigenvalues --    0.17877   0.20366   0.21648   0.23295   0.24297

 Mulliken charges and spin densities:
               1          2
     1  C   -1.014588   0.921088
     2  C   -1.412508  -0.197025
     3  F    0.640797   0.123366
     4  F    0.640798   0.123366
     5  Cl  -0.332038   0.066732
     6  F    0.738770  -0.018764
     7  F    0.738770  -0.018764
 Sum of Mulliken charges =   0.00000   1.00000

 Dipole moment (field-independent basis, Debye):
    X=             -1.9791    Y=              2.3893    Z=              0.0000  Tot=              3.1025
                          Isotropic Fermi Contact Couplings
        Atom                 a.u.       MegaHertz       Gauss      10(-4) cm-1
     1  C(13)              0.21135     237.59320      84.77916      79.25256
     2  C(13)              0.03828      43.03929      15.35749      14.35636
     3  F(19)              0.03660     153.97284      54.94134      51.35981
     4  F(19)              0.03660     153.97288      54.94135      51.35982
     5  Cl(35)             0.02117       9.28213       3.31210       3.09619
     6  F(19)              0.00150       6.29733       2.24704       2.10056
     7  F(19)              0.00150       6.29741       2.24707       2.10059
 --------------------------------------------------------

 Normal termination of Gaussian 16 at Tue Apr  8 22:48:41 2025.
