 Gaussian 16, Revision C.01,

 ----------------------------------------------------------------------
 #t hf aug-cc-pvdz symm=none int=(grid=ultrafine) guess=(read,tcheck) s
 table=(opt,rrhf)
 ----------------------------------------------------------------------
 -----
 title
 -----
 Symbolic Z-matrix:
 Charge =  0 Multiplicity = 1

 SCF Done:  E(RHF) =  -532.571595856     A.U. after   13 cycles

 1\1\GINC-SE334\Stability\RHF\Aug-CC-pVDZ\C6H10O4\OHZDE\08-Apr-2025\0\\
 #t hf aug-cc-pvdz symm=none int=(grid=ultrafine) guess=(read,tcheck) s
 table=(opt,rrhf)\\title\\0,1\O,0,-1.733786,0.252042,-0.000025\C,0,-0.6
 13332,-0.469815,-0.000049\O,0,-0.547286,-1.669567,0.000009\C,0,0.61333
 2,0.469815,0.00002\O,0,0.547286,1.669567,-0.000047\O,0,1.733786,-0.252
 042,0.000025\C,0,-2.974029,-0.501959,-0.000002\C,0,2.974029,0.501959,0
 .000012\C,0,4.110975,-0.497571,0.000023\H,0,2.986855,1.146037,-0.88243
 2\H,0,2.986859,1.14606,0.882439\H,0,4.068282,-1.134818,-0.885499\H,0,4

 Normal termination of Gaussian 16 at Tue Apr  8 23:04:52 2025.
 Gaussian 16:  ES64L-G16RevC.01  3-Jul-2019

 ----------------------------------------------------------------------
 #t hf aug-cc-pvdz iop(5/13=1,5/36=2,99/5=2) pseudo=read geom=check gue
 ss=(read,tcheck) scf=(maxcycle=1)
 ----------------------------------------------------------------------
 -----
 title
 -----
 Structure from the checkpoint file:  "BDE49_expt_269_mol1.chk"
 Charge =  0 Multiplicity = 1

                         Standard orientation:
 ---------------------------------------------------------------------
 Center     Atomic      Atomic             Coordinates (Angstroms)
 Number     Number       Type             X           Y           Z
 ---------------------------------------------------------------------
      1          8           0       -1.733786    0.252042   -0.000025
      2          6           0       -0.613332   -0.469815   -0.000049
      3          8           0       -0.547286   -1.669567    0.000009
      4          6           0        0.613332    0.469815    0.000020
      5          8           0        0.547286    1.669567   -0.000047
      6          8           0        1.733786   -0.252042    0.000025
      7          6           0       -2.974029   -0.501959   -0.000002
      8          6           0        2.974029    0.501959    0.000012
      9          6           0        4.110975   -0.497571    0.000023
     10          1           0        2.986855    1.146037   -0.882432
     11          1           0        2.986859    1.146060    0.882439
     12          1           0        4.068282   -1.134818   -0.885499
     13          1           0        4.068285   -1.134794    0.885563
     14          1           0        5.067440    0.031646    0.000014
     15          6           0       -4.110975    0.497571    0.000021
     16          1           0       -2.986840   -1.146050    0.882432
     17          1           0       -2.986873   -1.146047   -0.882438
     18          1           0       -4.068267    1.134805    0.885552
     19          1           0       -5.067440   -0.031646    0.000038
     20          1           0       -4.068300    1.134807   -0.885510
 ---------------------------------------------------------------------

 SCF Done:  E(RHF) =  -534.899962808     A.U. after    2 cycles

 The electronic state is 1-A.
 Alpha  occ. eigenvalues --  -21.10178 -21.10139 -21.07196 -21.07136 -11.56148
 Alpha  occ. eigenvalues --  -11.51418 -11.45186 -11.45185 -11.37980 -11.37937
 Alpha  occ. eigenvalues --   -1.88242  -1.82777  -1.69068  -1.66880  -1.15759
 Alpha  occ. eigenvalues --   -1.14216  -0.98851  -0.91159  -0.85812  -0.74352
 Alpha  occ. eigenvalues --   -0.69531  -0.67704  -0.66444  -0.60818  -0.58927
 Alpha  occ. eigenvalues --   -0.58548  -0.55686  -0.53659  -0.53630  -0.52607
 Alpha  occ. eigenvalues --   -0.50961  -0.49594  -0.47506  -0.44133  -0.41368
 Alpha  occ. eigenvalues --   -0.36364  -0.34273  -0.32144  -0.27382
 Alpha virt. eigenvalues --    0.03284   0.04949   0.05144   0.05149   0.05539
 Alpha virt. eigenvalues --    0.05685   0.06761   0.06944   0.07422   0.08046
 Alpha virt. eigenvalues --    0.10026   0.10580   0.11866   0.12251   0.12345

 Mulliken charges:
               1
     1  O   -3.327386
     2  C    5.855755
     3  O   -3.401541
     4  C    5.855755
     5  O   -3.401541
     6  O   -3.327386
     7  C   -2.396880
     8  C   -2.396879
     9  C   -3.594604
    10  H    1.610309
    11  H    1.610336
    12  H    1.270627
    13  H    1.270609
    14  H    1.102774
    15  C   -3.594604
    16  H    1.610309
    17  H    1.610337
    18  H    1.270627
    19  H    1.102774
    20  H    1.270609
 Sum of Mulliken charges =   0.00000

 Dipole moment (field-independent basis, Debye):
    X=             -0.0000    Y=             -0.0000    Z=              0.0000  Tot=              0.0000

 Test job not archived.
 1\1\GINC-SE334\SP\RHF\Aug-CC-pVDZ\C6H10O4\OHZDE\08-Apr-2025\0\\#t hf a
 ug-cc-pvdz iop(5/13=1,5/36=2,99/5=2) pseudo=read geom=check guess=(rea
 d,tcheck) scf=(maxcycle=1)\\title\\0,1\O,0,-1.733786,0.252042,-0.00002
 5\C,0,-0.613332,-0.469815,-0.000049\O,0,-0.547286,-1.669567,0.000009\C
 ,0,0.613332,0.469815,0.00002\O,0,0.547286,1.669567,-0.000047\O,0,1.733
 786,-0.252042,0.000025\C,0,-2.974029,-0.501959,-0.000002\C,0,2.974029,
 0.501959,0.000012\C,0,4.110975,-0.497571,0.000023\H,0,2.986855,1.14603
 7,-0.882432\H,0,2.986859,1.14606,0.882439\H,0,4.068282,-1.134818,-0.88

 Normal termination of Gaussian 16 at Tue Apr  8 23:05:01 2025.
