 Gaussian 16, Revision C.01,

 ----------------------------------------------------------------------
 #t hf aug-cc-pvdz symm=none int=(grid=ultrafine) guess=(read,tcheck) s
 table=(opt,rrhf)
 ----------------------------------------------------------------------
 -----
 title
 -----
 Symbolic Z-matrix:
 Charge =  0 Multiplicity = 1

 SCF Done:  E(RHF) =  -1308.14415419     A.U. after   11 cycles
 Normal termination of Gaussian 16 at Tue Apr  8 23:48:14 2025.
 Gaussian 16:  ES64L-G16RevC.01  3-Jul-2019

 ----------------------------------------------------------------------
 #t hf aug-cc-pvdz iop(5/13=1,5/36=2,99/5=2) pseudo=read geom=check gue
 ss=(read,tcheck) scf=(maxcycle=1)
 ----------------------------------------------------------------------
 -----
 title
 -----
 Structure from the checkpoint file:  "BDE49_nonexpt_1808_mol1.chk"
 Charge =  0 Multiplicity = 1

                         Standard orientation:
 ---------------------------------------------------------------------
 Center     Atomic      Atomic             Coordinates (Angstroms)
 Number     Number       Type             X           Y           Z
 ---------------------------------------------------------------------
      1         14           0       -0.000002    0.391191    0.407103
      2          9           0       -0.000200    1.773051   -0.382214
      3         17           0        1.678928   -0.649556   -0.120672
      4         17           0       -1.678817   -0.649713   -0.120660
      5          1           0       -0.000061    0.653442    1.843125
 ---------------------------------------------------------------------

 SCF Done:  E(RHF) =  -1309.11976866     A.U. after    2 cycles

 The electronic state is 1-A.
 Alpha  occ. eigenvalues --  -99.91282 -99.91278 -76.34597 -29.30252 -10.48842
 Alpha  occ. eigenvalues --  -10.48790  -9.68642  -9.68638  -9.68003  -9.67963
 Alpha  occ. eigenvalues --   -9.67934  -9.67887  -5.69175  -2.33307  -2.30490
 Alpha  occ. eigenvalues --   -2.29638  -1.33774  -1.30943  -0.90321  -0.67163
 Alpha  occ. eigenvalues --   -0.62315  -0.61757  -0.56948  -0.56057  -0.53813
 Alpha  occ. eigenvalues --   -0.52534  -0.37286  -0.37020  -0.36466
 Alpha virt. eigenvalues --    0.04967   0.05472   0.05513   0.06799   0.09179
 Alpha virt. eigenvalues --    0.12010   0.12283   0.13786   0.13851   0.14061
 Alpha virt. eigenvalues --    0.14504   0.15971   0.16916   0.17949   0.21756

 Mulliken charges:
               1
     1  Si   4.350780
     2  F   -0.751182
     3  Cl  -0.778464
     4  Cl  -0.778458
     5  H   -2.042676
 Sum of Mulliken charges =  -0.00000

 Dipole moment (field-independent basis, Debye):
    X=             -0.0001    Y=              2.9927    Z=             -0.6195  Tot=              3.0562

 Test job not archived.
 1\1\GINC-SE460\SP\RHF\Aug-CC-pVDZ\Cl2F1H1Si1\OHZDE\08-Apr-2025\0\\#t h
 f aug-cc-pvdz iop(5/13=1,5/36=2,99/5=2) pseudo=read geom=check guess=(
 read,tcheck) scf=(maxcycle=1)\\title\\0,1\Si,0,-0.000002,0.391191,0.40
 7103\F,0,-0.0002,1.773051,-0.382214\Cl,0,1.678928,-0.649556,-0.120672\
 Cl,0,-1.678817,-0.649713,-0.12066\H,0,-0.000061,0.653442,1.843125\\Ver
 sion=ES64L-G16RevC.01\State=1-A\HF=-1309.1197687\RMSD=6.289e-02\Dipole
 =-0.0000214,1.1774324,-0.2437233\Quadrupole=-1.673156,2.7331729,-1.060
 0169,-0.0006049,0.000183,-0.7788208\PG=C01 [X(Cl2F1H1Si1)]\\@

 Normal termination of Gaussian 16 at Tue Apr  8 23:48:15 2025.
