 Gaussian 16, Revision C.01,

 ----------------------------------------------------------------------
 #t hf aug-cc-pvdz symm=none int=(grid=ultrafine) guess=(read,tcheck) s
 table=(opt,rrhf)
 ----------------------------------------------------------------------
 -----
 title
 -----
 Symbolic Z-matrix:
 Charge =  0 Multiplicity = 1

 SCF Done:  E(RHF) =  -744.692590400     A.U. after   14 cycles
 Normal termination of Gaussian 16 at Tue Apr  8 23:09:21 2025.
 Gaussian 16:  ES64L-G16RevC.01  3-Jul-2019

 ----------------------------------------------------------------------
 #t hf aug-cc-pvdz iop(5/13=1,5/36=2,99/5=2) pseudo=read geom=check gue
 ss=(read,tcheck) scf=(maxcycle=1)
 ----------------------------------------------------------------------
 -----
 title
 -----
 Structure from the checkpoint file:  "BDE49_expt_459_mol1.chk"
 Charge =  0 Multiplicity = 1

                         Standard orientation:
 ---------------------------------------------------------------------
 Center     Atomic      Atomic             Coordinates (Angstroms)
 Number     Number       Type             X           Y           Z
 ---------------------------------------------------------------------
      1          6           0        0.283101    1.206462   -0.002436
      2          6           0       -1.106369    1.204455   -0.005284
      3          6           0       -1.827056    0.000000   -0.005466
      4          6           0        0.974128    0.000000   -0.000886
      5          6           0        0.283101   -1.206462   -0.002436
      6          6           0       -1.106369   -1.204455   -0.005284
      7          1           0        0.827276    2.142303   -0.000496
      8          1           0       -1.640056    2.149169   -0.011867
      9          7           0       -3.218435    0.000000   -0.068176
     10          1           0       -3.669843   -0.837753    0.267074
     11          1           0       -3.669843    0.837752    0.267074
     12          1           0       -1.640056   -2.149169   -0.011867
     13         17           0        2.734769   -0.000000    0.005798
     14          1           0        0.827276   -2.142303   -0.000496
 ---------------------------------------------------------------------

 SCF Done:  E(RHF) =  -746.298058370     A.U. after    2 cycles

 The electronic state is 1-A.
 Alpha  occ. eigenvalues --  -99.88522 -15.76679 -11.52309 -11.46008 -11.44635
 Alpha  occ. eigenvalues --  -11.43783 -11.41261 -11.37469 -10.45844  -9.65885
 Alpha  occ. eigenvalues --   -9.64988  -9.64819  -1.43061  -1.34524  -1.23219
 Alpha  occ. eigenvalues --   -1.10679  -1.04619  -0.89129  -0.85268  -0.71871
 Alpha  occ. eigenvalues --   -0.68769  -0.67624  -0.59636  -0.59108  -0.58526
 Alpha  occ. eigenvalues --   -0.56816  -0.52409  -0.49220  -0.48685  -0.44984
 Alpha  occ. eigenvalues --   -0.42858  -0.34407  -0.28273
 Alpha virt. eigenvalues --    0.03198   0.04668   0.04680   0.06160   0.06719
 Alpha virt. eigenvalues --    0.08455   0.08979   0.10233   0.10762   0.11605
 Alpha virt. eigenvalues --    0.12488   0.12805   0.12945   0.13405   0.14134

 Mulliken charges:
               1
     1  C   -0.795357
     2  C   -0.689515
     3  C    1.428928
     4  C   -1.921132
     5  C   -0.795357
     6  C   -0.689515
     7  H    1.809934
     8  H    1.737114
     9  N   -4.045793
    10  H    0.630356
    11  H    0.630356
    12  H    1.737114
    13  Cl  -0.847066
    14  H    1.809934
 Sum of Mulliken charges =  -0.00000

 Dipole moment (field-independent basis, Debye):
    X=             -3.8605    Y=              0.0000    Z=              0.7463  Tot=              3.9319

 Test job not archived.
 1\1\GINC-SE232\SP\RHF\Aug-CC-pVDZ\C6H6Cl1N1\OHZDE\08-Apr-2025\0\\#t hf
  aug-cc-pvdz iop(5/13=1,5/36=2,99/5=2) pseudo=read geom=check guess=(r
 ead,tcheck) scf=(maxcycle=1)\\title\\0,1\C,0,0.283101,1.206462,-0.0024
 36\C,0,-1.106369,1.204455,-0.005284\C,0,-1.827056,0.,-0.005466\C,0,0.9
 74128,0.,-0.000886\C,0,0.283101,-1.206462,-0.002436\C,0,-1.106369,-1.2
 04455,-0.005284\H,0,0.827276,2.142303,-0.000496\H,0,-1.640056,2.149169
 ,-0.011867\N,0,-3.218435,0.,-0.068176\H,0,-3.669843,-0.837753,0.267074
 \H,0,-3.669843,0.837752,0.267074\H,0,-1.640056,-2.149169,-0.011867\Cl,

 Normal termination of Gaussian 16 at Tue Apr  8 23:09:27 2025.
