 Gaussian 16, Revision C.01,

 ----------------------------------------------------------------------
 #t hf aug-cc-pvdz symm=none int=(grid=ultrafine) guess=(read,tcheck) s
 table=(opt,rrhf)
 ----------------------------------------------------------------------
 -----
 title
 -----
 Symbolic Z-matrix:
 Charge =  0 Multiplicity = 1

 SCF Done:  E(RHF) =  -496.932422707     A.U. after   15 cycles
 Normal termination of Gaussian 16 at Wed Apr  9 00:28:40 2025.
 Gaussian 16:  ES64L-G16RevC.01  3-Jul-2019

 ----------------------------------------------------------------------
 #t hf aug-cc-pvdz iop(5/13=1,5/36=2,99/5=2) pseudo=read geom=check gue
 ss=(read,tcheck) scf=(maxcycle=1)
 ----------------------------------------------------------------------
 -----
 title
 -----
 Structure from the checkpoint file:  "BDE49_nonexpt_289_mol1.chk"
 Charge =  0 Multiplicity = 1

                         Standard orientation:
 ---------------------------------------------------------------------
 Center     Atomic      Atomic             Coordinates (Angstroms)
 Number     Number       Type             X           Y           Z
 ---------------------------------------------------------------------
      1          6           0       -0.170380    1.843951   -0.542329
      2          6           0       -0.070017    0.502328    0.179076
      3          1           0       -0.214325    1.717059   -1.624878
      4          1           0        0.720097    2.427920   -0.307114
      5          1           0       -1.056767    2.397781   -0.228176
      6          6           0       -0.130569    0.681110    1.714639
      7          1           0       -0.103167   -0.279454    2.229706
      8          1           0       -1.042595    1.211425    2.003191
      9          1           0        0.727977    1.274130    2.034710
     10          5           0        1.282413   -0.307381   -0.174116
     11          7           0       -1.291565   -0.359778   -0.183914
     12          8           0       -1.301113   -1.523470    0.232144
     13          8           0       -2.192152    0.130423   -0.833166
     14          8           0        2.384216    0.460795   -0.397242
     15          8           0        1.375608   -1.656871   -0.192542
     16          1           0        3.171212   -0.076516   -0.541673
     17          1           0        0.519787   -2.068350    0.010335
 ---------------------------------------------------------------------

 SCF Done:  E(RHF) =  -499.102971765     A.U. after    2 cycles

 The electronic state is 1-A.
 Alpha  occ. eigenvalues --  -21.10901 -21.09033 -21.07268 -21.06092 -15.99161
 Alpha  occ. eigenvalues --  -11.47150 -11.42458 -11.38655  -7.66343  -2.00244
 Alpha  occ. eigenvalues --   -1.83377  -1.69723  -1.67115  -1.28819  -1.04006
 Alpha  occ. eigenvalues --   -1.02138  -0.85296  -0.76618  -0.70319  -0.68772
 Alpha  occ. eigenvalues --   -0.65102  -0.63555  -0.59972  -0.57960  -0.56514
 Alpha  occ. eigenvalues --   -0.55074  -0.54772  -0.50745  -0.47331  -0.44760
 Alpha  occ. eigenvalues --   -0.38219  -0.37725  -0.34109  -0.31983  -0.31727
 Alpha virt. eigenvalues --    0.03300   0.04477   0.04929   0.05213   0.05993
 Alpha virt. eigenvalues --    0.06425   0.07137   0.07456   0.08358   0.09173
 Alpha virt. eigenvalues --    0.09248   0.09745   0.11891   0.13235   0.14018

 Mulliken charges:
               1
     1  C   -3.628159
     2  C    1.402997
     3  H    1.249440
     4  H    1.366368
     5  H    1.176443
     6  C   -3.739985
     7  H    1.216019
     8  H    1.270357
     9  H    1.102272
    10  B    7.845274
    11  N    3.156855
    12  O   -2.874490
    13  O   -2.690607
    14  O   -4.828080
    15  O   -4.681257
    16  H    1.083939
    17  H    1.572615
 Sum of Mulliken charges =  -0.00000

 Dipole moment (field-independent basis, Debye):
    X=              1.2470    Y=              1.0435    Z=              0.7094  Tot=              1.7740

 Test job not archived.
 1\1\GINC-SE072\SP\RHF\Aug-CC-pVDZ\C3H8B1N1O4\OHZDE\09-Apr-2025\0\\#t h
 f aug-cc-pvdz iop(5/13=1,5/36=2,99/5=2) pseudo=read geom=check guess=(
 read,tcheck) scf=(maxcycle=1)\\title\\0,1\C,0,-0.17038,1.843951,-0.542
 329\C,0,-0.070017,0.502328,0.179076\H,0,-0.214325,1.717059,-1.624878\H
 ,0,0.720097,2.42792,-0.307114\H,0,-1.056767,2.397781,-0.228176\C,0,-0.
 130569,0.68111,1.714639\H,0,-0.103167,-0.279454,2.229706\H,0,-1.042595
 ,1.211425,2.003191\H,0,0.727977,1.27413,2.03471\B,0,1.282413,-0.307381
 ,-0.174116\N,0,-1.291565,-0.359778,-0.183914\O,0,-1.301113,-1.52347,0.

 Normal termination of Gaussian 16 at Wed Apr  9 00:28:47 2025.
