 Gaussian 16, Revision C.01,

 ----------------------------------------------------------------------
 #t hf aug-cc-pvdz symm=none int=(grid=ultrafine) guess=(read,tcheck) s
 table=(opt,rrhf)
 ----------------------------------------------------------------------
 -----
 title
 -----
 Symbolic Z-matrix:
 Charge =  0 Multiplicity = 1

 SCF Done:  E(RHF) =  -588.059942156     A.U. after   10 cycles

 1\1\GINC-SE424\Stability\RHF\Aug-CC-pVDZ\F3H1Si1\OHZDE\08-Apr-2025\0\\
 #t hf aug-cc-pvdz symm=none int=(grid=ultrafine) guess=(read,tcheck) s
 table=(opt,rrhf)\\title\\0,1\Si,0,0.,0.000044,0.324849\F,0,-1.281447,0
 .738583,-0.234359\F,0,1.28043,0.740344,-0.234359\F,0,0.001017,-1.47900
 3,-0.234318\H,0,0.,0.000061,1.779438\\Version=ES64L-G16RevC.01\HF=-588
 .0599422\RMSD=2.285e-09\Dipole=0.0000003,0.0001792,0.646042\Quadrupole
 =-0.9934781,-0.9929034,1.9863815,0.0000011,-0.0000001,0.0000213\PG=Unk
 nown\\@

 Normal termination of Gaussian 16 at Tue Apr  8 23:13:46 2025.
 Gaussian 16:  ES64L-G16RevC.01  3-Jul-2019

 ----------------------------------------------------------------------
 #t hf aug-cc-pvdz iop(5/13=1,5/36=2,99/5=2) pseudo=read geom=check gue
 ss=(read,tcheck) scf=(maxcycle=1)
 ----------------------------------------------------------------------
 -----
 title
 -----
 Structure from the checkpoint file:  "BDE49_expt_814_mol1.chk"
 Charge =  0 Multiplicity = 1

                         Standard orientation:
 ---------------------------------------------------------------------
 Center     Atomic      Atomic             Coordinates (Angstroms)
 Number     Number       Type             X           Y           Z
 ---------------------------------------------------------------------
      1         14           0        0.000000   -0.000044    0.324849
      2          9           0        1.282054   -0.737529   -0.234359
      3          9           0       -1.279821   -0.741397   -0.234359
      4          9           0       -0.002233    1.479001   -0.234318
      5          1           0        0.000000   -0.000061    1.779438
 ---------------------------------------------------------------------

 SCF Done:  E(RHF) =  -589.231359500     A.U. after    2 cycles

 The electronic state is 1-A.
 Alpha  occ. eigenvalues --  -76.32795 -29.30564 -29.30558 -29.30558  -5.69559
 Alpha  occ. eigenvalues --   -2.33722  -2.33721  -2.29942  -1.01884  -0.72809
 Alpha  occ. eigenvalues --   -0.72807  -0.61126  -0.43538  -0.43537  -0.43493
 Alpha  occ. eigenvalues --   -0.37151  -0.37149  -0.36644  -0.31537  -0.31535
 Alpha  occ. eigenvalues --   -0.29748
 Alpha virt. eigenvalues --    0.05291   0.07124   0.07276   0.07277   0.16393
 Alpha virt. eigenvalues --    0.19039   0.19040   0.23353   0.23632   0.23633
 Alpha virt. eigenvalues --    0.26595   0.27264   0.27265   0.30121   0.31817

 Mulliken charges:
               1
     1  Si   4.845289
     2  F   -0.931983
     3  F   -0.931984
     4  F   -0.931897
     5  H   -2.049425
 Sum of Mulliken charges =  -0.00000

 Dipole moment (field-independent basis, Debye):
    X=             -0.0000    Y=             -0.0001    Z=             -2.0282  Tot=              2.0282

 Test job not archived.
 1\1\GINC-SE424\SP\RHF\Aug-CC-pVDZ\F3H1Si1\OHZDE\08-Apr-2025\0\\#t hf a
 ug-cc-pvdz iop(5/13=1,5/36=2,99/5=2) pseudo=read geom=check guess=(rea
 d,tcheck) scf=(maxcycle=1)\\title\\0,1\Si,0,0.,0.000044,0.324849\F,0,-
 1.281447,0.738583,-0.234359\F,0,1.28043,0.740344,-0.234359\F,0,0.00101
 7,-1.479003,-0.234318\H,0,0.,0.000061,1.779438\\Version=ES64L-G16RevC.
 01\State=1-A\HF=-589.2313595\RMSD=7.670e-02\Dipole=0.0000003,0.0000212
 ,-0.7979518\Quadrupole=1.209566,1.2086607,-2.4182267,0.0000004,0.,-0.0
 000336\PG=C01 [X(F3H1Si1)]\\@

 Normal termination of Gaussian 16 at Tue Apr  8 23:13:47 2025.
