 Gaussian 16, Revision C.01,

 ----------------------------------------------------------------------
 #t hf aug-cc-pvdz symm=none int=(grid=ultrafine) guess=(read,tcheck) s
 table=(opt,rrhf)
 ----------------------------------------------------------------------
 -----
 title
 -----
 Symbolic Z-matrix:
 Charge =  0 Multiplicity = 1

 SCF Done:  E(RHF) =  -520.749466307     A.U. after   13 cycles
 Normal termination of Gaussian 16 at Wed Apr  9 00:42:34 2025.
 Gaussian 16:  ES64L-G16RevC.01  3-Jul-2019

 ----------------------------------------------------------------------
 #t hf aug-cc-pvdz iop(5/13=1,5/36=2,99/5=2) pseudo=read geom=check gue
 ss=(read,tcheck) scf=(maxcycle=1)
 ----------------------------------------------------------------------
 -----
 title
 -----
 Structure from the checkpoint file:  "BDE49_nonexpt_696_mol1.chk"
 Charge =  0 Multiplicity = 1

                         Standard orientation:
 ---------------------------------------------------------------------
 Center     Atomic      Atomic             Coordinates (Angstroms)
 Number     Number       Type             X           Y           Z
 ---------------------------------------------------------------------
      1         15           0        0.483700   -0.009230   -0.576893
      2          5           0       -1.155246   -0.808200   -0.006484
      3          8           0       -2.247041   -0.019628    0.178656
      4          6           0        1.758220   -0.948687    0.405582
      5          1           0        1.693703   -2.007822    0.146107
      6          1           0        1.632711   -0.843017    1.485971
      7          6           0        0.466091    1.661593    0.241440
      8          1           0        0.451712    1.595990    1.332134
      9          1           0       -0.429508    2.193516   -0.085182
     10          1           0        1.339295    2.238961   -0.069028
     11          1           0        2.756481   -0.600054    0.132903
     12          1           0       -3.052015   -0.516220    0.355791
     13          1           0       -1.241182   -2.002310    0.075739
 ---------------------------------------------------------------------

 SCF Done:  E(RHF) =  -521.790912123     A.U. after    2 cycles

 The electronic state is 1-A.
 Alpha  occ. eigenvalues -- -105.13480 -21.07108 -11.36699 -11.36230  -7.62613
 Alpha  occ. eigenvalues --   -2.72341  -1.74918  -1.46928  -1.45374  -1.40924
 Alpha  occ. eigenvalues --   -1.03214  -0.95755  -0.76415  -0.63172  -0.61047
 Alpha  occ. eigenvalues --   -0.56418  -0.55743  -0.54857  -0.54113  -0.43511
 Alpha  occ. eigenvalues --   -0.41718  -0.19382  -0.13862  -0.00473
 Alpha virt. eigenvalues --    0.03234   0.03962   0.04700   0.05887   0.07171
 Alpha virt. eigenvalues --    0.07630   0.07965   0.08186   0.08380   0.09369
 Alpha virt. eigenvalues --    0.10273   0.11406   0.12326   0.13023   0.13145

 Mulliken charges:
               1
     1  P    4.941804
     2  B    4.901119
     3  O   -3.309450
     4  C   -5.910617
     5  H    1.315730
     6  H    1.340188
     7  C   -6.218845
     8  H    1.153206
     9  H    1.268424
    10  H    1.183223
    11  H    1.078934
    12  H    1.245201
    13  H   -2.988918
 Sum of Mulliken charges =   0.00000

 Dipole moment (field-independent basis, Debye):
    X=              0.4765    Y=              1.4020    Z=              0.0599  Tot=              1.4820

 Test job not archived.
 1\1\GINC-SE044\SP\RHF\Aug-CC-pVDZ\C2H8B1O1P1\OHZDE\09-Apr-2025\0\\#t h
 f aug-cc-pvdz iop(5/13=1,5/36=2,99/5=2) pseudo=read geom=check guess=(
 read,tcheck) scf=(maxcycle=1)\\title\\0,1\P,0,0.4837,-0.00923,-0.57689
 3\B,0,-1.155246,-0.8082,-0.006484\O,0,-2.247041,-0.019628,0.178656\C,0
 ,1.75822,-0.948687,0.405582\H,0,1.693704,-2.007822,0.146107\H,0,1.6327
 11,-0.843017,1.485971\C,0,0.466091,1.661593,0.24144\H,0,0.451712,1.595
 99,1.332134\H,0,-0.429508,2.193516,-0.085182\H,0,1.339295,2.238961,-0.
 069028\H,0,2.756481,-0.600053,0.132903\H,0,-3.052015,-0.51622,0.355791

 Normal termination of Gaussian 16 at Wed Apr  9 00:42:38 2025.
