 Gaussian 16, Revision C.01,

 ----------------------------------------------------------------------
 #t hf aug-cc-pvdz symm=none int=(grid=ultrafine) guess=(read,tcheck) s
 table=(opt,rrhf)
 ----------------------------------------------------------------------
 -----
 title
 -----
 Symbolic Z-matrix:
 Charge =  0 Multiplicity = 1

 SCF Done:  E(RHF) =  -613.289484431     A.U. after   16 cycles
 Normal termination of Gaussian 16 at Wed Apr  9 00:43:07 2025.
 Gaussian 16:  ES64L-G16RevC.01  3-Jul-2019

 ----------------------------------------------------------------------
 #t hf aug-cc-pvdz iop(5/13=1,5/36=2,99/5=2) pseudo=read geom=check gue
 ss=(read,tcheck) scf=(maxcycle=1)
 ----------------------------------------------------------------------
 -----
 title
 -----
 Structure from the checkpoint file:  "BDE49_nonexpt_700_mol1.chk"
 Charge =  0 Multiplicity = 1

                         Standard orientation:
 ---------------------------------------------------------------------
 Center     Atomic      Atomic             Coordinates (Angstroms)
 Number     Number       Type             X           Y           Z
 ---------------------------------------------------------------------
      1          6           0       -0.468909    1.142036   -0.273397
      2          6           0       -1.842668    1.239359   -0.090931
      3          6           0       -2.565881    0.079146    0.177500
      4          7           0       -2.001837   -1.127743    0.274586
      5          6           0       -0.680655   -1.209279    0.110994
      6          6           0        0.145527   -0.109717   -0.160448
      7          1           0       -2.347366    2.195427   -0.164626
      8          1           0       -3.642236    0.117816    0.317762
      9          1           0        0.117009    2.026678   -0.498769
     10          5           0        2.948173    0.629763    0.809861
     11          1           0       -0.253589   -2.204339    0.204919
     12         15           0        1.940141   -0.299573   -0.429845
     13          1           0        4.048609    0.241675    1.037468
     14          1           0        2.570594    1.684125    1.207991
     15          1           0        2.152381   -1.671670   -0.210789
 ---------------------------------------------------------------------

 SCF Done:  E(RHF) =  -614.760018376     A.U. after    2 cycles

 The electronic state is 1-A.
 Alpha  occ. eigenvalues -- -105.17502 -15.74441 -11.48791 -11.45681 -11.44184
 Alpha  occ. eigenvalues --  -11.42472 -11.38679  -7.62726  -2.75907  -1.55809
 Alpha  occ. eigenvalues --   -1.50054  -1.44613  -1.42650  -1.18809  -1.10996
 Alpha  occ. eigenvalues --   -0.89770  -0.89719  -0.83104  -0.73373  -0.66912
 Alpha  occ. eigenvalues --   -0.62065  -0.61035  -0.55980  -0.54828  -0.51152
 Alpha  occ. eigenvalues --   -0.50237  -0.37994  -0.37781  -0.35369  -0.25224
 Alpha  occ. eigenvalues --   -0.15053  -0.05178
 Alpha virt. eigenvalues --    0.03038   0.04006   0.04266   0.05591   0.05669
 Alpha virt. eigenvalues --    0.06008   0.07258   0.08470   0.09297   0.09461
 Alpha virt. eigenvalues --    0.10218   0.10557   0.10818   0.12144   0.12648

 Mulliken charges:
               1
     1  C   -1.200513
     2  C   -0.936766
     3  C   -1.180264
     4  N   -3.490529
     5  C   -2.086807
     6  C    1.812797
     7  H    1.412008
     8  H    1.523560
     9  H    1.883858
    10  B    4.746827
    11  H    1.614641
    12  P    1.856582
    13  H   -2.756981
    14  H   -2.254174
    15  H   -0.944240
 Sum of Mulliken charges =  -0.00000

 Dipole moment (field-independent basis, Debye):
    X=             -2.9732    Y=             -0.6167    Z=             -7.6530  Tot=              8.2334

 Test job not archived.
 1\1\GINC-SE227\SP\RHF\Aug-CC-pVDZ\C5H7B1N1P1\OHZDE\09-Apr-2025\0\\#t h
 f aug-cc-pvdz iop(5/13=1,5/36=2,99/5=2) pseudo=read geom=check guess=(
 read,tcheck) scf=(maxcycle=1)\\title\\0,1\C,0,-0.468909,1.142036,-0.27
 3397\C,0,-1.842668,1.239359,-0.090931\C,0,-2.565881,0.079146,0.1775\N,
 0,-2.001837,-1.127743,0.274586\C,0,-0.680655,-1.209279,0.110994\C,0,0.
 145527,-0.109717,-0.160448\H,0,-2.347366,2.195427,-0.164626\H,0,-3.642
 236,0.117816,0.317762\H,0,0.117009,2.026678,-0.498769\B,0,2.948173,0.6
 29763,0.809861\H,0,-0.253589,-2.204339,0.204919\P,0,1.940141,-0.299573

 Normal termination of Gaussian 16 at Wed Apr  9 00:43:13 2025.
