 Gaussian 16, Revision C.01,

 ----------------------------------------------------------------------
 #t hf aug-cc-pvdz symm=none int=(grid=ultrafine) guess=(read,tcheck) s
 table=opt
 ----------------------------------------------------------------------
 -----
 title
 -----
 Symbolic Z-matrix:
 Charge =  0 Multiplicity = 2

 SCF Done:  E(UHF) =  -576.574941744     A.U. after   17 cycles

 1\1\GINC-SE165\Stability\UHF\Aug-CC-pVDZ\C3H6Cl1\OHZDE\08-Apr-2025\0\\
 #t hf aug-cc-pvdz symm=none int=(grid=ultrafine) guess=(read,tcheck) s
 table=opt\\title\\0,2\C,0,1.922682,-0.634212,0.164845\C,0,1.116385,0.5
 69904,-0.370723\H,0,1.365504,-1.563954,0.030515\H,0,2.139963,-0.51901,
 1.22973\H,0,2.872234,-0.724866,-0.369527\C,0,-0.19346,0.77913,0.301102
 \H,0,0.957084,0.443845,-1.447437\H,0,1.704123,1.48575,-0.241238\H,0,-0
 .319977,1.336513,1.218994\Cl,0,-1.51721,-0.279248,-0.058375\\Version=E
 S64L-G16RevC.01\HF=-576.5749417\S2=0.76672\S2-1=0.\S2A=0.750216\RMSD=3

 Normal termination of Gaussian 16 at Tue Apr  8 22:44:35 2025.
 Gaussian 16:  ES64L-G16RevC.01  3-Jul-2019

 ----------------------------------------------------------------------
 #t hf aug-cc-pvdz iop(5/13=1,5/36=2,99/5=2) pseudo=read geom=check gue
 ss=(read,tcheck) scf=(maxcycle=1)
 ----------------------------------------------------------------------
 -----
 title
 -----
 Structure from the checkpoint file:  "BDE49_expt_145_mol2.chk"
 Charge =  0 Multiplicity = 2

                         Standard orientation:
 ---------------------------------------------------------------------
 Center     Atomic      Atomic             Coordinates (Angstroms)
 Number     Number       Type             X           Y           Z
 ---------------------------------------------------------------------
      1          6           0        1.922682   -0.634212    0.164845
      2          6           0        1.116385    0.569904   -0.370723
      3          1           0        1.365504   -1.563954    0.030515
      4          1           0        2.139963   -0.519010    1.229730
      5          1           0        2.872234   -0.724867   -0.369527
      6          6           0       -0.193460    0.779130    0.301102
      7          1           0        0.957084    0.443845   -1.447437
      8          1           0        1.704123    1.485750   -0.241238
      9          1           0       -0.319977    1.336513    1.218994
     10         17           0       -1.517210   -0.279247   -0.058375
 ---------------------------------------------------------------------

 SCF Done:  E(UHF) =  -577.406560307     A.U. after    2 cycles

 The electronic state is 2-A.
 Alpha  occ. eigenvalues --  -99.88958 -11.44139 -11.40435 -11.36527 -10.46339
 Alpha  occ. eigenvalues --   -9.66056  -9.65521  -9.65383  -1.35764  -1.18119
 Alpha  occ. eigenvalues --   -0.98806  -0.85119  -0.67428  -0.62714  -0.58677
 Alpha  occ. eigenvalues --   -0.57070  -0.53211  -0.50373  -0.48645  -0.46631
 Alpha  occ. eigenvalues --   -0.33210
 Alpha virt. eigenvalues --    0.03505   0.05346   0.05938   0.06422   0.06558
 Alpha virt. eigenvalues --    0.06951   0.07940   0.11038   0.11720   0.12607
 Alpha virt. eigenvalues --    0.14790   0.15079   0.16083   0.16878   0.17509

  Beta  occ. eigenvalues --  -99.88928 -11.42680 -11.39633 -11.36331 -10.46308
  Beta  occ. eigenvalues --   -9.66339  -9.65373  -9.65099  -1.33968  -1.17195
  Beta  occ. eigenvalues --   -0.95134  -0.82098  -0.66610  -0.61129  -0.57279
  Beta  occ. eigenvalues --   -0.53657  -0.52183  -0.49203  -0.48453  -0.45949
  Beta virt. eigenvalues --    0.03383   0.05209   0.05845   0.06465   0.06560
  Beta virt. eigenvalues --    0.06930   0.08286   0.08818   0.11515   0.12039
  Beta virt. eigenvalues --    0.12895   0.15001   0.15677   0.16353   0.17160

 Mulliken charges and spin densities:
               1          2
     1  C   -3.351549   0.063099
     2  C   -2.657854  -0.327521
     3  H    1.255156  -0.005541
     4  H    1.256148  -0.007979
     5  H    1.223526   0.001166
     6  C   -1.804838   1.376665
     7  H    1.378696   0.002268
     8  H    1.374384  -0.008065
     9  H    1.486745  -0.053519
    10  Cl  -0.160414  -0.040571
 Sum of Mulliken charges =   0.00000   1.00000

 Dipole moment (field-independent basis, Debye):
    X=              1.8352    Y=              0.8775    Z=              0.3383  Tot=              2.0621
                          Isotropic Fermi Contact Couplings
        Atom                 a.u.       MegaHertz       Gauss      10(-4) cm-1
     1  C(13)              0.04535      50.97785      18.19016      17.00438
     2  C(13)             -0.03305     -37.15878     -13.25918     -12.39483
     3  H(1)              -0.00113      -5.05404      -1.80341      -1.68585
     4  H(1)              -0.00100      -4.45582      -1.58995      -1.48630
     5  H(1)               0.00086       3.83656       1.36898       1.27974
     6  C(13)              0.17277     194.22654      69.30486      64.78700
     7  H(1)               0.00743      33.22947      11.85710      11.08416
     8  H(1)               0.00363      16.23374       5.79260       5.41499

 Normal termination of Gaussian 16 at Tue Apr  8 22:44:39 2025.
