 Gaussian 16, Revision C.01,

 ----------------------------------------------------------------------
 #t hf aug-cc-pvdz symm=none int=(grid=ultrafine) guess=(read,tcheck) s
 table=(opt,rrhf)
 ----------------------------------------------------------------------
 -----
 title
 -----
 Symbolic Z-matrix:
 Charge =  0 Multiplicity = 1

 SCF Done:  E(RHF) =  -576.153863662     A.U. after   13 cycles
 Normal termination of Gaussian 16 at Tue Apr  8 23:53:03 2025.
 Gaussian 16:  ES64L-G16RevC.01  3-Jul-2019

 ----------------------------------------------------------------------
 #t hf aug-cc-pvdz iop(5/13=1,5/36=2,99/5=2) pseudo=read geom=check gue
 ss=(read,tcheck) scf=(maxcycle=1)
 ----------------------------------------------------------------------
 -----
 title
 -----
 Structure from the checkpoint file:  "BDE49_nonexpt_1907_mol1.chk"
 Charge =  0 Multiplicity = 1

                         Standard orientation:
 ---------------------------------------------------------------------
 Center     Atomic      Atomic             Coordinates (Angstroms)
 Number     Number       Type             X           Y           Z
 ---------------------------------------------------------------------
      1         14           0       -2.339853   -0.225320   -0.403768
      2          6           0       -0.933968   -0.010662    0.858099
      3          1           0       -2.604454    1.055866   -1.104959
      4          1           0       -3.577703   -0.634007    0.303802
      5          1           0       -1.976416   -1.247704   -1.408019
      6          7           0        0.327767    0.429741    0.248915
      7          6           0        1.306971   -0.512532    0.035928
      8          8           0        1.116379   -1.695427    0.276447
      9          6           0        2.639872   -0.033711   -0.522806
     10          1           0        3.122531    0.693718    0.135119
     11          1           0        2.525380    0.426254   -1.508098
     12          1           0        3.279363   -0.908621   -0.614988
     13          6           0        0.504771    1.865041    0.092002
     14          1           0       -0.378757    2.300413   -0.382744
     15          1           0        1.361965    2.086905   -0.538388
     16          1           0        0.647494    2.360572    1.061590
     17          1           0       -0.750249   -0.974129    1.336720
     18          1           0       -1.222486    0.701626    1.639391
 ---------------------------------------------------------------------

 SCF Done:  E(RHF) =  -577.666524285     A.U. after    2 cycles

 The electronic state is 1-A.
 Alpha  occ. eigenvalues --  -76.21107 -21.01386 -15.74727 -11.49973 -11.41226
 Alpha  occ. eigenvalues --  -11.39006 -11.38143  -5.54609  -2.18514  -2.16996
 Alpha  occ. eigenvalues --   -2.16903  -1.69981  -1.42409  -1.11086  -1.04806
 Alpha  occ. eigenvalues --   -0.96915  -0.77055  -0.73042  -0.67049  -0.64515
 Alpha  occ. eigenvalues --   -0.62686  -0.58575  -0.57134  -0.53454  -0.52868
 Alpha  occ. eigenvalues --   -0.49154  -0.47132  -0.46386  -0.45664  -0.41530
 Alpha  occ. eigenvalues --   -0.28139  -0.28022
 Alpha virt. eigenvalues --    0.03254   0.04805   0.04936   0.05362   0.05379
 Alpha virt. eigenvalues --    0.06235   0.06396   0.07109   0.07854   0.08699
 Alpha virt. eigenvalues --    0.09442   0.09582   0.10261   0.10953   0.11483

 Mulliken charges:
               1
     1  Si   6.197066
     2  C   -3.608220
     3  H   -1.745148
     4  H   -1.743923
     5  H   -1.783992
     6  N   -3.327407
     7  C    5.456218
     8  O   -3.309424
     9  C   -4.538396
    10  H    1.308149
    11  H    1.298088
    12  H    1.092644
    13  C   -3.286537
    14  H    1.546219
    15  H    1.567813
    16  H    1.394086
    17  H    1.813991
    18  H    1.668773
 Sum of Mulliken charges =   0.00000

 Dipole moment (field-independent basis, Debye):
    X=              0.3764    Y=              2.4123    Z=              0.3307  Tot=              2.4638

 Test job not archived.
 1\1\GINC-SE366\SP\RHF\Aug-CC-pVDZ\C4H11N1O1Si1\OHZDE\08-Apr-2025\0\\#t
  hf aug-cc-pvdz iop(5/13=1,5/36=2,99/5=2) pseudo=read geom=check guess
 =(read,tcheck) scf=(maxcycle=1)\\title\\0,1\Si,0,-2.339853,-0.22532,-0
 .403768\C,0,-0.933968,-0.010662,0.858099\H,0,-2.604454,1.055866,-1.104
 959\H,0,-3.577703,-0.634007,0.303802\H,0,-1.976416,-1.247704,-1.408019
 \N,0,0.327767,0.429741,0.248915\C,0,1.306971,-0.512532,0.035928\O,0,1.
 116379,-1.695427,0.276447\C,0,2.639872,-0.033711,-0.522806\H,0,3.12253
 1,0.693718,0.135119\H,0,2.52538,0.426254,-1.508098\H,0,3.279363,-0.908

 Normal termination of Gaussian 16 at Tue Apr  8 23:53:09 2025.
