 Gaussian 16, Revision C.01,

 ----------------------------------------------------------------------
 #t hf aug-cc-pvdz symm=none int=(grid=ultrafine) guess=(read,tcheck) s
 table=(opt,rrhf)
 ----------------------------------------------------------------------
 -----
 title
 -----
 Symbolic Z-matrix:
 Charge =  0 Multiplicity = 1

 SCF Done:  E(RHF) =  -870.538933517     A.U. after   14 cycles
 Normal termination of Gaussian 16 at Tue Apr  8 22:44:28 2025.
 Gaussian 16:  ES64L-G16RevC.01  3-Jul-2019

 ----------------------------------------------------------------------
 #t hf aug-cc-pvdz iop(5/13=1,5/36=2,99/5=2) pseudo=read geom=check gue
 ss=(read,tcheck) scf=(maxcycle=1)
 ----------------------------------------------------------------------
 -----
 title
 -----
 Structure from the checkpoint file:  "BDE49_expt_1476_mol1.chk"
 Charge =  0 Multiplicity = 1

                         Standard orientation:
 ---------------------------------------------------------------------
 Center     Atomic      Atomic             Coordinates (Angstroms)
 Number     Number       Type             X           Y           Z
 ---------------------------------------------------------------------
      1          8           0       -0.753472    0.525311    0.000000
      2         17           0       -1.570949   -1.001832    0.000000
      3          6           0        0.619094    0.396384    0.000000
      4          9           0        1.074791    1.644735    0.000000
      5          9           0        1.074791   -0.241792    1.080402
      6          9           0        1.074791   -0.241792   -1.080402
 ---------------------------------------------------------------------

 SCF Done:  E(RHF) =  -872.246031179     A.U. after    2 cycles

 The electronic state is 1-A'.
 Alpha  occ. eigenvalues --  -99.98249 -29.33865 -29.33626 -29.33580 -21.16592
 Alpha  occ. eigenvalues --  -11.62987 -10.54963  -9.74775  -9.73945  -9.73807
 Alpha  occ. eigenvalues --   -1.89971  -1.39818  -1.25632  -0.95424  -0.94401
 Alpha  occ. eigenvalues --   -0.77889  -0.62626  -0.62277  -0.54322  -0.49596
 Alpha  occ. eigenvalues --   -0.47446  -0.45844  -0.43452  -0.39402  -0.35264
 Alpha  occ. eigenvalues --   -0.35207  -0.28272  -0.27133  -0.23815
 Alpha virt. eigenvalues --    0.02410   0.08493   0.11484   0.11718   0.12498
 Alpha virt. eigenvalues --    0.13671   0.13834   0.16108   0.19087   0.21297
 Alpha virt. eigenvalues --    0.21550   0.22007   0.22431   0.25766   0.25888

 Mulliken charges:
               1
     1  O   -2.100549
     2  Cl   0.397299
     3  C   -0.363949
     4  F    0.742446
     5  F    0.662376
     6  F    0.662376
 Sum of Mulliken charges =  -0.00000

 Dipole moment (field-independent basis, Debye):
    X=              3.5770    Y=              1.6153    Z=             -0.0000  Tot=              3.9248

 Test job not archived.
 1\1\GINC-SE424\SP\RHF\Aug-CC-pVDZ\C1Cl1F3O1\OHZDE\08-Apr-2025\0\\#t hf
  aug-cc-pvdz iop(5/13=1,5/36=2,99/5=2) pseudo=read geom=check guess=(r
 ead,tcheck) scf=(maxcycle=1)\\title\\0,1\O,0,-0.753472,0.525311,0.\Cl,
 0,-1.570949,-1.001832,0.\C,0,0.619094,0.396384,0.\F,0,1.074791,1.64473
 5,0.\F,0,1.074791,-0.241792,1.080402\F,0,1.074791,-0.241792,-1.080402\
 \Version=ES64L-G16RevC.01\State=1-A'\HF=-872.2460312\RMSD=2.802e-02\Di
 pole=1.4073001,0.6355226,0.\Quadrupole=-0.687979,1.291688,-0.603709,1.
 1854591,0.,0.\PG=CS [SG(C1Cl1F1O1),X(F2)]\\@

 Normal termination of Gaussian 16 at Tue Apr  8 22:44:30 2025.
