 Gaussian 16, Revision C.01,

 ----------------------------------------------------------------------
 #t hf aug-cc-pvdz symm=none int=(grid=ultrafine) guess=(read,tcheck) s
 table=(opt,rrhf)
 ----------------------------------------------------------------------
 -----
 title
 -----
 Symbolic Z-matrix:
 Charge =  0 Multiplicity = 1

 SCF Done:  E(RHF) =  -348.457870598     A.U. after   12 cycles
 Normal termination of Gaussian 16 at Wed Apr  9 00:49:56 2025.
 Gaussian 16:  ES64L-G16RevC.01  3-Jul-2019

 ----------------------------------------------------------------------
 #t hf aug-cc-pvdz iop(5/13=1,5/36=2,99/5=2) pseudo=read geom=check gue
 ss=(read,tcheck) scf=(maxcycle=1)
 ----------------------------------------------------------------------
 -----
 title
 -----
 Structure from the checkpoint file:  "BDE49_nonexpt_8_mol1.chk"
 Charge =  0 Multiplicity = 1

                         Standard orientation:
 ---------------------------------------------------------------------
 Center     Atomic      Atomic             Coordinates (Angstroms)
 Number     Number       Type             X           Y           Z
 ---------------------------------------------------------------------
      1          5           0        1.084936   -0.000559    0.550190
      2          5           0       -0.561591   -0.000043    0.089221
      3          9           0        2.033746    0.000106   -0.382019
      4          9           0       -1.242954    1.126839   -0.080157
      5          9           0       -1.243556   -1.126505   -0.080529
      6          1           0        1.458153   -0.000953    1.687295
 ---------------------------------------------------------------------

 SCF Done:  E(RHF) =  -349.675139801     A.U. after    2 cycles

 The electronic state is 1-A.
 Alpha  occ. eigenvalues --  -29.26859 -29.26796 -29.26760  -7.69950  -7.67229
 Alpha  occ. eigenvalues --   -1.15798  -0.99245  -0.75017  -0.62531  -0.60731
 Alpha  occ. eigenvalues --   -0.49983  -0.45682  -0.45339  -0.42993  -0.40417
 Alpha  occ. eigenvalues --   -0.35550  -0.34869  -0.34115  -0.22231
 Alpha virt. eigenvalues --    0.02307   0.03485   0.03594   0.07036   0.08656
 Alpha virt. eigenvalues --    0.09318   0.09721   0.11940   0.13057   0.14234
 Alpha virt. eigenvalues --    0.17425   0.19332   0.20465   0.22365   0.24103

 Mulliken charges:
               1
     1  B    2.685976
     2  B    0.746402
     3  F   -0.882379
     4  F   -0.147107
     5  F   -0.147151
     6  H   -2.255739
 Sum of Mulliken charges =  -0.00000

 Dipole moment (field-independent basis, Debye):
    X=              0.1110    Y=              0.0020    Z=             -2.9134  Tot=              2.9155

 Test job not archived.
 1\1\GINC-SE072\SP\RHF\Aug-CC-pVDZ\B2F3H1\OHZDE\09-Apr-2025\0\\#t hf au
 g-cc-pvdz iop(5/13=1,5/36=2,99/5=2) pseudo=read geom=check guess=(read
 ,tcheck) scf=(maxcycle=1)\\title\\0,1\B,0,-1.084936,0.000559,0.55019\B
 ,0,0.561591,0.000043,0.089221\F,0,-2.033746,-0.000106,-0.382019\F,0,1.
 242954,-1.126839,-0.080157\F,0,1.243556,1.126505,-0.080529\H,0,-1.4581
 53,0.000953,1.687295\\Version=ES64L-G16RevC.01\State=1-A\HF=-349.67513
 98\RMSD=3.615e-01\Dipole=-0.0436826,-0.0007726,-1.1462225\Quadrupole=2
 .5958308,2.0682456,-4.6640764,0.002759,3.2180982,-0.002085\PG=C01 [X(B

 Normal termination of Gaussian 16 at Wed Apr  9 00:49:57 2025.
