 Gaussian 16, Revision C.01,

 ----------------------------------------------------------------------
 #t hf aug-cc-pvdz symm=none int=(grid=ultrafine) guess=(read,tcheck) s
 table=opt
 ----------------------------------------------------------------------
 -----
 title
 -----
 Symbolic Z-matrix:
 Charge =  0 Multiplicity = 2

 SCF Done:  E(UHF) =  -1512.37595505     A.U. after   15 cycles
 Normal termination of Gaussian 16 at Tue Apr  8 23:31:45 2025.
 Gaussian 16:  ES64L-G16RevC.01  3-Jul-2019

 ----------------------------------------------------------------------
 #t hf aug-cc-pvdz iop(5/13=1,5/36=2,99/5=2) pseudo=read geom=check gue
 ss=(read,tcheck) scf=(maxcycle=1)
 ----------------------------------------------------------------------
 -----
 title
 -----
 Structure from the checkpoint file:  "BDE49_expt_804_mol2.chk"
 Charge =  0 Multiplicity = 2

                         Standard orientation:
 ---------------------------------------------------------------------
 Center     Atomic      Atomic             Coordinates (Angstroms)
 Number     Number       Type             X           Y           Z
 ---------------------------------------------------------------------
      1         14           0        1.963816   -1.276781   -0.020293
      2         14           0        0.000224   -0.000800   -0.351817
      3          6           0        2.640654   -1.057976    1.734882
      4          6           0        3.303107   -0.743088   -1.244110
      5          6           0        1.606182   -3.113561   -0.295435
      6         14           0        0.124419    2.338293   -0.020495
      7         14           0       -2.087618   -1.061847   -0.020364
      8          1           0        0.868358   -3.495682    0.415191
      9          1           0        2.523767   -3.697885   -0.165703
     10          1           0        1.230948   -3.302806   -1.304802
     11          1           0        2.893987   -0.014242    1.941277
     12          1           0        3.550300   -1.654346    1.869040
     13          1           0        1.914937   -1.379256    2.486840
     14          1           0        3.565179    0.311242   -1.122713
     15          1           0        2.977120   -0.889259   -2.277550
     16          1           0        4.213688   -1.333199   -1.091705
     17          6           0       -2.243135   -1.744101    1.739740
     18          1           0       -3.214629   -2.233529    1.873278
     19          1           0       -2.162640   -0.949038    2.486234
     20          1           0       -1.466336   -2.483092    1.955626
     21          6           0       -2.291488   -2.497428   -1.234650
     22          1           0       -2.248106   -2.150849   -2.270823
     23          1           0       -3.259999   -2.987208   -1.083944
     24          1           0       -1.512115   -3.252483   -1.102307
     25          6           0       -3.498321    0.164562   -0.309086
     26          1           0       -3.472600    0.575551   -1.321974
     27          1           0       -3.461113    1.000667    0.394549
     28          1           0       -4.463515   -0.336797   -0.177311
     29          6           0       -0.411126    2.814624    1.732829
     30          1           0       -1.441443    2.509596    1.935967
     31          1           0       -0.353083    3.900806    1.866733
     32          1           0        0.228815    2.349054    2.487388
     33          6           0        1.895451    2.946762   -0.287532
     34          1           0        2.592846    2.495905    0.423993
     35          1           0        1.942044    4.033190   -0.153788
     36          1           0        2.251036    2.720502   -1.296432
     37          6           0       -1.002383    3.231709   -1.249170
     38          1           0       -2.047437    2.933007   -1.131267
     39          1           0       -0.709648    3.021603   -2.281558
     40          1           0       -0.945760    4.315410   -1.097481
 ---------------------------------------------------------------------

 SCF Done:  E(UHF) =  -1514.89422976     A.U. after    2 cycles

 The electronic state is 2-A.
 Alpha  occ. eigenvalues --  -76.19022 -76.19014 -76.18996 -76.18072 -11.34559
 Alpha  occ. eigenvalues --  -11.34555 -11.34539 -11.34403 -11.34195 -11.34194
 Alpha  occ. eigenvalues --  -11.34087 -11.34085 -11.33954  -5.52838  -5.52826
 Alpha  occ. eigenvalues --   -5.52820  -5.51788  -2.16502  -2.16490  -2.16485
 Alpha  occ. eigenvalues --   -2.16329  -2.16326  -2.16320  -2.15743  -2.15741
 Alpha  occ. eigenvalues --   -2.14377  -2.13567  -2.13566  -2.13138  -1.07241
 Alpha  occ. eigenvalues --   -1.06761  -1.06759  -1.00407  -1.00399  -1.00374
 Alpha  occ. eigenvalues --   -1.00162  -1.00083  -1.00078  -0.75296  -0.64324
 Alpha  occ. eigenvalues --   -0.64323  -0.58558  -0.56762  -0.56759  -0.56093
 Alpha  occ. eigenvalues --   -0.56088  -0.56072  -0.55722  -0.55717  -0.55664
 Alpha  occ. eigenvalues --   -0.54193  -0.54097  -0.54093  -0.53765  -0.53759
 Alpha  occ. eigenvalues --   -0.53424  -0.52968  -0.52874  -0.52653  -0.52642
 Alpha  occ. eigenvalues --   -0.39446  -0.39248  -0.39242  -0.38709  -0.38706
 Alpha  occ. eigenvalues --   -0.38474  -0.29100  -0.29094  -0.24239
 Alpha virt. eigenvalues --    0.03059   0.04580   0.04580   0.05552   0.05591
 Alpha virt. eigenvalues --    0.05595   0.05803   0.05804   0.05836   0.06124
 Alpha virt. eigenvalues --    0.06572   0.06638   0.06643   0.06773   0.06889

  Beta  occ. eigenvalues --  -76.19061 -76.19053 -76.19035 -76.17581 -11.34562
  Beta  occ. eigenvalues --  -11.34557 -11.34536 -11.34354 -11.34150 -11.34148
  Beta  occ. eigenvalues --  -11.34065 -11.34064 -11.33943  -5.52899  -5.52887
  Beta  occ. eigenvalues --   -5.52880  -5.51072  -2.16541  -2.16526  -2.16521
  Beta  occ. eigenvalues --   -2.16374  -2.16371  -2.16356  -2.15776  -2.15772
  Beta  occ. eigenvalues --   -2.14564  -2.13155  -2.13152  -2.09619  -1.07163
  Beta  occ. eigenvalues --   -1.06733  -1.06732  -1.00347  -1.00339  -1.00280
  Beta  occ. eigenvalues --   -1.00142  -1.00040  -1.00035  -0.71821  -0.64394
  Beta  occ. eigenvalues --   -0.64393  -0.58037  -0.56716  -0.56713  -0.56064
  Beta  occ. eigenvalues --   -0.56059  -0.55974  -0.55702  -0.55697  -0.55611
  Beta  occ. eigenvalues --   -0.54071  -0.54068  -0.53982  -0.53685  -0.53679
  Beta  occ. eigenvalues --   -0.53388  -0.52854  -0.52634  -0.52623  -0.50313
  Beta  occ. eigenvalues --   -0.39174  -0.39169  -0.38716  -0.38475  -0.38456
  Beta  occ. eigenvalues --   -0.38454  -0.28329  -0.28323
  Beta virt. eigenvalues --    0.02792   0.03144   0.04583   0.04583   0.05634
  Beta virt. eigenvalues --    0.05638   0.05828   0.05830   0.05835   0.06096
  Beta virt. eigenvalues --    0.06205   0.06591   0.06645   0.06650   0.06811

 Mulliken charges and spin densities:
               1          2
     1  Si   9.055559  -0.071183
     2  Si  -0.549450   1.844733
     3  C   -6.559046   0.016605
     4  C   -6.467360  -0.095574
     5  C   -6.688367  -0.008068
     6  Si   9.036144  -0.073853
     7  Si   9.036767  -0.075308
     8  H    1.268826   0.005937
     9  H    1.058625  -0.005131
    10  H    1.397237  -0.022325
    11  H    1.227621  -0.006843
    12  H    1.068579  -0.009723
    13  H    1.266542  -0.020430
    14  H    1.222501   0.005824
    15  H    1.252848  -0.051113
    16  H    1.086643  -0.017788
    17  C   -6.553773   0.016308
    18  H    1.067779  -0.009811
    19  H    1.267466  -0.019687
    20  H    1.226690  -0.007306
    21  C   -6.466017  -0.094473
    22  H    1.250500  -0.050105
    23  H    1.087419  -0.017585
    24  H    1.223842   0.005993
    25  C   -6.685146  -0.008809
    26  H    1.393961  -0.022917
    27  H    1.269175   0.005933
    28  H    1.057219  -0.005197
    29  C   -6.553413   0.016140
    30  H    1.227302  -0.006751
    31  H    1.070206  -0.009763
    32  H    1.265247  -0.020059
    33  C   -6.683402  -0.007694
    34  H    1.270021   0.005816
    35  H    1.056062  -0.005055
    36  H    1.394141  -0.022054
    37  C   -6.462742  -0.095786
    38  H    1.224492   0.005783
    39  H    1.251957  -0.050900
    40  H    1.087348  -0.017779
 Sum of Mulliken charges =  -0.00000   1.00000

 Dipole moment (field-independent basis, Debye):
    X=              0.0007    Y=              0.0004    Z=              0.0199  Tot=              0.0199
                          Isotropic Fermi Contact Couplings
        Atom                 a.u.       MegaHertz       Gauss      10(-4) cm-1
     1  Si(29)            -0.03250      28.88246      10.30598       9.63415
     2  Si(29)             0.17510    -155.61704     -55.52803     -51.90826
     3  C(13)              0.01529      17.18853       6.13330       5.73348
     4  C(13)              0.00338       3.80422       1.35744       1.26895
     5  C(13)             -0.00142      -1.59520      -0.56921      -0.53210
     6  Si(29)            -0.03248      28.86721      10.30054       9.62906
     7  Si(29)            -0.03248      28.86646      10.30027       9.62881
     8  H(1)               0.00007       0.30243       0.10791       0.10088

 Normal termination of Gaussian 16 at Tue Apr  8 23:32:48 2025.
