 Gaussian 16, Revision C.01,

 ----------------------------------------------------------------------
 #t hf aug-cc-pvdz symm=none int=(grid=ultrafine) guess=(read,tcheck) s
 table=opt
 ----------------------------------------------------------------------
 -----
 title
 -----
 Symbolic Z-matrix:
 Charge =  0 Multiplicity = 2

 SCF Done:  E(UHF) =  -484.668172730     A.U. after   15 cycles
 Normal termination of Gaussian 16 at Tue Apr  8 23:43:07 2025.
 Gaussian 16:  ES64L-G16RevC.01  3-Jul-2019

 ----------------------------------------------------------------------
 #t hf aug-cc-pvdz iop(5/13=1,5/36=2,99/5=2) pseudo=read geom=check gue
 ss=(read,tcheck) scf=(maxcycle=1)
 ----------------------------------------------------------------------
 -----
 title
 -----
 Structure from the checkpoint file:  "BDE49_nonexpt_1657_mol2.chk"
 Charge =  0 Multiplicity = 2

                         Standard orientation:
 ---------------------------------------------------------------------
 Center     Atomic      Atomic             Coordinates (Angstroms)
 Number     Number       Type             X           Y           Z
 ---------------------------------------------------------------------
      1         14           0        1.536670   -0.000001    0.070384
      2          6           0        0.442212    1.501942   -0.299722
      3          6           0       -0.982654    1.294417    0.273979
      4          6           0       -1.665169    0.000001   -0.200863
      5          6           0       -0.982655   -1.294417    0.273979
      6          6           0        0.442210   -1.501942   -0.299722
      7          1           0        0.380153    1.634706   -1.386497
      8          1           0        0.888609    2.417669    0.099443
      9          1           0       -1.609503    2.151071   -0.001295
     10          1           0       -0.937093    1.290290    1.370016
     11          1           0       -1.717383    0.000001   -1.297798
     12          1           0       -2.701764    0.000001    0.153160
     13          1           0       -1.609506   -2.151069   -0.001295
     14          1           0       -0.937094   -1.290290    1.370016
     15          1           0        0.380151   -1.634706   -1.386497
     16          1           0        0.888606   -2.417669    0.099443
     17          1           0        1.937776   -0.000001    1.510025
 ---------------------------------------------------------------------

 SCF Done:  E(UHF) =  -485.819090168     A.U. after    2 cycles

 The electronic state is 2-A.
 Alpha  occ. eigenvalues --  -76.20118 -11.42504 -11.41028 -11.37456 -11.35072
 Alpha  occ. eigenvalues --  -11.33794  -5.53827  -2.17837  -2.16941  -2.15587
 Alpha  occ. eigenvalues --   -1.25966  -1.10763  -1.00341  -0.87049  -0.81171
 Alpha  occ. eigenvalues --   -0.70163  -0.63560  -0.60321  -0.59648  -0.55700
 Alpha  occ. eigenvalues --   -0.53593  -0.47680  -0.45309  -0.44879  -0.44805
 Alpha  occ. eigenvalues --   -0.41349  -0.35258  -0.25161
 Alpha virt. eigenvalues --    0.03865   0.05283   0.05640   0.05800   0.05819
 Alpha virt. eigenvalues --    0.05872   0.06138   0.06332   0.06669   0.08288
 Alpha virt. eigenvalues --    0.08594   0.09139   0.10156   0.10531   0.12631

  Beta  occ. eigenvalues --  -76.19586 -11.42467 -11.40957 -11.37420 -11.35008
  Beta  occ. eigenvalues --  -11.33740  -5.52991  -2.17241  -2.16050  -2.12441
  Beta  occ. eigenvalues --   -1.25687  -1.10471  -0.99784  -0.86872  -0.80612
  Beta  occ. eigenvalues --   -0.67628  -0.63232  -0.60203  -0.58418  -0.55215
  Beta  occ. eigenvalues --   -0.53403  -0.47403  -0.44939  -0.44576  -0.44520
  Beta  occ. eigenvalues --   -0.39935  -0.34662
  Beta virt. eigenvalues --    0.03863   0.04483   0.05438   0.05707   0.05825
  Beta virt. eigenvalues --    0.05879   0.06001   0.06151   0.06575   0.08303
  Beta virt. eigenvalues --    0.08608   0.09097   0.09234   0.10568   0.11060

 Mulliken charges and spin densities:
               1          2
     1  Si   4.263015   0.943842
     2  C   -3.570313   0.055693
     3  C   -2.787452   0.021336
     4  C   -2.910034  -0.034621
     5  C   -2.787451   0.021336
     6  C   -3.570313   0.055693
     7  H    1.359181  -0.024741
     8  H    1.247135  -0.013700
     9  H    1.292145   0.005973
    10  H    1.379896  -0.010544
    11  H    1.517549  -0.004729
    12  H    1.294117  -0.004046
    13  H    1.292144   0.005973
    14  H    1.379896  -0.010544
    15  H    1.359181  -0.024741
    16  H    1.247135  -0.013700
    17  H   -2.005832   0.031520
 Sum of Mulliken charges =   0.00000   1.00000

 Dipole moment (field-independent basis, Debye):
    X=             -0.8624    Y=              0.0000    Z=             -0.5140  Tot=              1.0039
                          Isotropic Fermi Contact Couplings
        Atom                 a.u.       MegaHertz       Gauss      10(-4) cm-1
     1  Si(29)             0.44634    -396.67541    -141.54365    -132.31667
     2  C(13)              0.01449      16.28894       5.81230       5.43341
     3  C(13)              0.01466      16.48594       5.88259       5.49912
     4  C(13)             -0.00012      -0.13731      -0.04899      -0.04580
     5  C(13)              0.01466      16.48596       5.88260       5.49912
     6  C(13)              0.01449      16.28895       5.81230       5.43341
     7  H(1)               0.00071       3.15950       1.12739       1.05389
     8  H(1)              -0.00029      -1.28241      -0.45760      -0.42777

 Normal termination of Gaussian 16 at Tue Apr  8 23:43:14 2025.
