 Gaussian 16, Revision C.01,

 ----------------------------------------------------------------------
 #t hf aug-cc-pvdz symm=none int=(grid=ultrafine) guess=(read,tcheck) s
 table=(opt,rrhf)
 ----------------------------------------------------------------------
 -----
 title
 -----
 Symbolic Z-matrix:
 Charge =  0 Multiplicity = 1

 SCF Done:  E(RHF) =  -1063.42637443     A.U. after   14 cycles
 Normal termination of Gaussian 16 at Tue Apr  8 23:31:02 2025.
 Gaussian 16:  ES64L-G16RevC.01  3-Jul-2019

 ----------------------------------------------------------------------
 #t hf aug-cc-pvdz iop(5/13=1,5/36=2,99/5=2) pseudo=read geom=check gue
 ss=(read,tcheck) scf=(maxcycle=1)
 ----------------------------------------------------------------------
 -----
 title
 -----
 Structure from the checkpoint file:  "BDE49_nonexpt_1374_mol1.chk"
 Charge =  0 Multiplicity = 1

                         Standard orientation:
 ---------------------------------------------------------------------
 Center     Atomic      Atomic             Coordinates (Angstroms)
 Number     Number       Type             X           Y           Z
 ---------------------------------------------------------------------
      1         16           0        0.755628   -0.058694    0.102687
      2          9           0       -2.065238    0.762828    0.027500
      3          8           0        0.881473    1.012581   -1.121685
      4          8           0        1.482962   -1.232094   -0.296932
      5          8           0        1.035849    0.657267    1.321865
      6         15           0       -1.354386   -0.696417    0.063963
      7          1           0        0.870763    1.901943   -0.735968
      8          1           0       -1.260145   -0.884068   -1.339958
 ---------------------------------------------------------------------

 SCF Done:  E(RHF) =  -1065.14195392     A.U. after    2 cycles

 The electronic state is 1-A.
 Alpha  occ. eigenvalues -- -105.30589 -75.93404 -29.32075 -21.15006 -21.08217
 Alpha  occ. eigenvalues --  -21.08193 -13.56422 -13.45161 -13.37407  -8.28527
 Alpha  occ. eigenvalues --   -2.88686  -1.91524  -1.73664  -1.68606  -1.61856
 Alpha  occ. eigenvalues --   -1.54961  -1.52992  -0.97435  -0.85310  -0.67428
 Alpha  occ. eigenvalues --   -0.60751  -0.58442  -0.51408  -0.47916  -0.45981
 Alpha  occ. eigenvalues --   -0.42559  -0.40242  -0.38629  -0.37142  -0.36906
 Alpha  occ. eigenvalues --   -0.27566  -0.20564  -0.05063
 Alpha virt. eigenvalues --    0.04274   0.05130   0.07991   0.09037   0.10513
 Alpha virt. eigenvalues --    0.11577   0.12301   0.13929   0.15860   0.17744
 Alpha virt. eigenvalues --    0.18239   0.19429   0.20736   0.20955   0.22155

 Mulliken charges:
               1
     1  S    5.246404
     2  F   -0.368932
     3  O   -2.253349
     4  O   -2.506196
     5  O   -2.514253
     6  P    2.324340
     7  H    0.794400
     8  H   -0.722413
 Sum of Mulliken charges =  -0.00000

 Dipole moment (field-independent basis, Debye):
    X=             -5.4468    Y=              2.6053    Z=              0.2901  Tot=              6.0447

 Test job not archived.
 1\1\GINC-SE366\SP\RHF\Aug-CC-pVDZ\F1H2O3P1S1\OHZDE\08-Apr-2025\0\\#t h
 f aug-cc-pvdz iop(5/13=1,5/36=2,99/5=2) pseudo=read geom=check guess=(
 read,tcheck) scf=(maxcycle=1)\\title\\0,1\S,0,0.755628,-0.058694,0.102
 687\F,0,-2.065238,0.762828,0.0275\O,0,0.881473,1.012581,-1.121685\O,0,
 1.482962,-1.232094,-0.296932\O,0,1.035849,0.657267,1.321865\P,0,-1.354
 386,-0.696417,0.063963\H,0,0.870763,1.901943,-0.735968\H,0,-1.260145,-
 0.884068,-1.339958\\Version=ES64L-G16RevC.01\State=1-A\HF=-1065.141953
 9\RMSD=1.238e-01\Dipole=-2.142923,1.0249845,0.1141232\Quadrupole=2.972

 Normal termination of Gaussian 16 at Tue Apr  8 23:31:05 2025.
