 Gaussian 16, Revision C.01,

 ----------------------------------------------------------------------
 #t hf aug-cc-pvdz symm=none int=(grid=ultrafine) guess=(read,tcheck) s
 table=(opt,rrhf)
 ----------------------------------------------------------------------
 -----
 title
 -----
 Symbolic Z-matrix:
 Charge =  0 Multiplicity = 1

 SCF Done:  E(RHF) =  -628.885785182     A.U. after   16 cycles
 Normal termination of Gaussian 16 at Tue Apr  8 23:17:50 2025.
 Gaussian 16:  ES64L-G16RevC.01  3-Jul-2019

 ----------------------------------------------------------------------
 #t hf aug-cc-pvdz iop(5/13=1,5/36=2,99/5=2) pseudo=read geom=check gue
 ss=(read,tcheck) scf=(maxcycle=1)
 ----------------------------------------------------------------------
 -----
 title
 -----
 Structure from the checkpoint file:  "BDE49_nonexpt_1020_mol1.chk"
 Charge =  0 Multiplicity = 1

                         Standard orientation:
 ---------------------------------------------------------------------
 Center     Atomic      Atomic             Coordinates (Angstroms)
 Number     Number       Type             X           Y           Z
 ---------------------------------------------------------------------
      1         17           0        1.586366   -0.259019    0.047445
      2          7           0       -1.145502    0.525785    0.282758
      3          8           0       -0.122497    0.898647   -0.352235
      4          6           0       -1.813927   -0.705420   -0.105633
      5          1           0       -1.174499    0.788456    1.270089
      6          1           0       -1.154017   -1.552667    0.118724
      7          1           0       -2.011800   -0.676567   -1.176439
      8          1           0       -2.745854   -0.793046    0.453438
 ---------------------------------------------------------------------

 SCF Done:  E(RHF) =  -629.915679946     A.U. after    2 cycles

 The electronic state is 1-A.
 Alpha  occ. eigenvalues --  -99.85222 -21.20644 -15.86703 -11.43352 -10.41867
 Alpha  occ. eigenvalues --   -9.61633  -9.61210  -9.61135  -1.88874  -1.27438
 Alpha  occ. eigenvalues --   -1.18559  -0.98549  -0.74070  -0.67540  -0.64497
 Alpha  occ. eigenvalues --   -0.58405  -0.53655  -0.48710  -0.46216  -0.39338
 Alpha  occ. eigenvalues --   -0.38327
 Alpha virt. eigenvalues --    0.02533   0.04889   0.05311   0.05867   0.07150
 Alpha virt. eigenvalues --    0.10106   0.12553   0.13625   0.14271   0.14944
 Alpha virt. eigenvalues --    0.15137   0.17336   0.18544   0.18795   0.20114

 Mulliken charges:
               1
     1  Cl  -0.415451
     2  N    0.641027
     3  O   -1.954307
     4  C   -2.939558
     5  H    0.731569
     6  H    1.360829
     7  H    1.346018
     8  H    1.229874
 Sum of Mulliken charges =   0.00000

 Dipole moment (field-independent basis, Debye):
    X=             -6.5717    Y=              1.1297    Z=              0.6784  Tot=              6.7025

 Test job not archived.
 1\1\GINC-SE143\SP\RHF\Aug-CC-pVDZ\C1H4Cl1N1O1\OHZDE\08-Apr-2025\0\\#t
 hf aug-cc-pvdz iop(5/13=1,5/36=2,99/5=2) pseudo=read geom=check guess=
 (read,tcheck) scf=(maxcycle=1)\\title\\0,1\Cl,0,1.586366,-0.259019,0.0
 47445\N,0,-1.145502,0.525785,0.282758\O,0,-0.122497,0.898647,-0.352235
 \C,0,-1.813927,-0.70542,-0.105633\H,0,-1.174499,0.788456,1.270089\H,0,
 -1.154017,-1.552667,0.118724\H,0,-2.0118,-0.676567,-1.176439\H,0,-2.74
 5854,-0.793046,0.453438\\Version=ES64L-G16RevC.01\State=1-A\HF=-629.91
 56799\RMSD=5.614e-02\Dipole=-2.585517,0.4444698,0.2669049\Quadrupole=-

 Normal termination of Gaussian 16 at Tue Apr  8 23:17:52 2025.
