 Gaussian 16, Revision C.01,

 ----------------------------------------------------------------------
 #t hf aug-cc-pvdz symm=none int=(grid=ultrafine) guess=(read,tcheck) s
 table=(opt,rrhf)
 ----------------------------------------------------------------------
 -----
 title
 -----
 Symbolic Z-matrix:
 Charge =  0 Multiplicity = 1

 SCF Done:  E(RHF) =  -1391.26557401     A.U. after   19 cycles

 1\1\GINC-SE054\Stability\RHF\Aug-CC-pVDZ\Cl2O1S1\OHZDE\08-Apr-2025\0\\
 #t hf aug-cc-pvdz symm=none int=(grid=ultrafine) guess=(read,tcheck) s
 table=(opt,rrhf)\\title\\0,1\O,0,-0.615361,0.68038,0.626933\S,0,0.5952
 44,0.889597,-0.256139\Cl,0,1.90377,-0.691024,0.050935\Cl,0,-2.174417,-
 0.466423,-0.104891\\Version=ES64L-G16RevC.01\HF=-1391.265574\RMSD=3.80
 2e-09\Dipole=0.4905398,0.4167333,-0.2642431\Quadrupole=-0.7877263,1.39
 45016,-0.6067753,0.477589,0.2120774,-0.6208916\PG=Unknown\\@
 The archive entry for this job was punched.

 Normal termination of Gaussian 16 at Tue Apr  8 23:23:48 2025.
 Gaussian 16:  ES64L-G16RevC.01  3-Jul-2019

 ----------------------------------------------------------------------
 #t hf aug-cc-pvdz iop(5/13=1,5/36=2,99/5=2) pseudo=read geom=check gue
 ss=(read,tcheck) scf=(maxcycle=1)
 ----------------------------------------------------------------------
 -----
 title
 -----
 Structure from the checkpoint file:  "BDE49_nonexpt_1207_mol1.chk"
 Charge =  0 Multiplicity = 1

                         Standard orientation:
 ---------------------------------------------------------------------
 Center     Atomic      Atomic             Coordinates (Angstroms)
 Number     Number       Type             X           Y           Z
 ---------------------------------------------------------------------
      1          8           0       -0.615361    0.680380    0.626933
      2         16           0        0.595244    0.889597   -0.256139
      3         17           0        1.903770   -0.691024    0.050935
      4         17           0       -2.174417   -0.466423   -0.104891
 ---------------------------------------------------------------------

 SCF Done:  E(RHF) =  -1392.28357351     A.U. after    2 cycles

 The electronic state is 1-A.
 Alpha  occ. eigenvalues --  -99.93634 -99.93552 -75.83446 -21.21091 -13.34730
 Alpha  occ. eigenvalues --  -13.16421 -13.15273 -10.50764 -10.50009  -9.70437
 Alpha  occ. eigenvalues --   -9.69793  -9.69730  -9.69665  -9.69252  -9.69223
 Alpha  occ. eigenvalues --   -8.17658  -1.82789  -1.35244  -1.26066  -1.02970
 Alpha  occ. eigenvalues --   -0.65164  -0.61610  -0.60246  -0.56437  -0.54991
 Alpha  occ. eigenvalues --   -0.53041  -0.48199  -0.43971  -0.32347
 Alpha virt. eigenvalues --   -0.01501   0.03305   0.06782   0.07280   0.10231
 Alpha virt. eigenvalues --    0.11496   0.12947   0.13867   0.14373   0.14869
 Alpha virt. eigenvalues --    0.15150   0.17299   0.20405   0.21125   0.22273

 Mulliken charges:
               1
     1  O   -1.488966
     2  S    2.147987
     3  Cl  -0.411587
     4  Cl  -0.247434
 Sum of Mulliken charges =  -0.00000

 Dipole moment (field-independent basis, Debye):
    X=              4.4414    Y=              4.9625    Z=             -0.9217  Tot=              6.7232

 Test job not archived.
 1\1\GINC-SE054\SP\RHF\Aug-CC-pVDZ\Cl2O1S1\OHZDE\08-Apr-2025\0\\#t hf a
 ug-cc-pvdz iop(5/13=1,5/36=2,99/5=2) pseudo=read geom=check guess=(rea
 d,tcheck) scf=(maxcycle=1)\\title\\0,1\O,0,-0.615361,0.68038,0.626933\
 S,0,0.595244,0.889597,-0.256139\Cl,0,1.90377,-0.691024,0.050935\Cl,0,-
 2.174417,-0.466423,-0.104891\\Version=ES64L-G16RevC.01\State=1-A\HF=-1
 392.2835735\RMSD=3.724e-02\Dipole=1.7473861,1.9523811,-0.3626103\Quadr
 upole=-5.7674974,4.7679064,0.999591,0.6092306,-0.9720483,-1.2304609\PG
 =C01 [X(Cl2O1S1)]\\@

 Normal termination of Gaussian 16 at Tue Apr  8 23:23:50 2025.
