 Gaussian 16, Revision C.01,

 ----------------------------------------------------------------------
 #t hf aug-cc-pvdz symm=none int=(grid=ultrafine) guess=(read,tcheck) s
 table=(opt,rrhf)
 ----------------------------------------------------------------------
 -----
 title
 -----
 Symbolic Z-matrix:
 Charge =  0 Multiplicity = 1

 SCF Done:  E(RHF) =  -895.254150402     A.U. after   17 cycles
 Normal termination of Gaussian 16 at Tue Apr  8 23:32:58 2025.
 Gaussian 16:  ES64L-G16RevC.01  3-Jul-2019

 ----------------------------------------------------------------------
 #t hf aug-cc-pvdz iop(5/13=1,5/36=2,99/5=2) pseudo=read geom=check gue
 ss=(read,tcheck) scf=(maxcycle=1)
 ----------------------------------------------------------------------
 -----
 title
 -----
 Structure from the checkpoint file:  "BDE49_nonexpt_1376_mol1.chk"
 Charge =  0 Multiplicity = 1

                         Standard orientation:
 ---------------------------------------------------------------------
 Center     Atomic      Atomic             Coordinates (Angstroms)
 Number     Number       Type             X           Y           Z
 ---------------------------------------------------------------------
      1          9           0       -0.568781   -3.025641   -0.000000
      2          8           0       -0.256686   -0.943011    2.458796
      3          8           0       -0.256686   -0.943011   -2.458796
      4         15           0        0.617093   -1.915929   -0.000000
      5          6           0        0.017984   -0.681970    1.314324
      6          6           0        0.025313    0.676600    0.701534
      7          6           0       -0.004746    1.876980    1.412833
      8          6           0       -0.028837    3.070877    0.701642
      9          6           0       -0.028837    3.070877   -0.701642
     10          6           0       -0.004746    1.876980   -1.412833
     11          6           0        0.025313    0.676600   -0.701534
     12          6           0        0.017984   -0.681970   -1.314324
     13          1           0       -0.017294    1.859314    2.496000
     14          1           0       -0.056185    4.014702    1.234089
     15          1           0       -0.056185    4.014702   -1.234089
     16          1           0       -0.017294    1.859314   -2.496000
 ---------------------------------------------------------------------

 SCF Done:  E(RHF) =  -897.778413716     A.U. after    2 cycles

 The electronic state is 1-A'.
 Alpha  occ. eigenvalues -- -105.26019 -29.29241 -21.09252 -21.09230 -11.55855
 Alpha  occ. eigenvalues --  -11.52798 -11.51451 -11.48739 -11.47727 -11.46065
 Alpha  occ. eigenvalues --  -11.45316 -11.40941  -2.85081  -1.74664  -1.73892
 Alpha  occ. eigenvalues --   -1.60020  -1.53491  -1.52824  -1.38661  -1.17980
 Alpha  occ. eigenvalues --   -1.14524  -0.96870  -0.95795  -0.87229  -0.78801
 Alpha  occ. eigenvalues --   -0.78375  -0.67742  -0.64756  -0.62582  -0.60259
 Alpha  occ. eigenvalues --   -0.58474  -0.57737  -0.52236  -0.50458  -0.50200
 Alpha  occ. eigenvalues --   -0.48855  -0.47692  -0.46982  -0.37360  -0.36378
 Alpha  occ. eigenvalues --   -0.35513  -0.34218  -0.34184  -0.18791  -0.16425
 Alpha  occ. eigenvalues --   -0.02642
 Alpha virt. eigenvalues --    0.02745   0.04462   0.04722   0.05736   0.06227
 Alpha virt. eigenvalues --    0.07132   0.08070   0.08825   0.10103   0.10660
 Alpha virt. eigenvalues --    0.10868   0.11713   0.11818   0.12591   0.12959

 Mulliken charges:
               1
     1  F   -0.271793
     2  O   -3.609325
     3  O   -3.609325
     4  P    3.161976
     5  C    0.456648
     6  C    1.945212
     7  C   -1.142452
     8  C   -2.365371
     9  C   -2.365371
    10  C   -1.142452
    11  C    1.945212
    12  C    0.456648
    13  H    1.774590
    14  H    1.495605
    15  H    1.495605
    16  H    1.774590
 Sum of Mulliken charges =  -0.00000

 Dipole moment (field-independent basis, Debye):
    X=             -1.1444    Y=             -3.2553    Z=             -0.0000  Tot=              3.4506

 Test job not archived.
 1\1\GINC-SE080\SP\RHF\Aug-CC-pVDZ\C8H4F1O2P1\OHZDE\08-Apr-2025\0\\#t h
 f aug-cc-pvdz iop(5/13=1,5/36=2,99/5=2) pseudo=read geom=check guess=(
 read,tcheck) scf=(maxcycle=1)\\title\\0,1\F,0,0.568781,3.025641,0.\O,0
 ,0.256686,0.943011,2.458796\O,0,0.256686,0.943011,-2.458796\P,0,-0.617
 093,1.915929,0.\C,0,-0.017984,0.68197,1.314324\C,0,-0.025313,-0.6766,0
 .701534\C,0,0.004746,-1.87698,1.412833\C,0,0.028837,-3.070877,0.701642
 \C,0,0.028837,-3.070877,-0.701642\C,0,0.004746,-1.87698,-1.412833\C,0,
 -0.025313,-0.6766,-0.701534\C,0,-0.017984,0.68197,-1.314324\H,0,0.0172

 Normal termination of Gaussian 16 at Tue Apr  8 23:33:04 2025.
