 Gaussian 16, Revision C.01,

 ----------------------------------------------------------------------
 #t hf aug-cc-pvdz symm=none int=(grid=ultrafine) guess=(read,tcheck) s
 table=(opt,rrhf)
 ----------------------------------------------------------------------
 -----
 title
 -----
 Symbolic Z-matrix:
 Charge =  0 Multiplicity = 1

 SCF Done:  E(RHF) =  -1124.39292122     A.U. after   14 cycles
 Normal termination of Gaussian 16 at Tue Apr  8 23:02:07 2025.
 Gaussian 16:  ES64L-G16RevC.01  3-Jul-2019

 ----------------------------------------------------------------------
 #t hf aug-cc-pvdz iop(5/13=1,5/36=2,99/5=2) pseudo=read geom=check gue
 ss=(read,tcheck) scf=(maxcycle=1)
 ----------------------------------------------------------------------
 -----
 title
 -----
 Structure from the checkpoint file:  "BDE49_expt_1982_mol1.chk"
 Charge =  0 Multiplicity = 1

                         Standard orientation:
 ---------------------------------------------------------------------
 Center     Atomic      Atomic             Coordinates (Angstroms)
 Number     Number       Type             X           Y           Z
 ---------------------------------------------------------------------
      1         16           0        0.769459   -0.544706    0.035678
      2          8           0        1.579058   -1.224415   -0.935609
      3          8           0        0.784011   -0.902329    1.426589
      4          6           0       -0.933758   -0.454841   -0.570222
      5         17           0        1.319628    1.513552   -0.063560
      6          6           0       -1.904516    0.235440    0.382968
      7          1           0       -1.179864   -1.511427   -0.719801
      8          1           0       -0.862007    0.027164   -1.546424
      9          6           0       -3.335489    0.200683   -0.167873
     10          1           0       -1.589996    1.270537    0.535615
     11          1           0       -1.861640   -0.259510    1.355582
     12          1           0       -3.406659    0.712798   -1.131481
     13          1           0       -4.019264    0.697273    0.523703
     14          1           0       -3.687570   -0.825670   -0.304582
 ---------------------------------------------------------------------

 SCF Done:  E(RHF) =  -1126.14070331     A.U. after    2 cycles

 The electronic state is 1-A.
 Alpha  occ. eigenvalues --  -99.91394 -75.93630 -21.08621 -21.08597 -13.56927
 Alpha  occ. eigenvalues --  -13.44708 -13.34035 -11.47133 -11.43000 -11.38908
 Alpha  occ. eigenvalues --  -10.48628  -9.68484  -9.67847  -9.67719  -8.28613
 Alpha  occ. eigenvalues --   -1.86691  -1.68337  -1.32774  -1.26125  -1.09382
 Alpha  occ. eigenvalues --   -0.94036  -0.87671  -0.71450  -0.66819  -0.63133
 Alpha  occ. eigenvalues --   -0.61441  -0.58962  -0.57113  -0.54618  -0.52834
 Alpha  occ. eigenvalues --   -0.50893  -0.50125  -0.45464  -0.45377  -0.41466
 Alpha  occ. eigenvalues --   -0.38848  -0.38224
 Alpha virt. eigenvalues --    0.02489   0.04815   0.05083   0.05327   0.06230
 Alpha virt. eigenvalues --    0.06557   0.07031   0.08093   0.09409   0.10340
 Alpha virt. eigenvalues --    0.11557   0.12851   0.13374   0.14088   0.14638

 Mulliken charges:
               1
     1  S    5.725535
     2  O   -2.518900
     3  O   -2.480191
     4  C   -3.718381
     5  Cl  -0.192347
     6  C   -2.849196
     7  H    1.539047
     8  H    1.460440
     9  C   -3.609695
    10  H    1.429534
    11  H    1.543220
    12  H    1.258598
    13  H    1.149696
    14  H    1.262640
 Sum of Mulliken charges =  -0.00000

 Dipole moment (field-independent basis, Debye):
    X=             -3.1535    Y=             -1.1071    Z=             -0.3662  Tot=              3.3622

 Test job not archived.
 1\1\GINC-SE361\SP\RHF\Aug-CC-pVDZ\C3H7Cl1O2S1\OHZDE\08-Apr-2025\0\\#t
 hf aug-cc-pvdz iop(5/13=1,5/36=2,99/5=2) pseudo=read geom=check guess=
 (read,tcheck) scf=(maxcycle=1)\\title\\0,1\S,0,0.769459,-0.544706,0.03
 5678\O,0,1.579058,-1.224415,-0.935609\O,0,0.784011,-0.902329,1.426589\
 C,0,-0.933758,-0.454841,-0.570222\Cl,0,1.319628,1.513552,-0.06356\C,0,
 -1.904516,0.23544,0.382968\H,0,-1.179864,-1.511427,-0.719801\H,0,-0.86
 2007,0.027164,-1.546424\C,0,-3.335489,0.200683,-0.167873\H,0,-1.589996
 ,1.270537,0.535615\H,0,-1.86164,-0.25951,1.355582\H,0,-3.406659,0.7127

 Normal termination of Gaussian 16 at Tue Apr  8 23:02:12 2025.
