 Gaussian 16, Revision C.01,

 ----------------------------------------------------------------------
 #t hf aug-cc-pvdz symm=none int=(grid=ultrafine) guess=(read,tcheck) s
 table=(opt,rrhf)
 ----------------------------------------------------------------------
 -----
 title
 -----
 Symbolic Z-matrix:
 Charge =  0 Multiplicity = 1

 SCF Done:  E(RHF) =  -674.233743693     A.U. after   13 cycles
 Normal termination of Gaussian 16 at Wed Apr  9 00:11:34 2025.
 Gaussian 16:  ES64L-G16RevC.01  3-Jul-2019

 ----------------------------------------------------------------------
 #t hf aug-cc-pvdz iop(5/13=1,5/36=2,99/5=2) pseudo=read geom=check gue
 ss=(read,tcheck) scf=(maxcycle=1)
 ----------------------------------------------------------------------
 -----
 title
 -----
 Structure from the checkpoint file:  "BDE49_nonexpt_2380_mol1.chk"
 Charge =  0 Multiplicity = 1

                         Standard orientation:
 ---------------------------------------------------------------------
 Center     Atomic      Atomic             Coordinates (Angstroms)
 Number     Number       Type             X           Y           Z
 ---------------------------------------------------------------------
      1         14           0        1.904779   -0.396995   -0.049961
      2         14           0       -0.121269    0.815045    0.004523
      3          6           0       -1.586960   -0.304878    0.470198
      4          1           0       -0.423106    1.390344   -1.331019
      5          1           0       -0.004491    1.913556    0.996905
      6          1           0        2.156589   -1.023247    1.270423
      7          1           0        3.033656    0.509789   -0.369728
      8          7           0       -2.566001   -0.632056   -0.278793
      9          1           0        1.838236   -1.461927   -1.078770
     10          1           0       -2.484352   -0.196016   -1.203509
     11          1           0       -1.601904   -0.731537    1.482191
 ---------------------------------------------------------------------

 SCF Done:  E(RHF) =  -674.988640451     A.U. after    2 cycles

 The electronic state is 1-A.
 Alpha  occ. eigenvalues --  -76.22759 -76.22617 -15.75707 -11.40420  -5.56434
 Alpha  occ. eigenvalues --   -5.56041  -2.20123  -2.18667  -2.18098  -2.18067
 Alpha  occ. eigenvalues --   -2.17933  -2.16862  -1.32862  -0.88812  -0.80515
 Alpha  occ. eigenvalues --   -0.73091  -0.58434  -0.56043  -0.49611  -0.48222
 Alpha  occ. eigenvalues --   -0.47241  -0.44480  -0.37716  -0.33388
 Alpha virt. eigenvalues --    0.03831   0.04337   0.05277   0.05813   0.06913
 Alpha virt. eigenvalues --    0.06987   0.07726   0.08319   0.08602   0.08987
 Alpha virt. eigenvalues --    0.09104   0.09574   0.09881   0.10880   0.13102

 Mulliken charges:
               1
     1  Si   4.817943
     2  Si   4.004526
     3  C   -0.574771
     4  H   -1.635330
     5  H   -1.733021
     6  H   -1.514744
     7  H   -1.576410
     8  N   -2.464319
     9  H   -1.495258
    10  H    0.744240
    11  H    1.427145
 Sum of Mulliken charges =   0.00000

 Dipole moment (field-independent basis, Debye):
    X=              1.1406    Y=              0.6262    Z=             -0.0605  Tot=              1.3026

 Test job not archived.
 1\1\GINC-SE366\SP\RHF\Aug-CC-pVDZ\C1H7N1Si2\OHZDE\09-Apr-2025\0\\#t hf
  aug-cc-pvdz iop(5/13=1,5/36=2,99/5=2) pseudo=read geom=check guess=(r
 ead,tcheck) scf=(maxcycle=1)\\title\\0,1\Si,0,1.904779,-0.396995,-0.04
 9961\Si,0,-0.121269,0.815045,0.004523\C,0,-1.58696,-0.304878,0.470198\
 H,0,-0.423106,1.390344,-1.331019\H,0,-0.004491,1.913556,0.996905\H,0,2
 .156589,-1.023247,1.270423\H,0,3.033656,0.509789,-0.369728\N,0,-2.5660
 01,-0.632056,-0.278793\H,0,1.838236,-1.461927,-1.07877\H,0,-2.484352,-
 0.196016,-1.203509\H,0,-1.601904,-0.731537,1.482191\\Version=ES64L-G16

 Normal termination of Gaussian 16 at Wed Apr  9 00:11:37 2025.
