 Gaussian 16, Revision C.01,

 ----------------------------------------------------------------------
 #t hf aug-cc-pvdz symm=none int=(grid=ultrafine) guess=(read,tcheck) s
 table=(opt,rrhf)
 ----------------------------------------------------------------------
 -----
 title
 -----
 Symbolic Z-matrix:
 Charge =  0 Multiplicity = 1

 SCF Done:  E(RHF) =  -496.933916517     A.U. after   15 cycles
 Normal termination of Gaussian 16 at Wed Apr  9 00:28:33 2025.
 Gaussian 16:  ES64L-G16RevC.01  3-Jul-2019

 ----------------------------------------------------------------------
 #t hf aug-cc-pvdz iop(5/13=1,5/36=2,99/5=2) pseudo=read geom=check gue
 ss=(read,tcheck) scf=(maxcycle=1)
 ----------------------------------------------------------------------
 -----
 title
 -----
 Structure from the checkpoint file:  "BDE49_nonexpt_287_mol1.chk"
 Charge =  0 Multiplicity = 1

                         Standard orientation:
 ---------------------------------------------------------------------
 Center     Atomic      Atomic             Coordinates (Angstroms)
 Number     Number       Type             X           Y           Z
 ---------------------------------------------------------------------
      1          6           0       -0.033754    0.301189    0.405878
      2          7           0       -0.754436   -1.014940    0.232423
      3          5           0        1.534735    0.158045    0.110796
      4          8           0       -0.565412   -1.628675   -0.822543
      5          8           0       -1.494617   -1.392326    1.119720
      6          8           0        2.330882    1.064260    0.738811
      7          8           0        2.054560   -0.752144   -0.745408
      8          1           0       -0.221530    0.582171    1.441756
      9          6           0       -0.669515    1.341827   -0.546332
     10          6           0       -2.157209    1.598509   -0.295003
     11          1           0       -0.507993    1.018247   -1.578495
     12          1           0       -0.100759    2.266241   -0.410737
     13          1           0       -2.758351    0.702737   -0.469179
     14          1           0       -2.525558    2.378744   -0.965461
     15          1           0       -2.334679    1.925428    0.733103
     16          1           0        1.359587   -1.310176   -1.128915
     17          1           0        3.256228    0.972888    0.485098
 ---------------------------------------------------------------------

 SCF Done:  E(RHF) =  -499.093754338     A.U. after    2 cycles

 The electronic state is 1-A.
 Alpha  occ. eigenvalues --  -21.11008 -21.09459 -21.07426 -21.06435 -15.99624
 Alpha  occ. eigenvalues --  -11.47862 -11.42146 -11.38013  -7.66385  -2.00339
 Alpha  occ. eigenvalues --   -1.83352  -1.69830  -1.67380  -1.27762  -1.11004
 Alpha  occ. eigenvalues --   -0.94405  -0.85191  -0.77834  -0.71157  -0.70553
 Alpha  occ. eigenvalues --   -0.65412  -0.63317  -0.60762  -0.58897  -0.57943
 Alpha  occ. eigenvalues --   -0.53019  -0.51034  -0.50276  -0.47876  -0.44943
 Alpha  occ. eigenvalues --   -0.39120  -0.37949  -0.34382  -0.32166  -0.31811
 Alpha virt. eigenvalues --    0.03359   0.04130   0.04791   0.05223   0.06004
 Alpha virt. eigenvalues --    0.06328   0.06995   0.07549   0.08618   0.08914
 Alpha virt. eigenvalues --    0.09205   0.09762   0.12039   0.12739   0.14076

 Mulliken charges:
               1
     1  C   -2.995123
     2  N    4.065841
     3  B    7.805166
     4  O   -2.756353
     5  O   -2.746788
     6  O   -4.353504
     7  O   -4.284424
     8  H    2.491539
     9  C   -2.333475
    10  C   -3.871303
    11  H    1.387898
    12  H    1.271399
    13  H    1.311866
    14  H    1.111094
    15  H    1.268117
    16  H    1.533744
    17  H    1.094308
 Sum of Mulliken charges =   0.00000

 Dipole moment (field-independent basis, Debye):
    X=              0.4099    Y=              1.7690    Z=             -0.3706  Tot=              1.8533

 Test job not archived.
 1\1\GINC-SE329\SP\RHF\Aug-CC-pVDZ\C3H8B1N1O4\OHZDE\09-Apr-2025\0\\#t h
 f aug-cc-pvdz iop(5/13=1,5/36=2,99/5=2) pseudo=read geom=check guess=(
 read,tcheck) scf=(maxcycle=1)\\title\\0,1\C,0,-0.033754,0.301189,0.405
 878\N,0,-0.754436,-1.01494,0.232423\B,0,1.534735,0.158045,0.110796\O,0
 ,-0.565412,-1.628675,-0.822543\O,0,-1.494617,-1.392326,1.11972\O,0,2.3
 30882,1.06426,0.738811\O,0,2.05456,-0.752144,-0.745408\H,0,-0.22153,0.
 582171,1.441756\C,0,-0.669515,1.341827,-0.546332\C,0,-2.157209,1.59851
 ,-0.295003\H,0,-0.507993,1.018247,-1.578495\H,0,-0.100758,2.266241,-0.

 Normal termination of Gaussian 16 at Wed Apr  9 00:28:40 2025.
