 Gaussian 16, Revision C.01,

 ----------------------------------------------------------------------
 #t hf aug-cc-pvdz symm=none int=(grid=ultrafine) guess=(read,tcheck) s
 table=(opt,rrhf)
 ----------------------------------------------------------------------
 -----
 title
 -----
 Symbolic Z-matrix:
 Charge =  0 Multiplicity = 1

 SCF Done:  E(RHF) =  -913.366471654     A.U. after   15 cycles
 Normal termination of Gaussian 16 at Tue Apr  8 23:42:02 2025.
 Gaussian 16:  ES64L-G16RevC.01  3-Jul-2019

 ----------------------------------------------------------------------
 #t hf aug-cc-pvdz iop(5/13=1,5/36=2,99/5=2) pseudo=read geom=check gue
 ss=(read,tcheck) scf=(maxcycle=1)
 ----------------------------------------------------------------------
 -----
 title
 -----
 Structure from the checkpoint file:  "BDE49_nonexpt_1629_mol1.chk"
 Charge =  0 Multiplicity = 1

                         Standard orientation:
 ---------------------------------------------------------------------
 Center     Atomic      Atomic             Coordinates (Angstroms)
 Number     Number       Type             X           Y           Z
 ---------------------------------------------------------------------
      1          6           0        2.251509   -1.233965   -0.126161
      2          6           0        0.929806   -1.179395    0.306995
      3          6           0        0.263824    0.049241    0.420280
      4          6           0        2.935596   -0.059755   -0.434735
      5          6           0        2.288977    1.168356   -0.313666
      6          6           0        0.961643    1.223041    0.104814
      7          1           0        2.749964   -2.192921   -0.212986
      8          1           0        0.412170   -2.097935    0.563365
      9          1           0        0.466402    2.184297    0.186216
     10          1           0        3.967616   -0.101377   -0.764018
     11          1           0        2.816082    2.086105   -0.549878
     12         15           0       -1.472970    0.052437    1.036623
     13         15           0       -2.551042   -0.205430   -0.924611
     14          1           0       -2.402554    1.105794   -1.447569
     15          1           0       -3.838202    0.050083   -0.382800
     16          1           0       -1.599437    1.455705    1.182329
 ---------------------------------------------------------------------

 SCF Done:  E(RHF) =  -914.865532715     A.U. after    2 cycles

 The electronic state is 1-A.
 Alpha  occ. eigenvalues -- -105.18843-105.18561 -11.51882 -11.43467 -11.43261
 Alpha  occ. eigenvalues --  -11.41312 -11.40866 -11.36744  -2.76250  -2.75018
 Alpha  occ. eigenvalues --   -1.52286  -1.50298  -1.46242  -1.44443  -1.43354
 Alpha  occ. eigenvalues --   -1.33160  -1.31403  -1.09640  -1.08054  -0.86748
 Alpha  occ. eigenvalues --   -0.85288  -0.76704  -0.70591  -0.64386  -0.60604
 Alpha  occ. eigenvalues --   -0.58729  -0.57036  -0.50992  -0.49020  -0.45223
 Alpha  occ. eigenvalues --   -0.34604  -0.33551  -0.26085  -0.24814  -0.10270
 Alpha  occ. eigenvalues --   -0.04120   0.03051
 Alpha virt. eigenvalues --    0.04721   0.05224   0.05368   0.06779   0.07207
 Alpha virt. eigenvalues --    0.07685   0.07781   0.09125   0.09612   0.10359
 Alpha virt. eigenvalues --    0.10824   0.10912   0.11742   0.12549   0.13499

 Mulliken charges:
               1
     1  C    0.500996
     2  C   -6.018150
     3  C    7.116081
     4  C   -2.176091
     5  C    0.646678
     6  C   -6.088300
     7  H    0.748056
     8  H   -0.007518
     9  H    0.294987
    10  H    0.718178
    11  H    0.369472
    12  P    4.283573
    13  P    2.817386
    14  H   -1.214424
    15  H   -0.839811
    16  H   -1.151112
 Sum of Mulliken charges =  -0.00000

 Dipole moment (field-independent basis, Debye):
    X=            -20.0979    Y=             -6.1339    Z=              2.4880  Tot=             21.1598

 Test job not archived.
 1\1\GINC-SE009\SP\RHF\Aug-CC-pVDZ\C6H8P2\OHZDE\08-Apr-2025\0\\#t hf au
 g-cc-pvdz iop(5/13=1,5/36=2,99/5=2) pseudo=read geom=check guess=(read
 ,tcheck) scf=(maxcycle=1)\\title\\0,1\C,0,2.251509,-1.233965,-0.126161
 \C,0,0.929806,-1.179395,0.306995\C,0,0.263824,0.049241,0.42028\C,0,2.9
 35596,-0.059755,-0.434735\C,0,2.288977,1.168356,-0.313666\C,0,0.961643
 ,1.223041,0.104814\H,0,2.749964,-2.192921,-0.212986\H,0,0.41217,-2.097
 935,0.563365\H,0,0.466402,2.184297,0.186216\H,0,3.967616,-0.101377,-0.
 764018\H,0,2.816082,2.086105,-0.549878\P,0,-1.47297,0.052437,1.036623\

 Normal termination of Gaussian 16 at Tue Apr  8 23:42:10 2025.
