 Gaussian 16, Revision C.01,

 ----------------------------------------------------------------------
 #t hf aug-cc-pvdz symm=none int=(grid=ultrafine) guess=(read,tcheck) s
 table=opt
 ----------------------------------------------------------------------
 -----
 title
 -----
 Symbolic Z-matrix:
 Charge =  0 Multiplicity = 2

 SCF Done:  E(UHF) =  -453.129178392     A.U. after   15 cycles
 Normal termination of Gaussian 16 at Wed Apr  9 00:16:33 2025.
 Gaussian 16:  ES64L-G16RevC.01  3-Jul-2019

 ----------------------------------------------------------------------
 #t hf aug-cc-pvdz iop(5/13=1,5/36=2,99/5=2) pseudo=read geom=check gue
 ss=(read,tcheck) scf=(maxcycle=1)
 ----------------------------------------------------------------------
 -----
 title
 -----
 Structure from the checkpoint file:  "BDE49_nonexpt_2527_mol2.chk"
 Charge =  0 Multiplicity = 2

                         Standard orientation:
 ---------------------------------------------------------------------
 Center     Atomic      Atomic             Coordinates (Angstroms)
 Number     Number       Type             X           Y           Z
 ---------------------------------------------------------------------
      1          7           0        0.000000    0.000000   -1.010702
      2         16           0       -0.000000   -0.000000    0.634487
      3          1           0        0.000000    0.860823   -1.538438
      4          1           0       -0.000000   -0.860823   -1.538438
 ---------------------------------------------------------------------

 SCF Done:  E(UHF) =  -453.589611879     A.U. after    2 cycles

 The electronic state is 2-B1.
 Alpha  occ. eigenvalues --  -75.70439 -15.79840 -13.15841 -13.02302 -13.02209
 Alpha  occ. eigenvalues --   -8.04173  -1.38220  -1.00057  -0.70408  -0.53671
 Alpha  occ. eigenvalues --   -0.50150  -0.24524  -0.23409
 Alpha virt. eigenvalues --    0.02978   0.05253   0.07311   0.13391   0.14254
 Alpha virt. eigenvalues --    0.15562   0.17735   0.19616   0.21979   0.23472
 Alpha virt. eigenvalues --    0.26071   0.29586   0.30848   0.32032   0.37974

  Beta  occ. eigenvalues --  -75.69625 -15.78679 -13.15611 -13.01814 -12.97173
  Beta  occ. eigenvalues --   -8.03259  -1.35082  -0.93354  -0.69883  -0.50836
  Beta  occ. eigenvalues --   -0.41325  -0.23357
  Beta virt. eigenvalues --    0.03014   0.05266   0.07513   0.07617   0.14477
  Beta virt. eigenvalues --    0.15667   0.16915   0.17861   0.22077   0.22198
  Beta virt. eigenvalues --    0.24102   0.27266   0.30560   0.30826   0.32294

 Mulliken charges and spin densities:
               1          2
     1  N   -2.290600   0.208349
     2  S    1.063452   0.851286
     3  H    0.613574  -0.029817
     4  H    0.613574  -0.029817
 Sum of Mulliken charges =  -0.00000   1.00000

 Dipole moment (field-independent basis, Debye):
    X=             -0.0000    Y=             -0.0000    Z=             -0.9606  Tot=              0.9606
                          Isotropic Fermi Contact Couplings
        Atom                 a.u.       MegaHertz       Gauss      10(-4) cm-1
     1  N(14)              0.07778      25.13081       8.96730       8.38274
     2  S(33)              0.31573     108.44551      38.69605      36.17353
     3  H(1)              -0.00647     -28.91838     -10.31880      -9.64613
     4  H(1)              -0.00647     -28.91838     -10.31880      -9.64613
 --------------------------------------------------------
       Center         ----  Spin Dipole Couplings  ----
                      3XX-RR        3YY-RR        3ZZ-RR
 --------------------------------------------------------

 Normal termination of Gaussian 16 at Wed Apr  9 00:16:35 2025.
