 Gaussian 16, Revision C.01,

 ----------------------------------------------------------------------
 #t hf aug-cc-pvdz symm=none int=(grid=ultrafine) guess=(read,tcheck) s
 table=(opt,rrhf)
 ----------------------------------------------------------------------
 -----
 title
 -----
 Symbolic Z-matrix:
 Charge =  0 Multiplicity = 1

 SCF Done:  E(RHF) =  -701.411060429     A.U. after   16 cycles
 Normal termination of Gaussian 16 at Tue Apr  8 23:18:49 2025.
 Gaussian 16:  ES64L-G16RevC.01  3-Jul-2019

 ----------------------------------------------------------------------
 #t hf aug-cc-pvdz iop(5/13=1,5/36=2,99/5=2) pseudo=read geom=check gue
 ss=(read,tcheck) scf=(maxcycle=1)
 ----------------------------------------------------------------------
 -----
 title
 -----
 Structure from the checkpoint file:  "BDE49_nonexpt_1068_mol1.chk"
 Charge =  0 Multiplicity = 1

                         Standard orientation:
 ---------------------------------------------------------------------
 Center     Atomic      Atomic             Coordinates (Angstroms)
 Number     Number       Type             X           Y           Z
 ---------------------------------------------------------------------
      1         17           0        1.723008   -0.442052    0.036440
      2          8           0        0.547658    0.892594   -0.319442
      3          6           0       -1.540784    0.002408    0.021125
      4          8           0       -2.510763   -0.613773   -0.109073
      5          7           0       -0.620228    0.752839    0.383126
 ---------------------------------------------------------------------

 SCF Done:  E(RHF) =  -702.648935067     A.U. after    2 cycles

 The electronic state is 1-A.
 Alpha  occ. eigenvalues --  -99.96402 -21.19002 -21.18107 -15.82600 -11.61230
 Alpha  occ. eigenvalues --  -10.52994  -9.72744  -9.72079  -9.71982  -1.87063
 Alpha  occ. eigenvalues --   -1.81283  -1.34764  -1.22279  -0.76302  -0.68070
 Alpha  occ. eigenvalues --   -0.66385  -0.65369  -0.58491  -0.58048  -0.52927
 Alpha  occ. eigenvalues --   -0.46483  -0.38862  -0.34480
 Alpha virt. eigenvalues --    0.00835   0.05741   0.08898   0.09975   0.10274
 Alpha virt. eigenvalues --    0.12509   0.13415   0.13671   0.13894   0.17814
 Alpha virt. eigenvalues --    0.17907   0.18683   0.20785   0.23096   0.23909

 Mulliken charges:
               1
     1  Cl   0.319902
     2  O   -1.733143
     3  C    3.912217
     4  O   -2.079573
     5  N   -0.419402
 Sum of Mulliken charges =   0.00000

 Dipole moment (field-independent basis, Debye):
    X=             -3.2086    Y=              0.0905    Z=             -0.9453  Tot=              3.3462

 Test job not archived.
 1\1\GINC-SE461\SP\RHF\Aug-CC-pVDZ\C1Cl1N1O2\OHZDE\08-Apr-2025\0\\#t hf
  aug-cc-pvdz iop(5/13=1,5/36=2,99/5=2) pseudo=read geom=check guess=(r
 ead,tcheck) scf=(maxcycle=1)\\title\\0,1\Cl,0,1.723008,-0.442052,0.036
 44\O,0,0.547658,0.892594,-0.319442\C,0,-1.540784,0.002408,0.021125\O,0
 ,-2.510763,-0.613773,-0.109073\N,0,-0.620228,0.752839,0.383126\\Versio
 n=ES64L-G16RevC.01\State=1-A\HF=-702.6489351\RMSD=4.541e-02\Dipole=-1.
 2623702,0.035598,-0.3719139\Quadrupole=1.1834633,-0.070223,-1.1132403,
 0.6964689,0.2933496,-1.013607\PG=C01 [X(C1Cl1N1O2)]\\@

 Normal termination of Gaussian 16 at Tue Apr  8 23:18:51 2025.
