 Gaussian 16, Revision C.01,

 ----------------------------------------------------------------------
 #t hf aug-cc-pvdz symm=none int=(grid=ultrafine) guess=(read,tcheck) s
 table=(opt,rrhf)
 ----------------------------------------------------------------------
 -----
 title
 -----
 Symbolic Z-matrix:
 Charge =  0 Multiplicity = 1

 SCF Done:  E(RHF) =  -581.028981646     A.U. after   13 cycles
 Normal termination of Gaussian 16 at Wed Apr  9 00:42:45 2025.
 Gaussian 16:  ES64L-G16RevC.01  3-Jul-2019

 ----------------------------------------------------------------------
 #t hf aug-cc-pvdz iop(5/13=1,5/36=2,99/5=2) pseudo=read geom=check gue
 ss=(read,tcheck) scf=(maxcycle=1)
 ----------------------------------------------------------------------
 -----
 title
 -----
 Structure from the checkpoint file:  "BDE49_nonexpt_646_mol1.chk"
 Charge =  0 Multiplicity = 1

                         Standard orientation:
 ---------------------------------------------------------------------
 Center     Atomic      Atomic             Coordinates (Angstroms)
 Number     Number       Type             X           Y           Z
 ---------------------------------------------------------------------
      1          5           0       -2.992454   -0.001659    0.004227
      2          8           0       -3.631635   -1.205403    0.084451
      3          1           0       -4.588901   -1.102410    0.063133
      4          8           0       -3.771968    1.123716   -0.076343
      5          1           0       -3.275567    1.939740   -0.173934
      6          6           0       -1.423754    0.013683    0.004689
      7          6           0       -0.680638    1.201361    0.088283
      8          1           0       -1.186753    2.160639    0.170961
      9          6           0       -0.709392   -1.191542   -0.082306
     10          1           0       -1.259219   -2.123464   -0.147409
     11          6           0        0.709392    1.191540    0.082287
     12          6           0        1.423754   -0.013685   -0.004708
     13          5           0        2.992454    0.001658   -0.004254
     14          8           0        3.631634    1.205406   -0.084413
     15          1           0        4.588900    1.102415   -0.063065
     16          8           0        3.771969   -1.123714    0.076360
     17          1           0        3.275567   -1.939737    0.173950
     18          6           0        0.680638   -1.201363   -0.088302
     19          1           0        1.186753   -2.160641   -0.170981
     20          1           0        1.259219    2.123462    0.147387
 ---------------------------------------------------------------------

 SCF Done:  E(RHF) =  -583.556673464     A.U. after    2 cycles

 The electronic state is 1-A.
 Alpha  occ. eigenvalues --  -21.06418 -21.06417 -21.05431 -21.05430 -11.51917
 Alpha  occ. eigenvalues --  -11.44315 -11.42782 -11.41429 -11.41155 -11.35658
 Alpha  occ. eigenvalues --   -7.66732  -7.65823  -1.82382  -1.81987  -1.65729
 Alpha  occ. eigenvalues --   -1.65636  -1.33966  -1.11121  -1.09266  -0.90016
 Alpha  occ. eigenvalues --   -0.86903  -0.78034  -0.76155  -0.70311  -0.65651
 Alpha  occ. eigenvalues --   -0.64140  -0.60899  -0.60665  -0.57681  -0.54022
 Alpha  occ. eigenvalues --   -0.52403  -0.51749  -0.49360  -0.46713  -0.46139
 Alpha  occ. eigenvalues --   -0.43489  -0.40444  -0.38122  -0.36677  -0.36615
 Alpha  occ. eigenvalues --   -0.35762  -0.33486  -0.32928
 Alpha virt. eigenvalues --    0.02883   0.04647   0.04667   0.04978   0.05121
 Alpha virt. eigenvalues --    0.05307   0.06369   0.06793   0.07732   0.07972
 Alpha virt. eigenvalues --    0.08815   0.09257   0.09681   0.09857   0.10444

 Mulliken charges:
               1
     1  B    4.689046
     2  O   -4.464071
     3  H    1.134679
     4  O   -4.933986
     5  H    1.523548
     6  C   -1.773210
     7  C   -0.441067
     8  H    1.988078
     9  C    0.168135
    10  H    2.108823
    11  C    0.168345
    12  C   -1.773261
    13  B    4.689043
    14  O   -4.464049
    15  H    1.134681
    16  O   -4.934006
    17  H    1.523546
    18  C   -0.441193
    19  H    1.988089
    20  H    2.108831
 Sum of Mulliken charges =   0.00000

 Dipole moment (field-independent basis, Debye):
    X=             -0.0000    Y=              0.0000    Z=             -0.0000  Tot=              0.0000

 Test job not archived.
 1\1\GINC-SE184\SP\RHF\Aug-CC-pVDZ\C6H8B2O4\OHZDE\09-Apr-2025\0\\#t hf
 aug-cc-pvdz iop(5/13=1,5/36=2,99/5=2) pseudo=read geom=check guess=(re
 ad,tcheck) scf=(maxcycle=1)\\title\\0,1\B,0,-2.992454,0.001659,-0.0042
 27\O,0,-3.631635,1.205403,-0.084451\H,0,-4.588901,1.10241,-0.063133\O,
 0,-3.771968,-1.123716,0.076343\H,0,-3.275567,-1.93974,0.173934\C,0,-1.
 423754,-0.013683,-0.004689\C,0,-0.680638,-1.201361,-0.088283\H,0,-1.18
 6753,-2.160639,-0.170961\C,0,-0.709392,1.191542,0.082306\H,0,-1.259219
 ,2.123464,0.147409\C,0,0.709392,-1.19154,-0.082287\C,0,1.423754,0.0136

 Normal termination of Gaussian 16 at Wed Apr  9 00:42:57 2025.
