 Gaussian 16, Revision C.01,

 ----------------------------------------------------------------------
 #t hf aug-cc-pvdz symm=none int=(grid=ultrafine) guess=(read,tcheck) s
 table=opt
 ----------------------------------------------------------------------
 -----
 title
 -----
 Symbolic Z-matrix:
 Charge =  0 Multiplicity = 2

 SCF Done:  E(UHF) =  -696.369260501     A.U. after   22 cycles
 Normal termination of Gaussian 16 at Tue Apr  8 23:53:20 2025.
 Gaussian 16:  ES64L-G16RevC.01  3-Jul-2019

 ----------------------------------------------------------------------
 #t hf aug-cc-pvdz iop(5/13=1,5/36=2,99/5=2) pseudo=read geom=check gue
 ss=(read,tcheck) scf=(maxcycle=1)
 ----------------------------------------------------------------------
 -----
 title
 -----
 Structure from the checkpoint file:  "BDE49_nonexpt_192_mol2.chk"
 Charge =  0 Multiplicity = 2

                         Standard orientation:
 ---------------------------------------------------------------------
 Center     Atomic      Atomic             Coordinates (Angstroms)
 Number     Number       Type             X           Y           Z
 ---------------------------------------------------------------------
      1         17           0       -1.911285   -0.008808   -0.111544
      2          5           0       -0.381499   -0.008100    0.637018
      3          6           0        1.053095    0.132176    0.078230
      4          8           0        1.643912    1.146093   -0.109882
      5          9           0        1.658832   -1.085730   -0.097685
 ---------------------------------------------------------------------

 SCF Done:  E(UHF) =  -697.479542593     A.U. after    2 cycles

 The electronic state is 2-A.
 Alpha  occ. eigenvalues --  -99.94859 -29.31278 -21.11521 -11.53328 -10.52102
 Alpha  occ. eigenvalues --   -9.72016  -9.71590  -9.71340  -7.73476  -1.78304
 Alpha  occ. eigenvalues --   -1.40210  -1.10147  -0.85734  -0.70381  -0.62640
 Alpha  occ. eigenvalues --   -0.61172  -0.58836  -0.55840  -0.44171  -0.38408
 Alpha  occ. eigenvalues --   -0.32033  -0.30604  -0.28690
 Alpha virt. eigenvalues --    0.03378   0.03552   0.03995   0.05589   0.06264
 Alpha virt. eigenvalues --    0.11263   0.12759   0.14298   0.14679   0.14979
 Alpha virt. eigenvalues --    0.15464   0.15965   0.18115   0.19251   0.20855

  Beta  occ. eigenvalues --  -99.94799 -29.31323 -21.10788 -11.53520 -10.52033
  Beta  occ. eigenvalues --   -9.72019  -9.71395  -9.71229  -7.71506  -1.77033
  Beta  occ. eigenvalues --   -1.39341  -1.09046  -0.83269  -0.69578  -0.60909
  Beta  occ. eigenvalues --   -0.59111  -0.58805  -0.54937  -0.44093  -0.30941
  Beta  occ. eigenvalues --   -0.30173  -0.29646
  Beta virt. eigenvalues --    0.01557   0.03834   0.04045   0.04945   0.07335
  Beta virt. eigenvalues --    0.07862   0.11760   0.13278   0.14551   0.15005
  Beta virt. eigenvalues --    0.15596   0.15984   0.16065   0.18475   0.20068

 Mulliken charges and spin densities:
               1          2
     1  Cl  -0.899327   0.064866
     2  B    1.941185   0.899190
     3  C    0.942451  -0.158865
     4  O   -2.514938   0.204660
     5  F    0.530630  -0.009851
 Sum of Mulliken charges =  -0.00000   1.00000

 Dipole moment (field-independent basis, Debye):
    X=              0.4782    Y=             -3.0665    Z=             -0.4271  Tot=              3.1328
                          Isotropic Fermi Contact Couplings
        Atom                 a.u.       MegaHertz       Gauss      10(-4) cm-1
     1  Cl(35)             0.08844      38.77682      13.83653      12.93456
     2  B(11)              0.20951     300.51161     107.23002     100.23988
     3  C(13)              0.00485       5.45399       1.94612       1.81925
     4  O(17)              0.03963     -24.02518      -8.57278      -8.01394
     5  F(19)             -0.00689     -28.99715     -10.34690      -9.67241
 --------------------------------------------------------
       Center         ----  Spin Dipole Couplings  ----
                      3XX-RR        3YY-RR        3ZZ-RR

 1\1\GINC-SE335\SP\UHF\Aug-CC-pVDZ\C1B1Cl1F1O1(2)\OHZDE\08-Apr-2025\0\\
 #t hf aug-cc-pvdz iop(5/13=1,5/36=2,99/5=2) pseudo=read geom=check gue
 ss=(read,tcheck) scf=(maxcycle=1)\\title\\0,2\Cl,0,-1.911285,-0.008807
 ,-0.111544\B,0,-0.381499,-0.0081,0.637018\C,0,1.053095,0.132176,0.0782
 3\O,0,1.643912,1.146093,-0.109882\F,0,1.658832,-1.08573,-0.097685\\Ver
 sion=ES64L-G16RevC.01\State=2-A\HF=-697.4795426\S2=0.775924\S2-1=0.\S2
 A=0.750277\RMSD=3.904e-02\Dipole=0.1881302,-1.2064626,-0.1680268\Quadr
 upole=0.7400087,0.0479131,-0.7879218,-4.141881,0.7152446,0.4476487\PG=

 Normal termination of Gaussian 16 at Tue Apr  8 23:53:22 2025.
