 Gaussian 16, Revision C.01,

 ----------------------------------------------------------------------
 #t hf aug-cc-pvdz symm=none int=(grid=ultrafine) guess=(read,tcheck) s
 table=(opt,rrhf)
 ----------------------------------------------------------------------
 -----
 title
 -----
 Symbolic Z-matrix:
 Charge =  0 Multiplicity = 1

 SCF Done:  E(RHF) =  -1047.03787716     A.U. after   10 cycles
 Normal termination of Gaussian 16 at Tue Apr  8 23:48:15 2025.
 Gaussian 16:  ES64L-G16RevC.01  3-Jul-2019

 ----------------------------------------------------------------------
 #t hf aug-cc-pvdz iop(5/13=1,5/36=2,99/5=2) pseudo=read geom=check gue
 ss=(read,tcheck) scf=(maxcycle=1)
 ----------------------------------------------------------------------
 -----
 title
 -----
 Structure from the checkpoint file:  "BDE49_nonexpt_1803_mol1.chk"
 Charge =  0 Multiplicity = 1

                         Standard orientation:
 ---------------------------------------------------------------------
 Center     Atomic      Atomic             Coordinates (Angstroms)
 Number     Number       Type             X           Y           Z
 ---------------------------------------------------------------------
      1         14           0        0.335838    0.000054   -0.000004
      2          9           0        0.884804   -0.777136   -1.253797
      3          9           0        0.884772   -0.697406    1.299838
      4         17           0       -1.681822   -0.000011   -0.000008
      5          9           0        0.884784    1.474479   -0.046020
 ---------------------------------------------------------------------

 SCF Done:  E(RHF) =  -1048.44777202     A.U. after    2 cycles

 The electronic state is 1-A.
 Alpha  occ. eigenvalues --  -99.93048 -76.36873 -29.32142 -29.32136 -29.32135
 Alpha  occ. eigenvalues --  -10.50653  -9.70459  -9.69760  -9.69760  -5.73994
 Alpha  occ. eigenvalues --   -2.37740  -2.37738  -2.34936  -1.34834  -1.02346
 Alpha  occ. eigenvalues --   -0.75304  -0.75301  -0.66349  -0.58183  -0.58183
 Alpha  occ. eigenvalues --   -0.45351  -0.45210  -0.45209  -0.41334  -0.37722
 Alpha  occ. eigenvalues --   -0.37720  -0.32615  -0.32613  -0.31147
 Alpha virt. eigenvalues --    0.05338   0.07397   0.07398   0.09369   0.13504
 Alpha virt. eigenvalues --    0.14195   0.14195   0.18732   0.18733   0.19929
 Alpha virt. eigenvalues --    0.22376   0.22376   0.23214   0.24814   0.25415

 Mulliken charges:
               1
     1  Si   3.158489
     2  F   -0.806288
     3  F   -0.806284
     4  Cl  -0.739503
     5  F   -0.806413
 Sum of Mulliken charges =  -0.00000

 Dipole moment (field-independent basis, Debye):
    X=              3.1212    Y=              0.0001    Z=              0.0000  Tot=              3.1212

 Test job not archived.
 1\1\GINC-SE344\SP\RHF\Aug-CC-pVDZ\Cl1F3Si1\OHZDE\08-Apr-2025\0\\#t hf
 aug-cc-pvdz iop(5/13=1,5/36=2,99/5=2) pseudo=read geom=check guess=(re
 ad,tcheck) scf=(maxcycle=1)\\title\\0,1\Si,0,0.335838,0.000054,-0.0000
 04\F,0,0.884804,-0.774759,-1.255267\F,0,0.884773,-0.699867,1.298514\Cl
 ,0,-1.681822,-0.000012,-0.000007\F,0,0.884783,1.474564,-0.043227\\Vers
 ion=ES64L-G16RevC.01\State=1-A\HF=-1048.447772\RMSD=4.706e-02\Dipole=1
 .2279617,0.0000539,0.0000059\Quadrupole=-1.0976955,0.5495188,0.5481767
 ,0.0001141,-0.0000369,-0.0000063\PG=C01 [X(Cl1F3Si1)]\\@

 Normal termination of Gaussian 16 at Tue Apr  8 23:48:18 2025.
