 Gaussian 16, Revision C.01,

 ----------------------------------------------------------------------
 #t hf aug-cc-pvdz symm=none int=(grid=ultrafine) guess=(read,tcheck) s
 table=(opt,rrhf)
 ----------------------------------------------------------------------
 -----
 title
 -----
 Symbolic Z-matrix:
 Charge =  0 Multiplicity = 1

 SCF Done:  E(RHF) =  -1215.82812956     A.U. after   17 cycles
 Normal termination of Gaussian 16 at Tue Apr  8 22:56:41 2025.
 Gaussian 16:  ES64L-G16RevC.01  3-Jul-2019

 ----------------------------------------------------------------------
 #t hf aug-cc-pvdz iop(5/13=1,5/36=2,99/5=2) pseudo=read geom=check gue
 ss=(read,tcheck) scf=(maxcycle=1)
 ----------------------------------------------------------------------
 -----
 title
 -----
 Structure from the checkpoint file:  "BDE49_expt_1827_mol1.chk"
 Charge =  0 Multiplicity = 1

                         Standard orientation:
 ---------------------------------------------------------------------
 Center     Atomic      Atomic             Coordinates (Angstroms)
 Number     Number       Type             X           Y           Z
 ---------------------------------------------------------------------
      1          7           0       -3.243970   -0.005209    0.954337
      2          8           0       -2.439548   -0.009642    1.791507
      3         16           0       -2.565186    0.004813   -0.885905
      4          6           0       -0.827400    0.003174   -0.584128
      5          6           0       -0.134239    1.211333   -0.428834
      6          6           0        1.229041    1.214288   -0.157411
      7          6           0        1.898552    0.000157   -0.031951
      8          6           0        1.228915   -1.212527   -0.170001
      9          6           0       -0.134372   -1.206603   -0.441394
     10          1           0       -0.666028    2.149405   -0.528396
     11          1           0        1.768164    2.145518   -0.042290
     12         17           0        3.617668   -0.001692    0.307668
     13          1           0       -0.666256   -2.143533   -0.550721
     14          1           0        1.767934   -2.144964   -0.064569
 ---------------------------------------------------------------------

 SCF Done:  E(RHF) =  -1217.93042527     A.U. after    2 cycles

 The electronic state is 1-A.
 Alpha  occ. eigenvalues --  -99.90653 -75.71771 -21.18510 -15.93537 -13.21211
 Alpha  occ. eigenvalues --  -13.09806 -13.09513 -11.54014 -11.47807 -11.46378
 Alpha  occ. eigenvalues --  -11.45543 -11.43635 -11.39711 -10.48006  -9.68027
 Alpha  occ. eigenvalues --   -9.67127  -9.66960  -8.05636  -1.92387  -1.42095
 Alpha  occ. eigenvalues --   -1.30917  -1.18272  -1.12503  -1.06744  -0.94228
 Alpha  occ. eigenvalues --   -0.90501  -0.84722  -0.72655  -0.67143  -0.63937
 Alpha  occ. eigenvalues --   -0.63588  -0.61027  -0.60633  -0.58486  -0.57829
 Alpha  occ. eigenvalues --   -0.55873  -0.52178  -0.50716  -0.47162  -0.41475
 Alpha  occ. eigenvalues --   -0.36303  -0.35851  -0.26570  -0.25259
 Alpha virt. eigenvalues --    0.02944   0.04942   0.05701   0.06320   0.06658
 Alpha virt. eigenvalues --    0.07059   0.08493   0.09007   0.09604   0.09889
 Alpha virt. eigenvalues --    0.10826   0.12216   0.12297   0.13233   0.13484

 Mulliken charges:
               1
     1  N    1.396001
     2  O   -1.804548
     3  S    0.825354
     4  C    1.946807
     5  C   -1.979400
     6  C   -1.400669
     7  C   -2.148490
     8  C   -1.400910
     9  C   -1.979050
    10  H    1.850636
    11  H    1.827064
    12  Cl  -0.810485
    13  H    1.850617
    14  H    1.827073
 Sum of Mulliken charges =   0.00000

 Dipole moment (field-independent basis, Debye):
    X=             -0.5272    Y=              0.0042    Z=             -0.7528  Tot=              0.9191

 Test job not archived.
 1\1\GINC-SE082\SP\RHF\Aug-CC-pVDZ\C6H4Cl1N1O1S1\OHZDE\08-Apr-2025\0\\#
 t hf aug-cc-pvdz iop(5/13=1,5/36=2,99/5=2) pseudo=read geom=check gues
 s=(read,tcheck) scf=(maxcycle=1)\\title\\0,1\N,0,3.24397,0.005209,0.95
 4337\O,0,2.439548,0.009642,1.791507\S,0,2.565186,-0.004813,-0.885905\C
 ,0,0.8274,-0.003174,-0.584128\C,0,0.134239,-1.211333,-0.428834\C,0,-1.
 229041,-1.214288,-0.157411\C,0,-1.898552,-0.000157,-0.031951\C,0,-1.22
 8915,1.212527,-0.170001\C,0,0.134372,1.206603,-0.441394\H,0,0.666028,-
 2.149405,-0.528396\H,0,-1.768164,-2.145518,-0.04229\Cl,0,-3.617668,0.0

 Normal termination of Gaussian 16 at Tue Apr  8 22:56:48 2025.
