 Gaussian 16, Revision C.01,

 ----------------------------------------------------------------------
 #t hf aug-cc-pvdz symm=none int=(grid=ultrafine) guess=(read,tcheck) s
 table=(opt,rrhf)
 ----------------------------------------------------------------------
 -----
 title
 -----
 Symbolic Z-matrix:
 Charge =  0 Multiplicity = 1

 SCF Done:  E(RHF) =  -1257.17155087     A.U. after   16 cycles
 Normal termination of Gaussian 16 at Tue Apr  8 23:34:00 2025.
 Gaussian 16:  ES64L-G16RevC.01  3-Jul-2019

 ----------------------------------------------------------------------
 #t hf aug-cc-pvdz iop(5/13=1,5/36=2,99/5=2) pseudo=read geom=check gue
 ss=(read,tcheck) scf=(maxcycle=1)
 ----------------------------------------------------------------------
 -----
 title
 -----
 Structure from the checkpoint file:  "BDE49_nonexpt_1360_mol1.chk"
 Charge =  0 Multiplicity = 1

                         Standard orientation:
 ---------------------------------------------------------------------
 Center     Atomic      Atomic             Coordinates (Angstroms)
 Number     Number       Type             X           Y           Z
 ---------------------------------------------------------------------
      1          9           0        1.574742    1.971067   -0.326099
      2         16           0        0.658561   -0.715957    0.483849
      3          8           0        0.862994   -2.085108    0.023091
      4          8           0        0.991981   -0.317359    1.843102
      5         15           0        1.817421    0.499765   -0.998256
      6          6           0       -1.045425   -0.260395    0.180211
      7          6           0       -1.584295    0.834738    0.855268
      8          1           0       -0.980824    1.376155    1.572094
      9          6           0       -2.903891    1.195850    0.600171
     10          1           0       -3.339647    2.041653    1.118793
     11          6           0       -3.664180    0.467189   -0.314337
     12          1           0       -4.692308    0.751746   -0.507059
     13          6           0       -3.112901   -0.628155   -0.978267
     14          1           0       -3.711074   -1.196818   -1.680508
     15          6           0       -1.792966   -0.998663   -0.736022
     16          1           0       -1.347186   -1.853720   -1.227893
     17          6           0        3.434640    0.101141   -0.231954
     18          1           0        3.653720   -0.953417   -0.418422
     19          1           0        3.417608    0.291681    0.842362
     20          1           0        4.203055    0.711452   -0.712179
 ---------------------------------------------------------------------

 SCF Done:  E(RHF) =  -1259.89126500     A.U. after    2 cycles

 The electronic state is 1-A.
 Alpha  occ. eigenvalues -- -105.27559 -75.88021 -29.29035 -21.04817 -21.04750
 Alpha  occ. eigenvalues --  -13.50283 -13.38860 -13.35750 -11.54081 -11.46060
 Alpha  occ. eigenvalues --  -11.45777 -11.43892 -11.43003 -11.39744 -11.39081
 Alpha  occ. eigenvalues --   -8.23075  -2.85813  -1.82408  -1.65147  -1.58823
 Alpha  occ. eigenvalues --   -1.55793  -1.50601  -1.36747  -1.14485  -1.11750
 Alpha  occ. eigenvalues --   -1.04990  -0.97543  -0.89176  -0.85423  -0.79036
 Alpha  occ. eigenvalues --   -0.73347  -0.66083  -0.61792  -0.60890  -0.60204
 Alpha  occ. eigenvalues --   -0.59512  -0.58948  -0.56375  -0.51984  -0.48503
 Alpha  occ. eigenvalues --   -0.48168  -0.47223  -0.44689  -0.40196  -0.38852
 Alpha  occ. eigenvalues --   -0.36136  -0.35897  -0.35351  -0.33937  -0.33643
 Alpha  occ. eigenvalues --   -0.21489  -0.17905  -0.02905
 Alpha virt. eigenvalues --    0.03301   0.04481   0.05072   0.05103   0.06493
 Alpha virt. eigenvalues --    0.06868   0.07470   0.07957   0.08161   0.08989
 Alpha virt. eigenvalues --    0.09349   0.10550   0.11966   0.12071   0.12874

 Mulliken charges:
               1
     1  F   -0.581299
     2  S    4.508360
     3  O   -2.772024
     4  O   -2.686691
     5  P    4.109027
     6  C    3.591876
     7  C   -3.406168
     8  H    1.819572
     9  C   -0.567670
    10  H    1.513447
    11  C   -2.837885
    12  H    1.527037
    13  C   -0.580363
    14  H    1.524835
    15  C   -4.566968
    16  H    1.877496
    17  C   -6.026471
    18  H    1.188721
    19  H    1.205792
    20  H    1.159375
 Sum of Mulliken charges =   0.00000

 Dipole moment (field-independent basis, Debye):
    X=             -1.7479    Y=              5.7072    Z=             -0.6520  Tot=              6.0044

 Test job not archived.
 1\1\GINC-SE009\SP\RHF\Aug-CC-pVDZ\C7H8F1O2P1S1\OHZDE\08-Apr-2025\0\\#t
  hf aug-cc-pvdz iop(5/13=1,5/36=2,99/5=2) pseudo=read geom=check guess
 =(read,tcheck) scf=(maxcycle=1)\\title\\0,1\F,0,1.574742,1.971067,-0.3
 26099\S,0,0.658561,-0.715957,0.483849\O,0,0.862994,-2.085108,0.023091\
 O,0,0.991981,-0.317359,1.843102\P,0,1.817421,0.499765,-0.998256\C,0,-1
 .045425,-0.260395,0.180211\C,0,-1.584295,0.834738,0.855268\H,0,-0.9808
 24,1.376155,1.572094\C,0,-2.903891,1.19585,0.600171\H,0,-3.339647,2.04
 1653,1.118793\C,0,-3.66418,0.467189,-0.314337\H,0,-4.692308,0.751746,-

 Normal termination of Gaussian 16 at Tue Apr  8 23:34:14 2025.
