 Gaussian 16, Revision C.01,

 ----------------------------------------------------------------------
 #t hf aug-cc-pvdz symm=none int=(grid=ultrafine) guess=(read,tcheck) s
 table=(opt,rrhf)
 ----------------------------------------------------------------------
 -----
 title
 -----
 Symbolic Z-matrix:
 Charge =  0 Multiplicity = 1

 SCF Done:  E(RHF) =  -967.930527434     A.U. after   18 cycles
 Normal termination of Gaussian 16 at Tue Apr  8 23:21:26 2025.
 Gaussian 16:  ES64L-G16RevC.01  3-Jul-2019

 ----------------------------------------------------------------------
 #t hf aug-cc-pvdz iop(5/13=1,5/36=2,99/5=2) pseudo=read geom=check gue
 ss=(read,tcheck) scf=(maxcycle=1)
 ----------------------------------------------------------------------
 -----
 title
 -----
 Structure from the checkpoint file:  "BDE49_nonexpt_1088_mol1.chk"
 Charge =  0 Multiplicity = 1

                         Standard orientation:
 ---------------------------------------------------------------------
 Center     Atomic      Atomic             Coordinates (Angstroms)
 Number     Number       Type             X           Y           Z
 ---------------------------------------------------------------------
      1         17           0        2.942211   -0.445483   -0.202446
      2          8           0        1.277317   -0.802471    0.174459
      3          6           0        0.409082    0.255781    0.102486
      4          6           0       -0.966699   -0.044491    0.021091
      5          6           0       -1.914561    0.972677   -0.034487
      6          6           0       -1.521661    2.302125   -0.004467
      7          6           0        0.790727    1.596883    0.121312
      8          1           0        1.841881    1.842650    0.165889
      9          6           0       -0.164584    2.605635    0.073065
     10          1           0        0.162727    3.638411    0.094838
     11          1           0       -2.263735    3.089181   -0.042872
     12          7           0       -1.462568   -1.432084    0.010477
     13          8           0       -2.576498   -1.622178   -0.462992
     14          8           0       -0.745832   -2.298967    0.486796
     15          1           0       -2.954210    0.684826   -0.109732
 ---------------------------------------------------------------------

 SCF Done:  E(RHF) =  -970.403661017     A.U. after    2 cycles

 The electronic state is 1-A.
 Alpha  occ. eigenvalues --  -99.96779 -21.15714 -21.09582 -21.09116 -16.00340
 Alpha  occ. eigenvalues --  -11.57790 -11.50827 -11.48767 -11.46335 -11.44527
 Alpha  occ. eigenvalues --  -11.40913 -10.53453  -9.73383  -9.72673  -9.72391
 Alpha  occ. eigenvalues --   -2.00019  -1.83397  -1.69103  -1.37441  -1.28467
 Alpha  occ. eigenvalues --   -1.19251  -1.11563  -1.00361  -0.90734  -0.85128
 Alpha  occ. eigenvalues --   -0.74926  -0.71105  -0.68970  -0.66842  -0.65600
 Alpha  occ. eigenvalues --   -0.64379  -0.62610  -0.61243  -0.56209  -0.54764
 Alpha  occ. eigenvalues --   -0.53526  -0.50067  -0.47097  -0.45114  -0.37801
 Alpha  occ. eigenvalues --   -0.35414  -0.32274  -0.31257  -0.30400
 Alpha virt. eigenvalues --    0.01829   0.02863   0.04535   0.04997   0.06818
 Alpha virt. eigenvalues --    0.07308   0.08868   0.09535   0.10094   0.11444
 Alpha virt. eigenvalues --    0.12122   0.12373   0.12570   0.13142   0.13453

 Mulliken charges:
               1
     1  Cl   0.314470
     2  O   -3.396671
     3  C    3.589171
     4  C   -0.016944
     5  C   -1.408200
     6  C   -0.330136
     7  C   -2.184051
     8  H    1.817530
     9  C   -0.801231
    10  H    1.525029
    11  H    1.542828
    12  N    3.152745
    13  O   -2.872812
    14  O   -2.772485
    15  H    1.840758
 Sum of Mulliken charges =   0.00000

 Dipole moment (field-independent basis, Debye):
    X=             -0.8462    Y=              2.8702    Z=              0.4253  Tot=              3.0225

 Test job not archived.
 1\1\GINC-SE125\SP\RHF\Aug-CC-pVDZ\C6H4Cl1N1O3\OHZDE\08-Apr-2025\0\\#t
 hf aug-cc-pvdz iop(5/13=1,5/36=2,99/5=2) pseudo=read geom=check guess=
 (read,tcheck) scf=(maxcycle=1)\\title\\0,1\Cl,0,2.942211,-0.445484,-0.
 202446\O,0,1.277317,-0.802471,0.174459\C,0,0.409082,0.255781,0.102486\
 C,0,-0.966699,-0.044491,0.021091\C,0,-1.914561,0.972677,-0.034487\C,0,
 -1.52166,2.302125,-0.004467\C,0,0.790727,1.596883,0.121312\H,0,1.84188
 1,1.842649,0.165889\C,0,-0.164583,2.605635,0.073065\H,0,0.162728,3.638
 411,0.094838\H,0,-2.263734,3.089181,-0.042872\N,0,-1.462568,-1.432084,

 Normal termination of Gaussian 16 at Tue Apr  8 23:21:35 2025.
