 Gaussian 16, Revision C.01,

 ----------------------------------------------------------------------
 #t hf aug-cc-pvdz symm=none int=(grid=ultrafine) guess=(read,tcheck) s
 table=opt
 ----------------------------------------------------------------------
 -----
 title
 -----
 Symbolic Z-matrix:
 Charge =  0 Multiplicity = 2

 SCF Done:  E(UHF) =  -588.876525448     A.U. after   18 cycles
 Normal termination of Gaussian 16 at Tue Apr  8 23:05:53 2025.
 Gaussian 16:  ES64L-G16RevC.01  3-Jul-2019

 ----------------------------------------------------------------------
 #t hf aug-cc-pvdz iop(5/13=1,5/36=2,99/5=2) pseudo=read geom=check gue
 ss=(read,tcheck) scf=(maxcycle=1)
 ----------------------------------------------------------------------
 -----
 title
 -----
 Structure from the checkpoint file:  "BDE49_expt_384_mol2.chk"
 Charge =  0 Multiplicity = 2

                         Standard orientation:
 ---------------------------------------------------------------------
 Center     Atomic      Atomic             Coordinates (Angstroms)
 Number     Number       Type             X           Y           Z
 ---------------------------------------------------------------------
      1          8           0        1.188414    0.830657   -0.177166
      2          6           0        1.315089   -0.532551    0.237722
      3          6           0        0.054913   -1.264797   -0.222701
      4          1           0        1.408877   -0.575279    1.328624
      5          1           0        2.221863   -0.921459   -0.225995
      6         16           0       -1.282055   -0.036406    0.068618
      7          1           0       -0.137246   -2.163988    0.361288
      8          1           0        0.094022   -1.512088   -1.284408
      9          6           0       -0.081239    1.278629    0.075599
     10          1           0       -0.314524    2.222380   -0.403785
 ---------------------------------------------------------------------

 SCF Done:  E(UHF) =  -589.960951437     A.U. after    2 cycles

 The electronic state is 2-A.
 Alpha  occ. eigenvalues --  -75.68640 -21.07993 -13.11512 -13.10030 -13.01866
 Alpha  occ. eigenvalues --  -11.45832 -11.41915 -11.40180  -8.02844  -1.79897
 Alpha  occ. eigenvalues --   -1.22190  -1.10193  -0.87717  -0.84988  -0.69247
 Alpha  occ. eigenvalues --   -0.66862  -0.57060  -0.54135  -0.52949  -0.47033
 Alpha  occ. eigenvalues --   -0.42208  -0.36067  -0.28743  -0.18878
 Alpha virt. eigenvalues --    0.03292   0.04683   0.05534   0.05833   0.06429
 Alpha virt. eigenvalues --    0.07525   0.11253   0.11464   0.12115   0.13519
 Alpha virt. eigenvalues --    0.14432   0.14734   0.15656   0.16116   0.17224

  Beta  occ. eigenvalues --  -75.68578 -21.07517 -13.11498 -13.10194 -13.01330
  Beta  occ. eigenvalues --  -11.45794 -11.40198 -11.39542  -8.02765  -1.78495
  Beta  occ. eigenvalues --   -1.21641  -1.08006  -0.87480  -0.80067  -0.68508
  Beta  occ. eigenvalues --   -0.66354  -0.55659  -0.53008  -0.48886  -0.41743
  Beta  occ. eigenvalues --   -0.39479  -0.34670  -0.24475
  Beta virt. eigenvalues --    0.03246   0.04707   0.05533   0.05803   0.06452
  Beta virt. eigenvalues --    0.07515   0.10764   0.11332   0.11947   0.12398
  Beta virt. eigenvalues --    0.13945   0.14704   0.15169   0.15704   0.16491

 Mulliken charges and spin densities:
               1          2
     1  O   -2.661010   0.066848
     2  C   -1.322671  -0.008881
     3  C   -3.604922   0.030091
     4  H    1.519057  -0.020806
     5  H    1.354178   0.002673
     6  S    1.206659  -0.039566
     7  H    1.361254   0.002828
     8  H    1.407696  -0.002374
     9  C   -0.854193   1.018294
    10  H    1.593953  -0.049106
 Sum of Mulliken charges =  -0.00000   1.00000

 Dipole moment (field-independent basis, Debye):
    X=             -0.3742    Y=             -1.1799    Z=             -0.3478  Tot=              1.2857
                          Isotropic Fermi Contact Couplings
        Atom                 a.u.       MegaHertz       Gauss      10(-4) cm-1
     1  O(17)              0.03687     -22.34767      -7.97420      -7.45438
     2  C(13)             -0.00229      -2.56978      -0.91696      -0.85719
     3  C(13)              0.00013       0.15122       0.05396       0.05044
     4  H(1)               0.00094       4.20034       1.49879       1.40108
     5  H(1)              -0.00049      -2.18032      -0.77799      -0.72728
     6  S(33)              0.12489      42.89631      15.30647      14.30867
     7  H(1)              -0.00065      -2.88412      -1.02913      -0.96204
     8  H(1)               0.00208       9.30339       3.31968       3.10328

 Normal termination of Gaussian 16 at Tue Apr  8 23:05:57 2025.
