 Gaussian 16, Revision C.01,

 ----------------------------------------------------------------------
 #t hf aug-cc-pvdz symm=none int=(grid=ultrafine) guess=(read,tcheck) s
 table=(opt,rrhf)
 ----------------------------------------------------------------------
 -----
 title
 -----
 Symbolic Z-matrix:
 Charge =  0 Multiplicity = 1

 SCF Done:  E(RHF) =  -944.278262361     A.U. after   11 cycles
 Normal termination of Gaussian 16 at Tue Apr  8 23:48:59 2025.
 Gaussian 16:  ES64L-G16RevC.01  3-Jul-2019

 ----------------------------------------------------------------------
 #t hf aug-cc-pvdz iop(5/13=1,5/36=2,99/5=2) pseudo=read geom=check gue
 ss=(read,tcheck) scf=(maxcycle=1)
 ----------------------------------------------------------------------
 -----
 title
 -----
 Structure from the checkpoint file:  "BDE49_nonexpt_1805_mol1.chk"
 Charge =  0 Multiplicity = 1

                         Standard orientation:
 ---------------------------------------------------------------------
 Center     Atomic      Atomic             Coordinates (Angstroms)
 Number     Number       Type             X           Y           Z
 ---------------------------------------------------------------------
      1         14           0       -0.587228    0.559605   -0.000000
      2          6           0        0.174795   -0.276398    1.492943
      3          6           0        0.174795   -1.813057    1.294855
      4          1           0       -0.348493   -0.002107    2.413737
      5          1           0        1.205359    0.082620    1.600376
      6          6           0        0.867825   -2.274454    0.000000
      7          1           0       -0.857834   -2.184922    1.296240
      8          1           0        0.664485   -2.286512    2.152456
      9          6           0        0.174795   -1.813057   -1.294855
     10          1           0        0.919268   -3.368210    0.000000
     11          1           0        1.906640   -1.919236    0.000000
     12          6           0        0.174795   -0.276398   -1.492943
     13          1           0       -0.857834   -2.184922   -1.296240
     14          1           0        0.664485   -2.286512   -2.152456
     15          1           0        1.205359    0.082620   -1.600376
     16          1           0       -0.348493   -0.002107   -2.413737
     17         17           0       -0.192468    2.619149    0.000000
     18          1           0       -2.061824    0.429477   -0.000000
 ---------------------------------------------------------------------

 SCF Done:  E(RHF) =  -945.693852100     A.U. after    2 cycles

 The electronic state is 1-A'.
 Alpha  occ. eigenvalues --  -99.87055 -76.23387 -11.43527 -11.42234 -11.38553
 Alpha  occ. eigenvalues --  -11.35926 -11.34750 -10.44423  -9.64367  -9.63809
 Alpha  occ. eigenvalues --   -9.63774  -5.57351  -2.21189  -2.20867  -2.19514
 Alpha  occ. eigenvalues --   -1.28443  -1.25871  -1.11848  -1.01318  -0.88187
 Alpha  occ. eigenvalues --   -0.82192  -0.72645  -0.64976  -0.61833  -0.61332
 Alpha  occ. eigenvalues --   -0.57927  -0.54761  -0.53129  -0.52650  -0.51813
 Alpha  occ. eigenvalues --   -0.48252  -0.45820  -0.45552  -0.45325  -0.40574
 Alpha  occ. eigenvalues --   -0.36050
 Alpha virt. eigenvalues --    0.03606   0.05373   0.05418   0.05558   0.05670
 Alpha virt. eigenvalues --    0.05696   0.06031   0.06088   0.06361   0.08204
 Alpha virt. eigenvalues --    0.08368   0.09454   0.09593   0.11300   0.12153

 Mulliken charges:
               1
     1  Si   5.125721
     2  C   -3.527419
     3  C   -2.560749
     4  H    1.288831
     5  H    1.291773
     6  C   -3.035492
     7  H    1.359611
     8  H    1.268516
     9  C   -2.560749
    10  H    1.280145
    11  H    1.511271
    12  C   -3.527419
    13  H    1.359611
    14  H    1.268516
    15  H    1.291773
    16  H    1.288831
    17  Cl  -0.885834
    18  H   -2.236938
 Sum of Mulliken charges =  -0.00000

 Dipole moment (field-independent basis, Debye):
    X=              0.5373    Y=             -2.6799    Z=              0.0000  Tot=              2.7332

 Test job not archived.
 1\1\GINC-SE345\SP\RHF\Aug-CC-pVDZ\C5H11Cl1Si1\OHZDE\08-Apr-2025\0\\#t
 hf aug-cc-pvdz iop(5/13=1,5/36=2,99/5=2) pseudo=read geom=check guess=
 (read,tcheck) scf=(maxcycle=1)\\title\\0,1\Si,0,0.651474,0.,0.483297\C
 ,0,-0.302138,-1.492943,-0.125147\C,0,-1.816329,-1.294855,0.136666\H,0,
 0.057299,-2.413737,0.343756\H,0,-0.123955,-1.600376,-1.201812\C,0,-2.3
 89057,0.,-0.467619\H,0,-2.006819,-1.29624,1.217554\H,0,-2.366294,-2.15
 2456,-0.265198\C,0,-1.816329,1.294855,0.136666\H,0,-3.475586,0.,-0.331
 958\H,0,-2.216024,0.,-1.551767\C,0,-0.302138,1.492943,-0.125147\H,0,-2

 Normal termination of Gaussian 16 at Tue Apr  8 23:49:04 2025.
