 Gaussian 16, Revision C.01,

 ----------------------------------------------------------------------
 #t hf aug-cc-pvdz symm=none int=(grid=ultrafine) guess=(read,tcheck) s
 table=(opt,rrhf)
 ----------------------------------------------------------------------
 -----
 title
 -----
 Symbolic Z-matrix:
 Charge =  0 Multiplicity = 1

 SCF Done:  E(RHF) =  -667.583529576     A.U. after   14 cycles
 Normal termination of Gaussian 16 at Tue Apr  8 23:07:28 2025.
 Gaussian 16:  ES64L-G16RevC.01  3-Jul-2019

 ----------------------------------------------------------------------
 #t hf aug-cc-pvdz iop(5/13=1,5/36=2,99/5=2) pseudo=read geom=check gue
 ss=(read,tcheck) scf=(maxcycle=1)
 ----------------------------------------------------------------------
 -----
 title
 -----
 Structure from the checkpoint file:  "BDE49_expt_389_mol1.chk"
 Charge =  0 Multiplicity = 1

                         Standard orientation:
 ---------------------------------------------------------------------
 Center     Atomic      Atomic             Coordinates (Angstroms)
 Number     Number       Type             X           Y           Z
 ---------------------------------------------------------------------
      1          8           0        0.035419    1.211169   -0.498793
      2          6           0       -1.283895    1.239734    0.025465
      3          6           0       -1.885015   -0.148629   -0.190294
      4          1           0       -1.821109    2.016175   -0.522259
      5          1           0       -1.283991    1.494083    1.093048
      6         16           0       -0.512344   -1.286049    0.227429
      7          1           0       -2.192174   -0.292523   -1.227057
      8          1           0       -2.730088   -0.337876    0.472666
      9          6           0        0.771683    0.087767   -0.030404
     10          6           0        1.760324   -0.290286   -1.125724
     11          1           0        2.452459    0.540174   -1.293934
     12          1           0        1.230036   -0.501196   -2.054286
     13          1           0        2.338189   -1.172146   -0.841297
     14          6           0        1.467590    0.397317    1.295857
     15          1           0        0.752409    0.729042    2.049543
     16          1           0        2.210410    1.185824    1.141650
     17          1           0        1.973899   -0.489550    1.683996
 ---------------------------------------------------------------------

 SCF Done:  E(RHF) =  -669.119392838     A.U. after    2 cycles

 The electronic state is 1-A.
 Alpha  occ. eigenvalues --  -75.66687 -21.05147 -13.12767 -13.10270 -13.03439
 Alpha  occ. eigenvalues --  -11.47596 -11.45335 -11.39524 -11.39258 -11.36158
 Alpha  occ. eigenvalues --   -8.00739  -1.77840  -1.21662  -1.17986  -1.02082
 Alpha  occ. eigenvalues --   -1.00362  -0.86287  -0.77630  -0.67381  -0.65388
 Alpha  occ. eigenvalues --   -0.60462  -0.59559  -0.58685  -0.54734  -0.53395
 Alpha  occ. eigenvalues --   -0.49211  -0.46474  -0.42344  -0.40369  -0.33705
 Alpha  occ. eigenvalues --   -0.29560  -0.22500
 Alpha virt. eigenvalues --    0.03718   0.04474   0.05417   0.05582   0.05958
 Alpha virt. eigenvalues --    0.06054   0.06592   0.07189   0.08355   0.08922
 Alpha virt. eigenvalues --    0.09423   0.11324   0.12344   0.13074   0.14106

 Mulliken charges:
               1
     1  O   -3.754982
     2  C   -1.925197
     3  C   -3.676682
     4  H    1.320884
     5  H    1.693801
     6  S    0.694214
     7  H    1.455522
     8  H    1.354226
     9  C    3.783423
    10  C   -4.182500
    11  H    1.241966
    12  H    1.387555
    13  H    1.190435
    14  C   -4.468208
    15  H    1.461391
    16  H    1.191183
    17  H    1.232970
 Sum of Mulliken charges =  -0.00000

 Dipole moment (field-independent basis, Debye):
    X=             -0.4117    Y=             -0.3247    Z=              0.1427  Tot=              0.5434

 Test job not archived.
 1\1\GINC-SE163\SP\RHF\Aug-CC-pVDZ\C5H10O1S1\OHZDE\08-Apr-2025\0\\#t hf
  aug-cc-pvdz iop(5/13=1,5/36=2,99/5=2) pseudo=read geom=check guess=(r
 ead,tcheck) scf=(maxcycle=1)\\title\\0,1\O,0,0.035419,1.211169,-0.4987
 93\C,0,-1.283895,1.239734,0.025465\C,0,-1.885015,-0.148629,-0.190294\H
 ,0,-1.821109,2.016175,-0.522259\H,0,-1.283991,1.494083,1.093048\S,0,-0
 .512344,-1.286049,0.227429\H,0,-2.192174,-0.292523,-1.227057\H,0,-2.73
 0088,-0.337876,0.472666\C,0,0.771683,0.087767,-0.030404\C,0,1.760324,-
 0.290286,-1.125724\H,0,2.452459,0.540174,-1.293934\H,0,1.230036,-0.501

 Normal termination of Gaussian 16 at Tue Apr  8 23:07:35 2025.
