 Gaussian 16, Revision C.01,

 ----------------------------------------------------------------------
 #t hf aug-cc-pvdz symm=none int=(grid=ultrafine) guess=(read,tcheck) s
 table=(opt,rrhf)
 ----------------------------------------------------------------------
 -----
 title
 -----
 Symbolic Z-matrix:
 Charge =  0 Multiplicity = 1

 SCF Done:  E(RHF) =  -356.134851851     A.U. after   15 cycles
 Normal termination of Gaussian 16 at Wed Apr  9 00:37:52 2025.
 Gaussian 16:  ES64L-G16RevC.01  3-Jul-2019

 ----------------------------------------------------------------------
 #t hf aug-cc-pvdz iop(5/13=1,5/36=2,99/5=2) pseudo=read geom=check gue
 ss=(read,tcheck) scf=(maxcycle=1)
 ----------------------------------------------------------------------
 -----
 title
 -----
 Structure from the checkpoint file:  "BDE49_nonexpt_53_mol1.chk"
 Charge =  0 Multiplicity = 1

                         Standard orientation:
 ---------------------------------------------------------------------
 Center     Atomic      Atomic             Coordinates (Angstroms)
 Number     Number       Type             X           Y           Z
 ---------------------------------------------------------------------
      1          5           0       -2.587185   -0.389668   -0.056294
      2          5           0       -2.719056    1.060985    0.764913
      3          8           0       -1.435952   -1.007921   -0.451333
      4          6           0       -0.181967   -0.460729   -0.251256
      5          6           0        0.834986   -1.314993    0.168894
      6          6           0        0.076991    0.888031   -0.489475
      7          6           0        2.112735   -0.806374    0.378048
      8          6           0        2.380112    0.546153    0.163879
      9          6           0        1.361190    1.387864   -0.272292
     10          1           0        0.606478   -2.361121    0.331123
     11          1           0        2.902439   -1.469403    0.712550
     12          1           0        3.377359    0.937054    0.327106
     13          1           0        1.562471    2.436533   -0.458610
     14          1           0       -0.705811    1.531907   -0.875091
     15          1           0       -2.613353    1.122818    1.954403
     16          1           0       -3.033710    2.077173    0.218166
     17          1           0       -3.581326   -1.007890   -0.328863
 ---------------------------------------------------------------------

 SCF Done:  E(RHF) =  -357.781021612     A.U. after    2 cycles

 The electronic state is 1-A.
 Alpha  occ. eigenvalues --  -21.05830 -11.54030 -11.46304 -11.43558 -11.41449
 Alpha  occ. eigenvalues --  -11.40979 -11.37275  -7.61260  -7.59968  -1.80765
 Alpha  occ. eigenvalues --   -1.32932  -1.10349  -1.08524  -0.92100  -0.87649
 Alpha  occ. eigenvalues --   -0.84931  -0.74475  -0.69399  -0.63951  -0.60729
 Alpha  occ. eigenvalues --   -0.59182  -0.56741  -0.54935  -0.49124  -0.48214
 Alpha  occ. eigenvalues --   -0.46384  -0.46121  -0.41834  -0.35275  -0.34039
 Alpha  occ. eigenvalues --   -0.30506
 Alpha virt. eigenvalues --    0.02830   0.03131   0.03249   0.03374   0.05478
 Alpha virt. eigenvalues --    0.05524   0.06623   0.07649   0.07741   0.08097
 Alpha virt. eigenvalues --    0.09379   0.09774   0.10903   0.11232   0.11508

 Mulliken charges:
               1
     1  B    5.666554
     2  B    4.285269
     3  O   -5.958794
     4  C    7.044441
     5  C   -3.897266
     6  C   -3.751857
     7  C    0.088782
     8  C   -2.494780
     9  C   -0.719091
    10  H    1.802783
    11  H    1.509791
    12  H    1.561183
    13  H    1.481559
    14  H    2.157854
    15  H   -3.000436
    16  H   -2.317244
    17  H   -3.458747
 Sum of Mulliken charges =   0.00000

 Dipole moment (field-independent basis, Debye):
    X=              1.4627    Y=              0.0921    Z=             -0.0007  Tot=              1.4656

 Test job not archived.
 1\1\GINC-SE328\SP\RHF\Aug-CC-pVDZ\C6H8B2O1\OHZDE\09-Apr-2025\0\\#t hf
 aug-cc-pvdz iop(5/13=1,5/36=2,99/5=2) pseudo=read geom=check guess=(re
 ad,tcheck) scf=(maxcycle=1)\\title\\0,1\B,0,-2.587185,-0.389668,-0.056
 294\B,0,-2.719056,1.060985,0.764913\O,0,-1.435952,-1.007921,-0.451333\
 C,0,-0.181967,-0.460729,-0.251256\C,0,0.834986,-1.314993,0.168894\C,0,
 0.076991,0.888031,-0.489475\C,0,2.112735,-0.806374,0.378048\C,0,2.3801
 12,0.546153,0.163879\C,0,1.36119,1.387864,-0.272292\H,0,0.606478,-2.36
 1121,0.331123\H,0,2.902439,-1.469403,0.71255\H,0,3.377359,0.937054,0.3

 Normal termination of Gaussian 16 at Wed Apr  9 00:37:59 2025.
