 Gaussian 16, Revision C.01,

 ----------------------------------------------------------------------
 #t hf aug-cc-pvdz symm=none int=(grid=ultrafine) guess=(read,tcheck) s
 table=(opt,rrhf)
 ----------------------------------------------------------------------
 -----
 title
 -----
 Symbolic Z-matrix:
 Charge =  0 Multiplicity = 1

 SCF Done:  E(RHF) =  -867.778392904     A.U. after   16 cycles
 Normal termination of Gaussian 16 at Tue Apr  8 23:38:46 2025.
 Gaussian 16:  ES64L-G16RevC.01  3-Jul-2019

 ----------------------------------------------------------------------
 #t hf aug-cc-pvdz iop(5/13=1,5/36=2,99/5=2) pseudo=read geom=check gue
 ss=(read,tcheck) scf=(maxcycle=1)
 ----------------------------------------------------------------------
 -----
 title
 -----
 Structure from the checkpoint file:  "BDE49_nonexpt_1515_mol1.chk"
 Charge =  0 Multiplicity = 1

                         Standard orientation:
 ---------------------------------------------------------------------
 Center     Atomic      Atomic             Coordinates (Angstroms)
 Number     Number       Type             X           Y           Z
 ---------------------------------------------------------------------
      1         15           0       -0.202652    0.062110   -0.865971
      2          7           0       -1.299444    1.342536    0.035899
      3          7           0       -0.626493   -1.397799   -0.065395
      4          8           0       -1.092445    2.511785   -0.229222
      5          8           0       -2.161470    0.934916    0.813268
      6          8           0       -0.745167   -1.420032    1.330237
      7          8           0       -1.787804   -1.954455   -0.661922
      8          6           0        1.310565    0.500271    0.100849
      9          6           0        2.531551   -0.327190   -0.331556
     10          1           0        1.110373    0.372735    1.167322
     11          1           0        1.475081    1.564842   -0.093446
     12          6           0        3.802364    0.097315    0.411462
     13          1           0        2.684573   -0.220758   -1.411288
     14          1           0        2.333151   -1.386670   -0.147025
     15          1           0        4.040871    1.147708    0.220600
     16          1           0        4.658375   -0.503287    0.093804
     17          1           0        3.688074   -0.028673    1.491837
     18          1           0       -1.564762   -2.890267   -0.751710
     19          1           0       -1.476169   -0.800524    1.522532
 ---------------------------------------------------------------------

 SCF Done:  E(RHF) =  -870.284232156     A.U. after    2 cycles

 The electronic state is 1-A.
 Alpha  occ. eigenvalues -- -105.26754 -21.12564 -21.11578 -21.10705 -21.09806
 Alpha  occ. eigenvalues --  -15.97848 -15.82415 -11.44404 -11.40759 -11.37402
 Alpha  occ. eigenvalues --   -2.84713  -1.98996  -1.88978  -1.70648  -1.69493
 Alpha  occ. eigenvalues --   -1.59597  -1.56384  -1.52316  -1.22283  -1.07303
 Alpha  occ. eigenvalues --   -0.99092  -0.92115  -0.86429  -0.75904  -0.69460
 Alpha  occ. eigenvalues --   -0.66548  -0.65785  -0.61731  -0.61228  -0.59261
 Alpha  occ. eigenvalues --   -0.58070  -0.56536  -0.54479  -0.53370  -0.49127
 Alpha  occ. eigenvalues --   -0.48707  -0.45034  -0.36510  -0.33840  -0.33129
 Alpha  occ. eigenvalues --   -0.32033  -0.26076  -0.23804  -0.04937
 Alpha virt. eigenvalues --    0.03881   0.04745   0.05498   0.05844   0.05921
 Alpha virt. eigenvalues --    0.06520   0.07343   0.08024   0.08507   0.09534
 Alpha virt. eigenvalues --    0.10197   0.11596   0.12220   0.12926   0.14192

 Mulliken charges:
               1
     1  P    4.300529
     2  N    3.496892
     3  N    1.805217
     4  O   -2.691431
     5  O   -2.384202
     6  O   -2.368215
     7  O   -2.381149
     8  C   -4.164300
     9  C   -2.704628
    10  H    1.501590
    11  H    1.468382
    12  C   -4.040324
    13  H    1.385765
    14  H    1.451896
    15  H    1.255238
    16  H    1.176239
    17  H    1.179930
    18  H    0.841803
    19  H    0.870768
 Sum of Mulliken charges =  -0.00000

 Dipole moment (field-independent basis, Debye):
    X=              0.3459    Y=             -2.2390    Z=             -1.3631  Tot=              2.6440

 Test job not archived.
 1\1\GINC-SE126\SP\RHF\Aug-CC-pVDZ\C3H9N2O4P1\OHZDE\08-Apr-2025\0\\#t h
 f aug-cc-pvdz iop(5/13=1,5/36=2,99/5=2) pseudo=read geom=check guess=(
 read,tcheck) scf=(maxcycle=1)\\title\\0,1\P,0,-0.202652,0.06211,-0.865
 971\N,0,-1.299444,1.342536,0.035899\N,0,-0.626493,-1.397799,-0.065395\
 O,0,-1.092445,2.511785,-0.229222\O,0,-2.16147,0.934916,0.813268\O,0,-0
 .745167,-1.420032,1.330237\O,0,-1.787804,-1.954455,-0.661922\C,0,1.310
 565,0.500271,0.100849\C,0,2.531551,-0.32719,-0.331556\H,0,1.110373,0.3
 72735,1.167322\H,0,1.475081,1.564842,-0.093446\C,0,3.802364,0.097315,0

 Normal termination of Gaussian 16 at Tue Apr  8 23:38:56 2025.
