 Gaussian 16, Revision C.01,

 ----------------------------------------------------------------------
 #t hf aug-cc-pvdz symm=none int=(grid=ultrafine) guess=(read,tcheck) s
 table=(opt,rrhf)
 ----------------------------------------------------------------------
 -----
 title
 -----
 Symbolic Z-matrix:
 Charge =  0 Multiplicity = 1

 SCF Done:  E(RHF) =  -617.666639927     A.U. after   14 cycles
 Normal termination of Gaussian 16 at Tue Apr  8 23:31:07 2025.
 Gaussian 16:  ES64L-G16RevC.01  3-Jul-2019

 ----------------------------------------------------------------------
 #t hf aug-cc-pvdz iop(5/13=1,5/36=2,99/5=2) pseudo=read geom=check gue
 ss=(read,tcheck) scf=(maxcycle=1)
 ----------------------------------------------------------------------
 -----
 title
 -----
 Structure from the checkpoint file:  "BDE49_nonexpt_136_mol1.chk"
 Charge =  0 Multiplicity = 1

                         Standard orientation:
 ---------------------------------------------------------------------
 Center     Atomic      Atomic             Coordinates (Angstroms)
 Number     Number       Type             X           Y           Z
 ---------------------------------------------------------------------
      1          5           0       -2.692037   -0.012386   -0.077087
      2          5           0       -1.315293   -0.829285   -0.367772
      3         15           0        0.382507   -0.074889    0.100968
      4          8           0        1.348055   -0.078057   -1.202568
      5          8           0        0.076741    1.499843    0.212520
      6          1           0        1.909634   -0.863307   -1.218504
      7          1           0        0.857231    2.034165    0.411549
      8          8           0        0.976618   -0.738896    1.276267
      9          1           0       -1.244365   -1.926372   -0.826295
     10          1           0       -3.244181   -0.039170    0.981111
     11          1           0       -3.190593    0.663254   -0.927846
 ---------------------------------------------------------------------

 SCF Done:  E(RHF) =  -619.020640026     A.U. after    2 cycles

 The electronic state is 1-A.
 Alpha  occ. eigenvalues -- -105.29375 -21.11639 -21.11444 -21.01906  -7.62758
 Alpha  occ. eigenvalues --   -7.61164  -2.91531  -1.96381  -1.87861  -1.80064
 Alpha  occ. eigenvalues --   -1.54040  -1.39715  -1.25445  -0.93149  -0.74224
 Alpha  occ. eigenvalues --   -0.66334  -0.60926  -0.52592  -0.49660  -0.45604
 Alpha  occ. eigenvalues --   -0.44103  -0.41180  -0.34251  -0.34044  -0.29631
 Alpha  occ. eigenvalues --   -0.22121  -0.14090
 Alpha virt. eigenvalues --    0.02496   0.02983   0.03121   0.03960   0.05865
 Alpha virt. eigenvalues --    0.06673   0.07595   0.08970   0.09794   0.10034
 Alpha virt. eigenvalues --    0.11015   0.12075   0.12328   0.13136   0.14106

 Mulliken charges:
               1
     1  B    5.845244
     2  B    0.889153
     3  P    7.180858
     4  O   -2.876984
     5  O   -2.795137
     6  H    0.841476
     7  H    0.906595
     8  O   -2.814636
     9  H   -2.168466
    10  H   -2.567656
    11  H   -2.440446
 Sum of Mulliken charges =  -0.00000

 Dipole moment (field-independent basis, Debye):
    X=              1.0803    Y=              1.4251    Z=             -2.2627  Tot=              2.8840

 Test job not archived.
 1\1\GINC-SE127\SP\RHF\Aug-CC-pVDZ\B2H5O3P1\OHZDE\08-Apr-2025\0\\#t hf
 aug-cc-pvdz iop(5/13=1,5/36=2,99/5=2) pseudo=read geom=check guess=(re
 ad,tcheck) scf=(maxcycle=1)\\title\\0,1\B,0,-2.692037,-0.012386,-0.077
 087\B,0,-1.315293,-0.829285,-0.367772\P,0,0.382507,-0.074889,0.100968\
 O,0,1.348055,-0.078057,-1.202568\O,0,0.076741,1.499843,0.21252\H,0,1.9
 09634,-0.863307,-1.218504\H,0,0.857231,2.034165,0.411549\O,0,0.976618,
 -0.738896,1.276267\H,0,-1.244365,-1.926372,-0.826295\H,0,-3.244181,-0.
 03917,0.981111\H,0,-3.190593,0.663254,-0.927846\\Version=ES64L-G16RevC

 Normal termination of Gaussian 16 at Tue Apr  8 23:31:11 2025.
