 Gaussian 16, Revision C.01,

 ----------------------------------------------------------------------
 #t hf aug-cc-pvdz symm=none int=(grid=ultrafine) guess=(read,tcheck) s
 table=(opt,rrhf)
 ----------------------------------------------------------------------
 -----
 title
 -----
 Symbolic Z-matrix:
 Charge =  0 Multiplicity = 1

 SCF Done:  E(RHF) =  -1606.70462820     A.U. after   13 cycles
 Normal termination of Gaussian 16 at Wed Apr  9 00:16:35 2025.
 Gaussian 16:  ES64L-G16RevC.01  3-Jul-2019

 ----------------------------------------------------------------------
 #t hf aug-cc-pvdz iop(5/13=1,5/36=2,99/5=2) pseudo=read geom=check gue
 ss=(read,tcheck) scf=(maxcycle=1)
 ----------------------------------------------------------------------
 -----
 title
 -----
 Structure from the checkpoint file:  "BDE49_nonexpt_2533_mol1.chk"
 Charge =  0 Multiplicity = 1

                         Standard orientation:
 ---------------------------------------------------------------------
 Center     Atomic      Atomic             Coordinates (Angstroms)
 Number     Number       Type             X           Y           Z
 ---------------------------------------------------------------------
      1         17           0        1.931598   -0.870440    0.194129
      2         16           0        1.048965    0.889932   -0.491372
      3         14           0       -0.858999    0.748303    0.497239
      4         17           0       -2.085804   -0.732575   -0.266773
      5          1           0       -0.677077    0.472601    1.929098
      6          1           0       -1.458883    2.063492    0.206447
 ---------------------------------------------------------------------

 SCF Done:  E(RHF) =  -1607.56450151     A.U. after    2 cycles

 The electronic state is 1-A.
 Alpha  occ. eigenvalues --  -99.92260 -99.90034 -76.30497 -75.74744 -13.13709
 Alpha  occ. eigenvalues --  -13.10267 -13.07932 -10.49319 -10.47465  -9.69059
 Alpha  occ. eigenvalues --   -9.68463  -9.68330  -9.67324  -9.66668  -9.66650
 Alpha  occ. eigenvalues --   -8.08624  -5.63909  -2.26151  -2.25542  -2.25103
 Alpha  occ. eigenvalues --   -1.34818  -1.30496  -1.08253  -0.79220  -0.59292
 Alpha  occ. eigenvalues --   -0.58339  -0.57790  -0.55929  -0.55503  -0.53833
 Alpha  occ. eigenvalues --   -0.49392  -0.37316  -0.30147
 Alpha virt. eigenvalues --    0.01947   0.04024   0.04689   0.05207   0.05747
 Alpha virt. eigenvalues --    0.08867   0.10016   0.10909   0.12273   0.12745
 Alpha virt. eigenvalues --    0.12988   0.13521   0.14651   0.15281   0.15791

 Mulliken charges:
               1
     1  Cl  -0.402954
     2  S   -0.996956
     3  Si   5.791851
     4  Cl  -0.885273
     5  H   -1.752661
     6  H   -1.754008
 Sum of Mulliken charges =  -0.00000

 Dipole moment (field-independent basis, Debye):
    X=              0.4253    Y=              3.5178    Z=             -1.0350  Tot=              3.6915

 Test job not archived.
 1\1\GINC-SE423\SP\RHF\Aug-CC-pVDZ\Cl2H2S1Si1\OHZDE\09-Apr-2025\0\\#t h
 f aug-cc-pvdz iop(5/13=1,5/36=2,99/5=2) pseudo=read geom=check guess=(
 read,tcheck) scf=(maxcycle=1)\\title\\0,1\Cl,0,1.931598,-0.87044,0.194
 129\S,0,1.048965,0.889932,-0.491372\Si,0,-0.858999,0.748303,0.497239\C
 l,0,-2.085804,-0.732574,-0.266773\H,0,-0.677077,0.472601,1.929098\H,0,
 -1.458883,2.063492,0.206447\\Version=ES64L-G16RevC.01\State=1-A\HF=-16
 07.5645015\RMSD=8.230e-02\Dipole=0.1673345,1.384004,-0.4072145\Quadrup
 ole=-2.0694429,2.555981,-0.4865381,1.0793721,-2.039646,-1.6506499\PG=C

 Normal termination of Gaussian 16 at Wed Apr  9 00:16:37 2025.
