 Gaussian 16, Revision C.01,

 ----------------------------------------------------------------------
 #t hf aug-cc-pvdz symm=none int=(grid=ultrafine) guess=(read,tcheck) s
 table=opt
 ----------------------------------------------------------------------
 -----
 title
 -----
 Symbolic Z-matrix:
 Charge =  0 Multiplicity = 2

 SCF Done:  E(UHF) =  -593.661181211     A.U. after   20 cycles
 Normal termination of Gaussian 16 at Wed Apr  9 00:10:20 2025.
 Gaussian 16:  ES64L-G16RevC.01  3-Jul-2019

 ----------------------------------------------------------------------
 #t hf aug-cc-pvdz iop(5/13=1,5/36=2,99/5=2) pseudo=read geom=check gue
 ss=(read,tcheck) scf=(maxcycle=1)
 ----------------------------------------------------------------------
 -----
 title
 -----
 Structure from the checkpoint file:  "BDE49_nonexpt_233_mol2.chk"
 Charge =  0 Multiplicity = 2

                         Standard orientation:
 ---------------------------------------------------------------------
 Center     Atomic      Atomic             Coordinates (Angstroms)
 Number     Number       Type             X           Y           Z
 ---------------------------------------------------------------------
      1         17           0        1.715478    0.001013   -0.000004
      2          5           0        0.015936   -0.002439    0.000013
      3          7           0       -1.238856    0.033851    0.000001
      4          7           0       -2.516534   -0.146873   -0.000002
      5          1           0       -2.955079    0.786124    0.000015
 ---------------------------------------------------------------------

 SCF Done:  E(UHF) =  -594.465411361     A.U. after    2 cycles

 The electronic state is 2-A.
 Alpha  occ. eigenvalues --  -99.93827 -15.80380 -15.71837 -10.51041  -9.71046
 Alpha  occ. eigenvalues --   -9.70403  -9.70357  -7.72451  -1.49570  -1.38495
 Alpha  occ. eigenvalues --   -1.10817  -0.75789  -0.71482  -0.63426  -0.62190
 Alpha  occ. eigenvalues --   -0.55703  -0.55634  -0.35672  -0.32922
 Alpha virt. eigenvalues --    0.03443   0.03634   0.04031   0.04899   0.08464
 Alpha virt. eigenvalues --    0.10864   0.14458   0.15518   0.15911   0.16383
 Alpha virt. eigenvalues --    0.16762   0.17493   0.18032   0.20198   0.20235

  Beta  occ. eigenvalues --  -99.93813 -15.77509 -15.72652 -10.51027  -9.71140
  Beta  occ. eigenvalues --   -9.70332  -9.70263  -7.71849  -1.46333  -1.38347
  Beta  occ. eigenvalues --   -1.05823  -0.75068  -0.70518  -0.61902  -0.61076
  Beta  occ. eigenvalues --   -0.54388  -0.48345  -0.34714
  Beta virt. eigenvalues --    0.03506   0.03670   0.04012   0.04975   0.06906
  Beta virt. eigenvalues --    0.08511   0.11127   0.14461   0.15594   0.16103
  Beta virt. eigenvalues --    0.16509   0.16823   0.18360   0.18375   0.20391

 Mulliken charges and spin densities:
               1          2
     1  Cl  -1.008352   0.035460
     2  B    1.697341   0.324669
     3  N   -2.180163  -0.305801
     4  N    0.665067   1.001912
     5  H    0.826107  -0.056241
 Sum of Mulliken charges =  -0.00000   1.00000

 Dipole moment (field-independent basis, Debye):
    X=              0.4379    Y=              1.1093    Z=              0.0000  Tot=              1.1927
                          Isotropic Fermi Contact Couplings
        Atom                 a.u.       MegaHertz       Gauss      10(-4) cm-1
     1  Cl(35)             0.01397       6.12624       2.18599       2.04349
     2  B(11)              0.03570      51.21320      18.27414      17.08288
     3  N(14)             -0.11290     -36.47962     -13.01684     -12.16829
     4  N(14)              0.19531      63.10600      22.51779      21.04989
     5  H(1)              -0.01743     -77.91156     -27.80078     -25.98850
 --------------------------------------------------------
       Center         ----  Spin Dipole Couplings  ----
                      3XX-RR        3YY-RR        3ZZ-RR

 Normal termination of Gaussian 16 at Wed Apr  9 00:10:22 2025.
