 Gaussian 16, Revision C.01,

 ----------------------------------------------------------------------
 #t hf aug-cc-pvdz symm=none int=(grid=ultrafine) guess=(read,tcheck) s
 table=(opt,rrhf)
 ----------------------------------------------------------------------
 -----
 title
 -----
 Symbolic Z-matrix:
 Charge =  0 Multiplicity = 1

 SCF Done:  E(RHF) =  -1653.88717732     A.U. after   15 cycles
 Normal termination of Gaussian 16 at Wed Apr  9 00:27:16 2025.
 Gaussian 16:  ES64L-G16RevC.01  3-Jul-2019

 ----------------------------------------------------------------------
 #t hf aug-cc-pvdz iop(5/13=1,5/36=2,99/5=2) pseudo=read geom=check gue
 ss=(read,tcheck) scf=(maxcycle=1)
 ----------------------------------------------------------------------
 -----
 title
 -----
 Structure from the checkpoint file:  "BDE49_nonexpt_2752_mol1.chk"
 Charge =  0 Multiplicity = 1

                         Standard orientation:
 ---------------------------------------------------------------------
 Center     Atomic      Atomic             Coordinates (Angstroms)
 Number     Number       Type             X           Y           Z
 ---------------------------------------------------------------------
      1         16           0       -1.294716   -1.058339   -0.306191
      2         16           0        0.288600   -0.877618    0.991291
      3          6           0       -2.254268    0.413695    0.109153
      4         16           0        1.646411    0.361189   -0.104239
      5          9           0        2.287545   -0.739959   -1.113459
      6          8           0        0.964742    1.293235   -0.940194
      7          8           0        2.677056    0.702161    0.821766
      8          8           0       -2.033784    1.268582    0.881811
      9          9           0       -3.352346    0.362438   -0.670514
 ---------------------------------------------------------------------

 SCF Done:  E(RHF) =  -1656.34948110     A.U. after    2 cycles

 The electronic state is 1-A.
 Alpha  occ. eigenvalues --  -75.98846 -75.80370 -75.79705 -29.35334 -29.33679
 Alpha  occ. eigenvalues --  -21.13416 -21.12251 -21.12164 -13.62566 -13.50466
 Alpha  occ. eigenvalues --  -13.40281 -13.23548 -13.20502 -13.18239 -13.17192
 Alpha  occ. eigenvalues --  -13.13713 -13.12585 -11.60241  -8.34243  -8.14260
 Alpha  occ. eigenvalues --   -8.13772  -1.90947  -1.80693  -1.72335  -1.33015
 Alpha  occ. eigenvalues --   -1.19162  -1.09405  -0.99200  -0.77988  -0.71158
 Alpha  occ. eigenvalues --   -0.65885  -0.63144  -0.61474  -0.56839  -0.51583
 Alpha  occ. eigenvalues --   -0.50264  -0.47296  -0.45039  -0.43579  -0.41604
 Alpha  occ. eigenvalues --   -0.40774  -0.37687  -0.34465  -0.34112  -0.32998
 Alpha  occ. eigenvalues --   -0.31750  -0.30385  -0.28415
 Alpha virt. eigenvalues --    0.03765   0.04306   0.08041   0.08589   0.09827
 Alpha virt. eigenvalues --    0.10426   0.11291   0.12246   0.12785   0.12825
 Alpha virt. eigenvalues --    0.13199   0.13643   0.14394   0.14832   0.16667

 Mulliken charges:
               1
     1  S    0.350752
     2  S   -0.335575
     3  C    1.188009
     4  S    5.161519
     5  F    0.086146
     6  O   -2.514337
     7  O   -2.477827
     8  O   -2.368851
     9  F    0.910166
 Sum of Mulliken charges =  -0.00000

 Dipole moment (field-independent basis, Debye):
    X=             -2.4881    Y=             -4.9712    Z=             -3.9087  Tot=              6.7957

 Test job not archived.
 1\1\GINC-SE096\SP\RHF\Aug-CC-pVDZ\C1F2O3S3\OHZDE\09-Apr-2025\0\\#t hf
 aug-cc-pvdz iop(5/13=1,5/36=2,99/5=2) pseudo=read geom=check guess=(re
 ad,tcheck) scf=(maxcycle=1)\\title\\0,1\S,0,-1.294716,-1.058339,-0.306
 191\S,0,0.2886,-0.877618,0.991291\C,0,-2.254268,0.413695,0.109153\S,0,
 1.646411,0.361189,-0.104239\F,0,2.287545,-0.739959,-1.113459\O,0,0.964
 742,1.293235,-0.940194\O,0,2.677056,0.702161,0.821766\O,0,-2.033784,1.
 268582,0.881811\F,0,-3.352346,0.362438,-0.670514\\Version=ES64L-G16Rev
 C.01\State=1-A\HF=-1656.3494811\RMSD=5.742e-02\Dipole=-0.9788821,-1.95

 Normal termination of Gaussian 16 at Wed Apr  9 00:27:21 2025.
