 Gaussian 16, Revision C.01,

 ----------------------------------------------------------------------
 #t hf aug-cc-pvdz symm=none int=(grid=ultrafine) guess=(read,tcheck) s
 table=(opt,rrhf)
 ----------------------------------------------------------------------
 -----
 title
 -----
 Symbolic Z-matrix:
 Charge =  0 Multiplicity = 1

 SCF Done:  E(RHF) =  -1201.06790853     A.U. after   17 cycles
 Normal termination of Gaussian 16 at Wed Apr  9 00:21:41 2025.
 Gaussian 16:  ES64L-G16RevC.01  3-Jul-2019

 ----------------------------------------------------------------------
 #t hf aug-cc-pvdz iop(5/13=1,5/36=2,99/5=2) pseudo=read geom=check gue
 ss=(read,tcheck) scf=(maxcycle=1)
 ----------------------------------------------------------------------
 -----
 title
 -----
 Structure from the checkpoint file:  "BDE49_nonexpt_2601_mol1.chk"
 Charge =  0 Multiplicity = 1

                         Standard orientation:
 ---------------------------------------------------------------------
 Center     Atomic      Atomic             Coordinates (Angstroms)
 Number     Number       Type             X           Y           Z
 ---------------------------------------------------------------------
      1         17           0        2.909573   -0.805403   -0.843235
      2         16           0        2.035076   -0.092244    0.940847
      3          6           0        0.456772    0.492589    0.380704
      4          6           0       -0.622330   -0.402008    0.306977
      5          6           0       -1.878271    0.069852   -0.074020
      6          6           0       -2.046318    1.431865   -0.368389
      7          6           0        0.291196    1.845964    0.082826
      8          1           0        1.137421    2.517667    0.140290
      9          6           0       -0.972955    2.305891   -0.287915
     10          1           0       -1.119331    3.354590   -0.519029
     11          1           0       -3.032727    1.773814   -0.657238
     12          1           0       -0.454635   -1.442005    0.546758
     13          8           0       -2.993520   -0.698836   -0.182356
     14          6           0       -2.887753   -2.092447    0.088221
     15          1           0       -2.580507   -2.276448    1.123295
     16          1           0       -2.183628   -2.579481   -0.594639
     17          1           0       -3.884455   -2.499930   -0.069568
 ---------------------------------------------------------------------

 SCF Done:  E(RHF) =  -1203.13458480     A.U. after    2 cycles

 The electronic state is 1-A.
 Alpha  occ. eigenvalues --  -99.89810 -75.74416 -21.08636 -13.22425 -13.12271
 Alpha  occ. eigenvalues --  -13.09894 -11.54391 -11.47901 -11.45286 -11.43519
 Alpha  occ. eigenvalues --  -11.42888 -11.42393 -11.38630 -10.46852  -9.66650
 Alpha  occ. eigenvalues --   -9.66046  -9.65942  -8.08087  -1.80104  -1.37036
 Alpha  occ. eigenvalues --   -1.30034  -1.15565  -1.10504  -1.03884  -0.99691
 Alpha  occ. eigenvalues --   -0.87212  -0.83957  -0.72280  -0.65637  -0.64462
 Alpha  occ. eigenvalues --   -0.63471  -0.61873  -0.58661  -0.56411  -0.55675
 Alpha  occ. eigenvalues --   -0.53697  -0.52875  -0.51484  -0.47201  -0.43895
 Alpha  occ. eigenvalues --   -0.42648  -0.37834  -0.35604  -0.27762  -0.25476
 Alpha virt. eigenvalues --    0.02649   0.04029   0.04744   0.05403   0.05481
 Alpha virt. eigenvalues --    0.06169   0.06363   0.07016   0.08250   0.08593
 Alpha virt. eigenvalues --    0.09943   0.11664   0.11857   0.12720   0.13106

 Mulliken charges:
               1
     1  Cl  -0.327136
     2  S    0.350984
     3  C    3.575772
     4  C   -4.535179
     5  C    5.888509
     6  C   -4.193334
     7  C   -4.096773
     8  H    1.774307
     9  C    0.421539
    10  H    1.511561
    11  H    1.852189
    12  H    1.940620
    13  O   -4.778772
    14  C   -3.573727
    15  H    1.389861
    16  H    1.385599
    17  H    1.413981
 Sum of Mulliken charges =  -0.00000

 Dipole moment (field-independent basis, Debye):
    X=             -3.4248    Y=              0.7766    Z=              2.5296  Tot=              4.3279

 Test job not archived.
 1\1\GINC-SE127\SP\RHF\Aug-CC-pVDZ\C7H7Cl1O1S1\OHZDE\09-Apr-2025\0\\#t
 hf aug-cc-pvdz iop(5/13=1,5/36=2,99/5=2) pseudo=read geom=check guess=
 (read,tcheck) scf=(maxcycle=1)\\title\\0,1\Cl,0,2.909573,-0.805403,-0.
 843235\S,0,2.035076,-0.092244,0.940847\C,0,0.456772,0.492589,0.380704\
 C,0,-0.62233,-0.402008,0.306977\C,0,-1.878271,0.069852,-0.07402\C,0,-2
 .046318,1.431865,-0.368389\C,0,0.291196,1.845964,0.082826\H,0,1.137421
 ,2.517667,0.14029\C,0,-0.972955,2.305891,-0.287915\H,0,-1.119331,3.354
 59,-0.519029\H,0,-3.032727,1.773814,-0.657238\H,0,-0.454635,-1.442005,

 Normal termination of Gaussian 16 at Wed Apr  9 00:21:50 2025.
