 Gaussian 16, Revision C.01,

 ----------------------------------------------------------------------
 #t hf aug-cc-pvdz symm=none int=(grid=ultrafine) guess=(read,tcheck) s
 table=(opt,rrhf)
 ----------------------------------------------------------------------
 -----
 title
 -----
 Symbolic Z-matrix:
 Charge =  0 Multiplicity = 1

 SCF Done:  E(RHF) =  -1897.64276179     A.U. after   17 cycles
 Normal termination of Gaussian 16 at Tue Apr  8 23:48:32 2025.
 Gaussian 16:  ES64L-G16RevC.01  3-Jul-2019

 ----------------------------------------------------------------------
 #t hf aug-cc-pvdz iop(5/13=1,5/36=2,99/5=2) pseudo=read geom=check gue
 ss=(read,tcheck) scf=(maxcycle=1)
 ----------------------------------------------------------------------
 -----
 title
 -----
 Structure from the checkpoint file:  "BDE49_nonexpt_1778_mol1.chk"
 Charge =  0 Multiplicity = 1

                         Standard orientation:
 ---------------------------------------------------------------------
 Center     Atomic      Atomic             Coordinates (Angstroms)
 Number     Number       Type             X           Y           Z
 ---------------------------------------------------------------------
      1          6           0        0.489676   -1.528797   -0.361671
      2          6           0       -0.856697   -1.763781   -0.118952
      3          6           0       -1.741507   -0.694559    0.016434
      4          6           0       -1.267119    0.616312   -0.093724
      5          6           0        0.085875    0.843290   -0.336220
      6          6           0        0.985292   -0.220463   -0.472681
      7          1           0        1.155863   -2.378304   -0.465531
      8          1           0       -1.237949   -2.773195   -0.033745
      9         14           0        2.793758    0.105848   -0.793736
     10          1           0        0.422530    1.869983   -0.418141
     11         17           0        3.879287    0.090953    0.988634
     12         17           0       -2.335744    1.985090    0.062940
     13         17           0       -3.423514   -1.028796    0.316940
     14          1           0        2.968156    1.441686   -1.393098
     15          1           0        3.365164   -0.957269   -1.641023
 ---------------------------------------------------------------------

 SCF Done:  E(RHF) =  -1899.62164660     A.U. after    2 cycles

 The electronic state is 1-A.
 Alpha  occ. eigenvalues --  -99.91136 -99.90909 -99.88696 -76.27226 -11.55172
 Alpha  occ. eigenvalues --  -11.49208 -11.48667 -11.45560 -11.44297 -11.40001
 Alpha  occ. eigenvalues --  -10.48536 -10.48299 -10.46078  -9.68639  -9.68249
 Alpha  occ. eigenvalues --   -9.67681  -9.67455  -9.67347  -9.67218  -9.65996
 Alpha  occ. eigenvalues --   -9.65387  -9.65350  -5.60810  -2.25293  -2.23843
 Alpha  occ. eigenvalues --   -2.22878  -1.45076  -1.33608  -1.29482  -1.28080
 Alpha  occ. eigenvalues --   -1.12146  -1.09807  -0.91184  -0.89253  -0.79527
 Alpha  occ. eigenvalues --   -0.72781  -0.67772  -0.66550  -0.62163  -0.61566
 Alpha  occ. eigenvalues --   -0.59153  -0.56402  -0.56108  -0.55401  -0.53597
 Alpha  occ. eigenvalues --   -0.53041  -0.51444  -0.50304  -0.48425  -0.47917
 Alpha  occ. eigenvalues --   -0.42676  -0.36650  -0.35933
 Alpha virt. eigenvalues --    0.02683   0.04627   0.05017   0.05209   0.06116
 Alpha virt. eigenvalues --    0.06410   0.07039   0.07508   0.07785   0.08632
 Alpha virt. eigenvalues --    0.09406   0.09929   0.10170   0.10215   0.11924

 Mulliken charges:
               1
     1  C   -2.380524
     2  C   -0.832839
     3  C   -0.758140
     4  C    0.516172
     5  C   -0.444841
     6  C   -0.929380
     7  H    1.931375
     8  H    1.830121
     9  Si   4.643159
    10  H    1.931215
    11  Cl  -0.962595
    12  Cl  -0.629911
    13  Cl  -0.602015
    14  H   -1.666549
    15  H   -1.645244
 Sum of Mulliken charges =   0.00000

 Dipole moment (field-independent basis, Debye):
    X=              0.9528    Y=             -1.4454    Z=             -1.4980  Tot=              2.2893

 Test job not archived.
 1\1\GINC-SE419\SP\RHF\Aug-CC-pVDZ\C6H5Cl3Si1\OHZDE\08-Apr-2025\0\\#t h
 f aug-cc-pvdz iop(5/13=1,5/36=2,99/5=2) pseudo=read geom=check guess=(
 read,tcheck) scf=(maxcycle=1)\\title\\0,1\C,0,0.489676,-1.528797,-0.36
 1671\C,0,-0.856697,-1.763781,-0.118952\C,0,-1.741507,-0.694559,0.01643
 4\C,0,-1.267119,0.616312,-0.093724\C,0,0.085875,0.84329,-0.33622\C,0,0
 .985292,-0.220463,-0.472681\H,0,1.155863,-2.378304,-0.465531\H,0,-1.23
 7949,-2.773195,-0.033745\Si,0,2.793758,0.105848,-0.793736\H,0,0.42253,
 1.869983,-0.418141\Cl,0,3.879287,0.090954,0.988634\Cl,0,-2.335744,1.98

 Normal termination of Gaussian 16 at Tue Apr  8 23:48:40 2025.
