 Gaussian 16, Revision C.01,

 ----------------------------------------------------------------------
 #t hf aug-cc-pvdz symm=none int=(grid=ultrafine) guess=(read,tcheck) s
 table=(opt,rrhf)
 ----------------------------------------------------------------------
 -----
 title
 -----
 Symbolic Z-matrix:
 Charge =  0 Multiplicity = 1

 SCF Done:  E(RHF) =  -749.496566013     A.U. after   14 cycles
 Normal termination of Gaussian 16 at Tue Apr  8 22:41:10 2025.
 Gaussian 16:  ES64L-G16RevC.01  3-Jul-2019

 ----------------------------------------------------------------------
 #t hf aug-cc-pvdz iop(5/13=1,5/36=2,99/5=2) pseudo=read geom=check gue
 ss=(read,tcheck) scf=(maxcycle=1)
 ----------------------------------------------------------------------
 -----
 title
 -----
 Structure from the checkpoint file:  "BDE49_expt_1267_mol1.chk"
 Charge =  0 Multiplicity = 1

                         Standard orientation:
 ---------------------------------------------------------------------
 Center     Atomic      Atomic             Coordinates (Angstroms)
 Number     Number       Type             X           Y           Z
 ---------------------------------------------------------------------
      1          6           0        0.000003    0.000006    0.395571
      2          7           0        1.443979   -0.172035   -0.137167
      3          7           0       -0.870945   -1.164476   -0.137249
      4          7           0       -0.572939    1.336518   -0.137278
      5          9           0       -0.000049    0.000033    1.702106
      6          8           0       -1.252824    1.267212   -1.133637
      7          8           0       -1.864167   -1.375551    0.516627
      8          8           0        1.723753    0.450889   -1.133898
      9          8           0       -0.471190   -1.718345   -1.133844
     10          8           0        2.123410   -0.926471    0.516896
     11          8           0       -0.259012    2.302218    0.516540
 ---------------------------------------------------------------------

 SCF Done:  E(RHF) =  -752.544818083     A.U. after    2 cycles

 The electronic state is 1-A.
 Alpha  occ. eigenvalues --  -29.41819 -21.17784 -21.17763 -21.17763 -21.17515
 Alpha  occ. eigenvalues --  -21.17515 -21.17514 -16.08539 -16.08538 -16.08437
 Alpha  occ. eigenvalues --  -11.67556  -2.10006  -2.06893  -2.06892  -1.78198
 Alpha  occ. eigenvalues --   -1.78197  -1.78170  -1.43862  -1.09223  -1.09222
 Alpha  occ. eigenvalues --   -1.00947  -0.82824  -0.82679  -0.82678  -0.72888
 Alpha  occ. eigenvalues --   -0.72886  -0.69837  -0.67813  -0.67812  -0.66915
 Alpha  occ. eigenvalues --   -0.54655  -0.49206  -0.49206  -0.44675  -0.41176
 Alpha  occ. eigenvalues --   -0.39140  -0.39139  -0.38407  -0.36813  -0.36811
 Alpha  occ. eigenvalues --   -0.34239  -0.34239
 Alpha virt. eigenvalues --    0.07141   0.07142   0.08481   0.09218   0.10993
 Alpha virt. eigenvalues --    0.10993   0.11705   0.13738   0.13738   0.14608
 Alpha virt. eigenvalues --    0.14609   0.14642   0.17012   0.19536   0.19537

 Mulliken charges:
               1
     1  C    3.471129
     2  N    4.207863
     3  N    4.207802
     4  N    4.207682
     5  F    1.215993
     6  O   -2.892304
     7  O   -2.877715
     8  O   -2.892578
     9  O   -2.892437
    10  O   -2.877674
    11  O   -2.877762
 Sum of Mulliken charges =  -0.00000

 Dipole moment (field-independent basis, Debye):
    X=             -0.0004    Y=             -0.0000    Z=              3.1837  Tot=              3.1837

 Test job not archived.
 1\1\GINC-SE143\SP\RHF\Aug-CC-pVDZ\C1F1N3O6\OHZDE\08-Apr-2025\0\\#t hf
 aug-cc-pvdz iop(5/13=1,5/36=2,99/5=2) pseudo=read geom=check guess=(re
 ad,tcheck) scf=(maxcycle=1)\\title\\0,1\C,0,-0.000003,-0.000006,0.3955
 71\N,0,-1.444104,0.170982,-0.137167\N,0,0.870095,1.165111,-0.137249\N,
 0,0.573914,-1.3361,-0.137278\F,0,0.000049,-0.000033,1.702106\O,0,1.253
 748,-1.266298,-1.133637\O,0,1.863163,1.376911,0.516627\O,0,-1.723424,-
 0.452146,-1.133898\O,0,0.469936,1.718688,-1.133844\O,0,-2.124085,0.924
 922,0.516896\O,0,0.260692,-2.302028,0.51654\\Version=ES64L-G16RevC.01\

 Normal termination of Gaussian 16 at Tue Apr  8 22:41:18 2025.
