 Gaussian 16, Revision C.01,

 ----------------------------------------------------------------------
 #t hf aug-cc-pvdz symm=none int=(grid=ultrafine) guess=(read,tcheck) s
 table=(opt,rrhf)
 ----------------------------------------------------------------------
 -----
 title
 -----
 Symbolic Z-matrix:
 Charge =  0 Multiplicity = 1

 SCF Done:  E(RHF) =  -636.409491840     A.U. after   11 cycles

 1\1\GINC-SE396\Stability\RHF\Aug-CC-pVDZ\H7N1Si2\OHZDE\09-Apr-2025\0\\
 #t hf aug-cc-pvdz symm=none int=(grid=ultrafine) guess=(read,tcheck) s
 table=(opt,rrhf)\\title\\0,1\Si,0,1.549972,-0.186716,0.015683\Si,0,-0.
 675293,0.591496,-0.024984\H,0,1.864736,-0.849814,1.304379\H,0,2.491573
 ,0.944671,-0.176425\H,0,1.78195,-1.167046,-1.076661\N,0,-1.747564,-0.7
 63544,0.060884\H,0,-0.840635,1.471947,-1.218677\H,0,-0.946552,1.433802
 ,1.165488\H,0,-1.64178,-1.535964,-0.581107\H,0,-2.72185,-0.619707,0.28
 7026\\Version=ES64L-G16RevC.01\HF=-636.4094918\RMSD=4.737e-09\Dipole=-

 Normal termination of Gaussian 16 at Wed Apr  9 00:11:32 2025.
 Gaussian 16:  ES64L-G16RevC.01  3-Jul-2019

 ----------------------------------------------------------------------
 #t hf aug-cc-pvdz iop(5/13=1,5/36=2,99/5=2) pseudo=read geom=check gue
 ss=(read,tcheck) scf=(maxcycle=1)
 ----------------------------------------------------------------------
 -----
 title
 -----
 Structure from the checkpoint file:  "BDE49_nonexpt_2374_mol1.chk"
 Charge =  0 Multiplicity = 1

                         Standard orientation:
 ---------------------------------------------------------------------
 Center     Atomic      Atomic             Coordinates (Angstroms)
 Number     Number       Type             X           Y           Z
 ---------------------------------------------------------------------
      1         14           0        1.549972   -0.186716    0.015683
      2         14           0       -0.675293    0.591496   -0.024984
      3          1           0        1.864736   -0.849814    1.304379
      4          1           0        2.491573    0.944670   -0.176425
      5          1           0        1.781950   -1.167046   -1.076661
      6          7           0       -1.747564   -0.763544    0.060884
      7          1           0       -0.840635    1.471947   -1.218677
      8          1           0       -0.946552    1.433802    1.165488
      9          1           0       -1.641780   -1.535964   -0.581107
     10          1           0       -2.721850   -0.619706    0.287026
 ---------------------------------------------------------------------

 SCF Done:  E(RHF) =  -637.008262522     A.U. after    2 cycles

 The electronic state is 1-A.
 Alpha  occ. eigenvalues --  -76.22084 -76.20941 -15.73272  -5.55791  -5.54404
 Alpha  occ. eigenvalues --   -2.20549  -2.17374  -2.16672  -2.16440  -2.16396
 Alpha  occ. eigenvalues --   -2.15437  -1.25335  -0.80047  -0.71281  -0.64904
 Alpha  occ. eigenvalues --   -0.51928  -0.48254  -0.46569  -0.45948  -0.38912
 Alpha  occ. eigenvalues --   -0.33683
 Alpha virt. eigenvalues --    0.03797   0.04562   0.05496   0.06420   0.07335
 Alpha virt. eigenvalues --    0.07961   0.07994   0.08444   0.09479   0.09829
 Alpha virt. eigenvalues --    0.09872   0.10396   0.10939   0.13766   0.14734

 Mulliken charges:
               1
     1  Si   4.511091
     2  Si   4.093226
     3  H   -1.528777
     4  H   -1.524445
     5  H   -1.503225
     6  N   -2.152508
     7  H   -1.610170
     8  H   -1.641412
     9  H    0.687181
    10  H    0.669040
 Sum of Mulliken charges =  -0.00000

 Dipole moment (field-independent basis, Debye):
    X=             -1.3401    Y=             -0.7524    Z=             -0.4019  Tot=              1.5885

 Test job not archived.
 1\1\GINC-SE396\SP\RHF\Aug-CC-pVDZ\H7N1Si2\OHZDE\09-Apr-2025\0\\#t hf a
 ug-cc-pvdz iop(5/13=1,5/36=2,99/5=2) pseudo=read geom=check guess=(rea
 d,tcheck) scf=(maxcycle=1)\\title\\0,1\Si,0,1.549972,-0.186716,0.01568
 3\Si,0,-0.675293,0.591496,-0.024984\H,0,1.864736,-0.849814,1.304379\H,
 0,2.491573,0.944671,-0.176425\H,0,1.78195,-1.167046,-1.076661\N,0,-1.7
 47564,-0.763544,0.060884\H,0,-0.840635,1.471947,-1.218677\H,0,-0.94655
 2,1.433802,1.165488\H,0,-1.64178,-1.535964,-0.581107\H,0,-2.72185,-0.6
 19707,0.287026\\Version=ES64L-G16RevC.01\State=1-A\HF=-637.0082625\RMS

 Normal termination of Gaussian 16 at Wed Apr  9 00:11:34 2025.
