 Gaussian 16, Revision C.01,

 ----------------------------------------------------------------------
 #t hf aug-cc-pvdz symm=none int=(grid=ultrafine) guess=(read,tcheck) s
 table=opt
 ----------------------------------------------------------------------
 -----
 title
 -----
 Symbolic Z-matrix:
 Charge =  0 Multiplicity = 2

 SCF Done:  E(UHF) =  -459.472781141     A.U. after   10 cycles
 Normal termination of Gaussian 16 at Tue Apr  8 22:48:27 2025.
 Gaussian 16:  ES64L-G16RevC.01  3-Jul-2019

 ----------------------------------------------------------------------
 #t hf aug-cc-pvdz iop(5/13=1,5/36=2,99/5=2) pseudo=read geom=check gue
 ss=(read,tcheck) scf=(maxcycle=1)
 ----------------------------------------------------------------------
 -----
 title
 -----
 Structure from the checkpoint file:  "BDE49_expt_1610_mol3.chk"
 Charge =  0 Multiplicity = 2

                         Standard orientation:
 ---------------------------------------------------------------------
 Center     Atomic      Atomic             Coordinates (Angstroms)
 Number     Number       Type             X           Y           Z
 ---------------------------------------------------------------------
      1         17           0        0.000000    0.000000    0.000000
 ---------------------------------------------------------------------

 SCF Done:  E(UHF) =  -459.677247585     A.U. after    2 cycles

 Unable to determine electronic state:  an orbital has unidentified symmetry.
 Alpha  occ. eigenvalues --  -99.95451 -10.51998  -9.73509  -9.71048  -9.71048
 Alpha  occ. eigenvalues --   -1.32541  -0.63230  -0.55612  -0.55612
 Alpha virt. eigenvalues --    0.10925   0.11403   0.12541   0.12541   0.27738
 Alpha virt. eigenvalues --    0.28794   0.28794   0.32286   0.32286   0.74981
 Alpha virt. eigenvalues --    0.79365   0.79365   0.99750   1.14335   1.15385

  Beta  occ. eigenvalues --  -99.94304 -10.50832  -9.70448  -9.70448  -9.68278
  Beta  occ. eigenvalues --   -1.20329  -0.53127  -0.53127
  Beta virt. eigenvalues --   -0.09925   0.11656   0.12689   0.12689   0.13847
  Beta virt. eigenvalues --    0.32697   0.32697   0.34765   0.34765   0.35638
  Beta virt. eigenvalues --    0.80318   0.80318   0.83514   1.02319   1.20036

 Mulliken charges and spin densities:
               1          2
     1  Cl  -0.000000   1.000000
 Sum of Mulliken charges =  -0.00000   1.00000

 Dipole moment (field-independent basis, Debye):
    X=             -0.0000    Y=             -0.0000    Z=              0.0000  Tot=              0.0000
                          Isotropic Fermi Contact Couplings
        Atom                 a.u.       MegaHertz       Gauss      10(-4) cm-1
     1  Cl(35)             0.13376      58.64693      20.92668      19.56251
 --------------------------------------------------------
       Center         ----  Spin Dipole Couplings  ----
                      3XX-RR        3YY-RR        3ZZ-RR
 --------------------------------------------------------
     1   Atom       -1.823842      3.787952     -1.964111
 --------------------------------------------------------
                        XY            XZ            YZ

 Normal termination of Gaussian 16 at Tue Apr  8 22:48:29 2025.
