 Gaussian 16, Revision C.01,

 ----------------------------------------------------------------------
 #t hf aug-cc-pvdz symm=none int=(grid=ultrafine) guess=(read,tcheck) s
 table=opt
 ----------------------------------------------------------------------
 -----
 title
 -----
 Symbolic Z-matrix:
 Charge =  0 Multiplicity = 2

 SCF Done:  E(UHF) =  -485.827807709     A.U. after   16 cycles
 Normal termination of Gaussian 16 at Wed Apr  9 00:08:30 2025.
 Gaussian 16:  ES64L-G16RevC.01  3-Jul-2019

 ----------------------------------------------------------------------
 #t hf aug-cc-pvdz iop(5/13=1,5/36=2,99/5=2) pseudo=read geom=check gue
 ss=(read,tcheck) scf=(maxcycle=1)
 ----------------------------------------------------------------------
 -----
 title
 -----
 Structure from the checkpoint file:  "BDE49_nonexpt_2251_mol2.chk"
 Charge =  0 Multiplicity = 2

                         Standard orientation:
 ---------------------------------------------------------------------
 Center     Atomic      Atomic             Coordinates (Angstroms)
 Number     Number       Type             X           Y           Z
 ---------------------------------------------------------------------
      1         14           0       -0.251645   -0.862430   -0.483177
      2          6           0        1.131571    0.174248    0.328363
      3          6           0        2.437837   -0.627718    0.460945
      4          6           0       -1.925415    0.031514   -0.550452
      5          1           0        2.288466   -1.565597    1.003145
      6          1           0        3.197028   -0.050074    1.000123
      7          1           0        2.851104   -0.875666   -0.522010
      8          6           0        1.367191    1.516026   -0.386089
      9          1           0        0.764578    0.389074    1.343616
     10          1           0        1.721419    1.361534   -1.410489
     11          1           0        2.126109    2.108167    0.137452
     12          1           0        0.458166    2.121980   -0.438622
     13          6           0       -2.515319    0.395662    0.827618
     14          1           0       -2.622333   -0.617513   -1.092386
     15          1           0       -1.819852    0.932566   -1.164537
     16          1           0       -2.652556   -0.492652    1.450386
     17          1           0       -3.491869    0.879944    0.724084
     18          1           0       -1.866015    1.084039    1.375658
     19          1           0       -0.406403   -2.140176    0.275752
 ---------------------------------------------------------------------

 SCF Done:  E(UHF) =  -487.008026289     A.U. after    2 cycles

 The electronic state is 2-A.
 Alpha  occ. eigenvalues --  -76.20111 -11.39914 -11.39283 -11.38295 -11.34731
 Alpha  occ. eigenvalues --  -11.34215  -5.53749  -2.18263  -2.16765  -2.15754
 Alpha  occ. eigenvalues --   -1.20704  -1.14317  -0.99684  -0.89425  -0.83772
 Alpha  occ. eigenvalues --   -0.69567  -0.61879  -0.61114  -0.58223  -0.56144
 Alpha  occ. eigenvalues --   -0.54900  -0.53035  -0.49832  -0.48784  -0.46432
 Alpha  occ. eigenvalues --   -0.45501  -0.41142  -0.35648  -0.25192
 Alpha virt. eigenvalues --    0.03784   0.04988   0.05598   0.05758   0.05962
 Alpha virt. eigenvalues --    0.06198   0.06256   0.06600   0.06960   0.07669
 Alpha virt. eigenvalues --    0.07787   0.08500   0.09277   0.09672   0.11165

  Beta  occ. eigenvalues --  -76.19591 -11.39877 -11.39208 -11.38296 -11.34670
  Beta  occ. eigenvalues --  -11.34179  -5.52935  -2.17692  -2.16055  -2.12445
  Beta  occ. eigenvalues --   -1.20401  -1.13971  -0.99677  -0.88831  -0.83308
  Beta  occ. eigenvalues --   -0.66411  -0.61634  -0.60967  -0.58065  -0.55711
  Beta  occ. eigenvalues --   -0.54222  -0.53028  -0.49292  -0.48702  -0.46194
  Beta  occ. eigenvalues --   -0.45377  -0.40150  -0.34914
  Beta virt. eigenvalues --    0.03533   0.04457   0.05218   0.05765   0.05980
  Beta virt. eigenvalues --    0.06097   0.06278   0.06380   0.06906   0.07628
  Beta virt. eigenvalues --    0.07726   0.08317   0.08592   0.09713   0.10559

 Mulliken charges and spin densities:
               1          2
     1  Si   3.711850   1.312591
     2  C   -2.270808  -0.344005
     3  C   -4.057824   0.062695
     4  C   -4.112953  -0.026240
     5  H    1.323023   0.000730
     6  H    1.237638   0.004600
     7  H    1.314456  -0.026959
     8  C   -3.904698   0.126611
     9  H    1.745826  -0.041642
    10  H    1.348325  -0.031770
    11  H    1.223472   0.008745
    12  H    1.348563   0.003081
    13  C   -3.791445   0.019876
    14  H    1.364236  -0.012513
    15  H    1.452108  -0.032375
    16  H    1.324133  -0.012879
    17  H    1.190879   0.005545
    18  H    1.373631  -0.007178
    19  H   -1.820411  -0.008911
 Sum of Mulliken charges =   0.00000   1.00000

 Dipole moment (field-independent basis, Debye):
    X=             -0.2587    Y=              0.9188    Z=              0.1728  Tot=              0.9701
                          Isotropic Fermi Contact Couplings
        Atom                 a.u.       MegaHertz       Gauss      10(-4) cm-1
     1  Si(29)             0.40011    -355.59032    -126.88347    -118.61216
     2  C(13)              0.01440      16.18863       5.77651       5.39995
     3  C(13)              0.00065       0.73029       0.26059       0.24360
     4  C(13)              0.01570      17.65436       6.29951       5.88886
     5  H(1)              -0.00007      -0.29384      -0.10485      -0.09801
     6  H(1)              -0.00031      -1.40648      -0.50187      -0.46915
     7  H(1)              -0.00024      -1.09456      -0.39057      -0.36511
     8  C(13)              0.00060       0.67389       0.24046       0.22479

 Normal termination of Gaussian 16 at Wed Apr  9 00:08:38 2025.
