 Gaussian 16, Revision C.01,

 ----------------------------------------------------------------------
 #t hf aug-cc-pvdz symm=none int=(grid=ultrafine) guess=(read,tcheck) s
 table=(opt,rrhf)
 ----------------------------------------------------------------------
 -----
 title
 -----
 Symbolic Z-matrix:
 Charge =  0 Multiplicity = 1

 SCF Done:  E(RHF) =  -1360.56703483     A.U. after   13 cycles
 Normal termination of Gaussian 16 at Wed Apr  9 00:44:24 2025.
 Gaussian 16:  ES64L-G16RevC.01  3-Jul-2019

 ----------------------------------------------------------------------
 #t hf aug-cc-pvdz iop(5/13=1,5/36=2,99/5=2) pseudo=read geom=check gue
 ss=(read,tcheck) scf=(maxcycle=1)
 ----------------------------------------------------------------------
 -----
 title
 -----
 Structure from the checkpoint file:  "BDE49_nonexpt_755_mol1.chk"
 Charge =  0 Multiplicity = 1

                         Standard orientation:
 ---------------------------------------------------------------------
 Center     Atomic      Atomic             Coordinates (Angstroms)
 Number     Number       Type             X           Y           Z
 ---------------------------------------------------------------------
      1         15           0       -0.248534   -0.123496    0.878495
      2          5           0        0.566655    1.580821    0.286245
      3         17           0        1.036871   -1.420846   -0.208081
      4         17           0       -1.888918    0.101413   -0.428213
      5          8           0        1.667100    1.629961   -0.465351
      6          1           0        1.996848    0.753753   -0.722375
      7          1           0        0.045878    2.585260    0.653535
 ---------------------------------------------------------------------

 SCF Done:  E(RHF) =  -1361.65739876     A.U. after    2 cycles

 The electronic state is 1-A.
 Alpha  occ. eigenvalues -- -105.26861 -99.91288 -99.91143 -21.09105 -10.48536
 Alpha  occ. eigenvalues --  -10.48374  -9.68375  -9.68205  -9.67874  -9.67642
 Alpha  occ. eigenvalues --   -9.67569  -9.67491  -7.66981  -2.84668  -1.77740
 Alpha  occ. eigenvalues --   -1.54346  -1.53415  -1.51599  -1.26575  -1.23064
 Alpha  occ. eigenvalues --   -0.82514  -0.73945  -0.58387  -0.56703  -0.55531
 Alpha  occ. eigenvalues --   -0.54234  -0.52776  -0.50862  -0.46924  -0.46103
 Alpha  occ. eigenvalues --   -0.30526  -0.05537
 Alpha virt. eigenvalues --    0.04012   0.04315   0.04941   0.05622   0.08603
 Alpha virt. eigenvalues --    0.09302   0.09964   0.10469   0.11527   0.12711
 Alpha virt. eigenvalues --    0.13892   0.14714   0.15299   0.16749   0.16850

 Mulliken charges:
               1
     1  P    2.337619
     2  B    4.859953
     3  Cl  -1.311040
     4  Cl  -1.196203
     5  O   -2.755284
     6  H    1.295819
     7  H   -3.230863
 Sum of Mulliken charges =  -0.00000

 Dipole moment (field-independent basis, Debye):
    X=              0.9229    Y=              0.0150    Z=              4.9244  Tot=              5.0102

 Test job not archived.
 1\1\GINC-SE162\SP\RHF\Aug-CC-pVDZ\B1Cl2H2O1P1\OHZDE\09-Apr-2025\0\\#t
 hf aug-cc-pvdz iop(5/13=1,5/36=2,99/5=2) pseudo=read geom=check guess=
 (read,tcheck) scf=(maxcycle=1)\\title\\0,1\P,0,-0.248534,-0.123496,0.8
 78495\B,0,0.566656,1.580821,0.286245\Cl,0,1.036871,-1.420846,-0.208081
 \Cl,0,-1.888918,0.101413,-0.428213\O,0,1.667101,1.62996,-0.465351\H,0,
 1.996848,0.753752,-0.722375\H,0,0.045879,2.58526,0.653535\\Version=ES6
 4L-G16RevC.01\State=1-A\HF=-1361.6573988\RMSD=1.592e-01\Dipole=0.36311
 25,0.0059042,1.9374256\Quadrupole=-1.8161736,-2.0789285,3.8951021,1.05

 Normal termination of Gaussian 16 at Wed Apr  9 00:44:26 2025.
