 Gaussian 16, Revision C.01,

 ----------------------------------------------------------------------
 #t hf aug-cc-pvdz symm=none int=(grid=ultrafine) guess=(read,tcheck) s
 table=opt
 ----------------------------------------------------------------------
 -----
 title
 -----
 Symbolic Z-matrix:
 Charge =  0 Multiplicity = 2

 SCF Done:  E(UHF) =  -626.757737270     A.U. after   19 cycles
 Normal termination of Gaussian 16 at Tue Apr  8 23:23:05 2025.
 Gaussian 16:  ES64L-G16RevC.01  3-Jul-2019

 ----------------------------------------------------------------------
 #t hf aug-cc-pvdz iop(5/13=1,5/36=2,99/5=2) pseudo=read geom=check gue
 ss=(read,tcheck) scf=(maxcycle=1)
 ----------------------------------------------------------------------
 -----
 title
 -----
 Structure from the checkpoint file:  "BDE49_nonexpt_1191_mol2.chk"
 Charge =  0 Multiplicity = 2

                         Standard orientation:
 ---------------------------------------------------------------------
 Center     Atomic      Atomic             Coordinates (Angstroms)
 Number     Number       Type             X           Y           Z
 ---------------------------------------------------------------------
      1         16           0       -2.039890   -0.412427   -0.000117
      2          6           0       -0.414343    0.276690    0.000185
      3          8           0       -0.380340    1.493241   -0.000080
      4          6           0        0.763903   -0.610305    0.000105
      5          6           0        2.004903   -0.129426   -0.744097
      6          6           0        2.004977   -0.129441    0.744185
      7          1           0        0.549958   -1.672211    0.000103
      8          1           0        2.573900   -0.884870    1.271131
      9          1           0        1.913400    0.824846    1.247192
     10          1           0        1.913278    0.824872   -1.247073
     11          1           0        2.573777   -0.884842   -1.271115
 ---------------------------------------------------------------------

 SCF Done:  E(UHF) =  -627.994910313     A.U. after    2 cycles

 The electronic state is 2-A.
 Alpha  occ. eigenvalues --  -75.73105 -21.05957 -13.16735 -13.08855 -13.04139
 Alpha  occ. eigenvalues --  -11.51820 -11.43585 -11.43284 -11.38839  -8.06968
 Alpha  occ. eigenvalues --   -1.72637  -1.32970  -1.16667  -0.95639  -0.88226
 Alpha  occ. eigenvalues --   -0.75422  -0.69260  -0.63335  -0.56217  -0.54532
 Alpha  occ. eigenvalues --   -0.51489  -0.49468  -0.43497  -0.38484  -0.32343
 Alpha  occ. eigenvalues --   -0.26552  -0.26472
 Alpha virt. eigenvalues --    0.03487   0.05198   0.05347   0.06002   0.07047
 Alpha virt. eigenvalues --    0.07469   0.09414   0.10608   0.11859   0.12121
 Alpha virt. eigenvalues --    0.12568   0.14598   0.14684   0.15108   0.16019

  Beta  occ. eigenvalues --  -75.72089 -21.05776 -13.16167 -13.03497 -13.02762
  Beta  occ. eigenvalues --  -11.51916 -11.43581 -11.43280 -11.38833  -8.05829
  Beta  occ. eigenvalues --   -1.72251  -1.32837  -1.09986  -0.93724  -0.88217
  Beta  occ. eigenvalues --   -0.75039  -0.68471  -0.62665  -0.55306  -0.54546
  Beta  occ. eigenvalues --   -0.51488  -0.48902  -0.42958  -0.38392  -0.27326
  Beta  occ. eigenvalues --   -0.25024
  Beta virt. eigenvalues --    0.02989   0.03673   0.05202   0.05973   0.06620
  Beta virt. eigenvalues --    0.07048   0.07609   0.09530   0.10583   0.12164
  Beta virt. eigenvalues --    0.12304   0.12655   0.14766   0.14801   0.15999

 Mulliken charges and spin densities:
               1          2
     1  S    0.765269   1.084814
     2  C    1.456308  -0.065139
     3  O   -2.993821  -0.018815
     4  C   -1.651315   0.015890
     5  C   -2.068810  -0.001939
     6  C   -2.068464  -0.001942
     7  H    1.504760  -0.010329
     8  H    1.217966   0.000161
     9  H    1.310057  -0.001432
    10  H    1.310066  -0.001432
    11  H    1.217984   0.000162
 Sum of Mulliken charges =  -0.00000   1.00000

 Dipole moment (field-independent basis, Debye):
    X=              0.4627    Y=             -1.3770    Z=             -0.0006  Tot=              1.4526
                          Isotropic Fermi Contact Couplings
        Atom                 a.u.       MegaHertz       Gauss      10(-4) cm-1
     1  S(33)              0.32089     110.21875      39.32879      36.76502
     2  C(13)             -0.01086     -12.20586      -4.35535      -4.07144
     3  O(17)              0.02754     -16.69314      -5.95653      -5.56823
     4  C(13)              0.00216       2.42939       0.86687       0.81036
     5  C(13)              0.00081       0.91391       0.32611       0.30485
     6  C(13)              0.00081       0.91462       0.32636       0.30508
     7  H(1)               0.00100       4.47179       1.59565       1.49163
     8  H(1)              -0.00005      -0.20447      -0.07296      -0.06820

 Normal termination of Gaussian 16 at Tue Apr  8 23:23:09 2025.
