 Gaussian 16, Revision C.01,

 ----------------------------------------------------------------------
 #t hf aug-cc-pvdz symm=none int=(grid=ultrafine) guess=(read,tcheck) s
 table=(opt,rrhf)
 ----------------------------------------------------------------------
 -----
 title
 -----
 Symbolic Z-matrix:
 Charge =  0 Multiplicity = 1

 SCF Done:  E(RHF) =  -198.600455642     A.U. after   12 cycles
 Normal termination of Gaussian 16 at Wed Apr  9 00:37:34 2025.
 Gaussian 16:  ES64L-G16RevC.01  3-Jul-2019

 ----------------------------------------------------------------------
 #t hf aug-cc-pvdz iop(5/13=1,5/36=2,99/5=2) pseudo=read geom=check gue
 ss=(read,tcheck) scf=(maxcycle=1)
 ----------------------------------------------------------------------
 -----
 title
 -----
 Structure from the checkpoint file:  "BDE49_nonexpt_554_mol1.chk"
 Charge =  0 Multiplicity = 1

                         Standard orientation:
 ---------------------------------------------------------------------
 Center     Atomic      Atomic             Coordinates (Angstroms)
 Number     Number       Type             X           Y           Z
 ---------------------------------------------------------------------
      1          5           0       -1.424640   -1.190666   -0.244963
      2          7           0       -0.588359   -0.132810    0.092047
      3          6           0        0.778173   -0.330758    0.592264
      4          6           0        1.870726    0.055444   -0.409457
      5          1           0        0.880144   -1.383988    0.855839
      6          1           0        0.902391    0.249585    1.515775
      7          1           0        1.773285   -0.528906   -1.327819
      8          1           0        2.857455   -0.142059    0.018589
      9          6           0       -1.001433    1.265909   -0.007297
     10          1           0       -2.037898    1.314523   -0.336423
     11          1           0       -0.385663    1.820619   -0.722518
     12          1           0       -0.916901    1.763689    0.966173
     13          1           0        1.833200    1.115178   -0.673106
     14          1           0       -2.524759   -0.960890   -0.645880
     15          1           0       -1.024338   -2.308322   -0.123204
 ---------------------------------------------------------------------

 SCF Done:  E(RHF) =  -199.618096373     A.U. after    2 cycles

 The electronic state is 1-A.
 Alpha  occ. eigenvalues --  -15.69546 -11.42299 -11.38980 -11.36063  -7.58643
 Alpha  occ. eigenvalues --   -1.42304  -1.12050  -1.00547  -0.90203  -0.74998
 Alpha  occ. eigenvalues --   -0.64159  -0.61673  -0.60257  -0.55117  -0.54182
 Alpha  occ. eigenvalues --   -0.50374  -0.47758  -0.46326  -0.43349  -0.34793
 Alpha virt. eigenvalues --    0.03537   0.04000   0.04424   0.04888   0.06052
 Alpha virt. eigenvalues --    0.06395   0.06980   0.07309   0.07778   0.08893
 Alpha virt. eigenvalues --    0.09465   0.11638   0.11779   0.13126   0.13684

 Mulliken charges:
               1
     1  B    7.433295
     2  N   -2.189274
     3  C   -2.493309
     4  C   -3.432478
     5  H    1.452084
     6  H    1.522994
     7  H    1.360776
     8  H    1.147151
     9  C   -2.916954
    10  H    1.322321
    11  H    1.493220
    12  H    1.404757
    13  H    1.355783
    14  H   -3.868870
    15  H   -3.591497
 Sum of Mulliken charges =   0.00000

 Dipole moment (field-independent basis, Debye):
    X=              1.0913    Y=              1.3430    Z=              0.4777  Tot=              1.7952

 Test job not archived.
 1\1\GINC-SE247\SP\RHF\Aug-CC-pVDZ\C3H10B1N1\OHZDE\09-Apr-2025\0\\#t hf
  aug-cc-pvdz iop(5/13=1,5/36=2,99/5=2) pseudo=read geom=check guess=(r
 ead,tcheck) scf=(maxcycle=1)\\title\\0,1\B,0,-1.42464,-1.190666,-0.244
 963\N,0,-0.588359,-0.13281,0.092047\C,0,0.778173,-0.330758,0.592264\C,
 0,1.870726,0.055444,-0.409457\H,0,0.880144,-1.383988,0.855839\H,0,0.90
 2391,0.249585,1.515775\H,0,1.773285,-0.528906,-1.327819\H,0,2.857455,-
 0.142059,0.018589\C,0,-1.001433,1.265909,-0.007297\H,0,-2.037898,1.314
 523,-0.336423\H,0,-0.385663,1.820619,-0.722518\H,0,-0.916901,1.763689,

 Normal termination of Gaussian 16 at Wed Apr  9 00:37:38 2025.
