 Gaussian 16, Revision C.01,

 ----------------------------------------------------------------------
 #t hf aug-cc-pvdz symm=none int=(grid=ultrafine) guess=(read,tcheck) s
 table=opt
 ----------------------------------------------------------------------
 -----
 title
 -----
 Symbolic Z-matrix:
 Charge =  0 Multiplicity = 2

 SCF Done:  E(UHF) =  -1198.77997328     A.U. after   27 cycles
 Normal termination of Gaussian 16 at Tue Apr  8 23:12:04 2025.
 Gaussian 16:  ES64L-G16RevC.01  3-Jul-2019

 ----------------------------------------------------------------------
 #t hf aug-cc-pvdz iop(5/13=1,5/36=2,99/5=2) pseudo=read geom=check gue
 ss=(read,tcheck) scf=(maxcycle=1)
 ----------------------------------------------------------------------
 -----
 title
 -----
 Structure from the checkpoint file:  "BDE49_expt_645_mol2.chk"
 Charge =  0 Multiplicity = 2

                         Standard orientation:
 ---------------------------------------------------------------------
 Center     Atomic      Atomic             Coordinates (Angstroms)
 Number     Number       Type             X           Y           Z
 ---------------------------------------------------------------------
      1          8           0        0.545951   -0.000775    1.366579
      2          8           0        1.853231   -0.001938    1.251210
      3          6           0       -0.139031    0.000219    0.075344
      4          6           0       -1.557918    0.001401    0.405511
      5          7           0       -2.679230    0.001177    0.666541
      6         17           0        0.287883    1.470397   -0.837595
      7         17           0        0.285226   -1.470177   -0.838477
 ---------------------------------------------------------------------

 SCF Done:  E(UHF) =  -1200.39922195     A.U. after    2 cycles

 The electronic state is 2-A.
 Alpha  occ. eigenvalues --  -99.95052 -99.95044 -21.20787 -21.19873 -15.81797
 Alpha  occ. eigenvalues --  -11.62816 -11.48056 -10.52495 -10.52317  -9.72379
 Alpha  occ. eigenvalues --   -9.72229  -9.71457  -9.71454  -9.71377  -9.71343
 Alpha  occ. eigenvalues --   -2.11975  -1.51231  -1.37603  -1.34302  -1.33888
 Alpha  occ. eigenvalues --   -1.05425  -0.83183  -0.76113  -0.72237  -0.64469
 Alpha  occ. eigenvalues --   -0.60182  -0.59219  -0.56100  -0.54464  -0.53947
 Alpha  occ. eigenvalues --   -0.52675  -0.48850  -0.48601  -0.39756  -0.36774
 Alpha virt. eigenvalues --   -0.00073   0.04787   0.05271   0.08775   0.09924
 Alpha virt. eigenvalues --    0.10515   0.11471   0.12450   0.12512   0.12752
 Alpha virt. eigenvalues --    0.13710   0.13833   0.15443   0.16992   0.17187

  Beta  occ. eigenvalues --  -99.95045 -99.95036 -21.19356 -21.16808 -15.81880
  Beta  occ. eigenvalues --  -11.62903 -11.48004 -10.52489 -10.52310  -9.72337
  Beta  occ. eigenvalues --   -9.72186  -9.71456  -9.71446  -9.71381  -9.71342
  Beta  occ. eigenvalues --   -2.06862  -1.48107  -1.34231  -1.33998  -1.32049
  Beta  occ. eigenvalues --   -1.04513  -0.83095  -0.74970  -0.71521  -0.60155
  Beta  occ. eigenvalues --   -0.59396  -0.58601  -0.54039  -0.53849  -0.51978
  Beta  occ. eigenvalues --   -0.48635  -0.48575  -0.47575  -0.37535
  Beta virt. eigenvalues --    0.00009   0.02545   0.05300   0.08146   0.08821
  Beta virt. eigenvalues --    0.10633   0.11231   0.11593   0.12584   0.12852
  Beta virt. eigenvalues --    0.13468   0.13734   0.15516   0.15668   0.17092

 Mulliken charges and spin densities:
               1          2
     1  O   -1.326456   0.072643
     2  O   -0.178373   0.922352
     3  C    0.783795  -0.030689
     4  C    2.570844   0.046981
     5  N   -2.294324  -0.028228
     6  Cl   0.222339   0.008467
     7  Cl   0.222175   0.008474
 Sum of Mulliken charges =  -0.00000   1.00000

 Dipole moment (field-independent basis, Debye):
    X=              2.2276    Y=             -0.0017    Z=              0.6400  Tot=              2.3177
                          Isotropic Fermi Contact Couplings
        Atom                 a.u.       MegaHertz       Gauss      10(-4) cm-1
     1  O(17)              0.04874     -29.54622     -10.54283      -9.85556
     2  O(17)              0.19870    -120.45118     -42.97998     -40.17819
     3  C(13)             -0.01533     -17.23023      -6.14818      -5.74739
     4  C(13)              0.00129       1.45502       0.51919       0.48534
     5  N(14)             -0.00523      -1.69048      -0.60321      -0.56388
     6  Cl(35)            -0.00081      -0.35498      -0.12667      -0.11841
     7  Cl(35)            -0.00081      -0.35478      -0.12659      -0.11834
 --------------------------------------------------------

 Normal termination of Gaussian 16 at Tue Apr  8 23:12:07 2025.
