 Gaussian 16, Revision C.01,

 ----------------------------------------------------------------------
 #t hf aug-cc-pvdz symm=none int=(grid=ultrafine) guess=(read,tcheck) s
 table=opt
 ----------------------------------------------------------------------
 -----
 title
 -----
 Symbolic Z-matrix:
 Charge =  0 Multiplicity = 2

 SCF Done:  E(UHF) =  -368.723225957     A.U. after   14 cycles

 1\1\GINC-SE073\Stability\UHF\Aug-CC-pVDZ\C2H7Si1\OHZDE\08-Apr-2025\0\\
 #t hf aug-cc-pvdz symm=none int=(grid=ultrafine) guess=(read,tcheck) s
 table=opt\\title\\0,2\Si,0,-0.036548,-0.590051,0.\C,0,-0.036548,0.4684
 15,1.563797\H,0,-0.024601,-0.155466,2.460912\H,0,-0.922381,1.107625,1.
 60852\H,0,0.848053,1.115673,1.591448\C,0,-0.036548,0.468415,-1.563797\
 H,0,-0.922381,1.107625,-1.60852\H,0,-0.024601,-0.155466,-2.460912\H,0,
 0.848053,1.115673,-1.591448\H,0,1.148119,-1.495928,0.\\Version=ES64L-G
 16RevC.01\HF=-368.723226\S2=0.753464\S2-1=0.\S2A=0.750006\RMSD=4.656e-

 Normal termination of Gaussian 16 at Tue Apr  8 22:45:32 2025.
 Gaussian 16:  ES64L-G16RevC.01  3-Jul-2019

 ----------------------------------------------------------------------
 #t hf aug-cc-pvdz iop(5/13=1,5/36=2,99/5=2) pseudo=read geom=check gue
 ss=(read,tcheck) scf=(maxcycle=1)
 ----------------------------------------------------------------------
 -----
 title
 -----
 Structure from the checkpoint file:  "BDE49_expt_1538_mol2.chk"
 Charge =  0 Multiplicity = 2

                         Standard orientation:
 ---------------------------------------------------------------------
 Center     Atomic      Atomic             Coordinates (Angstroms)
 Number     Number       Type             X           Y           Z
 ---------------------------------------------------------------------
      1         14           0       -0.036548   -0.590051    0.000000
      2          6           0       -0.036548    0.468415    1.563797
      3          1           0       -0.024601   -0.155466    2.460912
      4          1           0       -0.922381    1.107625    1.608520
      5          1           0        0.848053    1.115673    1.591448
      6          6           0       -0.036548    0.468415   -1.563797
      7          1           0       -0.922381    1.107625   -1.608520
      8          1           0       -0.024601   -0.155466   -2.460912
      9          1           0        0.848053    1.115673   -1.591448
     10          1           0        1.148119   -1.495928    0.000000
 ---------------------------------------------------------------------

 SCF Done:  E(UHF) =  -369.289325437     A.U. after    2 cycles

 The electronic state is 2-A'.
 Alpha  occ. eigenvalues --  -76.20866 -11.34906 -11.34794  -5.54451  -2.18150
 Alpha  occ. eigenvalues --   -2.16938  -2.15660  -1.06059  -1.00950  -0.68930
 Alpha  occ. eigenvalues --   -0.56684  -0.56528  -0.54841  -0.54655  -0.43333
 Alpha  occ. eigenvalues --   -0.39973  -0.25526
 Alpha virt. eigenvalues --    0.03322   0.04758   0.05692   0.06015   0.07145
 Alpha virt. eigenvalues --    0.07279   0.07661   0.08447   0.09085   0.09222
 Alpha virt. eigenvalues --    0.13928   0.15683   0.15685   0.16874   0.17204

  Beta  occ. eigenvalues --  -76.20335 -11.34853 -11.34740  -5.53617  -2.17552
  Beta  occ. eigenvalues --   -2.16260  -2.12227  -1.05185  -1.00653  -0.64807
  Beta  occ. eigenvalues --   -0.56405  -0.55637  -0.54563  -0.54223  -0.42453
  Beta  occ. eigenvalues --   -0.39266
  Beta virt. eigenvalues --    0.02656   0.04924   0.05435   0.05988   0.06752
  Beta virt. eigenvalues --    0.07159   0.07353   0.07668   0.09205   0.09245
  Beta virt. eigenvalues --    0.10955   0.14863   0.16027   0.16272   0.17249

 Mulliken charges and spin densities:
               1          2
     1  Si   4.107846   0.988342
     2  C   -5.070143   0.010276
     3  H    1.297005  -0.009680
     4  H    1.287313  -0.013846
     5  H    1.240409   0.006226
     6  C   -5.070143   0.010276
     7  H    1.287313  -0.013846
     8  H    1.297005  -0.009680
     9  H    1.240409   0.006226
    10  H   -1.617014   0.025707
 Sum of Mulliken charges =  -0.00000   1.00000

 Dipole moment (field-independent basis, Debye):
    X=             -0.2160    Y=              0.7730    Z=              0.0000  Tot=              0.8026
                          Isotropic Fermi Contact Couplings
        Atom                 a.u.       MegaHertz       Gauss      10(-4) cm-1
     1  Si(29)             0.43400    -385.70337    -137.62856    -128.65680
     2  C(13)              0.01947      21.89262       7.81183       7.30259
     3  H(1)               0.00021       0.94076       0.33569       0.31380
     4  H(1)               0.00034       1.53532       0.54784       0.51213
     5  H(1)               0.00735      32.85307      11.72279      10.95860
     6  C(13)              0.01947      21.89262       7.81183       7.30259
     7  H(1)               0.00034       1.53532       0.54784       0.51213
     8  H(1)               0.00021       0.94076       0.33569       0.31380

 Normal termination of Gaussian 16 at Tue Apr  8 22:45:34 2025.
