 Gaussian 16, Revision C.01,

 ----------------------------------------------------------------------
 #t hf aug-cc-pvdz symm=none int=(grid=ultrafine) guess=(read,tcheck) s
 table=opt
 ----------------------------------------------------------------------
 -----
 title
 -----
 Symbolic Z-matrix:
 Charge =  0 Multiplicity = 2

 SCF Done:  E(UHF) =  -257.858588026     A.U. after   16 cycles
 Normal termination of Gaussian 16 at Wed Apr  9 00:30:53 2025.
 Gaussian 16:  ES64L-G16RevC.01  3-Jul-2019

 ----------------------------------------------------------------------
 #t hf aug-cc-pvdz iop(5/13=1,5/36=2,99/5=2) pseudo=read geom=check gue
 ss=(read,tcheck) scf=(maxcycle=1)
 ----------------------------------------------------------------------
 -----
 title
 -----
 Structure from the checkpoint file:  "BDE49_nonexpt_353_mol2.chk"
 Charge =  0 Multiplicity = 2

                         Standard orientation:
 ---------------------------------------------------------------------
 Center     Atomic      Atomic             Coordinates (Angstroms)
 Number     Number       Type             X           Y           Z
 ---------------------------------------------------------------------
      1          9           0       -2.023946   -0.198115   -0.000000
      2          7           0        0.367595   -0.083633   -0.000000
      3          5           0       -0.825603   -0.792240   -0.000000
      4          6           0        1.665308   -0.744301   -0.000000
      5          1           0        2.246215   -0.466193   -0.887451
      6          1           0        1.524117   -1.824992   -0.000001
      7          1           0        2.246214   -0.466194    0.887452
      8          6           0        0.414127    1.379287   -0.000000
      9          1           0       -0.600341    1.775296    0.000001
     10          1           0        0.938771    1.750915   -0.887632
     11          1           0        0.938772    1.750915    0.887632
 ---------------------------------------------------------------------

 SCF Done:  E(UHF) =  -258.935181135     A.U. after    2 cycles

 The electronic state is 2-A.
 Alpha  occ. eigenvalues --  -29.23660 -15.70659 -11.40203 -11.39479  -7.66510
 Alpha  occ. eigenvalues --   -1.43636  -1.05528  -1.02111  -0.83583  -0.66236
 Alpha  occ. eigenvalues --   -0.64187  -0.61823  -0.55417  -0.53719  -0.52182
 Alpha  occ. eigenvalues --   -0.45285  -0.44394  -0.35331  -0.29703  -0.22175
 Alpha virt. eigenvalues --    0.03103   0.04473   0.04667   0.05841   0.06893
 Alpha virt. eigenvalues --    0.07319   0.07617   0.08087   0.09694   0.10750
 Alpha virt. eigenvalues --    0.13537   0.13789   0.15256   0.16456   0.16707

  Beta  occ. eigenvalues --  -29.23337 -15.70686 -11.40138 -11.39405  -7.64414
  Beta  occ. eigenvalues --   -1.43148  -1.05305  -0.99882  -0.82133  -0.65560
  Beta  occ. eigenvalues --   -0.64405  -0.60364  -0.55429  -0.53173  -0.51972
  Beta  occ. eigenvalues --   -0.43383  -0.38161  -0.33528  -0.30665
  Beta virt. eigenvalues --    0.02907   0.04043   0.04583   0.05918   0.06947
  Beta virt. eigenvalues --    0.07209   0.07619   0.08119   0.08625   0.10284
  Beta virt. eigenvalues --    0.13036   0.13680   0.13931   0.16122   0.16961

 Mulliken charges and spin densities:
               1          2
     1  F   -1.064030  -0.075095
     2  N   -2.451317   0.028568
     3  B    0.497848   1.138573
     4  C   -2.613103  -0.123642
     5  H    1.400981  -0.007857
     6  H    1.572387  -0.007268
     7  H    1.400981  -0.007857
     8  C   -2.915091   0.070252
     9  H    1.416672  -0.012115
    10  H    1.377336  -0.001780
    11  H    1.377336  -0.001780
 Sum of Mulliken charges =  -0.00000   1.00000

 Dipole moment (field-independent basis, Debye):
    X=             -1.4055    Y=              2.1098    Z=             -0.0000  Tot=              2.5351
                          Isotropic Fermi Contact Couplings
        Atom                 a.u.       MegaHertz       Gauss      10(-4) cm-1
     1  F(19)              0.08173     343.88292     122.70598     114.70700
     2  N(14)              0.10094      32.61574      11.63811      10.87944
     3  B(11)              0.26814     384.61469     137.24008     128.29365
     4  C(13)              0.01693      19.03149       6.79091       6.34822
     5  H(1)              -0.00047      -2.08036      -0.74232      -0.69393
     6  H(1)              -0.00016      -0.70812      -0.25267      -0.23620
     7  H(1)              -0.00047      -2.08036      -0.74233      -0.69393
     8  C(13)              0.01635      18.37637       6.55715       6.12970

 Normal termination of Gaussian 16 at Wed Apr  9 00:30:56 2025.
