 Gaussian 16, Revision C.01,

 ----------------------------------------------------------------------
 #t hf aug-cc-pvdz symm=none int=(grid=ultrafine) guess=(read,tcheck) s
 table=(opt,rrhf)
 ----------------------------------------------------------------------
 -----
 title
 -----
 Symbolic Z-matrix:
 Charge =  0 Multiplicity = 1

 SCF Done:  E(RHF) =  -789.081242277     A.U. after   12 cycles
 Normal termination of Gaussian 16 at Tue Apr  8 23:19:54 2025.
 Gaussian 16:  ES64L-G16RevC.01  3-Jul-2019

 ----------------------------------------------------------------------
 #t hf aug-cc-pvdz iop(5/13=1,5/36=2,99/5=2) pseudo=read geom=check gue
 ss=(read,tcheck) scf=(maxcycle=1)
 ----------------------------------------------------------------------
 -----
 title
 -----
 Structure from the checkpoint file:  "BDE49_expt_833_mol1.chk"
 Charge =  0 Multiplicity = 1

                         Standard orientation:
 ---------------------------------------------------------------------
 Center     Atomic      Atomic             Coordinates (Angstroms)
 Number     Number       Type             X           Y           Z
 ---------------------------------------------------------------------
      1          6           0        6.959910   -0.444370   -0.016349
      2          6           0        5.697789    0.422577    0.007112
      3          1           0        6.994565   -1.068125   -0.915094
      4          1           0        6.997029   -1.112343    0.849942
      5          1           0        7.866016    0.167521   -0.002290
      6          6           0        4.400482   -0.393974   -0.011506
      7          1           0        5.706982    1.103933   -0.852309
      8          1           0        5.709430    1.060138    0.899488
      9          6           0        3.131631    0.465604    0.011643
     10          1           0        4.391772   -1.076248    0.848532
     11          1           0        4.389384   -1.032498   -0.904465
     12          6           0        1.834955   -0.351890   -0.006996
     13          1           0        3.141387    1.147542   -0.848461
     14          1           0        3.143780    1.103920    0.904589
     15          6           0        0.566320    0.508382    0.016053
     16          1           0        1.825059   -1.033777    0.853090
     17          1           0        1.822692   -0.990117   -0.899889
     18          6           0       -0.729808   -0.309895   -0.003066
     19          1           0        0.576161    1.190196   -0.844049
     20          1           0        0.578214    1.146455    0.909104
     21          6           0       -1.998031    0.551592    0.020226
     22          1           0       -0.740326   -0.991652    0.856912
     23          1           0       -0.742797   -0.947373   -0.896160
     24          6           0       -3.291554   -0.274398   -0.003765
     25          1           0       -1.987695    1.233738   -0.839443
     26          1           0       -1.986961    1.187743    0.914446
     27          6           0       -4.546356    0.597212    0.028615
     28          1           0       -3.303860   -0.957664    0.853620
     29          1           0       -3.316450   -0.903930   -0.899134
     30          1           0       -4.572502    1.224221    0.922264
     31         16           0       -6.129589   -0.332845   -0.086851
     32          1           0       -4.572081    1.266732   -0.835345
     33          1           0       -5.998395   -1.017931    1.062460
 ---------------------------------------------------------------------

 SCF Done:  E(RHF) =  -791.368972469     A.U. after    2 cycles

 The electronic state is 1-A.
 Alpha  occ. eigenvalues --  -75.67950 -13.12353 -13.09705 -13.01992 -11.43616
 Alpha  occ. eigenvalues --  -11.43177 -11.42298 -11.41550 -11.40737 -11.39109
 Alpha  occ. eigenvalues --  -11.37458 -11.36242 -11.35301 -11.33748  -8.01793
 Alpha  occ. eigenvalues --   -1.30231  -1.25144  -1.18738  -1.12131  -1.05626
 Alpha  occ. eigenvalues --   -0.99243  -0.92886  -0.87049  -0.83501  -0.82181
 Alpha  occ. eigenvalues --   -0.81677  -0.67608  -0.65704  -0.62718  -0.59163
 Alpha  occ. eigenvalues --   -0.58966  -0.57850  -0.56257  -0.55309  -0.54106
 Alpha  occ. eigenvalues --   -0.51815  -0.50860  -0.48630  -0.48135  -0.46380
 Alpha  occ. eigenvalues --   -0.46116  -0.45875  -0.45187  -0.44811  -0.44542
 Alpha  occ. eigenvalues --   -0.44099  -0.39174  -0.34405  -0.23114
 Alpha virt. eigenvalues --    0.03959   0.04302   0.04363   0.04601   0.05231
 Alpha virt. eigenvalues --    0.05532   0.05731   0.05908   0.06047   0.06245
 Alpha virt. eigenvalues --    0.06440   0.06711   0.07161   0.08333   0.08512

 Mulliken charges:
               1
     1  C   -4.818719
     2  C   -3.697162
     3  H    1.357873
     4  H    1.358412
     5  H    1.081218
     6  C   -2.973180
     7  H    1.501931
     8  H    1.503941
     9  C   -2.636716
    10  H    1.611445
    11  H    1.608326
    12  C   -2.495692
    13  H    1.645769
    14  H    1.643116
    15  C   -2.262799
    16  H    1.613961
    17  H    1.624178
    18  C   -2.152417
    19  H    1.631122
    20  H    1.636638
    21  C   -3.149341
    22  H    1.677129
    23  H    1.662282
    24  C   -3.693708
    25  H    1.626176
    26  H    1.607038
    27  C   -5.065938
    28  H    1.649693
    29  H    1.656295
    30  H    1.474728
    31  S   -0.695291
    32  H    1.495051
    33  H    0.974642
 Sum of Mulliken charges =   0.00000

 Dipole moment (field-independent basis, Debye):
    X=              0.4847    Y=              0.6520    Z=             -0.7615  Tot=              1.1135

 Test job not archived.
 1\1\GINC-SE423\SP\RHF\Aug-CC-pVDZ\C10H22S1\OHZDE\08-Apr-2025\0\\#t hf
 aug-cc-pvdz iop(5/13=1,5/36=2,99/5=2) pseudo=read geom=check guess=(re
 ad,tcheck) scf=(maxcycle=1)\\title\\0,1\C,0,6.95991,-0.44437,-0.016349
 \C,0,5.697789,0.422577,0.007112\H,0,6.994565,-1.068125,-0.915094\H,0,6
 .997029,-1.112343,0.849942\H,0,7.866016,0.167521,-0.00229\C,0,4.400482
 ,-0.393974,-0.011506\H,0,5.706982,1.103933,-0.852309\H,0,5.70943,1.060
 138,0.899488\C,0,3.131631,0.465604,0.011643\H,0,4.391772,-1.076248,0.8
 48532\H,0,4.389384,-1.032498,-0.904465\C,0,1.834955,-0.35189,-0.006996

 Normal termination of Gaussian 16 at Tue Apr  8 23:20:19 2025.
