 Gaussian 16, Revision C.01,

 ----------------------------------------------------------------------
 #t hf aug-cc-pvdz symm=none int=(grid=ultrafine) guess=(read,tcheck) s
 table=(opt,rrhf)
 ----------------------------------------------------------------------
 -----
 title
 -----
 Symbolic Z-matrix:
 Charge =  0 Multiplicity = 1

 SCF Done:  E(RHF) =  -407.382215950     A.U. after   12 cycles
 Normal termination of Gaussian 16 at Wed Apr  9 00:42:23 2025.
 Gaussian 16:  ES64L-G16RevC.01  3-Jul-2019

 ----------------------------------------------------------------------
 #t hf aug-cc-pvdz iop(5/13=1,5/36=2,99/5=2) pseudo=read geom=check gue
 ss=(read,tcheck) scf=(maxcycle=1)
 ----------------------------------------------------------------------
 -----
 title
 -----
 Structure from the checkpoint file:  "BDE49_nonexpt_672_mol1.chk"
 Charge =  0 Multiplicity = 1

                         Standard orientation:
 ---------------------------------------------------------------------
 Center     Atomic      Atomic             Coordinates (Angstroms)
 Number     Number       Type             X           Y           Z
 ---------------------------------------------------------------------
      1          8           0        0.262216   -0.196054   -0.497865
      2          5           0        1.534101   -0.224796   -0.006555
      3          8           0        2.492925   -0.960955   -0.656583
      4          6           0       -0.784313    0.571663    0.134495
      5          6           0       -0.741317    2.006421   -0.381117
      6          1           0        0.215160    2.471563   -0.134122
      7          1           0       -1.537460    2.603582    0.072421
      8          1           0       -0.869319    2.024914   -1.467046
      9          6           0       -2.110411   -0.127490   -0.160478
     10          6           0       -2.197168   -1.546371    0.405408
     11          1           0       -2.252772   -0.148204   -1.247049
     12          1           0       -2.917005    0.488661    0.252257
     13          1           0       -1.409480   -2.177902   -0.010226
     14          1           0       -3.160125   -2.006465    0.168862
     15          1           0       -2.087343   -1.545061    1.494562
     16          1           0       -0.604501    0.570909    1.215260
     17          1           0        2.134869   -1.397391   -1.434888
     18          8           0        1.872414    0.466875    1.126466
     19          1           0        2.796277    0.335107    1.356753
 ---------------------------------------------------------------------

 SCF Done:  E(RHF) =  -409.215493985     A.U. after    2 cycles

 The electronic state is 1-A.
 Alpha  occ. eigenvalues --  -21.05299 -21.05191 -21.01379 -11.44915 -11.40833
 Alpha  occ. eigenvalues --  -11.37275 -11.34833  -7.64941  -1.88339  -1.68805
 Alpha  occ. eigenvalues --   -1.65728  -1.20653  -1.07094  -0.92261  -0.83261
 Alpha  occ. eigenvalues --   -0.75538  -0.66933  -0.62924  -0.60420  -0.58420
 Alpha  occ. eigenvalues --   -0.57428  -0.54088  -0.52483  -0.49940  -0.49397
 Alpha  occ. eigenvalues --   -0.47861  -0.46378  -0.44555  -0.37361  -0.36392
 Alpha  occ. eigenvalues --   -0.35187  -0.33318
 Alpha virt. eigenvalues --    0.03724   0.04799   0.04912   0.05215   0.05682
 Alpha virt. eigenvalues --    0.06038   0.06401   0.06475   0.06740   0.07880
 Alpha virt. eigenvalues --    0.08982   0.09151   0.09343   0.09775   0.10395

 Mulliken charges:
               1
     1  O   -6.892906
     2  B    9.912274
     3  O   -3.803331
     4  C    1.403406
     5  C   -3.929786
     6  H    1.181946
     7  H    1.173680
     8  H    1.350768
     9  C   -3.534671
    10  C   -3.887030
    11  H    1.469346
    12  H    1.372170
    13  H    1.468408
    14  H    1.073245
    15  H    1.279860
    16  H    2.346502
    17  H    1.142719
    18  O   -4.190085
    19  H    1.063485
 Sum of Mulliken charges =   0.00000

 Dipole moment (field-independent basis, Debye):
    X=             -0.3742    Y=              0.0822    Z=              0.0627  Tot=              0.3882

 Test job not archived.
 1\1\GINC-SE187\SP\RHF\Aug-CC-pVDZ\C4H11B1O3\OHZDE\09-Apr-2025\0\\#t hf
  aug-cc-pvdz iop(5/13=1,5/36=2,99/5=2) pseudo=read geom=check guess=(r
 ead,tcheck) scf=(maxcycle=1)\\title\\0,1\O,0,0.262216,-0.196054,-0.497
 865\B,0,1.534101,-0.224796,-0.006555\O,0,2.492925,-0.960955,-0.656583\
 C,0,-0.784313,0.571663,0.134495\C,0,-0.741317,2.006421,-0.381117\H,0,0
 .21516,2.471563,-0.134122\H,0,-1.53746,2.603582,0.072421\H,0,-0.869319
 ,2.024914,-1.467046\C,0,-2.110411,-0.12749,-0.160478\C,0,-2.197168,-1.
 546371,0.405408\H,0,-2.252772,-0.148204,-1.247049\H,0,-2.917005,0.4886

 Normal termination of Gaussian 16 at Wed Apr  9 00:42:32 2025.
