 Gaussian 16, Revision C.01,

 ----------------------------------------------------------------------
 #t hf aug-cc-pvdz symm=none int=(grid=ultrafine) guess=(read,tcheck) s
 table=opt
 ----------------------------------------------------------------------
 -----
 title
 -----
 Symbolic Z-matrix:
 Charge =  0 Multiplicity = 2

 SCF Done:  E(UHF) =  -886.085200786     A.U. after   15 cycles
 Normal termination of Gaussian 16 at Wed Apr  9 00:21:39 2025.
 Gaussian 16:  ES64L-G16RevC.01  3-Jul-2019

 ----------------------------------------------------------------------
 #t hf aug-cc-pvdz iop(5/13=1,5/36=2,99/5=2) pseudo=read geom=check gue
 ss=(read,tcheck) scf=(maxcycle=1)
 ----------------------------------------------------------------------
 -----
 title
 -----
 Structure from the checkpoint file:  "BDE49_nonexpt_2625_mol2.chk"
 Charge =  0 Multiplicity = 2

                         Standard orientation:
 ---------------------------------------------------------------------
 Center     Atomic      Atomic             Coordinates (Angstroms)
 Number     Number       Type             X           Y           Z
 ---------------------------------------------------------------------
      1         16           0       -1.672116   -0.000004   -0.102804
      2         14           0        0.403043   -0.000001    0.344659
      3          9           0        1.142132   -1.267050   -0.276921
      4          9           0        1.142114    1.267060   -0.276918
      5          1           0        0.553041   -0.000007    1.804196
 ---------------------------------------------------------------------

 SCF Done:  E(UHF) =  -887.098351787     A.U. after    2 cycles

 The electronic state is 2-A.
 Alpha  occ. eigenvalues --  -76.32203 -75.73641 -29.29519 -29.29516 -13.11299
 Alpha  occ. eigenvalues --  -13.08834 -13.06724  -8.07349  -5.67641  -2.31958
 Alpha  occ. eigenvalues --   -2.30585  -2.27152  -1.14506  -0.93685  -0.70822
 Alpha  occ. eigenvalues --   -0.60477  -0.48455  -0.42325  -0.38566  -0.36807
 Alpha  occ. eigenvalues --   -0.35862  -0.35727  -0.31132  -0.30140  -0.27380
 Alpha virt. eigenvalues --    0.04372   0.05269   0.06754   0.07537   0.10299
 Alpha virt. eigenvalues --    0.13214   0.14125   0.14738   0.17799   0.17932
 Alpha virt. eigenvalues --    0.19209   0.24041   0.24968   0.26572   0.28083

  Beta  occ. eigenvalues --  -76.32234 -75.72695 -29.29517 -29.29514 -13.10732
  Beta  occ. eigenvalues --  -13.06156 -13.03107  -8.06295  -5.67689  -2.32002
  Beta  occ. eigenvalues --   -2.30640  -2.27226  -1.06489  -0.91562  -0.70817
  Beta  occ. eigenvalues --   -0.59748  -0.47441  -0.42300  -0.38198  -0.35970
  Beta  occ. eigenvalues --   -0.35843  -0.30944  -0.29912  -0.26200
  Beta virt. eigenvalues --   -0.00730   0.04654   0.05441   0.07028   0.07557
  Beta virt. eigenvalues --    0.10489   0.14243   0.14469   0.15209   0.18441
  Beta virt. eigenvalues --    0.19034   0.21422   0.24811   0.25821   0.26633

 Mulliken charges and spin densities:
               1          2
     1  S   -1.413201   1.134361
     2  Si   5.166718  -0.189146
     3  F   -0.851334   0.008821
     4  F   -0.851333   0.008823
     5  H   -2.050850   0.037141
 Sum of Mulliken charges =   0.00000   1.00000

 Dipole moment (field-independent basis, Debye):
    X=              1.1726    Y=              0.0000    Z=             -2.0358  Tot=              2.3494
                          Isotropic Fermi Contact Couplings
        Atom                 a.u.       MegaHertz       Gauss      10(-4) cm-1
     1  S(33)              0.21696      74.51992      26.59056      24.85717
     2  Si(29)            -0.02968      26.37592       9.41159       8.79806
     3  F(19)              0.00080       3.38634       1.20833       1.12956
     4  F(19)              0.00081       3.38778       1.20884       1.13004
     5  H(1)               0.00614      27.45668       9.79722       9.15856
 --------------------------------------------------------
       Center         ----  Spin Dipole Couplings  ----
                      3XX-RR        3YY-RR        3ZZ-RR

 Normal termination of Gaussian 16 at Wed Apr  9 00:21:41 2025.
