 Gaussian 16, Revision C.01,

 ----------------------------------------------------------------------
 #t hf aug-cc-pvdz symm=none int=(grid=ultrafine) guess=(read,tcheck) s
 table=(opt,rrhf)
 ----------------------------------------------------------------------
 -----
 title
 -----
 Symbolic Z-matrix:
 Charge =  0 Multiplicity = 1

 SCF Done:  E(RHF) =  -711.002784905     A.U. after   13 cycles

 1\1\GINC-SE340\Stability\RHF\Aug-CC-pVDZ\C8H18S1\OHZDE\08-Apr-2025\0\\
 #t hf aug-cc-pvdz symm=none int=(grid=ultrafine) guess=(read,tcheck) s
 table=(opt,rrhf)\\title\\0,1\C,0,5.151486,0.447129,-0.158232\C,0,3.925
 015,-0.31686,0.34891\H,0,6.074958,0.055688,0.277223\H,0,5.088576,1.509
 679,0.096585\H,0,5.240702,0.374062,-1.246677\C,0,2.605087,0.198731,-0.
 235852\H,0,3.883028,-0.254533,1.443119\H,0,4.033819,-1.381782,0.109798
 \C,0,1.371933,-0.560865,0.265882\H,0,2.647736,0.137213,-1.331101\H,0,2
 .495774,1.264266,0.003503\C,0,0.054061,-0.039072,-0.318526\H,0,1.33089

 Normal termination of Gaussian 16 at Tue Apr  8 23:17:11 2025.
 Gaussian 16:  ES64L-G16RevC.01  3-Jul-2019

 ----------------------------------------------------------------------
 #t hf aug-cc-pvdz iop(5/13=1,5/36=2,99/5=2) pseudo=read geom=check gue
 ss=(read,tcheck) scf=(maxcycle=1)
 ----------------------------------------------------------------------
 -----
 title
 -----
 Structure from the checkpoint file:  "BDE49_expt_832_mol1.chk"
 Charge =  0 Multiplicity = 1

                         Standard orientation:
 ---------------------------------------------------------------------
 Center     Atomic      Atomic             Coordinates (Angstroms)
 Number     Number       Type             X           Y           Z
 ---------------------------------------------------------------------
      1          6           0        5.151486    0.447129   -0.158232
      2          6           0        3.925015   -0.316860    0.348910
      3          1           0        6.074958    0.055688    0.277223
      4          1           0        5.088576    1.509679    0.096585
      5          1           0        5.240702    0.374062   -1.246677
      6          6           0        2.605087    0.198731   -0.235852
      7          1           0        3.883028   -0.254533    1.443119
      8          1           0        4.033819   -1.381782    0.109798
      9          6           0        1.371933   -0.560865    0.265882
     10          1           0        2.647736    0.137213   -1.331101
     11          1           0        2.495774    1.264266    0.003503
     12          6           0        0.054061   -0.039072   -0.318526
     13          1           0        1.330895   -0.498534    1.361035
     14          1           0        1.482367   -1.626643    0.026585
     15          6           0       -1.171230   -0.810876    0.179318
     16          1           0        0.095322   -0.099514   -1.414047
     17          1           0       -0.062007    1.021230   -0.073319
     18          6           0       -2.520026   -0.341527   -0.386122
     19          1           0       -1.213382   -0.775337    1.275213
     20          1           0       -1.055988   -1.870603   -0.085716
     21          6           0       -3.657810   -1.308047   -0.052206
     22          1           0       -2.435848   -0.255747   -1.474941
     23         16           0       -2.949651    1.395126    0.103485
     24          1           0       -3.438200   -2.305196   -0.448374
     25          1           0       -4.603647   -0.967372   -0.475919
     26          1           0       -3.786138   -1.400991    1.030576
     27          1           0       -3.134641    1.140419    1.411666
 ---------------------------------------------------------------------

 SCF Done:  E(RHF) =  -712.884204483     A.U. after    2 cycles

 The electronic state is 1-A.
 Alpha  occ. eigenvalues --  -75.67602 -13.12868 -13.09449 -13.05541 -11.44720
 Alpha  occ. eigenvalues --  -11.42652 -11.41599 -11.40025 -11.38106 -11.37070
 Alpha  occ. eigenvalues --  -11.35778 -11.33910  -8.01465  -1.30464  -1.23000
 Alpha  occ. eigenvalues --   -1.13315  -1.05049  -1.02504  -0.93886  -0.85666
 Alpha  occ. eigenvalues --   -0.81804  -0.81359  -0.66535  -0.63239  -0.60955
 Alpha  occ. eigenvalues --   -0.58691  -0.57955  -0.56988  -0.55026  -0.53246
 Alpha  occ. eigenvalues --   -0.50423  -0.49980  -0.48111  -0.46557  -0.46210
 Alpha  occ. eigenvalues --   -0.45291  -0.44799  -0.44196  -0.37998  -0.35630
 Alpha  occ. eigenvalues --   -0.23427
 Alpha virt. eigenvalues --    0.03917   0.04404   0.04636   0.05002   0.05394
 Alpha virt. eigenvalues --    0.05500   0.05962   0.06352   0.06750   0.06868
 Alpha virt. eigenvalues --    0.07334   0.07486   0.08340   0.08819   0.09647

 Mulliken charges:
               1
     1  C   -4.758416
     2  C   -3.618822
     3  H    1.087414
     4  H    1.356812
     5  H    1.345029
     6  C   -2.517774
     7  H    1.494280
     8  H    1.492041
     9  C   -2.291103
    10  H    1.603044
    11  H    1.577274
    12  C   -2.538960
    13  H    1.611082
    14  H    1.584949
    15  C   -2.610329
    16  H    1.551510
    17  H    1.815987
    18  C   -2.374081
    19  H    1.526780
    20  H    1.610784
    21  C   -4.914368
    22  H    1.847477
    23  S   -0.736071
    24  H    1.278711
    25  H    1.279147
    26  H    1.303906
    27  H    0.993699
 Sum of Mulliken charges =  -0.00000

 Dipole moment (field-independent basis, Debye):
    X=              0.3114    Y=              0.0297    Z=             -1.0223  Tot=              1.0691

 Test job not archived.
 1\1\GINC-SE340\SP\RHF\Aug-CC-pVDZ\C8H18S1\OHZDE\08-Apr-2025\0\\#t hf a
 ug-cc-pvdz iop(5/13=1,5/36=2,99/5=2) pseudo=read geom=check guess=(rea
 d,tcheck) scf=(maxcycle=1)\\title\\0,1\C,0,5.151486,0.447129,-0.158232
 \C,0,3.925015,-0.31686,0.34891\H,0,6.074958,0.055688,0.277223\H,0,5.08
 8576,1.509679,0.096585\H,0,5.240702,0.374062,-1.246677\C,0,2.605087,0.
 198731,-0.235852\H,0,3.883028,-0.254533,1.443119\H,0,4.033819,-1.38178
 2,0.109798\C,0,1.371933,-0.560865,0.265882\H,0,2.647736,0.137213,-1.33
 1101\H,0,2.495774,1.264266,0.003503\C,0,0.054061,-0.039072,-0.318526\H

 Normal termination of Gaussian 16 at Tue Apr  8 23:17:24 2025.
