 Gaussian 16, Revision C.01,

 ----------------------------------------------------------------------
 #t hf aug-cc-pvdz symm=none int=(grid=ultrafine) guess=(read,tcheck) s
 table=(opt,rrhf)
 ----------------------------------------------------------------------
 -----
 title
 -----
 Symbolic Z-matrix:
 Charge =  0 Multiplicity = 1

 SCF Done:  E(RHF) =  -797.069266564     A.U. after   17 cycles
 Normal termination of Gaussian 16 at Wed Apr  9 00:44:46 2025.
 Gaussian 16:  ES64L-G16RevC.01  3-Jul-2019

 ----------------------------------------------------------------------
 #t hf aug-cc-pvdz iop(5/13=1,5/36=2,99/5=2) pseudo=read geom=check gue
 ss=(read,tcheck) scf=(maxcycle=1)
 ----------------------------------------------------------------------
 -----
 title
 -----
 Structure from the checkpoint file:  "BDE49_nonexpt_661_mol1.chk"
 Charge =  0 Multiplicity = 1

                         Standard orientation:
 ---------------------------------------------------------------------
 Center     Atomic      Atomic             Coordinates (Angstroms)
 Number     Number       Type             X           Y           Z
 ---------------------------------------------------------------------
      1          6           0       -2.510519   -0.063398   -0.000348
      2          6           0       -1.663860   -1.165406   -0.000333
      3          6           0       -0.291405   -0.949806   -0.000242
      4          6           0       -2.035664    1.243832   -0.000258
      5          6           0       -0.663477    1.448735   -0.000167
      6          6           0        0.211015    0.356044   -0.000158
      7          1           0       -2.084842   -2.160750   -0.000399
      8          1           0        0.394350   -1.785737   -0.000233
      9          1           0       -2.737001    2.066023   -0.000268
     10          1           0       -0.251641    2.449488   -0.000101
     11          6           0        1.676467    0.630070   -0.000057
     12          8           0        2.420695   -0.489074   -0.000055
     13          5           0        3.839850   -0.493916    0.000035
     14          8           0        4.374424   -1.738177    0.000017
     15          8           0        2.138714    1.753403    0.000018
     16          7           0       -3.978186   -0.290107   -0.000457
     17          8           0       -4.700045    0.696259    0.000801
     18          8           0       -4.369353   -1.448060    0.000737
     19          1           0        5.336139   -1.711096    0.000080
     20          8           0        4.589284    0.628423    0.000131
     21          1           0        4.025944    1.419783    0.000130
 ---------------------------------------------------------------------

 SCF Done:  E(RHF) =  -800.449998806     A.U. after    2 cycles

 The electronic state is 1-A.
 Alpha  occ. eigenvalues --  -21.10799 -21.10680 -21.09936 -21.08550 -21.07417
 Alpha  occ. eigenvalues --  -21.06520 -16.01326 -11.58735 -11.56669 -11.49864
 Alpha  occ. eigenvalues --  -11.49067 -11.48524 -11.46113 -11.42129  -7.69485
 Alpha  occ. eigenvalues --   -2.01125  -1.94520  -1.78965  -1.70410  -1.69648
 Alpha  occ. eigenvalues --   -1.67631  -1.39533  -1.20907  -1.14467  -1.04996
 Alpha  occ. eigenvalues --   -0.92817  -0.91028  -0.83918  -0.78504  -0.74958
 Alpha  occ. eigenvalues --   -0.70730  -0.68879  -0.67513  -0.66102  -0.63373
 Alpha  occ. eigenvalues --   -0.63277  -0.62387  -0.61946  -0.58694  -0.56195
 Alpha  occ. eigenvalues --   -0.54371  -0.51377  -0.50185  -0.48732  -0.46709
 Alpha  occ. eigenvalues --   -0.38992  -0.38213  -0.37604  -0.37513  -0.36792
 Alpha  occ. eigenvalues --   -0.36221  -0.32645  -0.32430  -0.31984
 Alpha virt. eigenvalues --    0.02392   0.03459   0.04534   0.04791   0.04935
 Alpha virt. eigenvalues --    0.05930   0.06239   0.06495   0.07614   0.08050
 Alpha virt. eigenvalues --    0.09177   0.09297   0.09910   0.11036   0.11228

 Mulliken charges:
               1
     1  C    0.995577
     2  C   -2.783384
     3  C    0.228907
     4  C   -2.714775
     5  C   -0.276566
     6  C    0.789019
     7  H    1.859031
     8  H    1.936807
     9  H    1.847107
    10  H    1.868712
    11  C    7.274771
    12  O  -10.074949
    13  B    9.942037
    14  O   -3.171303
    15  O   -3.801165
    16  N    3.296097
    17  O   -2.989187
    18  O   -2.993560
    19  H    0.877317
    20  O   -4.181518
    21  H    2.071026
 Sum of Mulliken charges =   0.00000

 Dipole moment (field-independent basis, Debye):
    X=              1.9638    Y=              0.4860    Z=              0.0004  Tot=              2.0231

 Test job not archived.
 1\1\GINC-SE461\SP\RHF\Aug-CC-pVDZ\C7H6B1N1O6\OHZDE\09-Apr-2025\0\\#t h
 f aug-cc-pvdz iop(5/13=1,5/36=2,99/5=2) pseudo=read geom=check guess=(
 read,tcheck) scf=(maxcycle=1)\\title\\0,1\C,0,-2.510519,-0.063398,-0.0
 00348\C,0,-1.66386,-1.165406,-0.000333\C,0,-0.291405,-0.949806,-0.0002
 42\C,0,-2.035664,1.243832,-0.000258\C,0,-0.663477,1.448735,-0.000167\C
 ,0,0.211015,0.356044,-0.000158\H,0,-2.084842,-2.16075,-0.000399\H,0,0.
 39435,-1.785737,-0.000233\H,0,-2.737001,2.066023,-0.000268\H,0,-0.2516
 41,2.449488,-0.000101\C,0,1.676467,0.63007,-0.000057\O,0,2.420695,-0.4

 Normal termination of Gaussian 16 at Wed Apr  9 00:45:02 2025.
