 Gaussian 16, Revision C.01,

 ----------------------------------------------------------------------
 #t hf aug-cc-pvdz symm=none int=(grid=ultrafine) guess=(read,tcheck) s
 table=(opt,rrhf)
 ----------------------------------------------------------------------
 -----
 title
 -----
 Symbolic Z-matrix:
 Charge =  0 Multiplicity = 1

 SCF Done:  E(RHF) =  -629.452061798     A.U. after   14 cycles
 Normal termination of Gaussian 16 at Wed Apr  9 00:23:11 2025.
 Gaussian 16:  ES64L-G16RevC.01  3-Jul-2019

 ----------------------------------------------------------------------
 #t hf aug-cc-pvdz iop(5/13=1,5/36=2,99/5=2) pseudo=read geom=check gue
 ss=(read,tcheck) scf=(maxcycle=1)
 ----------------------------------------------------------------------
 -----
 title
 -----
 Structure from the checkpoint file:  "BDE49_nonexpt_2673_mol1.chk"
 Charge =  0 Multiplicity = 1

                         Standard orientation:
 ---------------------------------------------------------------------
 Center     Atomic      Atomic             Coordinates (Angstroms)
 Number     Number       Type             X           Y           Z
 ---------------------------------------------------------------------
      1          9           0        2.154351    0.762480    0.000014
      2         16           0        1.172887   -0.585516    0.000012
      3          6           0       -0.384499    0.248221   -0.000032
      4          7           0       -1.437212   -0.437117   -0.000005
      5          1           0       -0.288223    1.343083   -0.000045
      6          6           0       -2.716512    0.250470   -0.000004
      7          1           0       -3.288532   -0.057811    0.879533
      8          1           0       -3.288551   -0.057848   -0.879516
      9          1           0       -2.623503    1.346181   -0.000028
 ---------------------------------------------------------------------

 SCF Done:  E(RHF) =  -630.639032700     A.U. after    2 cycles

 The electronic state is 1-A.
 Alpha  occ. eigenvalues --  -75.77071 -29.28165 -15.75484 -13.21243 -13.18378
 Alpha  occ. eigenvalues --  -13.07500 -11.45782 -11.40216  -8.11182  -1.42210
 Alpha  occ. eigenvalues --   -1.22718  -1.02338  -0.83214  -0.71500  -0.63016
 Alpha  occ. eigenvalues --   -0.60886  -0.59164  -0.49874  -0.48031  -0.39324
 Alpha  occ. eigenvalues --   -0.38552  -0.34565  -0.29656  -0.18179
 Alpha virt. eigenvalues --    0.03276   0.05535   0.06340   0.06854   0.07273
 Alpha virt. eigenvalues --    0.10293   0.10435   0.12256   0.12629   0.13092
 Alpha virt. eigenvalues --    0.14942   0.16267   0.17524   0.17618   0.19477

 Mulliken charges:
               1
     1  F   -0.217503
     2  S    1.028421
     3  C   -0.806648
     4  N   -2.201200
     5  H    1.284243
     6  C   -2.966556
     7  H    1.324474
     8  H    1.324473
     9  H    1.230295
 Sum of Mulliken charges =  -0.00000

 Dipole moment (field-independent basis, Debye):
    X=              1.9462    Y=              2.1166    Z=              0.0001  Tot=              2.8753

 Test job not archived.
 1\1\GINC-SE159\SP\RHF\Aug-CC-pVDZ\C2H4F1N1S1\OHZDE\09-Apr-2025\0\\#t h
 f aug-cc-pvdz iop(5/13=1,5/36=2,99/5=2) pseudo=read geom=check guess=(
 read,tcheck) scf=(maxcycle=1)\\title\\0,1\F,0,-2.154351,0.76248,-0.000
 014\S,0,-1.172887,-0.585516,-0.000012\C,0,0.384499,0.248221,0.000032\N
 ,0,1.437212,-0.437117,0.000005\H,0,0.288223,1.343083,0.000045\C,0,2.71
 6512,0.25047,0.000004\H,0,3.288532,-0.057811,-0.879533\H,0,3.288551,-0
 .057848,0.879516\H,0,2.623503,1.346181,0.000028\\Version=ES64L-G16RevC
 .01\State=1-A\HF=-630.6390327\RMSD=8.592e-02\Dipole=-0.7656841,0.83271

 Normal termination of Gaussian 16 at Wed Apr  9 00:23:14 2025.
