 Gaussian 16, Revision C.01,

 ----------------------------------------------------------------------
 #t hf aug-cc-pvdz symm=none int=(grid=ultrafine) guess=(read,tcheck) s
 table=(opt,rrhf)
 ----------------------------------------------------------------------
 -----
 title
 -----
 Symbolic Z-matrix:
 Charge =  0 Multiplicity = 1

 SCF Done:  E(RHF) =  -696.853768348     A.U. after   12 cycles
 Normal termination of Gaussian 16 at Tue Apr  8 22:37:22 2025.
 Gaussian 16:  ES64L-G16RevC.01  3-Jul-2019

 ----------------------------------------------------------------------
 #t hf aug-cc-pvdz iop(5/13=1,5/36=2,99/5=2) pseudo=read geom=check gue
 ss=(read,tcheck) scf=(maxcycle=1)
 ----------------------------------------------------------------------
 -----
 title
 -----
 Structure from the checkpoint file:  "BDE49_expt_114_mol1.chk"
 Charge =  0 Multiplicity = 1

                         Standard orientation:
 ---------------------------------------------------------------------
 Center     Atomic      Atomic             Coordinates (Angstroms)
 Number     Number       Type             X           Y           Z
 ---------------------------------------------------------------------
      1          6           0        0.451484   -0.000005    0.366463
      2         17           0       -1.289692   -0.000024   -0.050501
      3          1           0        0.549921   -0.000001    1.449927
      4          9           0        1.036947    1.089774   -0.155023
      5          9           0        1.037047   -1.089724   -0.154998
 ---------------------------------------------------------------------

 SCF Done:  E(RHF) =  -697.946278918     A.U. after    2 cycles

 The electronic state is 1-A.
 Alpha  occ. eigenvalues --  -99.91510 -29.32089 -29.32046 -11.57373 -10.48974
 Alpha  occ. eigenvalues --   -9.68683  -9.67916  -9.67911  -1.42645  -1.21228
 Alpha  occ. eigenvalues --   -0.85717  -0.80279  -0.73191  -0.54077  -0.53415
 Alpha  occ. eigenvalues --   -0.47183  -0.41350  -0.36353  -0.31998  -0.31926
 Alpha  occ. eigenvalues --   -0.24879
 Alpha virt. eigenvalues --    0.04108   0.06712   0.08606   0.11779   0.12251
 Alpha virt. eigenvalues --    0.14893   0.14959   0.15654   0.20534   0.22170
 Alpha virt. eigenvalues --    0.23160   0.24277   0.28099   0.28282   0.28899

 Mulliken charges:
               1
     1  C   -2.628830
     2  Cl  -0.303969
     3  H    1.541670
     4  F    0.695563
     5  F    0.695566
 Sum of Mulliken charges =  -0.00000

 Dipole moment (field-independent basis, Debye):
    X=              4.0131    Y=              0.0001    Z=             -0.6373  Tot=              4.0634

 Test job not archived.
 1\1\GINC-SE457\SP\RHF\Aug-CC-pVDZ\C1H1Cl1F2\OHZDE\08-Apr-2025\0\\#t hf
  aug-cc-pvdz iop(5/13=1,5/36=2,99/5=2) pseudo=read geom=check guess=(r
 ead,tcheck) scf=(maxcycle=1)\\title\\0,1\C,0,-0.451484,0.000005,0.3664
 63\Cl,0,1.289692,0.000024,-0.050501\H,0,-0.549921,0.000001,1.449927\F,
 0,-1.036947,-1.089774,-0.155023\F,0,-1.037047,1.089724,-0.154998\\Vers
 ion=ES64L-G16RevC.01\State=1-A\HF=-697.9462789\RMSD=5.349e-02\Dipole=-
 1.5788618,-0.0000279,-0.2507398\Quadrupole=0.1758033,0.7202575,-0.8960
 609,-0.0001808,0.0080436,0.0000341\PG=C01 [X(C1H1Cl1F2)]\\@

 Normal termination of Gaussian 16 at Tue Apr  8 22:37:23 2025.
