 Gaussian 16, Revision C.01,

 ----------------------------------------------------------------------
 #t hf aug-cc-pvdz symm=none int=(grid=ultrafine) guess=(read,tcheck) s
 table=(opt,rrhf)
 ----------------------------------------------------------------------
 -----
 title
 -----
 Symbolic Z-matrix:
 Charge =  0 Multiplicity = 1

 SCF Done:  E(RHF) =  -1438.72724594     A.U. after   15 cycles
 Normal termination of Gaussian 16 at Tue Apr  8 23:48:17 2025.
 Gaussian 16:  ES64L-G16RevC.01  3-Jul-2019

 ----------------------------------------------------------------------
 #t hf aug-cc-pvdz iop(5/13=1,5/36=2,99/5=2) pseudo=read geom=check gue
 ss=(read,tcheck) scf=(maxcycle=1)
 ----------------------------------------------------------------------
 -----
 title
 -----
 Structure from the checkpoint file:  "BDE49_nonexpt_1772_mol1.chk"
 Charge =  0 Multiplicity = 1

                         Standard orientation:
 ---------------------------------------------------------------------
 Center     Atomic      Atomic             Coordinates (Angstroms)
 Number     Number       Type             X           Y           Z
 ---------------------------------------------------------------------
      1          6           0        0.152343    1.741329    0.087782
      2          6           0       -1.130877    2.148993   -0.264813
      3          6           0       -2.171994    1.225692   -0.323719
      4          6           0       -1.908775   -0.107230   -0.024555
      5          6           0       -0.632241   -0.530420    0.328112
      6          6           0        0.419220    0.396329    0.386520
      7          1           0        0.948912    2.476357    0.131202
      8          1           0       -1.328106    3.189858   -0.494137
      9         14           0        2.137547   -0.158708    0.853710
     10         17           0       -3.216333   -1.277767   -0.090290
     11          1           0       -3.174185    1.531687   -0.594838
     12          1           0       -0.467316   -1.576805    0.556112
     13         17           0        3.263196   -0.615287   -0.845284
     14          1           0        2.075866   -1.388399    1.665660
     15          1           0        2.856445    0.922965    1.552859
 ---------------------------------------------------------------------

 SCF Done:  E(RHF) =  -1440.47188412     A.U. after    2 cycles

 The electronic state is 1-A.
 Alpha  occ. eigenvalues --  -99.90141 -99.88231 -76.26681 -11.53315 -11.46785
 Alpha  occ. eigenvalues --  -11.45645 -11.44061 -11.42784 -11.38803 -10.47486
 Alpha  occ. eigenvalues --  -10.45612  -9.67511  -9.66625  -9.66450  -9.65530
 Alpha  occ. eigenvalues --   -9.64920  -9.64885  -5.60261  -2.24734  -2.23274
 Alpha  occ. eigenvalues --   -2.22318  -1.41025  -1.29293  -1.28068  -1.11994
 Alpha  occ. eigenvalues --   -1.09451  -0.89793  -0.87979  -0.78682  -0.72439
 Alpha  occ. eigenvalues --   -0.66292  -0.62534  -0.61041  -0.58282  -0.57207
 Alpha  occ. eigenvalues --   -0.55770  -0.55364  -0.52128  -0.50992  -0.50112
 Alpha  occ. eigenvalues --   -0.48127  -0.47365  -0.41467  -0.36204  -0.34854
 Alpha virt. eigenvalues --    0.02891   0.04779   0.05259   0.05337   0.05652
 Alpha virt. eigenvalues --    0.06234   0.07475   0.07707   0.08302   0.09070
 Alpha virt. eigenvalues --    0.09833   0.10115   0.10565   0.11866   0.12041

 Mulliken charges:
               1
     1  C   -3.228830
     2  C    0.426155
     3  C   -1.630121
     4  C   -0.578106
     5  C   -0.906032
     6  C   -0.590534
     7  H    1.866880
     8  H    1.512798
     9  Si   4.601782
    10  Cl  -0.810227
    11  H    1.748705
    12  H    1.859643
    13  Cl  -0.965146
    14  H   -1.658407
    15  H   -1.648559
 Sum of Mulliken charges =   0.00000

 Dipole moment (field-independent basis, Debye):
    X=             -0.5285    Y=              2.3862    Z=              0.8837  Tot=              2.5989

 Test job not archived.
 1\1\GINC-SE108\SP\RHF\Aug-CC-pVDZ\C6H6Cl2Si1\OHZDE\08-Apr-2025\0\\#t h
 f aug-cc-pvdz iop(5/13=1,5/36=2,99/5=2) pseudo=read geom=check guess=(
 read,tcheck) scf=(maxcycle=1)\\title\\0,1\C,0,0.152343,1.741329,0.0877
 82\C,0,-1.130877,2.148993,-0.264813\C,0,-2.171994,1.225692,-0.323719\C
 ,0,-1.908775,-0.10723,-0.024555\C,0,-0.632241,-0.53042,0.328112\C,0,0.
 41922,0.396329,0.38652\H,0,0.948912,2.476357,0.131202\H,0,-1.328106,3.
 189858,-0.494137\Si,0,2.137547,-0.158708,0.85371\Cl,0,-3.216333,-1.277
 767,-0.09029\H,0,-3.174185,1.531687,-0.594838\H,0,-0.467316,-1.576805,

 Normal termination of Gaussian 16 at Tue Apr  8 23:48:24 2025.
