 Gaussian 16, Revision C.01,

 ----------------------------------------------------------------------
 #t hf aug-cc-pvdz symm=none int=(grid=ultrafine) guess=(read,tcheck) s
 table=(opt,rrhf)
 ----------------------------------------------------------------------
 -----
 title
 -----
 Symbolic Z-matrix:
 Charge =  0 Multiplicity = 1

 SCF Done:  E(RHF) =  -737.317352944     A.U. after   15 cycles
 Normal termination of Gaussian 16 at Tue Apr  8 23:53:36 2025.
 Gaussian 16:  ES64L-G16RevC.01  3-Jul-2019

 ----------------------------------------------------------------------
 #t hf aug-cc-pvdz iop(5/13=1,5/36=2,99/5=2) pseudo=read geom=check gue
 ss=(read,tcheck) scf=(maxcycle=1)
 ----------------------------------------------------------------------
 -----
 title
 -----
 Structure from the checkpoint file:  "BDE49_nonexpt_1920_mol1.chk"
 Charge =  0 Multiplicity = 1

                         Standard orientation:
 ---------------------------------------------------------------------
 Center     Atomic      Atomic             Coordinates (Angstroms)
 Number     Number       Type             X           Y           Z
 ---------------------------------------------------------------------
      1          6           0        0.792465    0.738030    0.000079
      2         14           0       -0.436316   -0.703679    0.000115
      3          7           0       -2.097269    0.168518    0.000254
      4          8           0       -2.121832    1.399661   -0.000179
      5          1           0       -0.462478   -1.481114    1.242421
      6          1           0       -0.462619   -1.481058   -1.242226
      7          8           0       -3.089752   -0.550993   -0.000216
      8          7           0        2.149353    0.093013   -0.000013
      9          8           0        3.149404    0.770224   -0.000071
     10          8           0        2.117989   -1.144734   -0.000054
     11          1           0        0.733885    1.380730    0.879249
     12          1           0        0.733785    1.380771   -0.879054
 ---------------------------------------------------------------------

 SCF Done:  E(RHF) =  -739.356140684     A.U. after    2 cycles

 The electronic state is 1-A.
 Alpha  occ. eigenvalues --  -76.30380 -21.14074 -21.12764 -21.10864 -21.10638
 Alpha  occ. eigenvalues --  -16.03039 -15.97268 -11.46123  -5.63929  -2.28665
 Alpha  occ. eigenvalues --   -2.27131  -2.26018  -2.03333  -1.98379  -1.73087
 Alpha  occ. eigenvalues --   -1.69358  -1.22542  -1.02258  -0.89877  -0.77905
 Alpha  occ. eigenvalues --   -0.74393  -0.73918  -0.67352  -0.66561  -0.64842
 Alpha  occ. eigenvalues --   -0.61342  -0.60038  -0.53190  -0.51620  -0.39842
 Alpha  occ. eigenvalues --   -0.36059  -0.35227  -0.33132  -0.32310  -0.32021
 Alpha virt. eigenvalues --    0.03049   0.04776   0.05021   0.06322   0.06633
 Alpha virt. eigenvalues --    0.06986   0.09131   0.10889   0.11481   0.11984
 Alpha virt. eigenvalues --    0.12165   0.13302   0.14043   0.14721   0.15725

 Mulliken charges:
               1
     1  C   -3.102235
     2  Si   5.951151
     3  N    3.600349
     4  O   -2.145992
     5  H   -1.886527
     6  H   -1.886624
     7  O   -2.560010
     8  N    4.337370
     9  O   -2.765252
    10  O   -2.547849
    11  H    1.502786
    12  H    1.502831
 Sum of Mulliken charges =  -0.00000

 Dipole moment (field-independent basis, Debye):
    X=              1.7404    Y=              0.1324    Z=             -0.0000  Tot=              1.7454

 Test job not archived.
 1\1\GINC-SE103\SP\RHF\Aug-CC-pVDZ\C1H4N2O4Si1\OHZDE\08-Apr-2025\0\\#t
 hf aug-cc-pvdz iop(5/13=1,5/36=2,99/5=2) pseudo=read geom=check guess=
 (read,tcheck) scf=(maxcycle=1)\\title\\0,1\C,0,-0.792465,0.73803,-0.00
 0079\Si,0,0.436316,-0.703679,-0.000115\N,0,2.097269,0.168518,-0.000254
 \O,0,2.121832,1.399661,0.000179\H,0,0.462478,-1.481114,-1.242421\H,0,0
 .462619,-1.481058,1.242226\O,0,3.089752,-0.550993,0.000216\N,0,-2.1493
 53,0.093013,0.000013\O,0,-3.149404,0.770224,0.000071\O,0,-2.117989,-1.
 144734,0.000054\H,0,-0.733885,1.38073,-0.879249\H,0,-0.733785,1.380771

 Normal termination of Gaussian 16 at Tue Apr  8 23:53:41 2025.
