 Gaussian 16, Revision C.01,

 ----------------------------------------------------------------------
 #t hf aug-cc-pvdz symm=none int=(grid=ultrafine) guess=(read,tcheck) s
 table=(opt,rrhf)
 ----------------------------------------------------------------------
 -----
 title
 -----
 Symbolic Z-matrix:
 Charge =  0 Multiplicity = 1

 SCF Done:  E(RHF) =  -574.795435176     A.U. after   14 cycles

 1\1\GINC-SE454\Stability\RHF\Aug-CC-pVDZ\C3H3Cl1\OHZDE\08-Apr-2025\0\\
 #t hf aug-cc-pvdz symm=none int=(grid=ultrafine) guess=(read,tcheck) s
 table=(opt,rrhf)\\title\\0,1\C,0,-0.016882,0.833544,0.000025\C,0,1.255
 226,0.14679,-0.000036\C,0,2.32374,-0.400243,-0.000042\Cl,0,-1.433131,-
 0.323059,0.000009\H,0,-0.137565,1.451515,0.888878\H,0,-0.137635,1.4515
 9,-0.888758\H,0,3.265919,-0.891642,0.000038\\Version=ES64L-G16RevC.01\
 HF=-574.7954352\RMSD=3.112e-09\Dipole=0.5909055,0.5317782,0.0000657\Qu
 adrupole=0.8427912,0.580542,-1.4233333,-2.0958136,0.000303,-0.000009\P

 Normal termination of Gaussian 16 at Tue Apr  8 22:48:29 2025.
 Gaussian 16:  ES64L-G16RevC.01  3-Jul-2019

 ----------------------------------------------------------------------
 #t hf aug-cc-pvdz iop(5/13=1,5/36=2,99/5=2) pseudo=read geom=check gue
 ss=(read,tcheck) scf=(maxcycle=1)
 ----------------------------------------------------------------------
 -----
 title
 -----
 Structure from the checkpoint file:  "BDE49_expt_1641_mol1.chk"
 Charge =  0 Multiplicity = 1

                         Standard orientation:
 ---------------------------------------------------------------------
 Center     Atomic      Atomic             Coordinates (Angstroms)
 Number     Number       Type             X           Y           Z
 ---------------------------------------------------------------------
      1          6           0       -0.016882    0.833544    0.000025
      2          6           0        1.255226    0.146790   -0.000036
      3          6           0        2.323740   -0.400243   -0.000042
      4         17           0       -1.433131   -0.323059    0.000009
      5          1           0       -0.137565    1.451515    0.888878
      6          1           0       -0.137635    1.451590   -0.888758
      7          1           0        3.265919   -0.891642    0.000038
 ---------------------------------------------------------------------

 SCF Done:  E(RHF) =  -575.594132568     A.U. after    2 cycles

 The electronic state is 1-A.
 Alpha  occ. eigenvalues --  -99.88886 -11.49124 -11.42637 -11.41658 -10.46065
 Alpha  occ. eigenvalues --   -9.65934  -9.65231  -9.65165  -1.34195  -1.14946
 Alpha  occ. eigenvalues --   -1.00813  -0.76138  -0.66577  -0.65322  -0.61364
 Alpha  occ. eigenvalues --   -0.49486  -0.49336  -0.39031  -0.38580
 Alpha virt. eigenvalues --    0.02273   0.04707   0.06239   0.06370   0.08928
 Alpha virt. eigenvalues --    0.10382   0.11655   0.11723   0.13519   0.14525
 Alpha virt. eigenvalues --    0.15486   0.16027   0.16610   0.16808   0.17458

 Mulliken charges:
               1
     1  C   -4.461560
     2  C    4.714360
     3  C   -3.974138
     4  Cl   0.143586
     5  H    1.392019
     6  H    1.392097
     7  H    0.793636
 Sum of Mulliken charges =  -0.00000

 Dipole moment (field-independent basis, Debye):
    X=              1.7732    Y=              1.2439    Z=              0.0002  Tot=              2.1660

 Test job not archived.
 1\1\GINC-SE454\SP\RHF\Aug-CC-pVDZ\C3H3Cl1\OHZDE\08-Apr-2025\0\\#t hf a
 ug-cc-pvdz iop(5/13=1,5/36=2,99/5=2) pseudo=read geom=check guess=(rea
 d,tcheck) scf=(maxcycle=1)\\title\\0,1\C,0,-0.016882,0.833544,0.000025
 \C,0,1.255226,0.14679,-0.000036\C,0,2.32374,-0.400243,-0.000042\Cl,0,-
 1.433131,-0.323059,0.000009\H,0,-0.137565,1.451515,0.888878\H,0,-0.137
 635,1.45159,-0.888758\H,0,3.265919,-0.891642,0.000038\\Version=ES64L-G
 16RevC.01\State=1-A\HF=-575.5941326\RMSD=9.964e-01\Dipole=0.6976202,0.
 4893965,0.0000676\Quadrupole=1.2535694,0.4791244,-1.7326938,-1.7254061

 Normal termination of Gaussian 16 at Tue Apr  8 22:48:31 2025.
