 Gaussian 16, Revision C.01,

 ----------------------------------------------------------------------
 #t hf aug-cc-pvdz symm=none int=(grid=ultrafine) guess=(read,tcheck) s
 table=(opt,rrhf)
 ----------------------------------------------------------------------
 -----
 title
 -----
 Symbolic Z-matrix:
 Charge =  0 Multiplicity = 1

 SCF Done:  E(RHF) =  -672.238549397     A.U. after   16 cycles
 Normal termination of Gaussian 16 at Wed Apr  9 00:45:10 2025.
 Gaussian 16:  ES64L-G16RevC.01  3-Jul-2019

 ----------------------------------------------------------------------
 #t hf aug-cc-pvdz iop(5/13=1,5/36=2,99/5=2) pseudo=read geom=check gue
 ss=(read,tcheck) scf=(maxcycle=1)
 ----------------------------------------------------------------------
 -----
 title
 -----
 Structure from the checkpoint file:  "BDE49_nonexpt_750_mol1.chk"
 Charge =  0 Multiplicity = 1

                         Standard orientation:
 ---------------------------------------------------------------------
 Center     Atomic      Atomic             Coordinates (Angstroms)
 Number     Number       Type             X           Y           Z
 ---------------------------------------------------------------------
      1          6           0       -2.749995    0.356865    0.213518
      2          6           0       -1.947962    1.132797   -0.618260
      3          6           0       -0.635312    0.744090   -0.886889
      4          6           0       -2.230512   -0.807649    0.778495
      5          6           0       -0.915545   -1.187496    0.526826
      6          6           0       -0.095176   -0.416690   -0.309869
      7          1           0       -3.773084    0.651919    0.415891
      8          1           0       -2.344839    2.033699   -1.072861
      9          1           0       -0.036292    1.334399   -1.574172
     10          1           0       -2.850300   -1.419725    1.424455
     11          1           0       -0.522958   -2.088248    0.985060
     12          5           0        2.596836    0.338558    0.515123
     13          8           0        2.067662    1.486889    0.982325
     14          1           0        1.134908    1.604398    0.752748
     15         15           0        1.653077   -0.847340   -0.698524
     16          1           0        3.727888    0.092285    0.805106
     17          1           0        1.790065   -2.018042    0.084495
 ---------------------------------------------------------------------

 SCF Done:  E(RHF) =  -673.968326305     A.U. after    2 cycles

 The electronic state is 1-A.
 Alpha  occ. eigenvalues -- -105.16741 -21.06763 -11.52525 -11.44263 -11.44056
 Alpha  occ. eigenvalues --  -11.41854 -11.41517 -11.37292  -7.63569  -2.74556
 Alpha  occ. eigenvalues --   -1.74953  -1.50808  -1.46660  -1.44009  -1.33482
 Alpha  occ. eigenvalues --   -1.10123  -1.08714  -0.87272  -0.86283  -0.79463
 Alpha  occ. eigenvalues --   -0.73365  -0.68671  -0.63497  -0.59250  -0.57547
 Alpha  occ. eigenvalues --   -0.53322  -0.51565  -0.50019  -0.48384  -0.45715
 Alpha  occ. eigenvalues --   -0.43759  -0.34919  -0.34223  -0.25123  -0.14958
 Alpha  occ. eigenvalues --   -0.02549
 Alpha virt. eigenvalues --    0.02962   0.04120   0.04895   0.05136   0.05749
 Alpha virt. eigenvalues --    0.06273   0.06729   0.07639   0.08414   0.09795
 Alpha virt. eigenvalues --    0.10138   0.10328   0.10924   0.11572   0.11761

 Mulliken charges:
               1
     1  C   -2.262987
     2  C   -0.846380
     3  C   -4.003291
     4  C   -0.275195
     5  C   -3.778282
     6  C    2.938582
     7  H    1.473272
     8  H    1.539536
     9  H    1.949447
    10  H    1.528862
    11  H    1.878855
    12  B    5.708192
    13  O   -3.533230
    14  H    1.830985
    15  P    0.587717
    16  H   -3.288299
    17  H   -1.447782
 Sum of Mulliken charges =  -0.00000

 Dipole moment (field-independent basis, Debye):
    X=             -2.5666    Y=             -0.3334    Z=             -3.4454  Tot=              4.3092

 Test job not archived.
 1\1\GINC-SE179\SP\RHF\Aug-CC-pVDZ\C6H8B1O1P1\OHZDE\09-Apr-2025\0\\#t h
 f aug-cc-pvdz iop(5/13=1,5/36=2,99/5=2) pseudo=read geom=check guess=(
 read,tcheck) scf=(maxcycle=1)\\title\\0,1\C,0,-2.749995,0.356865,0.213
 518\C,0,-1.947962,1.132797,-0.61826\C,0,-0.635312,0.74409,-0.886889\C,
 0,-2.230512,-0.807649,0.778495\C,0,-0.915545,-1.187496,0.526826\C,0,-0
 .095176,-0.41669,-0.309869\H,0,-3.773084,0.651919,0.415891\H,0,-2.3448
 39,2.033699,-1.072861\H,0,-0.036292,1.334399,-1.574172\H,0,-2.8503,-1.
 419725,1.424455\H,0,-0.522958,-2.088248,0.98506\B,0,2.596836,0.338558,

 Normal termination of Gaussian 16 at Wed Apr  9 00:45:19 2025.
