 Gaussian 16, Revision C.01,

 ----------------------------------------------------------------------
 #t hf aug-cc-pvdz symm=none int=(grid=ultrafine) guess=(read,tcheck) s
 table=(opt,rrhf)
 ----------------------------------------------------------------------
 -----
 title
 -----
 Symbolic Z-matrix:
 Charge =  0 Multiplicity = 1

 SCF Done:  E(RHF) =  -555.511280549     A.U. after   14 cycles
 Normal termination of Gaussian 16 at Tue Apr  8 23:22:59 2025.
 Gaussian 16:  ES64L-G16RevC.01  3-Jul-2019

 ----------------------------------------------------------------------
 #t hf aug-cc-pvdz iop(5/13=1,5/36=2,99/5=2) pseudo=read geom=check gue
 ss=(read,tcheck) scf=(maxcycle=1)
 ----------------------------------------------------------------------
 -----
 title
 -----
 Structure from the checkpoint file:  "BDE49_nonexpt_1162_mol1.chk"
 Charge =  0 Multiplicity = 1

                         Standard orientation:
 ---------------------------------------------------------------------
 Center     Atomic      Atomic             Coordinates (Angstroms)
 Number     Number       Type             X           Y           Z
 ---------------------------------------------------------------------
      1          9           0       -1.363700    0.145201    1.846872
      2          8           0       -0.595996   -0.763794    1.034961
      3          6           0        0.016640    0.002359   -0.012938
      4          8           0        0.815788    0.946578    0.573718
      5          8           0       -0.891435    0.601429   -0.837501
      6          8           0        0.703556   -0.983850   -0.714641
      7          6           0        1.321338    1.969903   -0.296074
      8          1           0        2.052532    2.517140    0.296359
      9          1           0        0.520168    2.637789   -0.613344
     10          1           0        1.807362    1.534912   -1.173762
     11          6           0       -1.837428   -0.259337   -1.488135
     12          1           0       -2.487935    0.403302   -2.055679
     13          1           0       -2.423847   -0.810133   -0.750410
     14          1           0       -1.331214   -0.954334   -2.159565
     15          6           0        1.784076   -1.645347   -0.032092
     16          1           0        2.412897   -2.067337   -0.814767
     17          1           0        1.404373   -2.443132    0.608318
     18          1           0        2.355904   -0.933387    0.564147
 ---------------------------------------------------------------------

 SCF Done:  E(RHF) =  -557.823832008     A.U. after    2 cycles

 The electronic state is 1-A.
 Alpha  occ. eigenvalues --  -29.28620 -21.14629 -21.07288 -21.07068 -21.06804
 Alpha  occ. eigenvalues --  -11.54856 -11.42311 -11.41810 -11.41356  -1.94996
 Alpha  occ. eigenvalues --   -1.75086  -1.73184  -1.72254  -1.06371  -1.00469
 Alpha  occ. eigenvalues --   -0.99770  -0.83560  -0.72544  -0.70121  -0.68297
 Alpha  occ. eigenvalues --   -0.63900  -0.61682  -0.60829  -0.59880  -0.58361
 Alpha  occ. eigenvalues --   -0.55334  -0.54025  -0.46927  -0.45256  -0.41760
 Alpha  occ. eigenvalues --   -0.40207  -0.36932  -0.33494  -0.32116  -0.31351
 Alpha  occ. eigenvalues --   -0.24232  -0.21410
 Alpha virt. eigenvalues --    0.03818   0.04695   0.04785   0.05187   0.05861
 Alpha virt. eigenvalues --    0.06036   0.06774   0.07276   0.08838   0.11239
 Alpha virt. eigenvalues --    0.12397   0.13754   0.13943   0.14195   0.14912

 Mulliken charges:
               1
     1  F   -0.529405
     2  O   -1.565417
     3  C   11.056838
     4  O   -3.621001
     5  O   -3.770850
     6  O   -3.741846
     7  C   -3.426901
     8  H    1.306921
     9  H    1.421247
    10  H    1.341536
    11  C   -3.365099
    12  H    1.323383
    13  H    1.277368
    14  H    1.432575
    15  C   -3.227450
    16  H    1.312764
    17  H    1.389860
    18  H    1.385478
 Sum of Mulliken charges =  -0.00000

 Dipole moment (field-independent basis, Debye):
    X=             -0.0409    Y=              0.8921    Z=             -0.2297  Tot=              0.9221

 Test job not archived.
 1\1\GINC-SE227\SP\RHF\Aug-CC-pVDZ\C4H9F1O4\OHZDE\08-Apr-2025\0\\#t hf
 aug-cc-pvdz iop(5/13=1,5/36=2,99/5=2) pseudo=read geom=check guess=(re
 ad,tcheck) scf=(maxcycle=1)\\title\\0,1\F,0,-1.3637,0.145201,1.846872\
 O,0,-0.595996,-0.763794,1.034961\C,0,0.01664,0.002359,-0.012938\O,0,0.
 815788,0.946578,0.573718\O,0,-0.891435,0.601429,-0.837501\O,0,0.703556
 ,-0.98385,-0.714641\C,0,1.321339,1.969902,-0.296074\H,0,2.052533,2.517
 139,0.296359\H,0,0.520169,2.637789,-0.613344\H,0,1.807363,1.534911,-1.
 173762\C,0,-1.837428,-0.259336,-1.488135\H,0,-2.487935,0.403303,-2.055

 Normal termination of Gaussian 16 at Tue Apr  8 23:23:07 2025.
