 Gaussian 16, Revision C.01,

 ----------------------------------------------------------------------
 #t hf aug-cc-pvdz symm=none int=(grid=ultrafine) guess=(read,tcheck) s
 table=(opt,rrhf)
 ----------------------------------------------------------------------
 -----
 title
 -----
 Symbolic Z-matrix:
 Charge =  0 Multiplicity = 1

 SCF Done:  E(RHF) =  -1076.02083137     A.U. after   11 cycles

 1\1\GINC-SE367\Stability\RHF\Aug-CC-pVDZ\F5H1Si2\OHZDE\09-Apr-2025\0\\
 #t hf aug-cc-pvdz symm=none int=(grid=ultrafine) guess=(read,tcheck) s
 table=(opt,rrhf)\\title\\0,1\Si,0,1.331303,0.,-0.411515\Si,0,-0.982859
 ,0.,0.003526\F,0,-1.665967,1.279947,-0.64163\F,0,1.957144,-1.293636,0.
 283663\F,0,-1.314385,-0.000005,1.554073\F,0,1.957144,1.293636,0.283663
 \F,0,-1.665967,-1.279942,-0.641638\H,0,1.710067,0.,-1.831343\\Version=
 ES64L-G16RevC.01\HF=-1076.0208314\RMSD=7.804e-09\Dipole=0.2882228,-0.0
 000009,-0.625498\Quadrupole=-1.1132091,-0.9881072,2.1013163,0.0000042,

 Normal termination of Gaussian 16 at Wed Apr  9 00:09:03 2025.
 Gaussian 16:  ES64L-G16RevC.01  3-Jul-2019

 ----------------------------------------------------------------------
 #t hf aug-cc-pvdz iop(5/13=1,5/36=2,99/5=2) pseudo=read geom=check gue
 ss=(read,tcheck) scf=(maxcycle=1)
 ----------------------------------------------------------------------
 -----
 title
 -----
 Structure from the checkpoint file:  "BDE49_nonexpt_2308_mol1.chk"
 Charge =  0 Multiplicity = 1

                         Standard orientation:
 ---------------------------------------------------------------------
 Center     Atomic      Atomic             Coordinates (Angstroms)
 Number     Number       Type             X           Y           Z
 ---------------------------------------------------------------------
      1         14           0        1.331303    0.000000   -0.411515
      2         14           0       -0.982859   -0.000000    0.003526
      3          9           0       -1.665967    1.279947   -0.641630
      4          9           0        1.957144   -1.293636    0.283663
      5          9           0       -1.314385   -0.000005    1.554073
      6          9           0        1.957144    1.293636    0.283663
      7          9           0       -1.665967   -1.279942   -0.641638
      8          1           0        1.710067    0.000000   -1.831343
 ---------------------------------------------------------------------

 SCF Done:  E(RHF) =  -1078.01001349     A.U. after    2 cycles

 The electronic state is 1-A.
 Alpha  occ. eigenvalues --  -76.33646 -76.32165 -29.31210 -29.31205 -29.31164
 Alpha  occ. eigenvalues --  -29.30623 -29.30623  -5.70330  -5.67502  -2.34590
 Alpha  occ. eigenvalues --   -2.34527  -2.32592  -2.29876  -2.29427  -2.26586
 Alpha  occ. eigenvalues --   -1.03395  -0.95879  -0.73980  -0.73847  -0.72014
 Alpha  occ. eigenvalues --   -0.60654  -0.56620  -0.44428  -0.44250  -0.44223
 Alpha  occ. eigenvalues --   -0.43226  -0.42364  -0.39527  -0.38051  -0.37111
 Alpha  occ. eigenvalues --   -0.36424  -0.36188  -0.32187  -0.32164  -0.31134
 Alpha  occ. eigenvalues --   -0.30286  -0.26016
 Alpha virt. eigenvalues --    0.05008   0.06574   0.07182   0.07991   0.08132
 Alpha virt. eigenvalues --    0.09054   0.09065   0.12451   0.16818   0.17140
 Alpha virt. eigenvalues --    0.19825   0.20542   0.21643   0.22865   0.23457

 Mulliken charges:
               1
     1  Si   3.397882
     2  Si   2.389277
     3  F   -0.727859
     4  F   -0.786055
     5  F   -0.719069
     6  F   -0.786055
     7  F   -0.727857
     8  H   -2.040264
 Sum of Mulliken charges =  -0.00000

 Dipole moment (field-independent basis, Debye):
    X=             -0.5917    Y=             -0.0000    Z=              2.5975  Tot=              2.6640

 Test job not archived.
 1\1\GINC-SE367\SP\RHF\Aug-CC-pVDZ\F5H1Si2\OHZDE\09-Apr-2025\0\\#t hf a
 ug-cc-pvdz iop(5/13=1,5/36=2,99/5=2) pseudo=read geom=check guess=(rea
 d,tcheck) scf=(maxcycle=1)\\title\\0,1\Si,0,1.331303,0.,-0.411515\Si,0
 ,-0.982859,0.,0.003526\F,0,-1.665967,1.279947,-0.64163\F,0,1.957144,-1
 .293636,0.283663\F,0,-1.314385,-0.000005,1.554073\F,0,1.957144,1.29363
 6,0.283663\F,0,-1.665967,-1.279942,-0.641638\H,0,1.710067,0.,-1.831343
 \\Version=ES64L-G16RevC.01\State=1-A\HF=-1078.0100135\RMSD=5.676e-02\D
 ipole=-0.2327792,-0.0000012,1.0219365\Quadrupole=2.0263479,0.8934592,-

 Normal termination of Gaussian 16 at Wed Apr  9 00:09:06 2025.
