 Gaussian 16, Revision C.01,

 ----------------------------------------------------------------------
 #t hf aug-cc-pvdz symm=none int=(grid=ultrafine) guess=(read,tcheck) s
 table=opt
 ----------------------------------------------------------------------
 -----
 title
 -----
 Symbolic Z-matrix:
 Charge =  0 Multiplicity = 2

 SCF Done:  E(UHF) =  -699.612247146     A.U. after   19 cycles
 Normal termination of Gaussian 16 at Wed Apr  9 00:19:46 2025.
 Gaussian 16:  ES64L-G16RevC.01  3-Jul-2019

 ----------------------------------------------------------------------
 #t hf aug-cc-pvdz iop(5/13=1,5/36=2,99/5=2) pseudo=read geom=check gue
 ss=(read,tcheck) scf=(maxcycle=1)
 ----------------------------------------------------------------------
 -----
 title
 -----
 Structure from the checkpoint file:  "BDE49_nonexpt_2589_mol2.chk"
 Charge =  0 Multiplicity = 2

                         Standard orientation:
 ---------------------------------------------------------------------
 Center     Atomic      Atomic             Coordinates (Angstroms)
 Number     Number       Type             X           Y           Z
 ---------------------------------------------------------------------
      1         16           0        2.252345   -0.000846   -0.000006
      2          8           0        0.744279   -0.700327    0.000000
      3          6           0       -0.378554    0.122198    0.000007
      4          8           0       -0.382630    1.313686    0.000002
      5          8           0       -1.418956   -0.701752    0.000004
      6          6           0       -2.706920   -0.049459    0.000000
      7          1           0       -2.815721    0.570358    0.890604
      8          1           0       -3.434771   -0.856472   -0.000002
      9          1           0       -2.815716    0.570358   -0.890604
 ---------------------------------------------------------------------

 SCF Done:  E(UHF) =  -701.059421611     A.U. after    2 cycles

 The electronic state is 2-A.
 Alpha  occ. eigenvalues --  -75.76550 -21.13386 -21.11814 -21.07331 -13.22154
 Alpha  occ. eigenvalues --  -13.10461 -13.09155 -11.55877 -11.43438  -8.09826
 Alpha  occ. eigenvalues --   -1.92980  -1.76145  -1.69376  -1.10235  -1.01543
 Alpha  occ. eigenvalues --   -0.77909  -0.70098  -0.66756  -0.62279  -0.59349
 Alpha  occ. eigenvalues --   -0.56782  -0.46683  -0.45726  -0.44109  -0.34833
 Alpha  occ. eigenvalues --   -0.32485  -0.27460  -0.25853
 Alpha virt. eigenvalues --    0.03082   0.05629   0.06013   0.06308   0.08159
 Alpha virt. eigenvalues --    0.10417   0.10788   0.12803   0.13920   0.14275
 Alpha virt. eigenvalues --    0.15523   0.15991   0.17573   0.18623   0.19646

  Beta  occ. eigenvalues --  -75.75583 -21.12910 -21.11798 -21.07341 -13.21779
  Beta  occ. eigenvalues --  -13.09904 -13.03197 -11.55892 -11.43440  -8.08744
  Beta  occ. eigenvalues --   -1.92565  -1.75397  -1.69288  -1.06467  -0.97238
  Beta  occ. eigenvalues --   -0.76778  -0.69741  -0.66396  -0.62066  -0.58314
  Beta  occ. eigenvalues --   -0.56659  -0.45935  -0.43814  -0.41493  -0.34691
  Beta  occ. eigenvalues --   -0.32386  -0.24465
  Beta virt. eigenvalues --    0.03127   0.03776   0.05705   0.06207   0.06405
  Beta virt. eigenvalues --    0.08287   0.10548   0.12775   0.12963   0.13974
  Beta virt. eigenvalues --    0.14312   0.15584   0.17205   0.17635   0.18745

 Mulliken charges and spin densities:
               1          2
     1  S    0.712502   0.967211
     2  O   -2.268229   0.017588
     3  C    5.823167  -0.002299
     4  O   -2.264725   0.004971
     5  O   -2.877294   0.012187
     6  C   -2.963778  -0.001483
     7  H    1.247504   0.000993
     8  H    1.343345  -0.000161
     9  H    1.247507   0.000993
 Sum of Mulliken charges =  -0.00000   1.00000

 Dipole moment (field-independent basis, Debye):
    X=             -0.7360    Y=             -0.3498    Z=             -0.0000  Tot=              0.8150
                          Isotropic Fermi Contact Couplings
        Atom                 a.u.       MegaHertz       Gauss      10(-4) cm-1
     1  S(33)              0.28352      97.38252      34.74850      32.48331
     2  O(17)              0.02988     -18.11206      -6.46283      -6.04153
     3  C(13)             -0.00195      -2.19366      -0.78275      -0.73173
     4  O(17)             -0.00139       0.84534       0.30164       0.28197
     5  O(17)             -0.00096       0.58371       0.20828       0.19471
     6  C(13)             -0.00046      -0.51263      -0.18292      -0.17099
     7  H(1)               0.00022       1.00226       0.35763       0.33432
     8  H(1)              -0.00001      -0.02537      -0.00905      -0.00846

 Normal termination of Gaussian 16 at Wed Apr  9 00:19:49 2025.
