 Gaussian 16, Revision C.01,

 ----------------------------------------------------------------------
 #t hf aug-cc-pvdz symm=none int=(grid=ultrafine) guess=(read,tcheck) s
 table=(opt,rrhf)
 ----------------------------------------------------------------------
 -----
 title
 -----
 Symbolic Z-matrix:
 Charge =  0 Multiplicity = 1

 SCF Done:  E(RHF) =  -592.932683528     A.U. after   13 cycles
 Normal termination of Gaussian 16 at Wed Apr  9 00:08:36 2025.
 Gaussian 16:  ES64L-G16RevC.01  3-Jul-2019

 ----------------------------------------------------------------------
 #t hf aug-cc-pvdz iop(5/13=1,5/36=2,99/5=2) pseudo=read geom=check gue
 ss=(read,tcheck) scf=(maxcycle=1)
 ----------------------------------------------------------------------
 -----
 title
 -----
 Structure from the checkpoint file:  "BDE49_nonexpt_2279_mol1.chk"
 Charge =  0 Multiplicity = 1

                         Standard orientation:
 ---------------------------------------------------------------------
 Center     Atomic      Atomic             Coordinates (Angstroms)
 Number     Number       Type             X           Y           Z
 ---------------------------------------------------------------------
      1         14           0        0.380411   -0.017652   -0.000001
      2          8           0        0.146957    1.612682   -0.000230
      3          8           0        1.288492   -0.518914    1.272039
      4          1           0        0.928608    2.170681   -0.000292
      5          6           0       -1.324427   -0.739501    0.000113
      6          6           0       -2.444168   -0.010459    0.000024
      7          1           0       -1.415584   -1.825592    0.000260
      8          1           0       -2.409352    1.074415   -0.000131
      9          1           0       -3.432315   -0.463797    0.000089
     10          1           0        0.911529   -0.402122    2.146544
     11          8           0        1.288476   -0.519271   -1.271912
     12          1           0        0.911529   -0.402668   -2.146449
 ---------------------------------------------------------------------

 SCF Done:  E(RHF) =  -594.393023491     A.U. after    2 cycles

 The electronic state is 1-A.
 Alpha  occ. eigenvalues --  -76.24298 -21.07366 -21.07192 -21.07181 -11.41666
 Alpha  occ. eigenvalues --  -11.36343  -5.59396  -2.27376  -2.25893  -2.23708
 Alpha  occ. eigenvalues --   -1.70300  -1.64111  -1.63449  -1.13947  -0.82884
 Alpha  occ. eigenvalues --   -0.72007  -0.65252  -0.60298  -0.56278  -0.55770
 Alpha  occ. eigenvalues --   -0.50937  -0.46949  -0.46794  -0.41059  -0.37345
 Alpha  occ. eigenvalues --   -0.36262  -0.35971  -0.34193
 Alpha virt. eigenvalues --    0.03247   0.05188   0.06051   0.06174   0.06359
 Alpha virt. eigenvalues --    0.07036   0.08108   0.08248   0.09630   0.11092
 Alpha virt. eigenvalues --    0.12030   0.14767   0.14896   0.15723   0.17424

 Mulliken charges:
               1
     1  Si   7.788378
     2  O   -3.140191
     3  O   -3.088990
     4  H    1.048137
     5  C   -2.537649
     6  C   -2.896334
     7  H    1.146135
     8  H    1.323809
     9  H    1.385849
    10  H    1.029927
    11  O   -3.088993
    12  H    1.029921
 Sum of Mulliken charges =   0.00000

 Dipole moment (field-independent basis, Debye):
    X=             -0.7267    Y=              0.5271    Z=             -0.0001  Tot=              0.8977

 Test job not archived.
 1\1\GINC-SE453\SP\RHF\Aug-CC-pVDZ\C2H6O3Si1\OHZDE\09-Apr-2025\0\\#t hf
  aug-cc-pvdz iop(5/13=1,5/36=2,99/5=2) pseudo=read geom=check guess=(r
 ead,tcheck) scf=(maxcycle=1)\\title\\0,1\Si,0,0.380411,-0.017652,-0.00
 0001\O,0,0.146957,1.612682,-0.00023\O,0,1.288492,-0.518914,1.272039\H,
 0,0.928608,2.170681,-0.000292\C,0,-1.324427,-0.739501,0.000113\C,0,-2.
 444168,-0.010459,0.000024\H,0,-1.415584,-1.825592,0.00026\H,0,-2.40935
 2,1.074415,-0.000131\H,0,-3.432315,-0.463797,0.000089\H,0,0.911529,-0.
 402122,2.146544\O,0,1.288476,-0.519271,-1.271912\H,0,0.911529,-0.40266

 Normal termination of Gaussian 16 at Wed Apr  9 00:08:40 2025.
