 Gaussian 16, Revision C.01,

 ----------------------------------------------------------------------
 #t hf aug-cc-pvdz symm=none int=(grid=ultrafine) guess=(read,tcheck) s
 table=(opt,rrhf)
 ----------------------------------------------------------------------
 -----
 title
 -----
 Symbolic Z-matrix:
 Charge =  0 Multiplicity = 1

 SCF Done:  E(RHF) =  -1407.07940377     A.U. after   11 cycles
 Normal termination of Gaussian 16 at Tue Apr  8 23:48:15 2025.
 Gaussian 16:  ES64L-G16RevC.01  3-Jul-2019

 ----------------------------------------------------------------------
 #t hf aug-cc-pvdz iop(5/13=1,5/36=2,99/5=2) pseudo=read geom=check gue
 ss=(read,tcheck) scf=(maxcycle=1)
 ----------------------------------------------------------------------
 -----
 title
 -----
 Structure from the checkpoint file:  "BDE49_nonexpt_1807_mol1.chk"
 Charge =  0 Multiplicity = 1

                         Standard orientation:
 ---------------------------------------------------------------------
 Center     Atomic      Atomic             Coordinates (Angstroms)
 Number     Number       Type             X           Y           Z
 ---------------------------------------------------------------------
      1         14           0       -0.000017    0.328815    0.000000
      2          9           0       -0.000017    1.260569    1.275184
      3          9           0       -0.000017    1.260569   -1.275184
      4         17           0       -1.680155   -0.802806    0.000000
      5         17           0        1.680187   -0.802703    0.000000
 ---------------------------------------------------------------------

 SCF Done:  E(RHF) =  -1408.38869542     A.U. after    2 cycles

 The electronic state is 1-A'.
 Alpha  occ. eigenvalues --  -99.92659 -99.92656 -76.37589 -29.31722 -29.31722
 Alpha  occ. eigenvalues --  -10.50278 -10.50203  -9.70050  -9.70045  -9.69444
 Alpha  occ. eigenvalues --   -9.69389  -9.69332  -9.69266  -5.73537  -2.37615
 Alpha  occ. eigenvalues --   -2.36010  -2.33925  -1.35523  -1.32734  -0.96886
 Alpha  occ. eigenvalues --   -0.74625  -0.67620  -0.64976  -0.58891  -0.58050
 Alpha  occ. eigenvalues --   -0.57382  -0.55416  -0.44764  -0.40170  -0.39477
 Alpha  occ. eigenvalues --   -0.37507  -0.36815  -0.31551
 Alpha virt. eigenvalues --    0.04921   0.05777   0.07311   0.07870   0.10792
 Alpha virt. eigenvalues --    0.11742   0.13513   0.13967   0.14748   0.15258
 Alpha virt. eigenvalues --    0.15871   0.17202   0.19743   0.21249   0.22023

 Mulliken charges:
               1
     1  Si   2.882129
     2  F   -0.722186
     3  F   -0.722186
     4  Cl  -0.718881
     5  Cl  -0.718875
 Sum of Mulliken charges =   0.00000

 Dipole moment (field-independent basis, Debye):
    X=             -0.0001    Y=              3.5919    Z=             -0.0000  Tot=              3.5919

 Test job not archived.
 1\1\GINC-SE455\SP\RHF\Aug-CC-pVDZ\Cl2F2Si1\OHZDE\08-Apr-2025\0\\#t hf
 aug-cc-pvdz iop(5/13=1,5/36=2,99/5=2) pseudo=read geom=check guess=(re
 ad,tcheck) scf=(maxcycle=1)\\title\\0,1\Si,0,-0.000017,0.328815,0.\F,0
 ,-0.000017,1.260569,1.275184\F,0,-0.000017,1.260569,-1.275184\Cl,0,-1.
 680155,-0.802806,0.\Cl,0,1.680187,-0.802703,0.\\Version=ES64L-G16RevC.
 01\State=1-A'\HF=-1408.3886954\RMSD=3.666e-02\Dipole=-0.0000508,1.4131
 703,0.\Quadrupole=-2.8432133,1.3050049,1.5382084,0.0000209,0.,0.\PG=CS
  [SG(Cl2Si1),X(F2)]\\@

 Normal termination of Gaussian 16 at Tue Apr  8 23:48:16 2025.
