 Gaussian 16, Revision C.01,

 ----------------------------------------------------------------------
 #t hf aug-cc-pvdz symm=none int=(grid=ultrafine) guess=(read,tcheck) s
 table=opt
 ----------------------------------------------------------------------
 -----
 title
 -----
 Symbolic Z-matrix:
 Charge =  0 Multiplicity = 2

 SCF Done:  E(UHF) =  -679.658729002     A.U. after   14 cycles

 1\1\GINC-SE403\Stability\UHF\Aug-CC-pVDZ\F1H4Si2\OHZDE\08-Apr-2025\0\\
 #t hf aug-cc-pvdz symm=none int=(grid=ultrafine) guess=(read,tcheck) s
 table=opt\\title\\0,2\Si,0,1.552341,-0.19791,-0.076852\Si,0,-0.676045,
 0.512911,0.066703\F,0,-1.646518,-0.772168,-0.097604\H,0,-1.021184,1.13
 8044,1.364561\H,0,-0.968839,1.455206,-1.035705\H,0,2.052645,-0.962333,
 1.092735\H,0,2.487904,0.90859,-0.401066\\Version=ES64L-G16RevC.01\HF=-
 679.658729\S2=0.759135\S2-1=0.\S2A=0.750033\RMSD=7.273e-09\Dipole=0.42
 58846,0.4430613,0.0751493\Quadrupole=-1.0746912,0.3184646,0.7562266,-1

 Normal termination of Gaussian 16 at Tue Apr  8 23:57:21 2025.
 Gaussian 16:  ES64L-G16RevC.01  3-Jul-2019

 ----------------------------------------------------------------------
 #t hf aug-cc-pvdz iop(5/13=1,5/36=2,99/5=2) pseudo=read geom=check gue
 ss=(read,tcheck) scf=(maxcycle=1)
 ----------------------------------------------------------------------
 -----
 title
 -----
 Structure from the checkpoint file:  "BDE49_nonexpt_2020_mol2.chk"
 Charge =  0 Multiplicity = 2

                         Standard orientation:
 ---------------------------------------------------------------------
 Center     Atomic      Atomic             Coordinates (Angstroms)
 Number     Number       Type             X           Y           Z
 ---------------------------------------------------------------------
      1         14           0        1.552341   -0.197910   -0.076852
      2         14           0       -0.676045    0.512911    0.066703
      3          9           0       -1.646518   -0.772168   -0.097604
      4          1           0       -1.021184    1.138044    1.364561
      5          1           0       -0.968839    1.455206   -1.035705
      6          1           0        2.052645   -0.962333    1.092735
      7          1           0        2.487904    0.908590   -0.401066
 ---------------------------------------------------------------------

 SCF Done:  E(UHF) =  -680.294860202     A.U. after    2 cycles

 The electronic state is 2-A.
 Alpha  occ. eigenvalues --  -76.26299 -76.23647 -29.26428  -5.60439  -5.57068
 Alpha  occ. eigenvalues --   -2.24952  -2.21344  -2.20412  -2.19003  -2.18369
 Alpha  occ. eigenvalues --   -2.17316  -0.88801  -0.75532  -0.59310  -0.51897
 Alpha  occ. eigenvalues --   -0.48188  -0.43382  -0.33379  -0.32551  -0.30547
 Alpha  occ. eigenvalues --   -0.27046
 Alpha virt. eigenvalues --    0.04228   0.04769   0.06679   0.07471   0.07713
 Alpha virt. eigenvalues --    0.08040   0.08374   0.09321   0.09555   0.10060
 Alpha virt. eigenvalues --    0.12352   0.12899   0.15538   0.16259   0.18349

  Beta  occ. eigenvalues --  -76.26304 -76.23101 -29.26454  -5.60449  -5.56230
  Beta  occ. eigenvalues --   -2.24900  -2.21366  -2.20416  -2.18323  -2.17607
  Beta  occ. eigenvalues --   -2.13769  -0.88198  -0.71113  -0.59000  -0.51491
  Beta  occ. eigenvalues --   -0.47965  -0.42790  -0.33357  -0.32440  -0.29129
  Beta virt. eigenvalues --    0.02413   0.04486   0.04871   0.06876   0.07741
  Beta virt. eigenvalues --    0.08205   0.08211   0.08911   0.09875   0.10096
  Beta virt. eigenvalues --    0.10458   0.13058   0.14601   0.16970   0.17166

 Mulliken charges and spin densities:
               1          2
     1  Si   2.780070   1.169688
     2  Si   4.143860  -0.077966
     3  F   -0.963691  -0.013447
     4  H   -1.657952   0.018788
     5  H   -1.616923  -0.006616
     6  H   -1.337034  -0.038581
     7  H   -1.348330  -0.051866
 Sum of Mulliken charges =  -0.00000   1.00000

 Dipole moment (field-independent basis, Debye):
    X=             -1.3997    Y=             -2.1267    Z=             -0.4540  Tot=              2.5861
                          Isotropic Fermi Contact Couplings
        Atom                 a.u.       MegaHertz       Gauss      10(-4) cm-1
     1  Si(29)             0.36821    -327.24157    -116.76793    -109.15604
     2  Si(29)             0.00827      -7.35219      -2.62344      -2.45243
     3  F(19)             -0.00417     -17.52741      -6.25421      -5.84651
     4  H(1)               0.00776      34.67184      12.37177      11.56528
     5  H(1)              -0.00152      -6.78350      -2.42052      -2.26273
     6  H(1)              -0.00279     -12.45479      -4.44418      -4.15447
     7  H(1)              -0.00381     -17.02241      -6.07402      -5.67807
 --------------------------------------------------------

 Normal termination of Gaussian 16 at Tue Apr  8 23:57:23 2025.
