 Gaussian 16, Revision C.01,

 ----------------------------------------------------------------------
 #t hf aug-cc-pvdz symm=none int=(grid=ultrafine) guess=(read,tcheck) s
 table=(opt,rrhf)
 ----------------------------------------------------------------------
 -----
 title
 -----
 Symbolic Z-matrix:
 Charge =  0 Multiplicity = 1

 SCF Done:  E(RHF) =  -743.555099618     A.U. after   13 cycles
 Normal termination of Gaussian 16 at Tue Apr  8 22:48:38 2025.
 Gaussian 16:  ES64L-G16RevC.01  3-Jul-2019

 ----------------------------------------------------------------------
 #t hf aug-cc-pvdz iop(5/13=1,5/36=2,99/5=2) pseudo=read geom=check gue
 ss=(read,tcheck) scf=(maxcycle=1)
 ----------------------------------------------------------------------
 -----
 title
 -----
 Structure from the checkpoint file:  "BDE49_expt_1601_mol1.chk"
 Charge =  0 Multiplicity = 1

                         Standard orientation:
 ---------------------------------------------------------------------
 Center     Atomic      Atomic             Coordinates (Angstroms)
 Number     Number       Type             X           Y           Z
 ---------------------------------------------------------------------
      1         16           0       -1.374459   -0.199625   -0.000000
      2          6           0       -2.662296    1.056139   -0.000000
      3          8           0       -1.457062   -0.915471    1.259733
      4          8           0       -1.457062   -0.915472   -1.259732
      5          1           0       -2.578207    1.661403    0.901873
      6          1           0       -3.605917    0.509697   -0.000000
      7          1           0       -2.578207    1.661403   -0.901874
      8          6           0        0.158782    0.764861   -0.000000
      9          6           0        1.377153   -0.160986   -0.000000
     10          1           0        0.130140    1.395903    0.892057
     11          1           0        0.130140    1.395902   -0.892057
     12          6           0        2.697862    0.620171   -0.000000
     13          1           0        1.329104   -0.810661   -0.878791
     14          1           0        1.329104   -0.810660    0.878791
     15          6           0        3.923123   -0.298096   -0.000000
     16          1           0        2.732656    1.276775   -0.877455
     17          1           0        2.732656    1.276775    0.877454
     18          1           0        3.932225   -0.943811   -0.882978
     19          1           0        3.932225   -0.943811    0.882978
     20          1           0        4.850669    0.280091   -0.000000
 ---------------------------------------------------------------------

 SCF Done:  E(RHF) =  -745.479269986     A.U. after    2 cycles

 The electronic state is 1-A.
 Alpha  occ. eigenvalues --  -75.87312 -21.03350 -21.03318 -13.49678 -13.40492
 Alpha  occ. eigenvalues --  -13.34823 -11.45216 -11.42841 -11.42112 -11.39116
 Alpha  occ. eigenvalues --  -11.36224  -8.22481  -1.81886  -1.63846  -1.27048
 Alpha  occ. eigenvalues --   -1.16283  -1.09434  -0.96900  -0.86471  -0.83979
 Alpha  occ. eigenvalues --   -0.68257  -0.65279  -0.62984  -0.62326  -0.60633
 Alpha  occ. eigenvalues --   -0.57588  -0.55830  -0.52378  -0.52315  -0.47299
 Alpha  occ. eigenvalues --   -0.47203  -0.45484  -0.42335  -0.38315  -0.37378
 Alpha  occ. eigenvalues --   -0.34446  -0.34146
 Alpha virt. eigenvalues --    0.02995   0.03856   0.04610   0.04955   0.05907
 Alpha virt. eigenvalues --    0.06223   0.06409   0.06768   0.08028   0.08477
 Alpha virt. eigenvalues --    0.08606   0.09979   0.10558   0.11907   0.12633

 Mulliken charges:
               1
     1  S    5.973271
     2  C   -4.909287
     3  O   -2.516734
     4  O   -2.516735
     5  H    1.379865
     6  H    1.294185
     7  H    1.379864
     8  C   -3.724904
     9  C   -1.953397
    10  H    1.549158
    11  H    1.549159
    12  C   -2.921399
    13  H    1.584379
    14  H    1.584381
    15  C   -4.327128
    16  H    1.424798
    17  H    1.424800
    18  H    1.323616
    19  H    1.323616
    20  H    1.078490
 Sum of Mulliken charges =  -0.00000

 Dipole moment (field-independent basis, Debye):
    X=              0.9150    Y=              2.1459    Z=             -0.0000  Tot=              2.3328

 Test job not archived.
 1\1\GINC-SE073\SP\RHF\Aug-CC-pVDZ\C5H12O2S1\OHZDE\08-Apr-2025\0\\#t hf
  aug-cc-pvdz iop(5/13=1,5/36=2,99/5=2) pseudo=read geom=check guess=(r
 ead,tcheck) scf=(maxcycle=1)\\title\\0,1\S,0,-1.374459,-0.199625,0.\C,
 0,-2.662296,1.056139,0.\O,0,-1.457062,-0.915471,1.259733\O,0,-1.457062
 ,-0.915472,-1.259732\H,0,-2.578207,1.661403,0.901873\H,0,-3.605917,0.5
 09697,0.\H,0,-2.578207,1.661403,-0.901874\C,0,0.158782,0.764861,0.\C,0
 ,1.377153,-0.160986,0.\H,0,0.13014,1.395903,0.892057\H,0,0.13014,1.395
 902,-0.892057\C,0,2.697862,0.620171,0.\H,0,1.329104,-0.810661,-0.87879

 Normal termination of Gaussian 16 at Tue Apr  8 22:48:47 2025.
