 Gaussian 16, Revision C.01,

 ----------------------------------------------------------------------
 #t hf aug-cc-pvdz symm=none int=(grid=ultrafine) guess=(read,tcheck) s
 table=(opt,rrhf)
 ----------------------------------------------------------------------
 -----
 title
 -----
 Symbolic Z-matrix:
 Charge =  0 Multiplicity = 1

 SCF Done:  E(RHF) =  -743.979748361     A.U. after   14 cycles
 Normal termination of Gaussian 16 at Tue Apr  8 23:53:20 2025.
 Gaussian 16:  ES64L-G16RevC.01  3-Jul-2019

 ----------------------------------------------------------------------
 #t hf aug-cc-pvdz iop(5/13=1,5/36=2,99/5=2) pseudo=read geom=check gue
 ss=(read,tcheck) scf=(maxcycle=1)
 ----------------------------------------------------------------------
 -----
 title
 -----
 Structure from the checkpoint file:  "BDE49_nonexpt_1893_mol1.chk"
 Charge =  0 Multiplicity = 1

                         Standard orientation:
 ---------------------------------------------------------------------
 Center     Atomic      Atomic             Coordinates (Angstroms)
 Number     Number       Type             X           Y           Z
 ---------------------------------------------------------------------
      1         14           0       -0.596920   -1.601507   -0.129007
      2          6           0        0.941442   -1.141255    0.908941
      3          6           0        1.673190    0.074721    0.391860
      4          8           0        1.161509    1.194008    0.419106
      5          7           0        2.909159   -0.142851   -0.128599
      6          6           0       -1.991938   -0.286671   -0.198326
      7          1           0       -1.180699   -2.818352    0.472392
      8          1           0       -0.167745   -1.894794   -1.516395
      9          8           0       -3.074804   -0.699631   -0.608158
     10          7           0       -1.747505    0.988380    0.188978
     11          6           0        3.722645    0.915430   -0.707061
     12          1           0        3.280456   -1.078405   -0.104250
     13          1           0        3.976372    0.688023   -1.745873
     14          1           0        4.645475    1.059098   -0.137970
     15          1           0        3.138846    1.833111   -0.673298
     16          6           0       -2.758676    2.032753    0.109438
     17          1           0       -0.786352    1.240137    0.412459
     18          1           0       -3.703861    1.566691   -0.164081
     19          1           0       -2.496964    2.778010   -0.648129
     20          1           0       -2.868668    2.536839    1.073337
     21          1           0        1.587241   -2.022198    0.980380
     22          1           0        0.587590   -0.910655    1.918176
 ---------------------------------------------------------------------

 SCF Done:  E(RHF) =  -746.200118202     A.U. after    2 cycles

 The electronic state is 1-A.
 Alpha  occ. eigenvalues --  -76.22647 -21.03327 -21.01062 -15.78037 -15.74246
 Alpha  occ. eigenvalues --  -11.52556 -11.44649 -11.40948 -11.39366 -11.38213
 Alpha  occ. eigenvalues --   -5.56301  -2.20985  -2.19249  -2.18619  -1.72272
 Alpha  occ. eigenvalues --   -1.68026  -1.40536  -1.36648  -1.12799  -1.01058
 Alpha  occ. eigenvalues --   -1.00056  -0.82102  -0.80739  -0.74592  -0.70056
 Alpha  occ. eigenvalues --   -0.64767  -0.63635  -0.62936  -0.60185  -0.57538
 Alpha  occ. eigenvalues --   -0.56440  -0.55409  -0.52065  -0.51244  -0.50106
 Alpha  occ. eigenvalues --   -0.48840  -0.46008  -0.44667  -0.42064  -0.32562
 Alpha  occ. eigenvalues --   -0.30887  -0.28830  -0.25409
 Alpha virt. eigenvalues --    0.02829   0.04014   0.04919   0.05006   0.05335
 Alpha virt. eigenvalues --    0.05773   0.06121   0.06873   0.07196   0.07776
 Alpha virt. eigenvalues --    0.08347   0.08635   0.09165   0.10329   0.11071

 Mulliken charges:
               1
     1  Si   6.117258
     2  C   -4.812243
     3  C    5.828329
     4  O   -3.594842
     5  N   -3.071120
     6  C    2.855306
     7  H   -1.868565
     8  H   -1.982816
     9  O   -2.862019
    10  N   -2.957839
    11  C   -3.514355
    12  H    0.807753
    13  H    1.400630
    14  H    1.372119
    15  H    1.456670
    16  C   -3.425065
    17  H    1.167735
    18  H    1.396833
    19  H    1.380985
    20  H    1.384656
    21  H    1.443373
    22  H    1.477216
 Sum of Mulliken charges =  -0.00000

 Dipole moment (field-independent basis, Debye):
    X=              4.0742    Y=              0.5924    Z=              0.6076  Tot=              4.1616

 Test job not archived.
 1\1\GINC-SE070\SP\RHF\Aug-CC-pVDZ\C5H12N2O2Si1\OHZDE\08-Apr-2025\0\\#t
  hf aug-cc-pvdz iop(5/13=1,5/36=2,99/5=2) pseudo=read geom=check guess
 =(read,tcheck) scf=(maxcycle=1)\\title\\0,1\Si,0,-0.59692,-1.601507,-0
 .129007\C,0,0.941442,-1.141255,0.908941\C,0,1.67319,0.074721,0.39186\O
 ,0,1.161509,1.194008,0.419106\N,0,2.909159,-0.142851,-0.128599\C,0,-1.
 991938,-0.286671,-0.198326\H,0,-1.180699,-2.818352,0.472392\H,0,-0.167
 745,-1.894794,-1.516395\O,0,-3.074804,-0.699631,-0.608158\N,0,-1.74750
 5,0.98838,0.188978\C,0,3.722645,0.91543,-0.707061\H,0,3.280456,-1.0784

 Normal termination of Gaussian 16 at Tue Apr  8 23:53:33 2025.
