 Gaussian 16, Revision C.01,

 ----------------------------------------------------------------------
 #t hf aug-cc-pvdz symm=none int=(grid=ultrafine) guess=(read,tcheck) s
 table=(opt,rrhf)
 ----------------------------------------------------------------------
 -----
 title
 -----
 Symbolic Z-matrix:
 Charge =  0 Multiplicity = 1

 SCF Done:  E(RHF) =  -705.591344782     A.U. after   14 cycles
 Normal termination of Gaussian 16 at Tue Apr  8 23:51:45 2025.
 Gaussian 16:  ES64L-G16RevC.01  3-Jul-2019

 ----------------------------------------------------------------------
 #t hf aug-cc-pvdz iop(5/13=1,5/36=2,99/5=2) pseudo=read geom=check gue
 ss=(read,tcheck) scf=(maxcycle=1)
 ----------------------------------------------------------------------
 -----
 title
 -----
 Structure from the checkpoint file:  "BDE49_nonexpt_1888_mol1.chk"
 Charge =  0 Multiplicity = 1

                         Standard orientation:
 ---------------------------------------------------------------------
 Center     Atomic      Atomic             Coordinates (Angstroms)
 Number     Number       Type             X           Y           Z
 ---------------------------------------------------------------------
      1          6           0        0.496089    0.920762   -0.470282
      2         14           0       -0.142960   -0.829299   -0.048841
      3          8           0        1.932596    1.164968   -0.304590
      4          6           0        2.632843    0.167212    0.194164
      5          8           0        2.177452   -0.915505    0.497973
      6          1           0        3.688571    0.436619    0.300648
      7          8           0       -1.796913   -0.698541   -0.568071
      8          1           0       -0.240895   -1.163229    1.376754
      9          1           0        0.279641   -1.904440   -0.951692
     10          6           0       -2.683342    0.128007   -0.014302
     11          8           0       -2.433981    0.972659    0.808296
     12          1           0       -3.693149   -0.054317   -0.411764
     13          1           0       -0.015414    1.651743    0.156223
     14          1           0        0.275915    1.159277   -1.512732
 ---------------------------------------------------------------------

 SCF Done:  E(RHF) =  -707.488967222     A.U. after    2 cycles

 The electronic state is 1-A.
 Alpha  occ. eigenvalues --  -76.24952 -21.12624 -21.08831 -21.07613 -21.05632
 Alpha  occ. eigenvalues --  -11.53610 -11.50704 -11.41471  -5.58244  -2.23577
 Alpha  occ. eigenvalues --   -2.21287  -2.20316  -1.87613  -1.80454  -1.69828
 Alpha  occ. eigenvalues --   -1.64525  -1.05052  -0.88385  -0.85102  -0.74852
 Alpha  occ. eigenvalues --   -0.68782  -0.65779  -0.64394  -0.59246  -0.55548
 Alpha  occ. eigenvalues --   -0.54837  -0.54016  -0.50431  -0.48894  -0.43759
 Alpha  occ. eigenvalues --   -0.37607  -0.35315  -0.34369  -0.33502  -0.30589
 Alpha virt. eigenvalues --    0.03156   0.04917   0.05604   0.06035   0.06948
 Alpha virt. eigenvalues --    0.07065   0.07814   0.08271   0.09919   0.10227
 Alpha virt. eigenvalues --    0.11067   0.11357   0.12796   0.12986   0.14619

 Mulliken charges:
               1
     1  C   -2.437625
     2  Si   6.243455
     3  O   -3.241151
     4  C    2.632464
     5  O   -2.561433
     6  H    1.806327
     7  O   -2.995842
     8  H   -2.071120
     9  H   -1.980869
    10  C    2.529191
    11  O   -2.397788
    12  H    1.723700
    13  H    1.466897
    14  H    1.283795
 Sum of Mulliken charges =  -0.00000

 Dipole moment (field-independent basis, Debye):
    X=              1.9635    Y=              0.6596    Z=             -0.9167  Tot=              2.2651

 Test job not archived.
 1\1\GINC-SE366\SP\RHF\Aug-CC-pVDZ\C3H6O4Si1\OHZDE\08-Apr-2025\0\\#t hf
  aug-cc-pvdz iop(5/13=1,5/36=2,99/5=2) pseudo=read geom=check guess=(r
 ead,tcheck) scf=(maxcycle=1)\\title\\0,1\C,0,0.496089,0.920762,-0.4702
 82\Si,0,-0.14296,-0.829299,-0.048841\O,0,1.932596,1.164968,-0.30459\C,
 0,2.632843,0.167212,0.194164\O,0,2.177452,-0.915505,0.497973\H,0,3.688
 571,0.436619,0.300648\O,0,-1.796913,-0.698541,-0.568071\H,0,-0.240895,
 -1.163229,1.376754\H,0,0.279641,-1.90444,-0.951692\C,0,-2.683342,0.128
 007,-0.014302\O,0,-2.433981,0.972659,0.808296\H,0,-3.693149,-0.054317,

 Normal termination of Gaussian 16 at Tue Apr  8 23:51:50 2025.
