 Gaussian 16, Revision C.01,

 ----------------------------------------------------------------------
 #t hf aug-cc-pvdz symm=none int=(grid=ultrafine) guess=(read,tcheck) s
 table=opt
 ----------------------------------------------------------------------
 -----
 title
 -----
 Symbolic Z-matrix:
 Charge =  0 Multiplicity = 2

 SCF Done:  E(UHF) =  -1038.97847179     A.U. after   22 cycles
 Normal termination of Gaussian 16 at Wed Apr  9 00:17:45 2025.
 Gaussian 16:  ES64L-G16RevC.01  3-Jul-2019

 ----------------------------------------------------------------------
 #t hf aug-cc-pvdz iop(5/13=1,5/36=2,99/5=2) pseudo=read geom=check gue
 ss=(read,tcheck) scf=(maxcycle=1)
 ----------------------------------------------------------------------
 -----
 title
 -----
 Structure from the checkpoint file:  "BDE49_nonexpt_2555_mol2.chk"
 Charge =  0 Multiplicity = 2

                         Standard orientation:
 ---------------------------------------------------------------------
 Center     Atomic      Atomic             Coordinates (Angstroms)
 Number     Number       Type             X           Y           Z
 ---------------------------------------------------------------------
      1         16           0        2.117183   -0.061264   -0.000670
      2         15           0       -0.790012    0.012573   -0.092592
      3          8           0       -1.814909   -0.392108   -1.037381
      4          8           0       -1.005787   -0.415972    1.427148
      5          1           0       -1.532274   -1.220672    1.511014
      6          8           0       -0.459525    1.548235    0.012284
      7          1           0        0.433886    1.723836    0.354664
      8          8           0        0.664427   -0.704098   -0.460311
 ---------------------------------------------------------------------

 SCF Done:  E(UHF) =  -1040.59822922     A.U. after    2 cycles

 The electronic state is 2-A.
 Alpha  occ. eigenvalues -- -105.34643 -75.79051 -21.13846 -21.13698 -21.13229
 Alpha  occ. eigenvalues --  -21.04282 -13.23939 -13.13752 -13.12037  -8.12324
 Alpha  occ. eigenvalues --   -2.97982  -2.03658  -1.94702  -1.92314  -1.77847
 Alpha  occ. eigenvalues --   -1.47824  -1.42322  -1.26604  -1.05858  -0.71510
 Alpha  occ. eigenvalues --   -0.63082  -0.58901  -0.55391  -0.51070  -0.46236
 Alpha  occ. eigenvalues --   -0.42893  -0.42173  -0.37261  -0.34353  -0.30139
 Alpha  occ. eigenvalues --   -0.29213  -0.23300  -0.17006
 Alpha virt. eigenvalues --    0.03270   0.04694   0.07022   0.08806   0.10446
 Alpha virt. eigenvalues --    0.11279   0.11900   0.13159   0.14282   0.16822
 Alpha virt. eigenvalues --    0.19064   0.20278   0.21023   0.21101   0.22009

  Beta  occ. eigenvalues -- -105.34647 -75.78088 -21.13859 -21.13699 -21.12641
  Beta  occ. eigenvalues --  -21.04287 -13.23555 -13.13179 -13.06140  -8.11245
  Beta  occ. eigenvalues --   -2.97991  -2.03647  -1.94687  -1.91670  -1.77544
  Beta  occ. eigenvalues --   -1.47062  -1.42310  -1.26467  -0.97449  -0.70941
  Beta  occ. eigenvalues --   -0.62953  -0.58644  -0.51573  -0.49977  -0.45943
  Beta  occ. eigenvalues --   -0.42270  -0.40899  -0.37196  -0.33919  -0.29621
  Beta  occ. eigenvalues --   -0.22402  -0.16930
  Beta virt. eigenvalues --    0.02755   0.03379   0.04867   0.07258   0.08988
  Beta virt. eigenvalues --    0.11219   0.11399   0.12144   0.14545   0.15787
  Beta virt. eigenvalues --    0.17180   0.19289   0.20576   0.21841   0.22247

 Mulliken charges and spin densities:
               1          2
     1  S    0.605223   0.965576
     2  P    8.200028  -0.002748
     3  O   -2.835343   0.001688
     4  O   -2.725014   0.005911
     5  H    0.941623   0.000989
     6  O   -2.663796   0.005769
     7  H    0.913918  -0.025001
     8  O   -2.436640   0.047816
 Sum of Mulliken charges =   0.00000   1.00000

 Dipole moment (field-independent basis, Debye):
    X=              2.4279    Y=              0.1798    Z=              2.1975  Tot=              3.2797
                          Isotropic Fermi Contact Couplings
        Atom                 a.u.       MegaHertz       Gauss      10(-4) cm-1
     1  S(33)              0.30685     105.39534      37.60768      35.15610
     2  P(31)             -0.00336      -6.08646      -2.17180      -2.03022
     3  O(17)             -0.00118       0.71803       0.25621       0.23951
     4  O(17)             -0.00108       0.65279       0.23293       0.21775
     5  H(1)              -0.00001      -0.02694      -0.00961      -0.00899
     6  O(17)             -0.00151       0.91644       0.32701       0.30569
     7  H(1)               0.00013       0.59450       0.21213       0.19831
     8  O(17)              0.03360     -20.36966      -7.26840      -6.79459

 Normal termination of Gaussian 16 at Wed Apr  9 00:17:48 2025.
