 Gaussian 16, Revision C.01,

 ----------------------------------------------------------------------
 #t hf aug-cc-pvdz symm=none int=(grid=ultrafine) guess=(read,tcheck) s
 table=(opt,rrhf)
 ----------------------------------------------------------------------
 -----
 title
 -----
 Symbolic Z-matrix:
 Charge =  0 Multiplicity = 1

 SCF Done:  E(RHF) =  -1707.24564694     A.U. after   11 cycles
 Normal termination of Gaussian 16 at Tue Apr  8 23:46:16 2025.
 Gaussian 16:  ES64L-G16RevC.01  3-Jul-2019

 ----------------------------------------------------------------------
 #t hf aug-cc-pvdz iop(5/13=1,5/36=2,99/5=2) pseudo=read geom=check gue
 ss=(read,tcheck) scf=(maxcycle=1)
 ----------------------------------------------------------------------
 -----
 title
 -----
 Structure from the checkpoint file:  "BDE49_nonexpt_1763_mol1.chk"
 Charge =  0 Multiplicity = 1

                         Standard orientation:
 ---------------------------------------------------------------------
 Center     Atomic      Atomic             Coordinates (Angstroms)
 Number     Number       Type             X           Y           Z
 ---------------------------------------------------------------------
      1          6           0       -0.000012   -0.000014    2.111072
      2         14           0       -0.000001   -0.000002    0.262740
      3          1           0       -0.889720    0.511822    2.485149
      4          1           0        0.888107    0.514572    2.485154
      5          1           0        0.001571   -1.026446    2.485140
      6         17           0        1.671735   -0.961774   -0.466653
      7         17           0       -0.002935    1.928645   -0.466678
      8         17           0       -1.668792   -0.966862   -0.466683
 ---------------------------------------------------------------------

 SCF Done:  E(RHF) =  -1708.33436835     A.U. after    2 cycles

 The electronic state is 1-A.
 Alpha  occ. eigenvalues --  -99.90322 -99.90322 -99.90318 -76.33788 -11.38471
 Alpha  occ. eigenvalues --  -10.47831 -10.47831 -10.47728  -9.67658  -9.67658
 Alpha  occ. eigenvalues --   -9.67631  -9.67117  -9.67115  -9.67115  -9.66965
 Alpha  occ. eigenvalues --   -9.66965  -9.66864  -5.67617  -2.30046  -2.29220
 Alpha  occ. eigenvalues --   -2.29220  -1.33895  -1.29739  -1.29739  -1.07367
 Alpha  occ. eigenvalues --   -0.78128  -0.63156  -0.63156  -0.59511  -0.58874
 Alpha  occ. eigenvalues --   -0.58874  -0.55706  -0.55706  -0.52805  -0.52804
 Alpha  occ. eigenvalues --   -0.51472  -0.46293
 Alpha virt. eigenvalues --    0.02368   0.05691   0.05874   0.05874   0.07535
 Alpha virt. eigenvalues --    0.07535   0.07635   0.09344   0.11841   0.11841
 Alpha virt. eigenvalues --    0.12482   0.13808   0.13808   0.14411   0.15526

 Mulliken charges:
               1
     1  C   -4.571528
     2  Si   3.235377
     3  H    1.215177
     4  H    1.215175
     5  H    1.215174
     6  Cl  -0.769791
     7  Cl  -0.769792
     8  Cl  -0.769792
 Sum of Mulliken charges =  -0.00000

 Dipole moment (field-independent basis, Debye):
    X=              0.0000    Y=             -0.0000    Z=              2.2498  Tot=              2.2498

 Test job not archived.
 1\1\GINC-SE364\SP\RHF\Aug-CC-pVDZ\C1H3Cl3Si1\OHZDE\08-Apr-2025\0\\#t h
 f aug-cc-pvdz iop(5/13=1,5/36=2,99/5=2) pseudo=read geom=check guess=(
 read,tcheck) scf=(maxcycle=1)\\title\\0,1\C,0,-0.000012,-0.000014,2.11
 1072\Si,0,-0.000001,-0.000002,0.26274\H,0,-0.894735,0.503004,2.485149\
 H,0,0.882978,0.523325,2.485154\H,0,0.011716,-1.02638,2.48514\Cl,0,1.68
 1159,-0.945204,-0.466653\Cl,0,-0.021997,1.928522,-0.466678\Cl,0,-1.659
 155,-0.983308,-0.466683\\Version=ES64L-G16RevC.01\State=1-A\HF=-1708.3
 343683\RMSD=4.049e-02\Dipole=0.0000025,-0.0000081,0.8851262\Quadrupole

 Normal termination of Gaussian 16 at Tue Apr  8 23:46:19 2025.
