 Gaussian 16, Revision C.01,

 ----------------------------------------------------------------------
 #t hf aug-cc-pvdz symm=none int=(grid=ultrafine) guess=(read,tcheck) s
 table=(opt,rrhf)
 ----------------------------------------------------------------------
 -----
 title
 -----
 Symbolic Z-matrix:
 Charge =  0 Multiplicity = 1

 SCF Done:  E(RHF) =  -154.105737640     A.U. after   12 cycles
 Normal termination of Gaussian 16 at Tue Apr  8 22:46:27 2025.
 Gaussian 16:  ES64L-G16RevC.01  3-Jul-2019

 ----------------------------------------------------------------------
 #t hf aug-cc-pvdz iop(5/13=1,5/36=2,99/5=2) pseudo=read geom=check gue
 ss=(read,tcheck) scf=(maxcycle=1)
 ----------------------------------------------------------------------
 -----
 title
 -----
 Structure from the checkpoint file:  "BDE49_expt_154_mol1.chk"
 Charge =  0 Multiplicity = 1

                         Standard orientation:
 ---------------------------------------------------------------------
 Center     Atomic      Atomic             Coordinates (Angstroms)
 Number     Number       Type             X           Y           Z
 ---------------------------------------------------------------------
      1          6           0        0.085187    0.549907    0.000000
      2          8           0        1.150841   -0.398060   -0.000001
      3          1           0        1.981698    0.085425    0.000003
      4          6           0       -1.221060   -0.222554    0.000000
      5          1           0        0.136459    1.197836   -0.887438
      6          1           0        0.136460    1.197834    0.887440
      7          1           0       -1.285255   -0.860210   -0.884873
      8          1           0       -2.075604    0.459688    0.000001
      9          1           0       -1.285255   -0.860211    0.884873
 ---------------------------------------------------------------------

 SCF Done:  E(RHF) =  -154.829861965     A.U. after    2 cycles

 The electronic state is 1-A.
 Alpha  occ. eigenvalues --  -21.06384 -11.42227 -11.35651  -1.70166  -1.10864
 Alpha  occ. eigenvalues --   -0.86616  -0.64815  -0.63554  -0.52835  -0.50007
 Alpha  occ. eigenvalues --   -0.48210  -0.40985  -0.31657
 Alpha virt. eigenvalues --    0.03803   0.05581   0.06019   0.06115   0.06692
 Alpha virt. eigenvalues --    0.07247   0.12015   0.13498   0.14097   0.14472
 Alpha virt. eigenvalues --    0.15704   0.18603   0.19163   0.19407   0.23002

 Mulliken charges:
               1
     1  C   -1.219761
     2  O   -2.449115
     3  H    0.802042
     4  C   -3.487657
     5  H    1.360700
     6  H    1.360699
     7  H    1.217709
     8  H    1.197675
     9  H    1.217708
 Sum of Mulliken charges =  -0.00000

 Dipole moment (field-independent basis, Debye):
    X=              0.1028    Y=              0.7470    Z=              0.0000  Tot=              0.7540

 Test job not archived.
 1\1\GINC-SE398\SP\RHF\Aug-CC-pVDZ\C2H6O1\OHZDE\08-Apr-2025\0\\#t hf au
 g-cc-pvdz iop(5/13=1,5/36=2,99/5=2) pseudo=read geom=check guess=(read
 ,tcheck) scf=(maxcycle=1)\\title\\0,1\C,0,0.085187,0.549907,0.\O,0,1.1
 50841,-0.39806,-0.000001\H,0,1.981698,0.085425,0.000003\C,0,-1.22106,-
 0.222554,0.\H,0,0.136459,1.197836,-0.887438\H,0,0.13646,1.197834,0.887
 44\H,0,-1.285255,-0.86021,-0.884873\H,0,-2.075604,0.459688,0.000001\H,
 0,-1.285255,-0.860211,0.884873\\Version=ES64L-G16RevC.01\State=1-A\HF=
 -154.829862\RMSD=1.884e-01\Dipole=0.0404416,0.2938735,0.0000011\Quadru

 Normal termination of Gaussian 16 at Tue Apr  8 22:46:29 2025.
