 Gaussian 16, Revision C.01,

 ----------------------------------------------------------------------
 #t hf aug-cc-pvdz symm=none int=(grid=ultrafine) guess=(read,tcheck) s
 table=(opt,rrhf)
 ----------------------------------------------------------------------
 -----
 title
 -----
 Symbolic Z-matrix:
 Charge =  0 Multiplicity = 1

 SCF Done:  E(RHF) =  -844.977123764     A.U. after   12 cycles
 Normal termination of Gaussian 16 at Wed Apr  9 00:16:13 2025.
 Gaussian 16:  ES64L-G16RevC.01  3-Jul-2019

 ----------------------------------------------------------------------
 #t hf aug-cc-pvdz iop(5/13=1,5/36=2,99/5=2) pseudo=read geom=check gue
 ss=(read,tcheck) scf=(maxcycle=1)
 ----------------------------------------------------------------------
 -----
 title
 -----
 Structure from the checkpoint file:  "BDE49_nonexpt_2492_mol1.chk"
 Charge =  0 Multiplicity = 1

                         Standard orientation:
 ---------------------------------------------------------------------
 Center     Atomic      Atomic             Coordinates (Angstroms)
 Number     Number       Type             X           Y           Z
 ---------------------------------------------------------------------
      1          6           0        1.556295    0.119049    0.328156
      2          6           0        1.942389    1.391214   -0.425546
      3          1           0        2.186982    1.164051   -1.466336
      4          1           0        2.821114    1.850628    0.040687
      5         16           0        0.056297   -0.706500   -0.425245
      6         14           0       -1.566062    0.486245    0.347632
      7          6           0       -3.168771   -0.342468   -0.159781
      8          1           0       -3.249018   -0.407700   -1.247674
      9          1           0       -4.021315    0.235503    0.208686
     10          1           0       -3.236500   -1.352409    0.251144
     11          6           0        2.689579   -0.908302    0.344553
     12          1           0        1.287278    0.365162    1.358398
     13          1           0        2.944237   -1.226143   -0.670615
     14          1           0        2.416752   -1.794437    0.920388
     15          1           0        3.585086   -0.466928    0.793403
     16          1           0        1.136062    2.126863   -0.422487
     17          1           0       -1.516731    1.873583   -0.177994
     18          1           0       -1.446772    0.571425    1.825181
 ---------------------------------------------------------------------

 SCF Done:  E(RHF) =  -846.204827950     A.U. after    2 cycles

 The electronic state is 1-A.
 Alpha  occ. eigenvalues --  -76.22674 -75.65715 -13.11279 -13.06119 -13.01958
 Alpha  occ. eigenvalues --  -11.43287 -11.38705 -11.36248 -11.35293  -7.99872
 Alpha  occ. eigenvalues --   -5.56192  -2.19679  -2.18383  -2.17986  -1.25795
 Alpha  occ. eigenvalues --   -1.06277  -1.02124  -1.00679  -0.82087  -0.71945
 Alpha  occ. eigenvalues --   -0.63111  -0.59798  -0.56826  -0.56327  -0.55996
 Alpha  occ. eigenvalues --   -0.53896  -0.49065  -0.47063  -0.46194  -0.43815
 Alpha  occ. eigenvalues --   -0.37040  -0.31773  -0.25015
 Alpha virt. eigenvalues --    0.03443   0.03854   0.04964   0.05247   0.06268
 Alpha virt. eigenvalues --    0.06411   0.06977   0.07287   0.07542   0.07704
 Alpha virt. eigenvalues --    0.08536   0.08898   0.10095   0.11128   0.11456

 Mulliken charges:
               1
     1  C   -2.195469
     2  C   -3.728202
     3  H    1.403546
     4  H    1.199590
     5  S   -1.110410
     6  Si   6.216548
     7  C   -5.069264
     8  H    1.304830
     9  H    1.255723
    10  H    1.333001
    11  C   -3.805572
    12  H    1.723166
    13  H    1.328167
    14  H    1.382724
    15  H    1.197142
    16  H    1.470317
    17  H   -1.917833
    18  H   -1.988005
 Sum of Mulliken charges =   0.00000

 Dipole moment (field-independent basis, Debye):
    X=              0.5304    Y=             -1.1357    Z=             -0.5349  Tot=              1.3628

 Test job not archived.
 1\1\GINC-SE116\SP\RHF\Aug-CC-pVDZ\C4H12S1Si1\OHZDE\09-Apr-2025\0\\#t h
 f aug-cc-pvdz iop(5/13=1,5/36=2,99/5=2) pseudo=read geom=check guess=(
 read,tcheck) scf=(maxcycle=1)\\title\\0,1\C,0,1.556295,0.119049,0.3281
 56\C,0,1.942389,1.391214,-0.425546\H,0,2.186982,1.164051,-1.466336\H,0
 ,2.821114,1.850628,0.040687\S,0,0.056297,-0.7065,-0.425245\Si,0,-1.566
 062,0.486245,0.347632\C,0,-3.168771,-0.342468,-0.159781\H,0,-3.249018,
 -0.4077,-1.247674\H,0,-4.021315,0.235503,0.208686\H,0,-3.2365,-1.35240
 9,0.251144\C,0,2.689579,-0.908302,0.344553\H,0,1.287278,0.365162,1.358

 Normal termination of Gaussian 16 at Wed Apr  9 00:16:21 2025.
