 Gaussian 16, Revision C.01,

 ----------------------------------------------------------------------
 #t hf aug-cc-pvdz symm=none int=(grid=ultrafine) guess=(read,tcheck) s
 table=opt
 ----------------------------------------------------------------------
 -----
 title
 -----
 Symbolic Z-matrix:
 Charge =  0 Multiplicity = 2

 SCF Done:  E(UHF) =  -1050.76096695     A.U. after   19 cycles
 Normal termination of Gaussian 16 at Tue Apr  8 23:50:25 2025.
 Gaussian 16:  ES64L-G16RevC.01  3-Jul-2019

 ----------------------------------------------------------------------
 #t hf aug-cc-pvdz iop(5/13=1,5/36=2,99/5=2) pseudo=read geom=check gue
 ss=(read,tcheck) scf=(maxcycle=1)
 ----------------------------------------------------------------------
 -----
 title
 -----
 Structure from the checkpoint file:  "BDE49_nonexpt_185_mol2.chk"
 Charge =  0 Multiplicity = 2

                         Standard orientation:
 ---------------------------------------------------------------------
 Center     Atomic      Atomic             Coordinates (Angstroms)
 Number     Number       Type             X           Y           Z
 ---------------------------------------------------------------------
      1         17           0        2.458971    0.016475    0.048052
      2          5           0        0.919973   -0.472066    0.617779
      3         15           0       -0.813120   -0.103236   -0.079195
      4          8           0       -1.199451   -1.165195   -1.022381
      5          8           0       -1.829060    0.069040    1.166046
      6          1           0       -2.227506   -0.773457    1.417805
      7          8           0       -0.764862    1.416204   -0.581065
      8          1           0       -1.631082    1.841853   -0.636470
 ---------------------------------------------------------------------

 SCF Done:  E(UHF) =  -1052.20351911     A.U. after    2 cycles

 The electronic state is 2-A.
 Alpha  occ. eigenvalues -- -105.30937 -99.93060 -21.12611 -21.12518 -21.02963
 Alpha  occ. eigenvalues --  -10.50294  -9.70200  -9.69871  -9.69571  -7.71491
 Alpha  occ. eigenvalues --   -2.93299  -1.98673  -1.89277  -1.80962  -1.56432
 Alpha  occ. eigenvalues --   -1.40935  -1.36988  -1.26296  -0.80237  -0.70085
 Alpha  occ. eigenvalues --   -0.62774  -0.59250  -0.57387  -0.54444  -0.45745
 Alpha  occ. eigenvalues --   -0.43866  -0.41446  -0.35909  -0.34964  -0.30352
 Alpha  occ. eigenvalues --   -0.22459  -0.14975
 Alpha virt. eigenvalues --    0.02572   0.03469   0.04072   0.04530   0.05719
 Alpha virt. eigenvalues --    0.06805   0.09978   0.11574   0.12845   0.14028
 Alpha virt. eigenvalues --    0.14566   0.16007   0.16487   0.17413   0.18558

  Beta  occ. eigenvalues -- -105.30883 -99.92998 -21.12562 -21.12528 -21.02931
  Beta  occ. eigenvalues --  -10.50223  -9.70203  -9.69625  -9.69497  -7.69557
  Beta  occ. eigenvalues --   -2.93144  -1.98558  -1.89095  -1.80667  -1.55422
  Beta  occ. eigenvalues --   -1.40746  -1.36305  -1.26119  -0.76952  -0.69236
  Beta  occ. eigenvalues --   -0.62618  -0.57479  -0.56631  -0.53665  -0.45236
  Beta  occ. eigenvalues --   -0.43066  -0.35831  -0.35114  -0.30182  -0.28003
  Beta  occ. eigenvalues --   -0.16973
  Beta virt. eigenvalues --    0.03244   0.03772   0.04090   0.04683   0.06350
  Beta virt. eigenvalues --    0.06735   0.07169   0.10702   0.11681   0.13380
  Beta virt. eigenvalues --    0.14178   0.14934   0.16188   0.16543   0.17664

 Mulliken charges and spin densities:
               1          2
     1  Cl  -0.897929   0.061099
     2  B    0.309476   0.953813
     3  P    6.882118  -0.011066
     4  O   -2.694299   0.020637
     5  O   -2.524958  -0.000942
     6  H    0.866538  -0.003504
     7  O   -2.821253  -0.022155
     8  H    0.880306   0.002118
 Sum of Mulliken charges =  -0.00000   1.00000

 Dipole moment (field-independent basis, Debye):
    X=             -1.5558    Y=              2.4813    Z=              1.4351  Tot=              3.2614
                          Isotropic Fermi Contact Couplings
        Atom                 a.u.       MegaHertz       Gauss      10(-4) cm-1
     1  Cl(35)             0.01034       4.53543       1.61836       1.51286
     2  B(11)              0.09929     142.41341      50.81665      47.50400
     3  P(31)              0.06504     117.79711      42.03294      39.29289
     4  O(17)              0.00876      -5.30988      -1.89470      -1.77119
     5  O(17)             -0.00515       3.12285       1.11431       1.04167
     6  H(1)               0.00010       0.42728       0.15246       0.14253
     7  O(17)              0.03057     -18.53046      -6.61213      -6.18110
     8  H(1)               0.00228      10.20813       3.64251       3.40507

 1\1\GINC-SE454\SP\UHF\Aug-CC-pVDZ\B1Cl1H2O3P1(2)\OHZDE\08-Apr-2025\0\\
 #t hf aug-cc-pvdz iop(5/13=1,5/36=2,99/5=2) pseudo=read geom=check gue
 ss=(read,tcheck) scf=(maxcycle=1)\\title\\0,2\Cl,0,2.458971,0.016475,0
 .048052\B,0,0.919973,-0.472066,0.617779\P,0,-0.81312,-0.103236,-0.0791
 95\O,0,-1.199451,-1.165195,-1.022381\O,0,-1.82906,0.06904,1.166046\H,0
 ,-2.227506,-0.773457,1.417805\O,0,-0.764862,1.416204,-0.581065\H,0,-1.
 631082,1.841853,-0.63647\\Version=ES64L-G16RevC.01\State=2-A\HF=-1052.
 2035191\S2=0.763098\S2-1=0.\S2A=0.750067\RMSD=1.327e-01\Dipole=-0.6120

 Normal termination of Gaussian 16 at Tue Apr  8 23:50:29 2025.
