 Gaussian 16, Revision C.01,

 ----------------------------------------------------------------------
 #t hf aug-cc-pvdz symm=none int=(grid=ultrafine) guess=(read,tcheck) s
 table=(opt,rrhf)
 ----------------------------------------------------------------------
 -----
 title
 -----
 Symbolic Z-matrix:
 Charge =  0 Multiplicity = 1

 SCF Done:  E(RHF) =  -646.930085753     A.U. after   15 cycles
 Normal termination of Gaussian 16 at Tue Apr  8 23:35:45 2025.
 Gaussian 16:  ES64L-G16RevC.01  3-Jul-2019

 ----------------------------------------------------------------------
 #t hf aug-cc-pvdz iop(5/13=1,5/36=2,99/5=2) pseudo=read geom=check gue
 ss=(read,tcheck) scf=(maxcycle=1)
 ----------------------------------------------------------------------
 -----
 title
 -----
 Structure from the checkpoint file:  "BDE49_nonexpt_1484_mol1.chk"
 Charge =  0 Multiplicity = 1

                         Standard orientation:
 ---------------------------------------------------------------------
 Center     Atomic      Atomic             Coordinates (Angstroms)
 Number     Number       Type             X           Y           Z
 ---------------------------------------------------------------------
      1          6           0        2.179226   -1.011172   -0.105180
      2          6           0        0.810274   -1.271027   -0.081617
      3          6           0        2.639811    0.301406   -0.029724
      4          6           0        1.728131    1.352087    0.072260
      5          6           0        0.360953    1.092892    0.112514
      6          6           0       -0.108545   -0.223328    0.043696
      7         15           0       -1.905646   -0.627755    0.074681
      8          8           0       -2.594610    0.877362   -0.190707
      9          1           0       -3.038610    0.883778   -1.043768
     10          1           0        2.883239   -1.830879   -0.196476
     11          1           0        0.456046   -2.294079   -0.167510
     12          1           0        3.704195    0.506180   -0.058588
     13          1           0        2.084095    2.375264    0.125126
     14          1           0       -0.352287    1.905186    0.189708
     15          1           0       -2.054213   -0.593170    1.485256
 ---------------------------------------------------------------------

 SCF Done:  E(RHF) =  -648.538599297     A.U. after    2 cycles

 The electronic state is 1-A.
 Alpha  occ. eigenvalues -- -105.21299 -21.08686 -11.51355 -11.43017 -11.42665
 Alpha  occ. eigenvalues --  -11.40845 -11.40571 -11.36290  -2.78964  -1.78453
 Alpha  occ. eigenvalues --   -1.52409  -1.46678  -1.37233  -1.32321  -1.09236
 Alpha  occ. eigenvalues --   -1.07647  -0.86430  -0.84690  -0.73643  -0.68569
 Alpha  occ. eigenvalues --   -0.62773  -0.58617  -0.56770  -0.54104  -0.50612
 Alpha  occ. eigenvalues --   -0.49838  -0.44860  -0.39005  -0.34117  -0.33125
 Alpha  occ. eigenvalues --   -0.27768  -0.23025  -0.02447
 Alpha virt. eigenvalues --    0.03833   0.05099   0.05369   0.06166   0.06799
 Alpha virt. eigenvalues --    0.07528   0.07854   0.08697   0.10154   0.10784
 Alpha virt. eigenvalues --    0.11928   0.12339   0.13456   0.13588   0.14458

 Mulliken charges:
               1
     1  C   -0.869617
     2  C   -3.599765
     3  C   -2.441654
     4  C   -0.440035
     5  C   -3.119813
     6  C    1.758311
     7  P    2.938806
     8  O   -2.443605
     9  H    0.880585
    10  H    1.505612
    11  H    1.800371
    12  H    1.427518
    13  H    1.536588
    14  H    1.854880
    15  H   -0.788183
 Sum of Mulliken charges =  -0.00000

 Dipole moment (field-independent basis, Debye):
    X=              0.9164    Y=              0.5758    Z=             -0.4500  Tot=              1.1721

 Test job not archived.
 1\1\GINC-SE458\SP\RHF\Aug-CC-pVDZ\C6H7O1P1\OHZDE\08-Apr-2025\0\\#t hf
 aug-cc-pvdz iop(5/13=1,5/36=2,99/5=2) pseudo=read geom=check guess=(re
 ad,tcheck) scf=(maxcycle=1)\\title\\0,1\C,0,2.179226,-1.011172,-0.1051
 8\C,0,0.810274,-1.271027,-0.081617\C,0,2.639811,0.301405,-0.029724\C,0
 ,1.728131,1.352087,0.07226\C,0,0.360953,1.092892,0.112514\C,0,-0.10854
 5,-0.223328,0.043696\P,0,-1.905646,-0.627755,0.074681\O,0,-2.59461,0.8
 77363,-0.190707\H,0,-3.03861,0.883779,-1.043768\H,0,2.883239,-1.83088,
 -0.196476\H,0,0.456045,-2.294079,-0.16751\H,0,3.704195,0.506179,-0.058

 Normal termination of Gaussian 16 at Tue Apr  8 23:35:51 2025.
