 Gaussian 16, Revision C.01,

 ----------------------------------------------------------------------
 #t hf aug-cc-pvdz symm=none int=(grid=ultrafine) guess=(read,tcheck) s
 table=(opt,rrhf)
 ----------------------------------------------------------------------
 -----
 title
 -----
 Symbolic Z-matrix:
 Charge =  0 Multiplicity = 1

 SCF Done:  E(RHF) =  -661.043267696     A.U. after   13 cycles
 Normal termination of Gaussian 16 at Wed Apr  9 00:03:02 2025.
 Gaussian 16:  ES64L-G16RevC.01  3-Jul-2019

 ----------------------------------------------------------------------
 #t hf aug-cc-pvdz iop(5/13=1,5/36=2,99/5=2) pseudo=read geom=check gue
 ss=(read,tcheck) scf=(maxcycle=1)
 ----------------------------------------------------------------------
 -----
 title
 -----
 Structure from the checkpoint file:  "BDE49_nonexpt_2154_mol1.chk"
 Charge =  0 Multiplicity = 1

                         Standard orientation:
 ---------------------------------------------------------------------
 Center     Atomic      Atomic             Coordinates (Angstroms)
 Number     Number       Type             X           Y           Z
 ---------------------------------------------------------------------
      1         14           0        0.610780   -0.000000    0.045245
      2          7           0       -1.074702    0.000000   -0.703848
      3          9           0       -1.730017   -1.111958   -0.102637
      4          9           0       -1.730017    1.111958   -0.102637
      5          6           0        1.391634    1.555860   -0.629442
      6          1           0        1.354991    1.574409   -1.721850
      7          1           0        2.441621    1.614397   -0.326137
      8          1           0        0.881802    2.447322   -0.256805
      9          6           0        1.391634   -1.555860   -0.629442
     10          1           0        1.354991   -1.574408   -1.721850
     11          1           0        0.881802   -2.447322   -0.256805
     12          1           0        2.441621   -1.614397   -0.326136
     13          6           0        0.460055   -0.000000    1.904820
     14          1           0       -0.077871    0.884730    2.252981
     15          1           0        1.451283   -0.000000    2.368966
     16          1           0       -0.077870   -0.884730    2.252981
 ---------------------------------------------------------------------

 SCF Done:  E(RHF) =  -662.744353318     A.U. after    2 cycles

 The electronic state is 1-A.
 Alpha  occ. eigenvalues --  -76.22563 -29.27823 -29.27803 -15.84562 -11.36113
 Alpha  occ. eigenvalues --  -11.36099 -11.35852  -5.57023  -2.21516  -2.20680
 Alpha  occ. eigenvalues --   -2.20619  -1.44040  -1.08956  -1.02906  -1.02896
 Alpha  occ. eigenvalues --   -0.79435  -0.73930  -0.63467  -0.59950  -0.58068
 Alpha  occ. eigenvalues --   -0.58057  -0.56164  -0.55619  -0.55074  -0.52939
 Alpha  occ. eigenvalues --   -0.42836  -0.42039  -0.40809  -0.38044  -0.28878
 Alpha  occ. eigenvalues --   -0.28319  -0.20215  -0.18979
 Alpha virt. eigenvalues --    0.02591   0.05224   0.05256   0.05673   0.06505
 Alpha virt. eigenvalues --    0.06927   0.07137   0.07155   0.08473   0.08721
 Alpha virt. eigenvalues --    0.09803   0.10685   0.11425   0.13895   0.15881

 Mulliken charges:
               1
     1  Si   8.193065
     2  N    0.193066
     3  F   -0.473283
     4  F   -0.473283
     5  C   -5.902785
     6  H    1.098230
     7  H    1.110188
     8  H    1.189440
     9  C   -5.902784
    10  H    1.098230
    11  H    1.189440
    12  H    1.110187
    13  C   -5.847694
    14  H    1.164201
    15  H    1.089580
    16  H    1.164202
 Sum of Mulliken charges =  -0.00000

 Dipole moment (field-independent basis, Debye):
    X=              0.3752    Y=             -0.0000    Z=              1.7005  Tot=              1.7414

 Test job not archived.
 1\1\GINC-SE364\SP\RHF\Aug-CC-pVDZ\C3H9F2N1Si1\OHZDE\09-Apr-2025\0\\#t
 hf aug-cc-pvdz iop(5/13=1,5/36=2,99/5=2) pseudo=read geom=check guess=
 (read,tcheck) scf=(maxcycle=1)\\title\\0,1\Si,0,0.61078,0.,0.045245\N,
 0,-1.074702,0.,-0.703848\F,0,-1.730017,-1.111958,-0.102637\F,0,-1.7300
 17,1.111958,-0.102637\C,0,1.391634,1.55586,-0.629442\H,0,1.354991,1.57
 4409,-1.72185\H,0,2.441621,1.614397,-0.326137\H,0,0.881802,2.447322,-0
 .256805\C,0,1.391634,-1.55586,-0.629442\H,0,1.354991,-1.574408,-1.7218
 5\H,0,0.881802,-2.447322,-0.256805\H,0,2.441621,-1.614397,-0.326136\C,

 Normal termination of Gaussian 16 at Wed Apr  9 00:03:08 2025.
