 Gaussian 16, Revision C.01,

 ----------------------------------------------------------------------
 #t hf aug-cc-pvdz symm=none int=(grid=ultrafine) guess=(read,tcheck) s
 table=opt
 ----------------------------------------------------------------------
 -----
 title
 -----
 Symbolic Z-matrix:
 Charge =  0 Multiplicity = 2

 SCF Done:  E(UHF) =  -576.572580172     A.U. after   17 cycles

 1\1\GINC-SE364\Stability\UHF\Aug-CC-pVDZ\C3H6Cl1\OHZDE\08-Apr-2025\0\\
 #t hf aug-cc-pvdz symm=none int=(grid=ultrafine) guess=(read,tcheck) s
 table=opt\\title\\0,2\C,0,1.82757,-0.77326,0.159573\C,0,1.222388,0.498
 92,-0.322308\C,0,-0.106616,0.865094,0.32926\H,0,-0.468024,1.831536,-0.
 017086\H,0,-0.037092,0.867822,1.415913\Cl,0,-1.425522,-0.323897,-0.079
 705\H,0,1.200697,-1.607438,0.447152\H,0,2.893049,-0.939437,0.066475\H,
 0,1.074562,0.473028,-1.414525\H,0,1.910627,1.336205,-0.142098\\Version
 =ES64L-G16RevC.01\HF=-576.5725802\S2=0.762773\S2-1=0.\S2A=0.750107\RMS

 Normal termination of Gaussian 16 at Tue Apr  8 22:48:38 2025.
 Gaussian 16:  ES64L-G16RevC.01  3-Jul-2019

 ----------------------------------------------------------------------
 #t hf aug-cc-pvdz iop(5/13=1,5/36=2,99/5=2) pseudo=read geom=check gue
 ss=(read,tcheck) scf=(maxcycle=1)
 ----------------------------------------------------------------------
 -----
 title
 -----
 Structure from the checkpoint file:  "BDE49_expt_1647_mol2.chk"
 Charge =  0 Multiplicity = 2

                         Standard orientation:
 ---------------------------------------------------------------------
 Center     Atomic      Atomic             Coordinates (Angstroms)
 Number     Number       Type             X           Y           Z
 ---------------------------------------------------------------------
      1          6           0        1.827570   -0.773260    0.159573
      2          6           0        1.222388    0.498920   -0.322308
      3          6           0       -0.106616    0.865094    0.329260
      4          1           0       -0.468023    1.831536   -0.017086
      5          1           0       -0.037092    0.867822    1.415913
      6         17           0       -1.425522   -0.323896   -0.079705
      7          1           0        1.200697   -1.607438    0.447152
      8          1           0        2.893049   -0.939438    0.066475
      9          1           0        1.074562    0.473028   -1.414525
     10          1           0        1.910627    1.336205   -0.142098
 ---------------------------------------------------------------------

 SCF Done:  E(UHF) =  -577.397169868     A.U. after    2 cycles

 The electronic state is 2-A.
 Alpha  occ. eigenvalues --  -99.87249 -11.45336 -11.40947 -11.37329 -10.44497
 Alpha  occ. eigenvalues --   -9.64368  -9.63718  -9.63633  -1.33449  -1.17970
 Alpha  occ. eigenvalues --   -0.99130  -0.85237  -0.66323  -0.65919  -0.59116
 Alpha  occ. eigenvalues --   -0.55359  -0.53106  -0.50818  -0.46558  -0.45808
 Alpha  occ. eigenvalues --   -0.32799
 Alpha virt. eigenvalues --    0.03412   0.05114   0.05842   0.06243   0.06603
 Alpha virt. eigenvalues --    0.06847   0.08116   0.11632   0.12171   0.13194
 Alpha virt. eigenvalues --    0.14170   0.14731   0.15769   0.16713   0.17571

  Beta  occ. eigenvalues --  -99.87252 -11.45327 -11.40521 -11.35753 -10.44501
  Beta  occ. eigenvalues --   -9.64383  -9.63717  -9.63635  -1.33208  -1.15977
  Beta  occ. eigenvalues --   -0.95549  -0.82120  -0.65799  -0.65183  -0.58308
  Beta  occ. eigenvalues --   -0.53924  -0.52012  -0.50141  -0.46284  -0.45515
  Beta virt. eigenvalues --    0.03341   0.05147   0.05821   0.06253   0.06617
  Beta virt. eigenvalues --    0.06876   0.08112   0.08736   0.11794   0.12218
  Beta virt. eigenvalues --    0.14351   0.14745   0.15779   0.16109   0.17600

 Mulliken charges and spin densities:
               1          2
     1  C   -2.444217   1.504870
     2  C   -2.589073  -0.362296
     3  C   -3.769877   0.002127
     4  H    1.526859  -0.001825
     5  H    1.696315  -0.006535
     6  Cl   0.088933  -0.001378
     7  H    1.396364  -0.082221
     8  H    1.403077  -0.072675
     9  H    1.386561   0.017653
    10  H    1.305055   0.002279
 Sum of Mulliken charges =   0.00000   1.00000

 Dipole moment (field-independent basis, Debye):
    X=              1.9543    Y=              1.4995    Z=              0.2299  Tot=              2.4740
                          Isotropic Fermi Contact Couplings
        Atom                 a.u.       MegaHertz       Gauss      10(-4) cm-1
     1  C(13)              0.12732     143.12827      51.07172      47.74245
     2  C(13)             -0.03627     -40.77881     -14.55089     -13.60235
     3  C(13)              0.01378      15.49638       5.52949       5.16904
     4  H(1)              -0.00032      -1.41363      -0.50442      -0.47154
     5  H(1)              -0.00059      -2.63748      -0.94112      -0.87977
     6  Cl(35)            -0.00121      -0.53254      -0.19002      -0.17764
     7  H(1)              -0.01801     -80.48674     -28.71967     -26.84749
     8  H(1)              -0.01831     -81.82543     -29.19735     -27.29403

 Normal termination of Gaussian 16 at Tue Apr  8 22:48:41 2025.
