 Gaussian 16, Revision C.01,

 ----------------------------------------------------------------------
 #t hf aug-cc-pvdz symm=none int=(grid=ultrafine) guess=(read,tcheck) s
 table=(opt,rrhf)
 ----------------------------------------------------------------------
 -----
 title
 -----
 Symbolic Z-matrix:
 Charge =  0 Multiplicity = 1

 SCF Done:  E(RHF) =  -322.599611995     A.U. after   16 cycles
 Normal termination of Gaussian 16 at Tue Apr  8 23:21:53 2025.
 Gaussian 16:  ES64L-G16RevC.01  3-Jul-2019

 ----------------------------------------------------------------------
 #t hf aug-cc-pvdz iop(5/13=1,5/36=2,99/5=2) pseudo=read geom=check gue
 ss=(read,tcheck) scf=(maxcycle=1)
 ----------------------------------------------------------------------
 -----
 title
 -----
 Structure from the checkpoint file:  "BDE49_nonexpt_1172_mol1.chk"
 Charge =  0 Multiplicity = 1

                         Standard orientation:
 ---------------------------------------------------------------------
 Center     Atomic      Atomic             Coordinates (Angstroms)
 Number     Number       Type             X           Y           Z
 ---------------------------------------------------------------------
      1          9           0       -1.925634   -0.686352    0.000041
      2          8           0       -1.162043    0.730050   -0.000015
      3          7           0        0.084076    0.641159   -0.000020
      4          7           0        0.743596   -0.386528   -0.000024
      5          6           0        2.193955   -0.168166    0.000005
      6          1           0        2.602739   -0.663256    0.882761
      7          1           0        2.464112    0.889820    0.000032
      8          1           0        2.602766   -0.663217   -0.882760
 ---------------------------------------------------------------------

 SCF Done:  E(RHF) =  -323.947498320     A.U. after    2 cycles

 The electronic state is 1-A.
 Alpha  occ. eigenvalues --  -29.27235 -21.24500 -15.90602 -15.82781 -11.42586
 Alpha  occ. eigenvalues --   -1.96077  -1.50871  -1.10406  -0.90445  -0.71836
 Alpha  occ. eigenvalues --   -0.70889  -0.68563  -0.59565  -0.56825  -0.54432
 Alpha  occ. eigenvalues --   -0.41680  -0.40979  -0.29646  -0.25731  -0.24233
 Alpha virt. eigenvalues --    0.03041   0.05654   0.05699   0.09769   0.12101
 Alpha virt. eigenvalues --    0.12503   0.13621   0.14915   0.16702   0.16939
 Alpha virt. eigenvalues --    0.19565   0.20350   0.21704   0.22416   0.23435

 Mulliken charges:
               1
     1  F   -0.227077
     2  O   -1.630464
     3  N    1.090767
     4  N   -0.318735
     5  C   -2.922316
     6  H    1.330462
     7  H    1.346900
     8  H    1.330464
 Sum of Mulliken charges =  -0.00000

 Dipole moment (field-independent basis, Debye):
    X=              0.5979    Y=             -0.7538    Z=              0.0001  Tot=              0.9621

 Test job not archived.
 1\1\GINC-SE341\SP\RHF\Aug-CC-pVDZ\C1H3F1N2O1\OHZDE\08-Apr-2025\0\\#t h
 f aug-cc-pvdz iop(5/13=1,5/36=2,99/5=2) pseudo=read geom=check guess=(
 read,tcheck) scf=(maxcycle=1)\\title\\0,1\F,0,1.925634,-0.686352,-0.00
 0041\O,0,1.162043,0.73005,0.000015\N,0,-0.084076,0.641159,0.00002\N,0,
 -0.743596,-0.386528,0.000024\C,0,-2.193955,-0.168166,-0.000005\H,0,-2.
 602739,-0.663256,-0.882761\H,0,-2.464112,0.88982,-0.000032\H,0,-2.6027
 66,-0.663217,0.88276\\Version=ES64L-G16RevC.01\State=1-A\HF=-323.94749
 83\RMSD=1.048e-01\Dipole=-0.2352464,-0.2965581,-0.0000238\Quadrupole=2

 Normal termination of Gaussian 16 at Tue Apr  8 23:21:56 2025.
