 Gaussian 16, Revision C.01,

 ----------------------------------------------------------------------
 #t hf aug-cc-pvdz symm=none int=(grid=ultrafine) guess=(read,tcheck) s
 table=opt
 ----------------------------------------------------------------------
 -----
 title
 -----
 Symbolic Z-matrix:
 Charge =  0 Multiplicity = 2

 SCF Done:  E(UHF) =  -608.312278313     A.U. after   19 cycles
 Normal termination of Gaussian 16 at Wed Apr  9 00:02:40 2025.
 Gaussian 16:  ES64L-G16RevC.01  3-Jul-2019

 ----------------------------------------------------------------------
 #t hf aug-cc-pvdz iop(5/13=1,5/36=2,99/5=2) pseudo=read geom=check gue
 ss=(read,tcheck) scf=(maxcycle=1)
 ----------------------------------------------------------------------
 -----
 title
 -----
 Structure from the checkpoint file:  "BDE49_nonexpt_2149_mol2.chk"
 Charge =  0 Multiplicity = 2

                         Standard orientation:
 ---------------------------------------------------------------------
 Center     Atomic      Atomic             Coordinates (Angstroms)
 Number     Number       Type             X           Y           Z
 ---------------------------------------------------------------------
      1          6           0       -1.779386   -0.641921    0.076086
      2          7           0       -0.485896   -1.015342   -0.156100
      3         14           0        0.878417    0.091259   -0.419165
      4          8           0       -2.167377    0.507961    0.201720
      5          8           0        0.367167    1.561688    0.064316
      6          1           0       -0.331032   -2.013602   -0.213846
      7          1           0       -0.603513    1.598728    0.177146
      8          8           0        2.077103   -0.581928    0.494676
      9          1           0        2.981684   -0.315346    0.309627
     10          1           0       -2.482528   -1.490254    0.145869
 ---------------------------------------------------------------------

 SCF Done:  E(UHF) =  -609.780664330     A.U. after    2 cycles

 The electronic state is 2-A.
 Alpha  occ. eigenvalues --  -76.27669 -21.09646 -21.06847 -21.05294 -15.77146
 Alpha  occ. eigenvalues --  -11.50324  -5.62086  -2.30168  -2.26845  -2.22673
 Alpha  occ. eigenvalues --   -1.72890  -1.69289  -1.64453  -1.35341  -0.88006
 Alpha  occ. eigenvalues --   -0.74921  -0.72939  -0.61455  -0.58367  -0.55226
 Alpha  occ. eigenvalues --   -0.53005  -0.48370  -0.44301  -0.43073  -0.38128
 Alpha  occ. eigenvalues --   -0.36146  -0.30996  -0.25618
 Alpha virt. eigenvalues --    0.03312   0.04614   0.05761   0.06975   0.07611
 Alpha virt. eigenvalues --    0.07851   0.08989   0.10873   0.11732   0.12581
 Alpha virt. eigenvalues --    0.14792   0.15458   0.15877   0.17062   0.18086

  Beta  occ. eigenvalues --  -76.27121 -21.09181 -21.06443 -21.05228 -15.76871
  Beta  occ. eigenvalues --  -11.50334  -5.61151  -2.29681  -2.26234  -2.19640
  Beta  occ. eigenvalues --   -1.72695  -1.68239  -1.63523  -1.34749  -0.87373
  Beta  occ. eigenvalues --   -0.74596  -0.70956  -0.60618  -0.57260  -0.54973
  Beta  occ. eigenvalues --   -0.52428  -0.45064  -0.43225  -0.41432  -0.37526
  Beta  occ. eigenvalues --   -0.35371  -0.30712
  Beta virt. eigenvalues --    0.02733   0.04170   0.05875   0.06477   0.07634
  Beta virt. eigenvalues --    0.08001   0.08822   0.09055   0.11197   0.12384
  Beta virt. eigenvalues --    0.13763   0.15142   0.16250   0.17063   0.18046

 Mulliken charges and spin densities:
               1          2
     1  C    2.096229  -0.021306
     2  N   -2.682348  -0.027514
     3  Si   3.934927   1.113245
     4  O   -2.693195   0.022099
     5  O   -2.877582  -0.019537
     6  H    0.689251  -0.008958
     7  H    1.356453  -0.005826
     8  O   -2.528674  -0.022982
     9  H    1.018807  -0.037472
    10  H    1.686133   0.008251
 Sum of Mulliken charges =  -0.00000   1.00000

 Dipole moment (field-independent basis, Debye):
    X=              0.9993    Y=             -1.8081    Z=             -0.1053  Tot=              2.0685
                          Isotropic Fermi Contact Couplings
        Atom                 a.u.       MegaHertz       Gauss      10(-4) cm-1
     1  C(13)              0.00153       1.71585       0.61226       0.57234
     2  N(14)              0.06313      20.39824       7.27860       6.80412
     3  Si(29)             0.68633    -609.96014    -217.64894    -203.46080
     4  O(17)              0.00390      -2.36328      -0.84328      -0.78831
     5  O(17)              0.07330     -44.43200     -15.85444     -14.82092
     6  H(1)              -0.00099      -4.41192      -1.57428      -1.47166
     7  H(1)               0.00057       2.54767       0.90907       0.84981
     8  O(17)              0.05937     -35.99126     -12.84258     -12.00539

 1\1\GINC-SE396\SP\UHF\Aug-CC-pVDZ\C1H4N1O3Si1(2)\OHZDE\09-Apr-2025\0\\
 #t hf aug-cc-pvdz iop(5/13=1,5/36=2,99/5=2) pseudo=read geom=check gue
 ss=(read,tcheck) scf=(maxcycle=1)\\title\\0,2\C,0,1.779386,-0.641921,-
 0.076086\N,0,0.485896,-1.015342,0.1561\Si,0,-0.878417,0.091259,0.41916
 5\O,0,2.167377,0.507961,-0.20172\O,0,-0.367167,1.561688,-0.064316\H,0,
 0.331032,-2.013602,0.213846\H,0,0.603513,1.598728,-0.177146\O,0,-2.077
 103,-0.581928,-0.494676\H,0,-2.981684,-0.315346,-0.309627\H,0,2.482528
 ,-1.490254,-0.145869\\Version=ES64L-G16RevC.01\State=2-A\HF=-609.78066

 Normal termination of Gaussian 16 at Wed Apr  9 00:02:44 2025.
