 Gaussian 16, Revision C.01,

 ----------------------------------------------------------------------
 #t hf aug-cc-pvdz symm=none int=(grid=ultrafine) guess=(read,tcheck) s
 table=(opt,rrhf)
 ----------------------------------------------------------------------
 -----
 title
 -----
 Symbolic Z-matrix:
 Charge =  0 Multiplicity = 1

 SCF Done:  E(RHF) =  -590.969380620     A.U. after   10 cycles

 1\1\GINC-SE364\Stability\RHF\Aug-CC-pVDZ\H4O4Si1\OHZDE\08-Apr-2025\0\\
 #t hf aug-cc-pvdz symm=none int=(grid=ultrafine) guess=(read,tcheck) s
 table=(opt,rrhf)\\title\\0,1\Si,0,0.,0.,0.\O,0,-1.140062,0.789386,0.86
 5056\H,0,-1.880779,0.26978,1.185961\O,0,1.14006,-0.789386,0.865057\O,0
 ,0.789387,1.140061,-0.865055\O,0,-0.789385,-1.140061,-0.865057\H,0,1.8
 80777,-0.26978,1.185964\H,0,0.269781,1.880778,-1.185962\H,0,-0.269779,
 -1.880778,-1.185963\\Version=ES64L-G16RevC.01\HF=-590.9693806\RMSD=8.7
 83e-09\Dipole=0.0000008,-0.0000003,-0.0000017\Quadrupole=0.2346572,0.2

 Normal termination of Gaussian 16 at Tue Apr  8 22:58:38 2025.
 Gaussian 16:  ES64L-G16RevC.01  3-Jul-2019

 ----------------------------------------------------------------------
 #t hf aug-cc-pvdz iop(5/13=1,5/36=2,99/5=2) pseudo=read geom=check gue
 ss=(read,tcheck) scf=(maxcycle=1)
 ----------------------------------------------------------------------
 -----
 title
 -----
 Structure from the checkpoint file:  "BDE49_expt_1908_mol1.chk"
 Charge =  0 Multiplicity = 1

                         Standard orientation:
 ---------------------------------------------------------------------
 Center     Atomic      Atomic             Coordinates (Angstroms)
 Number     Number       Type             X           Y           Z
 ---------------------------------------------------------------------
      1         14           0        0.000000    0.000000    0.000000
      2          8           0        1.335892    0.371840   -0.865056
      3          1           0        1.865235   -0.361950   -1.185961
      4          8           0       -1.335890   -0.371841   -0.865057
      5          8           0       -0.371841    1.335891    0.865055
      6          8           0        0.371839   -1.335890    0.865057
      7          1           0       -1.865234    0.361949   -1.185964
      8          1           0        0.361948    1.865235    1.185962
      9          1           0       -0.361950   -1.865234    1.185963
 ---------------------------------------------------------------------

 SCF Done:  E(RHF) =  -592.359775043     A.U. after    2 cycles

 The electronic state is 1-A.
 Alpha  occ. eigenvalues --  -76.25929 -21.07935 -21.07935 -21.07911 -21.07886
 Alpha  occ. eigenvalues --   -5.61508  -2.29220  -2.29220  -2.27092  -1.73094
 Alpha  occ. eigenvalues --   -1.64668  -1.64668  -1.64116  -0.73290  -0.62460
 Alpha  occ. eigenvalues --   -0.62460  -0.62121  -0.48609  -0.45468  -0.42652
 Alpha  occ. eigenvalues --   -0.42284  -0.42284  -0.38672  -0.35902  -0.35902
 Alpha virt. eigenvalues --    0.03561   0.06207   0.06207   0.06283   0.07911
 Alpha virt. eigenvalues --    0.08072   0.08072   0.12834   0.18770   0.19457
 Alpha virt. eigenvalues --    0.20440   0.21690   0.21690   0.22505   0.23771

 Mulliken charges:
               1
     1  Si   7.666583
     2  O   -2.930527
     3  H    1.013884
     4  O   -2.930530
     5  O   -2.930529
     6  O   -2.930529
     7  H    1.013883
     8  H    1.013883
     9  H    1.013883
 Sum of Mulliken charges =  -0.00000

 Dipole moment (field-independent basis, Debye):
    X=             -0.0000    Y=             -0.0000    Z=              0.0000  Tot=              0.0000

 Test job not archived.
 1\1\GINC-SE364\SP\RHF\Aug-CC-pVDZ\H4O4Si1\OHZDE\08-Apr-2025\0\\#t hf a
 ug-cc-pvdz iop(5/13=1,5/36=2,99/5=2) pseudo=read geom=check guess=(rea
 d,tcheck) scf=(maxcycle=1)\\title\\0,1\Si,0,0.,0.,0.\O,0,-1.140062,0.7
 89386,0.865056\H,0,-1.880779,0.26978,1.185961\O,0,1.14006,-0.789386,0.
 865057\O,0,0.789387,1.140061,-0.865055\O,0,-0.789385,-1.140061,-0.8650
 57\H,0,1.880777,-0.26978,1.185964\H,0,0.269781,1.880778,-1.185962\H,0,
 -0.269779,-1.880778,-1.185963\\Version=ES64L-G16RevC.01\State=1-A\HF=-
 592.359775\RMSD=6.103e-02\Dipole=0.0000003,-0.0000004,-0.0000008\Quadr

 Normal termination of Gaussian 16 at Tue Apr  8 22:58:41 2025.
