 Gaussian 16, Revision C.01,

 ----------------------------------------------------------------------
 #t hf aug-cc-pvdz symm=none int=(grid=ultrafine) guess=(read,tcheck) s
 table=(opt,rrhf)
 ----------------------------------------------------------------------
 -----
 title
 -----
 Symbolic Z-matrix:
 Charge =  0 Multiplicity = 1

 SCF Done:  E(RHF) =  -759.200284632     A.U. after   13 cycles
 Normal termination of Gaussian 16 at Tue Apr  8 23:41:01 2025.
 Gaussian 16:  ES64L-G16RevC.01  3-Jul-2019

 ----------------------------------------------------------------------
 #t hf aug-cc-pvdz iop(5/13=1,5/36=2,99/5=2) pseudo=read geom=check gue
 ss=(read,tcheck) scf=(maxcycle=1)
 ----------------------------------------------------------------------
 -----
 title
 -----
 Structure from the checkpoint file:  "BDE49_nonexpt_1598_mol1.chk"
 Charge =  0 Multiplicity = 1

                         Standard orientation:
 ---------------------------------------------------------------------
 Center     Atomic      Atomic             Coordinates (Angstroms)
 Number     Number       Type             X           Y           Z
 ---------------------------------------------------------------------
      1          6           0       -1.575280   -0.020807    0.256462
      2          8           0       -0.364486   -0.344787   -0.512343
      3         15           0        1.072332    0.095906   -0.007923
      4          8           0        1.336945    1.498185    0.302251
      5          8           0        1.278635   -0.884944    1.254919
      6          6           0       -2.062313    1.362995   -0.146555
      7          1           0       -2.318897    1.380176   -1.208914
      8          1           0       -1.288024    2.108417    0.038915
      9          6           0       -2.567528   -1.134942   -0.028164
     10          1           0       -1.303046   -0.032552    1.316194
     11          1           0       -3.494277   -0.962089    0.524933
     12          1           0       -2.159289   -2.101758    0.272152
     13          1           0       -2.802769   -1.170989   -1.094880
     14          1           0       -2.952554    1.629091    0.430176
     15          1           0        1.871405   -0.485192    1.902393
     16          8           0        1.986456   -0.481646   -1.176435
     17          1           0        1.692798   -1.341635   -1.499714
 ---------------------------------------------------------------------

 SCF Done:  E(RHF) =  -761.248584678     A.U. after    2 cycles

 The electronic state is 1-A.
 Alpha  occ. eigenvalues -- -105.32051 -21.11565 -21.11402 -21.07783 -21.02031
 Alpha  occ. eigenvalues --  -11.47095 -11.40092 -11.36860  -2.95594  -2.01382
 Alpha  occ. eigenvalues --   -1.92155  -1.91205  -1.74997  -1.43509  -1.40640
 Alpha  occ. eigenvalues --   -1.25727  -1.15941  -1.02241  -0.84161  -0.71908
 Alpha  occ. eigenvalues --   -0.64066  -0.61512  -0.60526  -0.58859  -0.55031
 Alpha  occ. eigenvalues --   -0.53652  -0.51128  -0.49123  -0.46925  -0.44143
 Alpha  occ. eigenvalues --   -0.40330  -0.38031  -0.36146  -0.33530  -0.28435
 Alpha  occ. eigenvalues --   -0.27151  -0.15637
 Alpha virt. eigenvalues --    0.03574   0.05065   0.05258   0.05628   0.05982
 Alpha virt. eigenvalues --    0.06214   0.06878   0.07291   0.08683   0.11152
 Alpha virt. eigenvalues --    0.12332   0.12708   0.13304   0.14262   0.14730

 Mulliken charges:
               1
     1  C   -0.653555
     2  O   -4.155679
     3  P    9.359201
     4  O   -2.896138
     5  O   -2.596489
     6  C   -3.585406
     7  H    1.322308
     8  H    1.330387
     9  C   -3.886781
    10  H    1.895093
    11  H    1.205170
    12  H    1.311833
    13  H    1.270254
    14  H    1.218985
    15  H    0.725100
    16  O   -2.798060
    17  H    0.933778
 Sum of Mulliken charges =   0.00000

 Dipole moment (field-independent basis, Debye):
    X=             -1.4067    Y=             -3.0807    Z=             -0.2543  Tot=              3.3962

 Test job not archived.
 1\1\GINC-SE016\SP\RHF\Aug-CC-pVDZ\C3H9O4P1\OHZDE\08-Apr-2025\0\\#t hf
 aug-cc-pvdz iop(5/13=1,5/36=2,99/5=2) pseudo=read geom=check guess=(re
 ad,tcheck) scf=(maxcycle=1)\\title\\0,1\C,0,1.57528,-0.020807,-0.25646
 2\O,0,0.364486,-0.344787,0.512343\P,0,-1.072332,0.095906,0.007923\O,0,
 -1.336945,1.498185,-0.302251\O,0,-1.278635,-0.884944,-1.254919\C,0,2.0
 62313,1.362995,0.146555\H,0,2.318897,1.380176,1.208914\H,0,1.288024,2.
 108417,-0.038915\C,0,2.567528,-1.134942,0.028164\H,0,1.303046,-0.03255
 2,-1.316194\H,0,3.494277,-0.962089,-0.524933\H,0,2.159289,-2.101758,-0

 Normal termination of Gaussian 16 at Tue Apr  8 23:41:09 2025.
