 Gaussian 16, Revision C.01,

 ----------------------------------------------------------------------
 #t hf aug-cc-pvdz symm=none int=(grid=ultrafine) guess=(read,tcheck) s
 table=(opt,rrhf)
 ----------------------------------------------------------------------
 -----
 title
 -----
 Symbolic Z-matrix:
 Charge =  0 Multiplicity = 1

 SCF Done:  E(RHF) =  -637.972450916     A.U. after   14 cycles
 Normal termination of Gaussian 16 at Tue Apr  8 23:09:30 2025.
 Gaussian 16:  ES64L-G16RevC.01  3-Jul-2019

 ----------------------------------------------------------------------
 #t hf aug-cc-pvdz iop(5/13=1,5/36=2,99/5=2) pseudo=read geom=check gue
 ss=(read,tcheck) scf=(maxcycle=1)
 ----------------------------------------------------------------------
 -----
 title
 -----
 Structure from the checkpoint file:  "BDE49_expt_398_mol1.chk"
 Charge =  0 Multiplicity = 1

                         Standard orientation:
 ---------------------------------------------------------------------
 Center     Atomic      Atomic             Coordinates (Angstroms)
 Number     Number       Type             X           Y           Z
 ---------------------------------------------------------------------
      1          6           0        0.425416    0.020327   -0.000000
      2         14           0       -1.465438    0.005060   -0.000002
      3          6           0       -2.079338   -0.897567   -1.537071
      4          1           0       -1.752325   -0.389999   -2.449234
      5          1           0       -3.172835   -0.947314   -1.553120
      6          1           0       -1.700721   -1.923333   -1.576711
      7          6           0       -2.079342   -0.897481    1.537116
      8          1           0       -1.700723   -1.923245    1.576815
      9          1           0       -3.172839   -0.947229    1.553163
     10          1           0       -1.752334   -0.389862    2.449251
     11          6           0       -2.125689    1.769082   -0.000053
     12          1           0       -1.801585    2.324814   -0.884935
     13          1           0       -1.801588    2.324863    0.884800
     14          1           0       -3.220190    1.761520   -0.000054
     15          6           0        1.145159   -1.187262    0.000036
     16          6           0        1.167042    1.211973   -0.000033
     17          6           0        2.537344   -1.206121    0.000038
     18          6           0        3.250195   -0.008174    0.000005
     19          6           0        2.561573    1.201805   -0.000031
     20          1           0        3.109141    2.138272   -0.000057
     21          1           0        0.653614    2.167889   -0.000061
     22          1           0        3.066556   -2.153060    0.000066
     23          1           0        4.334641   -0.019115    0.000007
     24          1           0        0.613144   -2.134535    0.000062
 ---------------------------------------------------------------------

 SCF Done:  E(RHF) =  -639.885385223     A.U. after    2 cycles

 The electronic state is 1-A.
 Alpha  occ. eigenvalues --  -76.18496 -11.51054 -11.42750 -11.42038 -11.40345
 Alpha  occ. eigenvalues --  -11.39974 -11.35553 -11.34500 -11.34153 -11.34002
 Alpha  occ. eigenvalues --   -5.52659  -2.17504  -2.16820  -2.16130  -1.33015
 Alpha  occ. eigenvalues --   -1.09231  -1.08461  -1.05788  -1.00616  -1.00426
 Alpha  occ. eigenvalues --   -0.85466  -0.84684  -0.71686  -0.66370  -0.61653
 Alpha  occ. eigenvalues --   -0.58084  -0.57205  -0.56287  -0.56123  -0.55544
 Alpha  occ. eigenvalues --   -0.54144  -0.53337  -0.52805  -0.50478  -0.49674
 Alpha  occ. eigenvalues --   -0.44208  -0.39240  -0.38741  -0.36786  -0.32547
 Alpha  occ. eigenvalues --   -0.32389
 Alpha virt. eigenvalues --    0.02885   0.04826   0.05074   0.05488   0.05750
 Alpha virt. eigenvalues --    0.06012   0.06253   0.06480   0.06816   0.07061
 Alpha virt. eigenvalues --    0.07827   0.08399   0.08646   0.08991   0.09920

 Mulliken charges:
               1
     1  C   -1.135747
     2  Si  11.163614
     3  C   -6.130812
     4  H    0.903685
     5  H    1.094350
     6  H    1.215875
     7  C   -6.130812
     8  H    1.215875
     9  H    1.094350
    10  H    0.903687
    11  C   -6.548237
    12  H    1.100934
    13  H    1.100933
    14  H    1.009796
    15  C   -1.539619
    16  C   -1.462868
    17  C   -1.823282
    18  C   -2.115962
    19  C   -2.094688
    20  H    1.591012
    21  H    1.833778
    22  H    1.516267
    23  H    1.548304
    24  H    1.689568
 Sum of Mulliken charges =  -0.00000

 Dipole moment (field-independent basis, Debye):
    X=              0.2743    Y=              0.0566    Z=              0.0000  Tot=              0.2801

 Test job not archived.
 1\1\GINC-SE250\SP\RHF\Aug-CC-pVDZ\C9H14Si1\OHZDE\08-Apr-2025\0\\#t hf
 aug-cc-pvdz iop(5/13=1,5/36=2,99/5=2) pseudo=read geom=check guess=(re
 ad,tcheck) scf=(maxcycle=1)\\title\\0,1\C,0,0.425416,0.020327,0.\Si,0,
 -1.465438,0.00506,-0.000002\C,0,-2.079338,-0.897567,-1.537071\H,0,-1.7
 52325,-0.389999,-2.449234\H,0,-3.172835,-0.947314,-1.55312\H,0,-1.7007
 21,-1.923333,-1.576711\C,0,-2.079342,-0.897481,1.537116\H,0,-1.700723,
 -1.923245,1.576815\H,0,-3.172839,-0.947229,1.553163\H,0,-1.752334,-0.3
 89862,2.449251\C,0,-2.125689,1.769082,-0.000053\H,0,-1.801585,2.324814

 Normal termination of Gaussian 16 at Tue Apr  8 23:09:46 2025.
