 Gaussian 16, Revision C.01,

 ----------------------------------------------------------------------
 #t hf aug-cc-pvdz symm=none int=(grid=ultrafine) guess=(read,tcheck) s
 table=(opt,rrhf)
 ----------------------------------------------------------------------
 -----
 title
 -----
 Symbolic Z-matrix:
 Charge =  0 Multiplicity = 1

 SCF Done:  E(RHF) =  -849.957301689     A.U. after   15 cycles
 Normal termination of Gaussian 16 at Wed Apr  9 00:12:50 2025.
 Gaussian 16:  ES64L-G16RevC.01  3-Jul-2019

 ----------------------------------------------------------------------
 #t hf aug-cc-pvdz iop(5/13=1,5/36=2,99/5=2) pseudo=read geom=check gue
 ss=(read,tcheck) scf=(maxcycle=1)
 ----------------------------------------------------------------------
 -----
 title
 -----
 Structure from the checkpoint file:  "BDE49_nonexpt_2368_mol1.chk"
 Charge =  0 Multiplicity = 1

                         Standard orientation:
 ---------------------------------------------------------------------
 Center     Atomic      Atomic             Coordinates (Angstroms)
 Number     Number       Type             X           Y           Z
 ---------------------------------------------------------------------
      1         14           0       -1.998044   -0.987610   -0.132827
      2         14           0       -2.580551    1.285100   -0.391453
      3          6           0       -0.484722   -1.258875    0.993434
      4          1           0       -1.726735   -1.575692   -1.469363
      5          1           0       -3.159061   -1.711227    0.451259
      6          6           0        0.768406   -0.570765    0.508844
      7          6           0        1.586537   -1.165526   -0.460238
      8          6           0        1.132617    0.690537    0.996253
      9          6           0        2.730167   -0.522104   -0.925589
     10          6           0        3.079461    0.733627   -0.432854
     11          6           0        2.275524    1.337057    0.531195
     12          1           0        1.326504   -2.144798   -0.849635
     13          1           0        3.351123   -1.004390   -1.672547
     14          1           0        3.970465    1.234448   -0.793797
     15          1           0        2.539611    2.311575    0.926940
     16          1           0        0.519378    1.167110    1.754783
     17          1           0       -2.724155    1.938160    0.934439
     18          1           0       -3.883262    1.381400   -1.096172
     19          1           0       -0.326825   -2.340280    1.063558
     20          1           0       -0.747458   -0.915121    1.998575
     21          1           0       -1.567192    2.030241   -1.174390
 ---------------------------------------------------------------------

 SCF Done:  E(RHF) =  -851.603151649     A.U. after    2 cycles

 The electronic state is 1-A.
 Alpha  occ. eigenvalues --  -76.21185 -76.21159 -11.51464 -11.43921 -11.42948
 Alpha  occ. eigenvalues --  -11.40550 -11.40338 -11.38441 -11.35822  -5.54725
 Alpha  occ. eigenvalues --   -5.54553  -2.18397  -2.17015  -2.16675  -2.16605
 Alpha  occ. eigenvalues --   -2.16584  -2.15420  -1.34874  -1.14521  -1.08891
 Alpha  occ. eigenvalues --   -0.99610  -0.86166  -0.83505  -0.79267  -0.71002
 Alpha  occ. eigenvalues --   -0.69579  -0.64476  -0.61174  -0.57661  -0.56421
 Alpha  occ. eigenvalues --   -0.52585  -0.51555  -0.48000  -0.47127  -0.46052
 Alpha  occ. eigenvalues --   -0.44929  -0.43851  -0.41816  -0.34564  -0.32884
 Alpha  occ. eigenvalues --   -0.30167
 Alpha virt. eigenvalues --    0.03493   0.04596   0.04869   0.05316   0.05544
 Alpha virt. eigenvalues --    0.05805   0.06441   0.06967   0.07334   0.07598
 Alpha virt. eigenvalues --    0.08429   0.08769   0.09247   0.09813   0.10041

 Mulliken charges:
               1
     1  Si   4.153190
     2  Si   4.760466
     3  C   -5.444206
     4  H   -1.843140
     5  H   -1.819524
     6  C    4.895520
     7  C   -2.674142
     8  C   -1.896183
     9  C   -1.648964
    10  C   -2.855308
    11  C   -1.632635
    12  H    1.844282
    13  H    1.499388
    14  H    1.547946
    15  H    1.497591
    16  H    1.942383
    17  H   -1.606376
    18  H   -1.656071
    19  H    1.212626
    20  H    1.325074
    21  H   -1.601917
 Sum of Mulliken charges =   0.00000

 Dipole moment (field-independent basis, Debye):
    X=              0.6889    Y=             -0.3318    Z=              0.4911  Tot=              0.9087

 Test job not archived.
 1\1\GINC-SE247\SP\RHF\Aug-CC-pVDZ\C7H12Si2\OHZDE\09-Apr-2025\0\\#t hf
 aug-cc-pvdz iop(5/13=1,5/36=2,99/5=2) pseudo=read geom=check guess=(re
 ad,tcheck) scf=(maxcycle=1)\\title\\0,1\Si,0,-1.998044,-0.98761,-0.132
 827\Si,0,-2.580551,1.2851,-0.391453\C,0,-0.484722,-1.258875,0.993434\H
 ,0,-1.726735,-1.575692,-1.469363\H,0,-3.159061,-1.711227,0.451259\C,0,
 0.768406,-0.570765,0.508844\C,0,1.586537,-1.165526,-0.460238\C,0,1.132
 617,0.690537,0.996253\C,0,2.730167,-0.522104,-0.925589\C,0,3.079461,0.
 733627,-0.432854\C,0,2.275524,1.337057,0.531195\H,0,1.326504,-2.144798

 Normal termination of Gaussian 16 at Wed Apr  9 00:13:02 2025.
