 Gaussian 16, Revision C.01,

 ----------------------------------------------------------------------
 #t hf aug-cc-pvdz symm=none int=(grid=ultrafine) guess=(read,tcheck) s
 table=(opt,rrhf)
 ----------------------------------------------------------------------
 -----
 title
 -----
 Symbolic Z-matrix:
 Charge =  0 Multiplicity = 1

 SCF Done:  E(RHF) =  -544.460387752     A.U. after   12 cycles
 Normal termination of Gaussian 16 at Wed Apr  9 00:45:22 2025.
 Gaussian 16:  ES64L-G16RevC.01  3-Jul-2019

 ----------------------------------------------------------------------
 #t hf aug-cc-pvdz iop(5/13=1,5/36=2,99/5=2) pseudo=read geom=check gue
 ss=(read,tcheck) scf=(maxcycle=1)
 ----------------------------------------------------------------------
 -----
 title
 -----
 Structure from the checkpoint file:  "BDE49_nonexpt_774_mol1.chk"
 Charge =  0 Multiplicity = 1

                         Standard orientation:
 ---------------------------------------------------------------------
 Center     Atomic      Atomic             Coordinates (Angstroms)
 Number     Number       Type             X           Y           Z
 ---------------------------------------------------------------------
      1         14           0        0.320765   -1.068061   -0.186536
      2          5           0       -1.325508    0.128309   -0.043415
      3          8           0       -2.477753   -0.196111    0.625042
      4          8           0       -1.280278    1.341522   -0.663416
      5          6           0        1.920134   -0.082853   -0.413015
      6          6           0        2.203909    0.927640    0.711583
      7          1           0        2.286359    0.433752    1.684634
      8          1           0        1.405955    1.671738    0.782536
      9          1           0        3.140522    1.465957    0.538224
     10          1           0        1.851022    0.439328   -1.373866
     11          1           0        2.752033   -0.789468   -0.508647
     12          1           0       -2.443842   -1.050195    1.063016
     13          1           0       -2.102566    1.837499   -0.553053
     14          1           0        0.152138   -2.012370   -1.326387
     15          1           0        0.415203   -1.916955    1.037699
 ---------------------------------------------------------------------

 SCF Done:  E(RHF) =  -545.761219027     A.U. after    2 cycles

 The electronic state is 1-A.
 Alpha  occ. eigenvalues --  -76.19030 -21.06738 -21.05792 -11.38940 -11.34172
 Alpha  occ. eigenvalues --   -7.63587  -5.52790  -2.16734  -2.15537  -2.14906
 Alpha  occ. eigenvalues --   -1.81028  -1.65396  -1.14425  -0.89033  -0.78388
 Alpha  occ. eigenvalues --   -0.70565  -0.63110  -0.60059  -0.57137  -0.53749
 Alpha  occ. eigenvalues --   -0.49781  -0.48864  -0.48029  -0.44761  -0.42793
 Alpha  occ. eigenvalues --   -0.39365  -0.36698  -0.32995
 Alpha virt. eigenvalues --    0.03779   0.04029   0.04392   0.05186   0.06490
 Alpha virt. eigenvalues --    0.07063   0.07433   0.07736   0.08205   0.08818
 Alpha virt. eigenvalues --    0.09199   0.09835   0.10051   0.10458   0.11315

 Mulliken charges:
               1
     1  Si   4.942703
     2  B    5.399321
     3  O   -4.019639
     4  O   -4.118687
     5  C   -4.109583
     6  C   -3.511573
     7  H    1.305444
     8  H    1.401500
     9  H    1.149203
    10  H    1.476543
    11  H    1.360817
    12  H    1.352305
    13  H    1.250036
    14  H   -2.002120
    15  H   -1.876271
 Sum of Mulliken charges =  -0.00000

 Dipole moment (field-independent basis, Debye):
    X=             -0.1315    Y=              0.3553    Z=              0.3448  Tot=              0.5122

 Test job not archived.
 1\1\GINC-SE092\SP\RHF\Aug-CC-pVDZ\C2H9B1O2Si1\OHZDE\09-Apr-2025\0\\#t
 hf aug-cc-pvdz iop(5/13=1,5/36=2,99/5=2) pseudo=read geom=check guess=
 (read,tcheck) scf=(maxcycle=1)\\title\\0,1\Si,0,0.320765,-1.068061,-0.
 186536\B,0,-1.325508,0.128309,-0.043415\O,0,-2.477753,-0.196111,0.6250
 42\O,0,-1.280278,1.341522,-0.663416\C,0,1.920134,-0.082853,-0.413015\C
 ,0,2.203909,0.92764,0.711583\H,0,2.286359,0.433752,1.684634\H,0,1.4059
 55,1.671738,0.782536\H,0,3.140522,1.465957,0.538224\H,0,1.851022,0.439
 328,-1.373866\H,0,2.752033,-0.789468,-0.508647\H,0,-2.443842,-1.050195

 Normal termination of Gaussian 16 at Wed Apr  9 00:45:27 2025.
