 Gaussian 16, Revision C.01,

 ----------------------------------------------------------------------
 #t hf aug-cc-pvdz symm=none int=(grid=ultrafine) guess=(read,tcheck) s
 table=(opt,rrhf)
 ----------------------------------------------------------------------
 -----
 title
 -----
 Symbolic Z-matrix:
 Charge =  0 Multiplicity = 1

 SCF Done:  E(RHF) =  -1000.64032322     A.U. after   19 cycles
 Normal termination of Gaussian 16 at Tue Apr  8 22:56:36 2025.
 Gaussian 16:  ES64L-G16RevC.01  3-Jul-2019

 ----------------------------------------------------------------------
 #t hf aug-cc-pvdz iop(5/13=1,5/36=2,99/5=2) pseudo=read geom=check gue
 ss=(read,tcheck) scf=(maxcycle=1)
 ----------------------------------------------------------------------
 -----
 title
 -----
 Structure from the checkpoint file:  "BDE49_expt_1752_mol1.chk"
 Charge =  0 Multiplicity = 1

                         Standard orientation:
 ---------------------------------------------------------------------
 Center     Atomic      Atomic             Coordinates (Angstroms)
 Number     Number       Type             X           Y           Z
 ---------------------------------------------------------------------
      1          6           0        3.463938    0.670040   -0.441672
      2          6           0        2.943059   -0.435418   -1.111591
      3          6           0        1.670700   -0.906626   -0.797938
      4          6           0        2.720400    1.308808    0.551121
      5          6           0        1.449562    0.848267    0.878892
      6          6           0        0.938400   -0.252974    0.191569
      7          1           0        4.455103    1.032279   -0.689097
      8          1           0        3.527795   -0.936344   -1.873963
      9          1           0        1.255198   -1.774693   -1.292611
     10          1           0        3.132364    2.162849    1.075343
     11          1           0        0.860616    1.324620    1.651547
     12         16           0       -0.685401   -0.853353    0.608562
     13          8           0       -0.864007   -2.156440    0.023146
     14          8           0       -0.942762   -0.572336    1.990099
     15          7           0       -1.743097    0.168446   -0.304927
     16          7           0       -1.881563    1.431216    0.185427
     17          8           0       -2.554234    2.153844   -0.513116
     18          6           0       -2.299145   -0.208944   -1.606470
     19          1           0       -2.115276   -1.267984   -1.758114
     20          1           0       -1.838925    0.385909   -2.399059
     21          1           0       -3.371304   -0.010092   -1.599041
 ---------------------------------------------------------------------

 SCF Done:  E(RHF) =  -1003.61809433     A.U. after    2 cycles

 The electronic state is 1-A.
 Alpha  occ. eigenvalues --  -75.92880 -21.11138 -21.07189 -21.06959 -15.90487
 Alpha  occ. eigenvalues --  -15.79804 -13.56766 -13.46434 -13.43307 -11.55495
 Alpha  occ. eigenvalues --  -11.47153 -11.46990 -11.44884 -11.43951 -11.42421
 Alpha  occ. eigenvalues --  -11.40096  -8.28035  -1.89086  -1.86356  -1.68206
 Alpha  occ. eigenvalues --   -1.46458  -1.37740  -1.15985  -1.12748  -1.10292
 Alpha  occ. eigenvalues --   -1.02879  -0.90221  -0.89944  -0.81864  -0.75396
 Alpha  occ. eigenvalues --   -0.72613  -0.68493  -0.66580  -0.65026  -0.61817
 Alpha  occ. eigenvalues --   -0.61517  -0.61106  -0.56808  -0.55487  -0.54894
 Alpha  occ. eigenvalues --   -0.52308  -0.50158  -0.49016  -0.45767  -0.43354
 Alpha  occ. eigenvalues --   -0.41902  -0.40303  -0.38103  -0.37359  -0.36062
 Alpha  occ. eigenvalues --   -0.34640  -0.29789
 Alpha virt. eigenvalues --    0.02529   0.04441   0.04620   0.04854   0.06089
 Alpha virt. eigenvalues --    0.06402   0.07117   0.07691   0.07826   0.09229
 Alpha virt. eigenvalues --    0.09841   0.10450   0.11444   0.12232   0.12785

 Mulliken charges:
               1
     1  C   -2.887503
     2  C   -0.344945
     3  C   -4.089886
     4  C   -0.473649
     5  C   -3.320439
     6  C    2.638857
     7  H    1.569732
     8  H    1.518160
     9  H    1.936125
    10  H    1.506868
    11  H    1.953151
    12  S    7.329770
    13  O   -3.042446
    14  O   -2.937547
    15  N   -1.206508
    16  N    0.752324
    17  O   -2.009116
    18  C   -3.362308
    19  H    1.569211
    20  H    1.487955
    21  H    1.412192
 Sum of Mulliken charges =  -0.00000

 Dipole moment (field-independent basis, Debye):
    X=              2.4080    Y=              0.3155    Z=             -2.4266  Tot=              3.4332

 Test job not archived.
 1\1\GINC-SE423\SP\RHF\Aug-CC-pVDZ\C7H8N2O3S1\OHZDE\08-Apr-2025\0\\#t h
 f aug-cc-pvdz iop(5/13=1,5/36=2,99/5=2) pseudo=read geom=check guess=(
 read,tcheck) scf=(maxcycle=1)\\title\\0,1\C,0,3.463938,0.67004,-0.4416
 72\C,0,2.943059,-0.435418,-1.111591\C,0,1.6707,-0.906626,-0.797938\C,0
 ,2.7204,1.308808,0.551121\C,0,1.449562,0.848267,0.878892\C,0,0.9384,-0
 .252974,0.191569\H,0,4.455103,1.032279,-0.689097\H,0,3.527795,-0.93634
 4,-1.873963\H,0,1.255198,-1.774693,-1.292611\H,0,3.132364,2.162849,1.0
 75343\H,0,0.860616,1.32462,1.651547\S,0,-0.685401,-0.853353,0.608562\O

 Normal termination of Gaussian 16 at Tue Apr  8 22:56:52 2025.
