 Gaussian 16, Revision C.01,

 ----------------------------------------------------------------------
 #t hf aug-cc-pvdz symm=none int=(grid=ultrafine) guess=(read,tcheck) s
 table=(opt,rrhf)
 ----------------------------------------------------------------------
 -----
 title
 -----
 Symbolic Z-matrix:
 Charge =  0 Multiplicity = 1

 SCF Done:  E(RHF) =  -385.338009904     A.U. after   11 cycles
 Normal termination of Gaussian 16 at Tue Apr  8 23:57:20 2025.
 Gaussian 16:  ES64L-G16RevC.01  3-Jul-2019

 ----------------------------------------------------------------------
 #t hf aug-cc-pvdz iop(5/13=1,5/36=2,99/5=2) pseudo=read geom=check gue
 ss=(read,tcheck) scf=(maxcycle=1)
 ----------------------------------------------------------------------
 -----
 title
 -----
 Structure from the checkpoint file:  "BDE49_nonexpt_2011_mol1.chk"
 Charge =  0 Multiplicity = 1

                         Standard orientation:
 ---------------------------------------------------------------------
 Center     Atomic      Atomic             Coordinates (Angstroms)
 Number     Number       Type             X           Y           Z
 ---------------------------------------------------------------------
      1          7           0        0.484146    0.541387   -0.066060
      2         14           0       -1.109883   -0.103721    0.004343
      3          6           0        1.704198   -0.255778    0.017658
      4          1           0        0.611562    1.502779    0.215423
      5          1           0        1.544184   -1.221252   -0.470665
      6          1           0        2.031938   -0.456112    1.047439
      7          1           0        2.526046    0.237829   -0.510118
      8          1           0       -1.256238   -1.145080   -1.041587
      9          1           0       -2.041077    1.021373   -0.240926
     10          1           0       -1.492262   -0.742482    1.296108
 ---------------------------------------------------------------------

 SCF Done:  E(RHF) =  -385.979416307     A.U. after    2 cycles

 The electronic state is 1-A.
 Alpha  occ. eigenvalues --  -76.21646 -15.71087 -11.38817  -5.55308  -2.20577
 Alpha  occ. eigenvalues --   -2.17387  -2.16782  -1.31622  -0.96084  -0.75950
 Alpha  occ. eigenvalues --   -0.63094  -0.58999  -0.54483  -0.47487  -0.46516
 Alpha  occ. eigenvalues --   -0.45873  -0.34535
 Alpha virt. eigenvalues --    0.03545   0.05070   0.05625   0.06001   0.07184
 Alpha virt. eigenvalues --    0.07494   0.07784   0.08865   0.09871   0.10726
 Alpha virt. eigenvalues --    0.12523   0.14731   0.16028   0.17022   0.17917

 Mulliken charges:
               1
     1  N   -2.324429
     2  Si   5.600223
     3  C   -3.026832
     4  H    0.716124
     5  H    1.348417
     6  H    1.309762
     7  H    1.291228
     8  H   -1.628960
     9  H   -1.606315
    10  H   -1.679217
 Sum of Mulliken charges =  -0.00000

 Dipole moment (field-independent basis, Debye):
    X=              1.2308    Y=              0.5612    Z=              0.3058  Tot=              1.3869

 Test job not archived.
 1\1\GINC-SE094\SP\RHF\Aug-CC-pVDZ\C1H7N1Si1\OHZDE\08-Apr-2025\0\\#t hf
  aug-cc-pvdz iop(5/13=1,5/36=2,99/5=2) pseudo=read geom=check guess=(r
 ead,tcheck) scf=(maxcycle=1)\\title\\0,1\N,0,0.484146,0.541387,-0.0660
 6\Si,0,-1.109883,-0.103721,0.004343\C,0,1.704198,-0.255778,0.017658\H,
 0,0.611562,1.502779,0.215423\H,0,1.544184,-1.221252,-0.470665\H,0,2.03
 1938,-0.456112,1.047439\H,0,2.526046,0.237829,-0.510118\H,0,-1.256238,
 -1.14508,-1.041587\H,0,-2.041077,1.021373,-0.240926\H,0,-1.492262,-0.7
 42482,1.296108\\Version=ES64L-G16RevC.01\State=1-A\HF=-385.9794163\RMS

 Normal termination of Gaussian 16 at Tue Apr  8 23:57:23 2025.
