 Gaussian 16, Revision C.01,

 ----------------------------------------------------------------------
 #t hf aug-cc-pvdz symm=none int=(grid=ultrafine) guess=(read,tcheck) s
 table=(opt,rrhf)
 ----------------------------------------------------------------------
 -----
 title
 -----
 Symbolic Z-matrix:
 Charge =  0 Multiplicity = 1

 SCF Done:  E(RHF) =  -1156.98193525     A.U. after   12 cycles
 Normal termination of Gaussian 16 at Tue Apr  8 23:38:23 2025.
 Gaussian 16:  ES64L-G16RevC.01  3-Jul-2019

 ----------------------------------------------------------------------
 #t hf aug-cc-pvdz iop(5/13=1,5/36=2,99/5=2) pseudo=read geom=check gue
 ss=(read,tcheck) scf=(maxcycle=1)
 ----------------------------------------------------------------------
 -----
 title
 -----
 Structure from the checkpoint file:  "BDE49_nonexpt_1445_mol1.chk"
 Charge =  0 Multiplicity = 1

                         Standard orientation:
 ---------------------------------------------------------------------
 Center     Atomic      Atomic             Coordinates (Angstroms)
 Number     Number       Type             X           Y           Z
 ---------------------------------------------------------------------
      1         15           0        0.002115   -1.323482    0.092200
      2         14           0       -1.839298    0.027395   -0.005006
      3          6           0       -1.718394    1.529637   -1.141111
      4          1           0       -0.963611    2.242422   -0.798954
      5          1           0       -2.680118    2.054039   -1.167463
      6          1           0       -1.468755    1.239571   -2.165273
      7          6           0       -2.203086    0.606545    1.752134
      8          1           0       -1.405740    1.242583    2.146290
      9          1           0       -2.318329   -0.243243    2.430561
     10          1           0       -3.132507    1.185128    1.777627
     11          6           0       -3.246982   -1.072528   -0.609809
     12          1           0       -3.070083   -1.421954   -1.631066
     13          1           0       -4.192798   -0.520258   -0.605109
     14          1           0       -3.367037   -1.951875    0.028620
     15         14           0        1.844616    0.029431   -0.005110
     16          6           0        2.032742    0.960225   -1.634830
     17          1           0        2.065224    0.266448   -2.479856
     18          1           0        2.968645    1.530019   -1.636950
     19          1           0        1.212673    1.660204   -1.808170
     20          6           0        3.332804   -1.110089    0.202971
     21          1           0        3.378898   -1.853788   -0.598019
     22          1           0        3.289535   -1.648701    1.153415
     23          1           0        4.265489   -0.536246    0.179639
     24          6           0        1.791824    1.248453    1.433357
     25          1           0        0.986617    1.979559    1.321141
     26          1           0        2.735047    1.801676    1.492257
     27          1           0        1.649158    0.734119    2.387950
     28          1           0        0.008052   -1.676483   -1.284295
 ---------------------------------------------------------------------

 SCF Done:  E(RHF) =  -1158.77870873     A.U. after    2 cycles

 The electronic state is 1-A.
 Alpha  occ. eigenvalues -- -105.14379 -76.19985 -76.19952 -11.34990 -11.34746
 Alpha  occ. eigenvalues --  -11.34604 -11.34446 -11.34310 -11.34091  -5.53897
 Alpha  occ. eigenvalues --   -5.53879  -2.71187  -2.17473  -2.17440  -2.17380
 Alpha  occ. eigenvalues --   -2.17324  -2.16390  -2.15553  -1.42778  -1.42436
 Alpha  occ. eigenvalues --   -1.39235  -1.07582  -1.06660  -1.01246  -1.00729
 Alpha  occ. eigenvalues --   -1.00671  -1.00350  -0.73258  -0.62800  -0.59537
 Alpha  occ. eigenvalues --   -0.57070  -0.56736  -0.56549  -0.55996  -0.55827
 Alpha  occ. eigenvalues --   -0.54887  -0.54747  -0.54131  -0.54079  -0.53902
 Alpha  occ. eigenvalues --   -0.53254  -0.52892  -0.39628  -0.39506  -0.39207
 Alpha  occ. eigenvalues --   -0.38967  -0.19709  -0.08501  -0.02663
 Alpha virt. eigenvalues --    0.03037   0.04660   0.05511   0.05661   0.05864
 Alpha virt. eigenvalues --    0.05989   0.06186   0.06491   0.06580   0.06697
 Alpha virt. eigenvalues --    0.07318   0.07468   0.07596   0.07760   0.08644

 Mulliken charges:
               1
     1  P    0.692594
     2  Si   7.161529
     3  C   -6.041514
     4  H    1.318910
     5  H    1.091315
     6  H    1.305698
     7  C   -5.903999
     8  H    1.290452
     9  H    1.070141
    10  H    1.143359
    11  C   -5.687915
    12  H    1.071811
    13  H    1.255155
    14  H    1.072617
    15  Si   6.895786
    16  C   -5.931446
    17  H    0.979088
    18  H    1.178247
    19  H    1.357453
    20  C   -5.719382
    21  H    1.108143
    22  H    1.079706
    23  H    1.241056
    24  C   -5.968281
    25  H    1.287293
    26  H    1.238582
    27  H    1.271651
    28  H   -0.858048
 Sum of Mulliken charges =   0.00000

 Dipole moment (field-independent basis, Debye):
    X=             -0.1153    Y=             -5.3231    Z=              4.2253  Tot=              6.7972

 Test job not archived.
 1\1\GINC-SE100\SP\RHF\Aug-CC-pVDZ\C6H19P1Si2\OHZDE\08-Apr-2025\0\\#t h
 f aug-cc-pvdz iop(5/13=1,5/36=2,99/5=2) pseudo=read geom=check guess=(
 read,tcheck) scf=(maxcycle=1)\\title\\0,1\P,0,0.002115,-1.323482,0.092
 2\Si,0,-1.839298,0.027395,-0.005006\C,0,-1.718394,1.529637,-1.141111\H
 ,0,-0.963611,2.242422,-0.798954\H,0,-2.680118,2.054039,-1.167463\H,0,-
 1.468755,1.239571,-2.165273\C,0,-2.203086,0.606545,1.752134\H,0,-1.405
 74,1.242583,2.14629\H,0,-2.318329,-0.243243,2.430561\H,0,-3.132507,1.1
 85128,1.777627\C,0,-3.246982,-1.072528,-0.609809\H,0,-3.070083,-1.4219

 Normal termination of Gaussian 16 at Tue Apr  8 23:38:44 2025.
