 Gaussian 16, Revision C.01,

 ----------------------------------------------------------------------
 #t hf aug-cc-pvdz symm=none int=(grid=ultrafine) guess=(read,tcheck) s
 table=(opt,rrhf)
 ----------------------------------------------------------------------
 -----
 title
 -----
 Symbolic Z-matrix:
 Charge =  0 Multiplicity = 1

 SCF Done:  E(RHF) =  -622.336340430     A.U. after   16 cycles
 Normal termination of Gaussian 16 at Wed Apr  9 00:31:00 2025.
 Gaussian 16:  ES64L-G16RevC.01  3-Jul-2019

 ----------------------------------------------------------------------
 #t hf aug-cc-pvdz iop(5/13=1,5/36=2,99/5=2) pseudo=read geom=check gue
 ss=(read,tcheck) scf=(maxcycle=1)
 ----------------------------------------------------------------------
 -----
 title
 -----
 Structure from the checkpoint file:  "BDE49_nonexpt_344_mol1.chk"
 Charge =  0 Multiplicity = 1

                         Standard orientation:
 ---------------------------------------------------------------------
 Center     Atomic      Atomic             Coordinates (Angstroms)
 Number     Number       Type             X           Y           Z
 ---------------------------------------------------------------------
      1          6           0        0.059852    0.018593   -0.513659
      2          7           0        0.303254    1.462645   -0.097608
      3          5           0       -1.374837   -0.593370   -0.065812
      4          7           0        1.187565   -0.829442    0.029516
      5          1           0        0.165718    0.026245   -1.599178
      6          8           0        1.886585   -1.400933   -0.784519
      7          8           0       -1.416159   -1.942651   -0.075289
      8          8           0       -0.670214    2.207426   -0.189467
      9          8           0       -2.438170    0.173949    0.228948
     10          8           0        1.418031    1.796050    0.221452
     11          8           0        1.273256   -0.886844    1.242165
     12          1           0       -2.238626    1.120558    0.161840
     13          1           0       -2.274394   -2.299917    0.178683
 ---------------------------------------------------------------------

 SCF Done:  E(RHF) =  -624.910377926     A.U. after    2 cycles

 The electronic state is 1-A.
 Alpha  occ. eigenvalues --  -21.15140 -21.13498 -21.12865 -21.12259 -21.09783
 Alpha  occ. eigenvalues --  -21.09166 -16.04697 -16.02947 -11.51400  -7.70754
 Alpha  occ. eigenvalues --   -2.05853  -2.01539  -1.86016  -1.74314  -1.72381
 Alpha  occ. eigenvalues --   -1.70528  -1.29873  -1.02583  -0.89795  -0.81981
 Alpha  occ. eigenvalues --   -0.77875  -0.74992  -0.73217  -0.67750  -0.66362
 Alpha  occ. eigenvalues --   -0.63808  -0.63256  -0.60218  -0.53032  -0.48722
 Alpha  occ. eigenvalues --   -0.45757  -0.40617  -0.39229  -0.37964  -0.36653
 Alpha  occ. eigenvalues --   -0.34955  -0.33503  -0.32539
 Alpha virt. eigenvalues --    0.02775   0.03717   0.05041   0.05623   0.07550
 Alpha virt. eigenvalues --    0.07898   0.08449   0.10236   0.11248   0.13096
 Alpha virt. eigenvalues --    0.13370   0.14013   0.14642   0.15553   0.15859

 Mulliken charges:
               1
     1  C   -1.478227
     2  N    4.309714
     3  B    7.523788
     4  N    4.255237
     5  H    1.859295
     6  O   -2.705507
     7  O   -3.860973
     8  O   -2.924686
     9  O   -4.080435
    10  O   -2.744703
    11  O   -2.757334
    12  H    1.574671
    13  H    1.029158
 Sum of Mulliken charges =  -0.00000

 Dipole moment (field-independent basis, Debye):
    X=             -1.8946    Y=              0.0666    Z=             -0.6974  Tot=              2.0200

 Test job not archived.
 1\1\GINC-SE126\SP\RHF\Aug-CC-pVDZ\C1H3B1N2O6\OHZDE\09-Apr-2025\0\\#t h
 f aug-cc-pvdz iop(5/13=1,5/36=2,99/5=2) pseudo=read geom=check guess=(
 read,tcheck) scf=(maxcycle=1)\\title\\0,1\C,0,0.059852,0.018593,-0.513
 659\N,0,0.303255,1.462645,-0.097608\B,0,-1.374837,-0.593369,-0.065812\
 N,0,1.187565,-0.829442,0.029516\H,0,0.165718,0.026245,-1.599178\O,0,1.
 886585,-1.400934,-0.784519\O,0,-1.41616,-1.94265,-0.075289\O,0,-0.6702
 13,2.207426,-0.189467\O,0,-2.43817,0.17395,0.228948\O,0,1.418032,1.796
 05,0.221452\O,0,1.273256,-0.886844,1.242165\H,0,-2.238626,1.120559,0.1

 Normal termination of Gaussian 16 at Wed Apr  9 00:31:07 2025.
