 Gaussian 16, Revision C.01,

 ----------------------------------------------------------------------
 #t hf aug-cc-pvdz symm=none int=(grid=ultrafine) guess=(read,tcheck) s
 table=opt
 ----------------------------------------------------------------------
 -----
 title
 -----
 Symbolic Z-matrix:
 Charge =  0 Multiplicity = 2

 SCF Done:  E(UHF) =  -2151.77726995     A.U. after   15 cycles
 Normal termination of Gaussian 16 at Tue Apr  8 23:43:18 2025.
 Gaussian 16:  ES64L-G16RevC.01  3-Jul-2019

 ----------------------------------------------------------------------
 #t hf aug-cc-pvdz iop(5/13=1,5/36=2,99/5=2) pseudo=read geom=check gue
 ss=(read,tcheck) scf=(maxcycle=1)
 ----------------------------------------------------------------------
 -----
 title
 -----
 Structure from the checkpoint file:  "BDE49_nonexpt_169_mol2.chk"
 Charge =  0 Multiplicity = 2

                         Standard orientation:
 ---------------------------------------------------------------------
 Center     Atomic      Atomic             Coordinates (Angstroms)
 Number     Number       Type             X           Y           Z
 ---------------------------------------------------------------------
      1         17           0        3.015597   -0.000001   -0.244665
      2          5           0        1.435448    0.000026   -0.897858
      3         14           0       -0.369584    0.000001   -0.059416
      4         17           0       -1.352096   -1.684797   -0.725160
      5         17           0       -0.429279   -0.000103    2.007824
      6         17           0       -1.352050    1.684892   -0.724992
 ---------------------------------------------------------------------

 SCF Done:  E(UHF) =  -2152.96426715     A.U. after    2 cycles

 The electronic state is 2-A.
 Alpha  occ. eigenvalues --  -99.93609 -99.91228 -99.91223 -99.91029 -76.34960
 Alpha  occ. eigenvalues --  -10.50856 -10.48710 -10.48668 -10.48461  -9.70734
 Alpha  occ. eigenvalues --   -9.70400  -9.70136  -9.68526  -9.68505  -9.68360
 Alpha  occ. eigenvalues --   -9.68006  -9.67989  -9.67879  -9.67793  -9.67704
 Alpha  occ. eigenvalues --   -9.67614  -7.71581  -5.68643  -2.30446  -2.30212
 Alpha  occ. eigenvalues --   -2.29979  -1.38446  -1.34658  -1.30404  -1.30306
 Alpha  occ. eigenvalues --   -0.87419  -0.76270  -0.63062  -0.62729  -0.61898
 Alpha  occ. eigenvalues --   -0.59510  -0.58069  -0.57011  -0.56855  -0.54042
 Alpha  occ. eigenvalues --   -0.53956  -0.52232  -0.50879  -0.34253
 Alpha virt. eigenvalues --   -0.00570   0.03240   0.03866   0.04387   0.05103
 Alpha virt. eigenvalues --    0.06719   0.08306   0.08569   0.08779   0.10189
 Alpha virt. eigenvalues --    0.11644   0.12490   0.12954   0.13222   0.13233

  Beta  occ. eigenvalues --  -99.93550 -99.91235 -99.91230 -99.90981 -76.34899
  Beta  occ. eigenvalues --  -10.50789 -10.48719 -10.48675 -10.48409  -9.70733
  Beta  occ. eigenvalues --   -9.70189  -9.70046  -9.68550  -9.68529  -9.68213
  Beta  occ. eigenvalues --   -9.68006  -9.67996  -9.67889  -9.67795  -9.67630
  Beta  occ. eigenvalues --   -9.67591  -7.69737  -5.68535  -2.30347  -2.30286
  Beta  occ. eigenvalues --   -2.29553  -1.37664  -1.34558  -1.30465  -1.30039
  Beta  occ. eigenvalues --   -0.84698  -0.74352  -0.62725  -0.62452  -0.61004
  Beta  occ. eigenvalues --   -0.58128  -0.57746  -0.57111  -0.56214  -0.54044
  Beta  occ. eigenvalues --   -0.53747  -0.52176  -0.47980
  Beta virt. eigenvalues --    0.00959   0.01013   0.03609   0.03944   0.04701
  Beta virt. eigenvalues --    0.05278   0.07257   0.08454   0.08664   0.08890
  Beta virt. eigenvalues --    0.11542   0.12026   0.12774   0.13092   0.13621

 Mulliken charges and spin densities:
               1          2
     1  Cl  -1.042709   0.046372
     2  B   -0.493029   0.989771
     3  Si   3.776774  -0.038143
     4  Cl  -0.761127  -0.007805
     5  Cl  -0.718784   0.017608
     6  Cl  -0.761126  -0.007804
 Sum of Mulliken charges =  -0.00000   1.00000

 Dipole moment (field-independent basis, Debye):
    X=              1.2824    Y=             -0.0000    Z=             -0.1443  Tot=              1.2905
                          Isotropic Fermi Contact Couplings
        Atom                 a.u.       MegaHertz       Gauss      10(-4) cm-1
     1  Cl(35)             0.06094      26.72015       9.53441       8.91288
     2  B(11)              0.19024     272.87591      97.36891      91.02161
     3  Si(29)             0.15283    -135.82359     -48.46523     -45.30587
     4  Cl(35)            -0.00649      -2.84458      -1.01502      -0.94885
     5  Cl(35)             0.03457      15.15866       5.40899       5.05638
     6  Cl(35)            -0.00649      -2.84447      -1.01498      -0.94881
 --------------------------------------------------------
       Center         ----  Spin Dipole Couplings  ----

 Normal termination of Gaussian 16 at Tue Apr  8 23:43:21 2025.
