 Gaussian 16, Revision C.01,

 ----------------------------------------------------------------------
 #t hf aug-cc-pvdz symm=none int=(grid=ultrafine) guess=(read,tcheck) s
 table=(opt,rrhf)
 ----------------------------------------------------------------------
 -----
 title
 -----
 Symbolic Z-matrix:
 Charge =  0 Multiplicity = 1

 SCF Done:  E(RHF) =  -480.026549078     A.U. after   12 cycles
 Normal termination of Gaussian 16 at Tue Apr  8 23:50:18 2025.
 Gaussian 16:  ES64L-G16RevC.01  3-Jul-2019

 ----------------------------------------------------------------------
 #t hf aug-cc-pvdz iop(5/13=1,5/36=2,99/5=2) pseudo=read geom=check gue
 ss=(read,tcheck) scf=(maxcycle=1)
 ----------------------------------------------------------------------
 -----
 title
 -----
 Structure from the checkpoint file:  "BDE49_nonexpt_1864_mol1.chk"
 Charge =  0 Multiplicity = 1

                         Standard orientation:
 ---------------------------------------------------------------------
 Center     Atomic      Atomic             Coordinates (Angstroms)
 Number     Number       Type             X           Y           Z
 ---------------------------------------------------------------------
      1          6           0        0.506573    0.007873   -0.397991
      2         14           0       -1.356009    0.013388    0.035235
      3          8           0        1.143440   -1.182675    0.050281
      4          1           0        1.024616   -1.232077    1.006666
      5          8           0        1.073609    1.162283    0.190817
      6          1           0        2.008858    1.188880   -0.048400
      7          1           0       -2.000029    1.304630   -0.292864
      8          1           0       -1.465736   -0.251266    1.490708
      9          1           0       -2.025916   -1.077897   -0.707380
     10          1           0        0.666505   -0.003805   -1.482859
 ---------------------------------------------------------------------

 SCF Done:  E(RHF) =  -481.003767561     A.U. after    2 cycles

 The electronic state is 1-A.
 Alpha  occ. eigenvalues --  -76.21731 -21.08444 -21.08305 -11.42732  -5.55326
 Alpha  occ. eigenvalues --   -2.19352  -2.17714  -2.17521  -1.78230  -1.65138
 Alpha  occ. eigenvalues --   -0.94070  -0.77477  -0.67560  -0.59290  -0.53121
 Alpha  occ. eigenvalues --   -0.51938  -0.47448  -0.46877  -0.38508  -0.34177
 Alpha  occ. eigenvalues --   -0.30422
 Alpha virt. eigenvalues --    0.03883   0.05092   0.05558   0.06223   0.06812
 Alpha virt. eigenvalues --    0.07316   0.08674   0.09616   0.10170   0.13613
 Alpha virt. eigenvalues --    0.14136   0.15152   0.15814   0.17516   0.18941

 Mulliken charges:
               1
     1  C    1.133264
     2  Si   5.730236
     3  O   -2.528627
     4  H    0.735748
     5  O   -2.428620
     6  H    0.730718
     7  H   -1.575208
     8  H   -1.663712
     9  H   -1.631799
    10  H    1.498001
 Sum of Mulliken charges =  -0.00000

 Dipole moment (field-independent basis, Debye):
    X=              0.5984    Y=              0.0918    Z=             -0.2401  Tot=              0.6513

 Test job not archived.
 1\1\GINC-SE334\SP\RHF\Aug-CC-pVDZ\C1H6O2Si1\OHZDE\08-Apr-2025\0\\#t hf
  aug-cc-pvdz iop(5/13=1,5/36=2,99/5=2) pseudo=read geom=check guess=(r
 ead,tcheck) scf=(maxcycle=1)\\title\\0,1\C,0,0.506573,0.007873,-0.3979
 91\Si,0,-1.356009,0.013388,0.035235\O,0,1.14344,-1.182675,0.050281\H,0
 ,1.024616,-1.232077,1.006666\O,0,1.073609,1.162283,0.190817\H,0,2.0088
 58,1.18888,-0.0484\H,0,-2.000029,1.30463,-0.292864\H,0,-1.465736,-0.25
 1266,1.490708\H,0,-2.025916,-1.077897,-0.70738\H,0,0.666505,-0.003805,
 -1.482859\\Version=ES64L-G16RevC.01\State=1-A\HF=-481.0037676\RMSD=7.7

 Normal termination of Gaussian 16 at Tue Apr  8 23:50:21 2025.
