 Gaussian 16, Revision C.01,

 ----------------------------------------------------------------------
 #t hf aug-cc-pvdz symm=none int=(grid=ultrafine) guess=(read,tcheck) s
 table=(opt,rrhf)
 ----------------------------------------------------------------------
 -----
 title
 -----
 Symbolic Z-matrix:
 Charge =  0 Multiplicity = 1

 SCF Done:  E(RHF) =  -854.927853401     A.U. after   16 cycles
 Normal termination of Gaussian 16 at Tue Apr  8 23:17:35 2025.
 Gaussian 16:  ES64L-G16RevC.01  3-Jul-2019

 ----------------------------------------------------------------------
 #t hf aug-cc-pvdz iop(5/13=1,5/36=2,99/5=2) pseudo=read geom=check gue
 ss=(read,tcheck) scf=(maxcycle=1)
 ----------------------------------------------------------------------
 -----
 title
 -----
 Structure from the checkpoint file:  "BDE49_expt_858_mol1.chk"
 Charge =  0 Multiplicity = 1

                         Standard orientation:
 ---------------------------------------------------------------------
 Center     Atomic      Atomic             Coordinates (Angstroms)
 Number     Number       Type             X           Y           Z
 ---------------------------------------------------------------------
      1          6           0       -1.520036   -2.291916    0.000002
      2          6           0       -0.247322   -1.750104    0.000000
      3          6           0       -0.031108   -0.358384   -0.000001
      4          6           0       -2.623424   -1.436424    0.000002
      5          6           0       -2.439122   -0.064587    0.000001
      6          6           0       -1.154867    0.504824   -0.000001
      7          6           0        1.369725    0.140236   -0.000003
      8          1           0       -3.629843   -1.839856    0.000004
      9          1           0       -3.300083    0.594349    0.000001
     10         16           0       -1.139675    2.278137   -0.000003
     11          1           0        0.201630    2.409875   -0.000008
     12          1           0        0.616619   -2.399130    0.000000
     13          1           0       -1.654526   -3.366701    0.000003
     14          8           0        1.722328    1.305201   -0.000002
     15          8           0        2.273621   -0.860768    0.000002
     16          6           0        3.654284   -0.458057    0.000005
     17          1           0        3.880246    0.133371    0.888321
     18          1           0        3.880251    0.133364   -0.888315
     19          1           0        4.224127   -1.384454    0.000010
 ---------------------------------------------------------------------

 SCF Done:  E(RHF) =  -857.214806441     A.U. after    2 cycles

 The electronic state is 1-A.
 Alpha  occ. eigenvalues --  -75.68907 -21.09740 -21.05441 -13.18182 -13.15394
 Alpha  occ. eigenvalues --  -13.00957 -11.54739 -11.52781 -11.47196 -11.44973
 Alpha  occ. eigenvalues --  -11.43420 -11.42665 -11.42120 -11.38099  -8.03005
 Alpha  occ. eigenvalues --   -1.85610  -1.67133  -1.36766  -1.17663  -1.13768
 Alpha  occ. eigenvalues --   -1.04839  -1.02084  -0.91123  -0.85725  -0.78621
 Alpha  occ. eigenvalues --   -0.71386  -0.67693  -0.64124  -0.62567  -0.61302
 Alpha  occ. eigenvalues --   -0.59112  -0.55727  -0.55305  -0.53993  -0.49541
 Alpha  occ. eigenvalues --   -0.47892  -0.46963  -0.43041  -0.39357  -0.38132
 Alpha  occ. eigenvalues --   -0.34312  -0.33139  -0.28618  -0.22653
 Alpha virt. eigenvalues --    0.02932   0.04617   0.04974   0.05199   0.06217
 Alpha virt. eigenvalues --    0.06472   0.06730   0.07044   0.08965   0.09638
 Alpha virt. eigenvalues --    0.10097   0.10753   0.11338   0.12788   0.12972

 Mulliken charges:
               1
     1  C   -2.536665
     2  C   -0.393139
     3  C    1.972713
     4  C   -2.720373
     5  C   -3.581410
     6  C    2.467572
     7  C    3.993408
     8  H    1.554290
     9  H    1.748023
    10  S   -0.916101
    11  H    1.247119
    12  H    2.025412
    13  H    1.530022
    14  O   -3.307491
    15  O   -3.880799
    16  C   -3.313672
    17  H    1.349827
    18  H    1.349826
    19  H    1.411438
 Sum of Mulliken charges =   0.00000

 Dipole moment (field-independent basis, Debye):
    X=             -0.3181    Y=             -0.5740    Z=              0.0000  Tot=              0.6562

 Test job not archived.
 1\1\GINC-SE329\SP\RHF\Aug-CC-pVDZ\C8H8O2S1\OHZDE\08-Apr-2025\0\\#t hf
 aug-cc-pvdz iop(5/13=1,5/36=2,99/5=2) pseudo=read geom=check guess=(re
 ad,tcheck) scf=(maxcycle=1)\\title\\0,1\C,0,-1.520036,-2.291916,0.0000
 02\C,0,-0.247322,-1.750104,0.\C,0,-0.031108,-0.358384,-0.000001\C,0,-2
 .623424,-1.436424,0.000002\C,0,-2.439122,-0.064587,0.000001\C,0,-1.154
 867,0.504824,-0.000001\C,0,1.369725,0.140236,-0.000003\H,0,-3.629843,-
 1.839856,0.000004\H,0,-3.300083,0.594349,0.000001\S,0,-1.139675,2.2781
 37,-0.000003\H,0,0.20163,2.409875,-0.000008\H,0,0.616619,-2.39913,0.\H

 Normal termination of Gaussian 16 at Tue Apr  8 23:17:46 2025.
