 Gaussian 16, Revision C.01,

 ----------------------------------------------------------------------
 #t hf aug-cc-pvdz symm=none int=(grid=ultrafine) guess=(read,tcheck) s
 table=(opt,rrhf)
 ----------------------------------------------------------------------
 -----
 title
 -----
 Symbolic Z-matrix:
 Charge =  0 Multiplicity = 1

 SCF Done:  E(RHF) =  -668.720787424     A.U. after   14 cycles
 Normal termination of Gaussian 16 at Tue Apr  8 23:22:47 2025.
 Gaussian 16:  ES64L-G16RevC.01  3-Jul-2019

 ----------------------------------------------------------------------
 #t hf aug-cc-pvdz iop(5/13=1,5/36=2,99/5=2) pseudo=read geom=check gue
 ss=(read,tcheck) scf=(maxcycle=1)
 ----------------------------------------------------------------------
 -----
 title
 -----
 Structure from the checkpoint file:  "BDE49_nonexpt_1189_mol1.chk"
 Charge =  0 Multiplicity = 1

                         Standard orientation:
 ---------------------------------------------------------------------
 Center     Atomic      Atomic             Coordinates (Angstroms)
 Number     Number       Type             X           Y           Z
 ---------------------------------------------------------------------
      1         16           0        2.696528   -0.030371   -0.121726
      2          8           0        1.096648    0.334739    0.240563
      3          6           0        0.116139   -0.569313   -0.305647
      4          6           0       -1.285315   -0.014959   -0.010379
      5          6           0       -1.488667    0.109672    1.510462
      6          1           0       -1.394756   -0.864609    2.000985
      7          1           0       -2.485112    0.501760    1.733848
      8          1           0       -0.748581    0.781364    1.948931
      9          6           0       -2.304358   -1.010659   -0.594020
     10          1           0       -2.203359   -2.000751   -0.138600
     11          1           0       -2.182031   -1.121178   -1.675937
     12          1           0       -3.324172   -0.662123   -0.408510
     13          6           0       -1.455242    1.359905   -0.681270
     14          1           0       -0.718698    2.071766   -0.304636
     15          1           0       -2.453526    1.761666   -0.484918
     16          1           0       -1.331203    1.286357   -1.766420
     17          1           0        0.240309   -1.557544    0.156655
     18          1           0        0.274411   -0.671211   -1.385386
     19          1           0        2.913736   -0.965353    0.832232
 ---------------------------------------------------------------------

 SCF Done:  E(RHF) =  -670.283626608     A.U. after    2 cycles

 The electronic state is 1-A.
 Alpha  occ. eigenvalues --  -75.73113 -21.06800 -13.21395 -13.13740 -13.08346
 Alpha  occ. eigenvalues --  -11.44622 -11.40690 -11.38695 -11.38167 -11.34736
 Alpha  occ. eigenvalues --   -8.06581  -1.76085  -1.27799  -1.07248  -1.00537
 Alpha  occ. eigenvalues --   -1.00182  -0.94713  -0.77602  -0.65433  -0.63689
 Alpha  occ. eigenvalues --   -0.60868  -0.58326  -0.56196  -0.53080  -0.52146
 Alpha  occ. eigenvalues --   -0.51070  -0.48786  -0.47582  -0.42662  -0.42268
 Alpha  occ. eigenvalues --   -0.37392  -0.32951  -0.23893
 Alpha virt. eigenvalues --    0.03649   0.04348   0.05365   0.05566   0.05829
 Alpha virt. eigenvalues --    0.05924   0.06098   0.06465   0.06714   0.08389
 Alpha virt. eigenvalues --    0.09186   0.09400   0.10850   0.11566   0.12490

 Mulliken charges:
               1
     1  S   -0.489026
     2  O   -2.440521
     3  C   -1.559143
     4  C    2.929988
     5  C   -4.677144
     6  H    1.227337
     7  H    1.199689
     8  H    1.333486
     9  C   -4.338614
    10  H    1.221918
    11  H    1.223377
    12  H    1.203770
    13  C   -4.656542
    14  H    1.313470
    15  H    1.198321
    16  H    1.216982
    17  H    1.493298
    18  H    1.588378
    19  H    1.010977
 Sum of Mulliken charges =  -0.00000

 Dipole moment (field-independent basis, Debye):
    X=             -0.4332    Y=              0.4831    Z=             -0.6845  Tot=              0.9432

 Test job not archived.
 1\1\GINC-SE072\SP\RHF\Aug-CC-pVDZ\C5H12O1S1\OHZDE\08-Apr-2025\0\\#t hf
  aug-cc-pvdz iop(5/13=1,5/36=2,99/5=2) pseudo=read geom=check guess=(r
 ead,tcheck) scf=(maxcycle=1)\\title\\0,1\S,0,2.696528,-0.030371,-0.121
 726\O,0,1.096648,0.334739,0.240563\C,0,0.116139,-0.569313,-0.305647\C,
 0,-1.285315,-0.014959,-0.010379\C,0,-1.488667,0.109672,1.510462\H,0,-1
 .394756,-0.864609,2.000985\H,0,-2.485112,0.50176,1.733848\H,0,-0.74858
 1,0.781364,1.948931\C,0,-2.304358,-1.010659,-0.59402\H,0,-2.203359,-2.
 000751,-0.1386\H,0,-2.182031,-1.121178,-1.675937\H,0,-3.324172,-0.6621

 Normal termination of Gaussian 16 at Tue Apr  8 23:22:55 2025.
