 Gaussian 16, Revision C.01,

 ----------------------------------------------------------------------
 #t hf aug-cc-pvdz symm=none int=(grid=ultrafine) guess=(read,tcheck) s
 table=opt
 ----------------------------------------------------------------------
 -----
 title
 -----
 Symbolic Z-matrix:
 Charge =  0 Multiplicity = 2

 SCF Done:  E(UHF) =  -204.065799848     A.U. after   15 cycles
 Normal termination of Gaussian 16 at Tue Apr  8 22:39:23 2025.
 Gaussian 16:  ES64L-G16RevC.01  3-Jul-2019

 ----------------------------------------------------------------------
 #t hf aug-cc-pvdz iop(5/13=1,5/36=2,99/5=2) pseudo=read geom=check gue
 ss=(read,tcheck) scf=(maxcycle=1)
 ----------------------------------------------------------------------
 -----
 title
 -----
 Structure from the checkpoint file:  "BDE49_expt_1247_mol3.chk"
 Charge =  0 Multiplicity = 2

                         Standard orientation:
 ---------------------------------------------------------------------
 Center     Atomic      Atomic             Coordinates (Angstroms)
 Number     Number       Type             X           Y           Z
 ---------------------------------------------------------------------
      1          7           0        0.000000   -0.000000    0.323073
      2          8           0        0.000000    1.100584   -0.141344
      3          8           0       -0.000000   -1.100584   -0.141344
 ---------------------------------------------------------------------

 SCF Done:  E(UHF) =  -204.880571823     A.U. after    2 cycles

 The electronic state is 2-A1.
 Alpha  occ. eigenvalues --  -21.18618 -21.18521 -16.03991  -2.04544  -1.77634
 Alpha  occ. eigenvalues --   -0.96806  -0.75361  -0.69572  -0.67271  -0.40690
 Alpha  occ. eigenvalues --   -0.37959  -0.34365
 Alpha virt. eigenvalues --    0.11129   0.12474   0.12736   0.13807   0.15005
 Alpha virt. eigenvalues --    0.20734   0.22041   0.23959   0.24209   0.27503
 Alpha virt. eigenvalues --    0.31159   0.37893   0.41614   0.50629   0.53980

  Beta  occ. eigenvalues --  -21.17275 -21.17180 -16.01787  -2.01049  -1.74416
  Beta  occ. eigenvalues --   -0.86599  -0.67635  -0.65200  -0.63041  -0.37885
  Beta  occ. eigenvalues --   -0.33847
  Beta virt. eigenvalues --    0.06478   0.12947   0.13440   0.13981   0.15134
  Beta virt. eigenvalues --    0.15180   0.21349   0.22361   0.24000   0.27493
  Beta virt. eigenvalues --    0.27610   0.31933   0.39180   0.42391   0.51289

 Mulliken charges and spin densities:
               1          2
     1  N    3.945436   0.547993
     2  O   -1.972718   0.226003
     3  O   -1.972718   0.226003
 Sum of Mulliken charges =   0.00000   1.00000

 Dipole moment (field-independent basis, Debye):
    X=              0.0000    Y=              0.0000    Z=             -0.2612  Tot=              0.2612
                          Isotropic Fermi Contact Couplings
        Atom                 a.u.       MegaHertz       Gauss      10(-4) cm-1
     1  N(14)              0.22829      73.76188      26.32007      24.60432
     2  O(17)              0.09497     -57.57215     -20.54317     -19.20400
     3  O(17)              0.09497     -57.57215     -20.54317     -19.20400
 --------------------------------------------------------
       Center         ----  Spin Dipole Couplings  ----
                      3XX-RR        3YY-RR        3ZZ-RR
 --------------------------------------------------------
     1   Atom       -0.450039     -0.597639      1.047678

 Normal termination of Gaussian 16 at Tue Apr  8 22:39:24 2025.
