 Gaussian 16, Revision C.01,

 ----------------------------------------------------------------------
 #t hf aug-cc-pvdz symm=none int=(grid=ultrafine) guess=(read,tcheck) s
 table=(opt,rrhf)
 ----------------------------------------------------------------------
 -----
 title
 -----
 Symbolic Z-matrix:
 Charge =  0 Multiplicity = 1

 SCF Done:  E(RHF) =  -606.540026633     A.U. after   17 cycles
 Normal termination of Gaussian 16 at Wed Apr  9 00:38:26 2025.
 Gaussian 16:  ES64L-G16RevC.01  3-Jul-2019

 ----------------------------------------------------------------------
 #t hf aug-cc-pvdz iop(5/13=1,5/36=2,99/5=2) pseudo=read geom=check gue
 ss=(read,tcheck) scf=(maxcycle=1)
 ----------------------------------------------------------------------
 -----
 title
 -----
 Structure from the checkpoint file:  "BDE49_nonexpt_438_mol1.chk"
 Charge =  0 Multiplicity = 1

                         Standard orientation:
 ---------------------------------------------------------------------
 Center     Atomic      Atomic             Coordinates (Angstroms)
 Number     Number       Type             X           Y           Z
 ---------------------------------------------------------------------
      1          9           0        3.484559   -0.080677   -0.000005
      2          9           0        2.244129   -1.952576   -0.000006
      3          6           0        1.010243    0.283492    0.000003
      4          5           0        2.264543   -0.619487    0.000004
      5          6           0       -0.350755   -0.187198    0.000002
      6          6           0       -0.704829   -1.563559    0.000002
      7          1           0        0.075856   -2.310177    0.000003
      8          6           0       -2.021860   -1.959231    0.000001
      9          1           0       -2.263021   -3.016362    0.000002
     10          6           0       -3.064312   -1.007235    0.000000
     11          1           0       -4.097051   -1.336658   -0.000001
     12          6           0       -2.763013    0.331362    0.000000
     13          1           0       -3.553619    1.074442   -0.000001
     14          6           0       -1.414732    0.774310    0.000001
     15          6           0       -1.104039    2.158218    0.000000
     16          1           0       -1.921157    2.872592   -0.000001
     17          6           0        0.198047    2.592703    0.000001
     18          1           0        0.424327    3.652617    0.000001
     19          6           0        1.245924    1.652508    0.000002
     20          1           0        2.269710    2.008041    0.000003
 ---------------------------------------------------------------------

 SCF Done:  E(RHF) =  -609.142873787     A.U. after    2 cycles

 The electronic state is 1-A.
 Alpha  occ. eigenvalues --  -29.25258 -29.24903 -11.53654 -11.50230 -11.46315
 Alpha  occ. eigenvalues --  -11.44919 -11.44090 -11.42927 -11.42258 -11.41889
 Alpha  occ. eigenvalues --  -11.39895 -11.37106  -7.73092  -1.41044  -1.25658
 Alpha  occ. eigenvalues --   -1.18947  -1.10693  -1.09006  -1.03594  -0.90250
 Alpha  occ. eigenvalues --   -0.88675  -0.84937  -0.75317  -0.72998  -0.70118
 Alpha  occ. eigenvalues --   -0.68236  -0.64662  -0.58486  -0.58055  -0.55609
 Alpha  occ. eigenvalues --   -0.55400  -0.54560  -0.50744  -0.49830  -0.45471
 Alpha  occ. eigenvalues --   -0.44684  -0.44198  -0.43164  -0.42628  -0.38479
 Alpha  occ. eigenvalues --   -0.33591  -0.32339  -0.32280  -0.28492  -0.26122
 Alpha virt. eigenvalues --    0.03000   0.04435   0.04668   0.04842   0.05370
 Alpha virt. eigenvalues --    0.05543   0.06575   0.06881   0.07481   0.07874
 Alpha virt. eigenvalues --    0.08747   0.10015   0.10309   0.10999   0.11371

 Mulliken charges:
               1
     1  F   -0.521096
     2  F   -0.541700
     3  C   -1.862217
     4  B    0.100974
     5  C    5.283423
     6  C   -0.040748
     7  H    2.044834
     8  C   -4.864063
     9  H    1.483432
    10  C   -3.844742
    11  H    1.529160
    12  C   -3.590889
    13  H    1.702440
    14  C    4.941240
    15  C   -3.243293
    16  H    1.747314
    17  C   -3.013510
    18  H    1.547308
    19  C   -1.001135
    20  H    2.143269
 Sum of Mulliken charges =  -0.00000

 Dipole moment (field-independent basis, Debye):
    X=              1.1950    Y=             -0.9184    Z=             -0.0000  Tot=              1.5071

 Test job not archived.
 1\1\GINC-SE038\SP\RHF\Aug-CC-pVDZ\C10H7B1F2\OHZDE\09-Apr-2025\0\\#t hf
  aug-cc-pvdz iop(5/13=1,5/36=2,99/5=2) pseudo=read geom=check guess=(r
 ead,tcheck) scf=(maxcycle=1)\\title\\0,1\F,0,3.484559,-0.080677,-0.000
 005\F,0,2.244129,-1.952576,-0.000006\C,0,1.010243,0.283492,0.000003\B,
 0,2.264543,-0.619487,0.000004\C,0,-0.350755,-0.187198,0.000002\C,0,-0.
 704829,-1.563559,0.000002\H,0,0.075856,-2.310177,0.000003\C,0,-2.02186
 ,-1.959231,0.000001\H,0,-2.263021,-3.016362,0.000002\C,0,-3.064312,-1.
 007235,0.\H,0,-4.097051,-1.336658,-0.000001\C,0,-2.763013,0.331362,0.\

 Normal termination of Gaussian 16 at Wed Apr  9 00:38:46 2025.
