 Gaussian 16, Revision C.01,

 ----------------------------------------------------------------------
 #t hf aug-cc-pvdz symm=none int=(grid=ultrafine) guess=(read,tcheck) s
 table=(opt,rrhf)
 ----------------------------------------------------------------------
 -----
 title
 -----
 Symbolic Z-matrix:
 Charge =  0 Multiplicity = 1

 SCF Done:  E(RHF) =  -1375.28023729     A.U. after   13 cycles
 Normal termination of Gaussian 16 at Wed Apr  9 00:50:15 2025.
 Gaussian 16:  ES64L-G16RevC.01  3-Jul-2019

 ----------------------------------------------------------------------
 #t hf aug-cc-pvdz iop(5/13=1,5/36=2,99/5=2) pseudo=read geom=check gue
 ss=(read,tcheck) scf=(maxcycle=1)
 ----------------------------------------------------------------------
 -----
 title
 -----
 Structure from the checkpoint file:  "BDE49_nonexpt_866_mol1.chk"
 Charge =  0 Multiplicity = 1

                         Standard orientation:
 ---------------------------------------------------------------------
 Center     Atomic      Atomic             Coordinates (Angstroms)
 Number     Number       Type             X           Y           Z
 ---------------------------------------------------------------------
      1         16           0       -0.568566   -1.397887   -0.258800
      2          5           0       -1.612314    0.055963   -0.026988
      3         16           0       -1.022967    1.739634   -0.408929
      4          6           0        1.065772   -0.772368   -0.849126
      5          6           0        2.021071   -0.375650    0.276669
      6          1           0        0.890582    0.052452   -1.542394
      7          6           0        3.388620    0.076449   -0.254119
      8          1           0        2.150904   -1.226426    0.954196
      9          1           0        1.574008    0.428202    0.870026
     10          6           0        4.358720    0.468465    0.864176
     11          1           0        3.251044    0.926182   -0.933120
     12          1           0        3.829291   -0.727935   -0.855337
     13          1           0        3.959931    1.293682    1.461638
     14          1           0        5.322776    0.786714    0.459011
     15          1           0        4.542925   -0.371662    1.540602
     16          1           0        1.475339   -1.601927   -1.430174
     17         16           0       -3.313899   -0.161395    0.591661
     18          1           0       -2.159093    2.394856   -0.113297
     19          1           0       -3.294309   -1.500961    0.715267
 ---------------------------------------------------------------------

 SCF Done:  E(RHF) =  -1376.89622952     A.U. after    2 cycles

 The electronic state is 1-A.
 Alpha  occ. eigenvalues --  -75.69880 -75.69543 -75.68294 -13.17554 -13.16740
 Alpha  occ. eigenvalues --  -13.15369 -13.11671 -13.10809 -13.07732 -13.05122
 Alpha  occ. eigenvalues --  -13.04182 -13.03679 -11.43858 -11.41632 -11.38350
 Alpha  occ. eigenvalues --  -11.35460  -8.03917  -8.03438  -8.02329  -7.67711
 Alpha  occ. eigenvalues --   -1.29224  -1.21796  -1.13471  -1.10026  -1.02873
 Alpha  occ. eigenvalues --   -0.90378  -0.83646  -0.67819  -0.65153  -0.59765
 Alpha  occ. eigenvalues --   -0.59579  -0.55154  -0.54878  -0.51699  -0.51025
 Alpha  occ. eigenvalues --   -0.46987  -0.46561  -0.46013  -0.39382  -0.37303
 Alpha  occ. eigenvalues --   -0.34017  -0.32057  -0.25440  -0.23986
 Alpha virt. eigenvalues --    0.02268   0.02420   0.02678   0.03325   0.05003
 Alpha virt. eigenvalues --    0.06004   0.06359   0.06517   0.07861   0.08386
 Alpha virt. eigenvalues --    0.08781   0.09528   0.09810   0.10361   0.11046

 Mulliken charges:
               1
     1  S   -0.870838
     2  B    4.627671
     3  S   -2.465032
     4  C   -4.086601
     5  C   -2.346724
     6  H    1.569850
     7  C   -2.976962
     8  H    1.608530
     9  H    1.625943
    10  C   -3.979587
    11  H    1.491196
    12  H    1.416316
    13  H    1.326390
    14  H    1.099545
    15  H    1.285788
    16  H    1.493327
    17  S   -2.787319
    18  H    0.924684
    19  H    1.043823
 Sum of Mulliken charges =  -0.00000

 Dipole moment (field-independent basis, Debye):
    X=              1.6177    Y=              0.3484    Z=             -0.4575  Tot=              1.7169

 Test job not archived.
 1\1\GINC-SE424\SP\RHF\Aug-CC-pVDZ\C4H11B1S3\OHZDE\09-Apr-2025\0\\#t hf
  aug-cc-pvdz iop(5/13=1,5/36=2,99/5=2) pseudo=read geom=check guess=(r
 ead,tcheck) scf=(maxcycle=1)\\title\\0,1\S,0,-0.568566,-1.397887,-0.25
 88\B,0,-1.612314,0.055963,-0.026988\S,0,-1.022967,1.739634,-0.408929\C
 ,0,1.065772,-0.772368,-0.849126\C,0,2.021071,-0.37565,0.276669\H,0,0.8
 90582,0.052452,-1.542394\C,0,3.38862,0.076449,-0.254119\H,0,2.150904,-
 1.226426,0.954196\H,0,1.574008,0.428202,0.870026\C,0,4.35872,0.468465,
 0.864176\H,0,3.251044,0.926182,-0.93312\H,0,3.829291,-0.727935,-0.8553

 Normal termination of Gaussian 16 at Wed Apr  9 00:50:24 2025.
