 Gaussian 16, Revision C.01,

 ----------------------------------------------------------------------
 #t hf aug-cc-pvdz symm=none int=(grid=ultrafine) guess=(read,tcheck) s
 table=opt
 ----------------------------------------------------------------------
 -----
 title
 -----
 Symbolic Z-matrix:
 Charge =  0 Multiplicity = 2

 SCF Done:  E(UHF) =  -265.587108012     A.U. after   17 cycles
 Normal termination of Gaussian 16 at Tue Apr  8 23:05:11 2025.
 Gaussian 16:  ES64L-G16RevC.01  3-Jul-2019

 ----------------------------------------------------------------------
 #t hf aug-cc-pvdz iop(5/13=1,5/36=2,99/5=2) pseudo=read geom=check gue
 ss=(read,tcheck) scf=(maxcycle=1)
 ----------------------------------------------------------------------
 -----
 title
 -----
 Structure from the checkpoint file:  "BDE49_expt_347_mol2.chk"
 Charge =  0 Multiplicity = 2

                         Standard orientation:
 ---------------------------------------------------------------------
 Center     Atomic      Atomic             Coordinates (Angstroms)
 Number     Number       Type             X           Y           Z
 ---------------------------------------------------------------------
      1          7           0       -0.922905   -1.104434   -0.235586
      2          6           0        0.438432   -1.295508    0.272577
      3          6           0        1.412016   -0.197499   -0.174064
      4          1           0        0.808948   -2.273105   -0.048348
      5          1           0        0.387447   -1.306478    1.367222
      6          7           0        0.855836    1.114722    0.164832
      7          1           0        1.580604   -0.291339   -1.260422
      8          1           0        2.377819   -0.312507    0.327336
      9          6           0       -0.484780    1.343488   -0.156730
     10          6           0       -1.433433    0.223188    0.154182
     11          1           0       -0.816192    2.371862   -0.052590
     12          1           0       -2.396350    0.391397   -0.335067
     13          1           0       -1.640537    0.172004    1.238316
     14          1           0       -0.896696   -1.148786   -1.252078
     15          1           0        1.471036    1.882920   -0.064883
 ---------------------------------------------------------------------

 SCF Done:  E(UHF) =  -266.865593448     A.U. after    2 cycles

 The electronic state is 2-A.
 Alpha  occ. eigenvalues --  -15.73210 -15.70897 -11.44585 -11.41033 -11.37055
 Alpha  occ. eigenvalues --  -11.36032  -1.45386  -1.31204  -1.12724  -0.96144
 Alpha  occ. eigenvalues --   -0.91281  -0.79161  -0.71390  -0.63007  -0.62176
 Alpha  occ. eigenvalues --   -0.57858  -0.55441  -0.53640  -0.52594  -0.47369
 Alpha  occ. eigenvalues --   -0.44678  -0.42399  -0.31195  -0.23508
 Alpha virt. eigenvalues --    0.04088   0.05451   0.05686   0.05875   0.05932
 Alpha virt. eigenvalues --    0.06518   0.06709   0.07384   0.07975   0.12085
 Alpha virt. eigenvalues --    0.12499   0.12597   0.13750   0.14504   0.14874

  Beta  occ. eigenvalues --  -15.72716 -15.70855 -11.44489 -11.40608 -11.36997
  Beta  occ. eigenvalues --  -11.34740  -1.44241  -1.30371  -1.11062  -0.95263
  Beta  occ. eigenvalues --   -0.89566  -0.76787  -0.70925  -0.62346  -0.61494
  Beta  occ. eigenvalues --   -0.55550  -0.54307  -0.53003  -0.51712  -0.47073
  Beta  occ. eigenvalues --   -0.44268  -0.36205  -0.30673
  Beta virt. eigenvalues --    0.03781   0.05482   0.05669   0.05838   0.05909
  Beta virt. eigenvalues --    0.06513   0.06695   0.07350   0.07990   0.10878
  Beta virt. eigenvalues --    0.12537   0.12602   0.13191   0.13847   0.14736

 Mulliken charges and spin densities:
               1          2
     1  N   -2.023721  -0.023545
     2  C   -2.082826  -0.030903
     3  C   -2.202267   0.004778
     4  H    1.261674   0.001602
     5  H    1.507407   0.012149
     6  N   -2.377440   0.071139
     7  H    1.403567  -0.007465
     8  H    1.382527   0.012979
     9  C   -0.199872   1.293127
    10  C   -2.180236  -0.312504
    11  H    1.520440   0.008817
    12  H    1.352056  -0.014182
    13  H    1.336926   0.009349
    14  H    0.609695   0.002591
    15  H    0.692070  -0.027932
 Sum of Mulliken charges =   0.00000   1.00000

 Dipole moment (field-independent basis, Debye):
    X=              1.1952    Y=              0.6604    Z=             -0.4275  Tot=              1.4308
                          Isotropic Fermi Contact Couplings
        Atom                 a.u.       MegaHertz       Gauss      10(-4) cm-1
     1  N(14)              0.01141       3.68593       1.31523       1.22949
     2  C(13)              0.00180       2.02580       0.72286       0.67574
     3  C(13)              0.00847       9.52732       3.39958       3.17797
     4  H(1)              -0.00009      -0.39591      -0.14127      -0.13206
     5  H(1)              -0.00006      -0.27563      -0.09835      -0.09194
     6  N(14)              0.02425       7.83481       2.79566       2.61341
     7  H(1)               0.00121       5.42642       1.93628       1.81006
     8  H(1)              -0.00042      -1.88393      -0.67223      -0.62841

 Normal termination of Gaussian 16 at Tue Apr  8 23:05:15 2025.
