 Gaussian 16, Revision C.01,

 ----------------------------------------------------------------------
 #t hf aug-cc-pvdz symm=none int=(grid=ultrafine) guess=(read,tcheck) s
 table=(opt,rrhf)
 ----------------------------------------------------------------------
 -----
 title
 -----
 Symbolic Z-matrix:
 Charge =  0 Multiplicity = 1

 SCF Done:  E(RHF) =  -522.317481343     A.U. after   12 cycles
 Normal termination of Gaussian 16 at Wed Apr  9 00:07:30 2025.
 Gaussian 16:  ES64L-G16RevC.01  3-Jul-2019

 ----------------------------------------------------------------------
 #t hf aug-cc-pvdz iop(5/13=1,5/36=2,99/5=2) pseudo=read geom=check gue
 ss=(read,tcheck) scf=(maxcycle=1)
 ----------------------------------------------------------------------
 -----
 title
 -----
 Structure from the checkpoint file:  "BDE49_nonexpt_2244_mol1.chk"
 Charge =  0 Multiplicity = 1

                         Standard orientation:
 ---------------------------------------------------------------------
 Center     Atomic      Atomic             Coordinates (Angstroms)
 Number     Number       Type             X           Y           Z
 ---------------------------------------------------------------------
      1          6           0        2.038687   -0.310439    0.202720
      2          8           0        0.690755    0.003678   -0.145279
      3         14           0       -0.621427   -0.971543    0.099179
      4          6           0       -2.134257   -0.025420   -0.464488
      5          6           0        2.930711    0.866048   -0.153399
      6          1           0        2.361948   -1.210253   -0.337471
      7          1           0        2.104875   -0.527639    1.277215
      8          1           0        2.871105    1.078902   -1.223167
      9          1           0        3.972063    0.648532    0.101305
     10          1           0        2.618628    1.759908    0.391521
     11          6           0       -2.372042    1.302048    0.277257
     12          1           0       -2.999947   -0.689737   -0.346425
     13          1           0       -2.038218    0.153738   -1.541633
     14          1           0       -2.510159    1.139988    1.350388
     15          1           0       -3.263843    1.814023   -0.095549
     16          1           0       -1.522356    1.977507    0.153448
     17          1           0       -0.723013   -1.328926    1.541197
     18          1           0       -0.475731   -2.237284   -0.669646
 ---------------------------------------------------------------------

 SCF Done:  E(RHF) =  -523.617246937     A.U. after    2 cycles

 The electronic state is 1-A.
 Alpha  occ. eigenvalues --  -76.21485 -21.03167 -11.43147 -11.38846 -11.36109
 Alpha  occ. eigenvalues --  -11.34104  -5.55415  -2.22446  -2.18744  -2.17022
 Alpha  occ. eigenvalues --   -1.68962  -1.14609  -1.10997  -0.89312  -0.86870
 Alpha  occ. eigenvalues --   -0.71907  -0.64233  -0.60862  -0.58715  -0.57025
 Alpha  occ. eigenvalues --   -0.53046  -0.51157  -0.49812  -0.48984  -0.47470
 Alpha  occ. eigenvalues --   -0.46102  -0.38636  -0.35512  -0.33944
 Alpha virt. eigenvalues --    0.04001   0.04875   0.05555   0.05638   0.06075
 Alpha virt. eigenvalues --    0.06156   0.06331   0.06712   0.06871   0.07885
 Alpha virt. eigenvalues --    0.08181   0.09204   0.10065   0.11179   0.11745

 Mulliken charges:
               1
     1  C   -1.306270
     2  O   -3.654890
     3  Si   6.849968
     4  C   -4.194722
     5  C   -3.798563
     6  H    1.564729
     7  H    1.612219
     8  H    1.309380
     9  H    1.184312
    10  H    1.296345
    11  C   -3.569840
    12  H    1.355386
    13  H    1.512203
    14  H    1.333583
    15  H    1.135601
    16  H    1.392847
    17  H   -1.961470
    18  H   -2.060818
 Sum of Mulliken charges =   0.00000

 Dipole moment (field-independent basis, Debye):
    X=              0.2129    Y=              0.6962    Z=             -0.2888  Tot=              0.7832

 Test job not archived.
 1\1\GINC-SE097\SP\RHF\Aug-CC-pVDZ\C4H12O1Si1\OHZDE\09-Apr-2025\0\\#t h
 f aug-cc-pvdz iop(5/13=1,5/36=2,99/5=2) pseudo=read geom=check guess=(
 read,tcheck) scf=(maxcycle=1)\\title\\0,1\C,0,2.038687,-0.310439,0.202
 72\O,0,0.690755,0.003678,-0.145279\Si,0,-0.621427,-0.971543,0.099179\C
 ,0,-2.134257,-0.02542,-0.464488\C,0,2.930711,0.866048,-0.153399\H,0,2.
 361948,-1.210253,-0.337471\H,0,2.104875,-0.527639,1.277215\H,0,2.87110
 5,1.078902,-1.223167\H,0,3.972063,0.648532,0.101305\H,0,2.618628,1.759
 908,0.391521\C,0,-2.372042,1.302048,0.277257\H,0,-2.999947,-0.689737,-

 Normal termination of Gaussian 16 at Wed Apr  9 00:07:36 2025.
