 Gaussian 16, Revision C.01,

 ----------------------------------------------------------------------
 #t hf aug-cc-pvdz symm=none int=(grid=ultrafine) guess=(read,tcheck) s
 table=(opt,rrhf)
 ----------------------------------------------------------------------
 -----
 title
 -----
 Symbolic Z-matrix:
 Charge =  0 Multiplicity = 1

 SCF Done:  E(RHF) =  -410.648238793     A.U. after   12 cycles
 Normal termination of Gaussian 16 at Wed Apr  9 00:45:57 2025.
 Gaussian 16:  ES64L-G16RevC.01  3-Jul-2019

 ----------------------------------------------------------------------
 #t hf aug-cc-pvdz iop(5/13=1,5/36=2,99/5=2) pseudo=read geom=check gue
 ss=(read,tcheck) scf=(maxcycle=1)
 ----------------------------------------------------------------------
 -----
 title
 -----
 Structure from the checkpoint file:  "BDE49_nonexpt_792_mol1.chk"
 Charge =  0 Multiplicity = 1

                         Standard orientation:
 ---------------------------------------------------------------------
 Center     Atomic      Atomic             Coordinates (Angstroms)
 Number     Number       Type             X           Y           Z
 ---------------------------------------------------------------------
      1          5           0       -0.541009    0.075598    0.000004
      2          7           0       -1.083715    1.361191   -0.000008
      3         14           0        1.487962   -0.103115   -0.000001
      4          6           0       -1.486066   -1.190237    0.000008
      5          1           0       -2.554236   -0.942766    0.000007
      6          1           0       -1.291866   -1.824323    0.873140
      7          1           0       -1.291866   -1.824330   -0.873119
      8          1           0       -0.530349    2.204312   -0.000016
      9          1           0       -2.080192    1.535039   -0.000010
     10          1           0        2.169399    1.222110   -0.000012
     11          1           0        1.977543   -0.845683   -1.192828
     12          1           0        1.977549   -0.845666    1.192835
 ---------------------------------------------------------------------

 SCF Done:  E(RHF) =  -411.405781935     A.U. after    2 cycles

 The electronic state is 1-A.
 Alpha  occ. eigenvalues --  -76.18781 -15.73251 -11.33071  -7.59142  -5.52345
 Alpha  occ. eigenvalues --   -2.15276  -2.14369  -2.14268  -1.32754  -1.04939
 Alpha  occ. eigenvalues --   -0.79951  -0.70284  -0.66820  -0.55857  -0.54545
 Alpha  occ. eigenvalues --   -0.46876  -0.45457  -0.44821  -0.41173  -0.34327
 Alpha virt. eigenvalues --    0.03176   0.04072   0.04312   0.04894   0.07437
 Alpha virt. eigenvalues --    0.07931   0.08538   0.08836   0.09057   0.09233
 Alpha virt. eigenvalues --    0.09664   0.09901   0.10908   0.10957   0.12411

 Mulliken charges:
               1
     1  B    2.666676
     2  N   -3.203916
     3  Si   6.396940
     4  C   -5.638678
     5  H    1.264419
     6  H    0.988257
     7  H    0.988267
     8  H    0.856873
     9  H    0.934657
    10  H   -1.773763
    11  H   -1.739868
    12  H   -1.739864
 Sum of Mulliken charges =  -0.00000

 Dipole moment (field-independent basis, Debye):
    X=             -1.8745    Y=              1.1954    Z=             -0.0000  Tot=              2.2232

 Test job not archived.
 1\1\GINC-SE336\SP\RHF\Aug-CC-pVDZ\C1H8B1N1Si1\OHZDE\09-Apr-2025\0\\#t
 hf aug-cc-pvdz iop(5/13=1,5/36=2,99/5=2) pseudo=read geom=check guess=
 (read,tcheck) scf=(maxcycle=1)\\title\\0,1\B,0,-0.541009,0.075598,0.00
 0004\N,0,-1.083716,1.361191,-0.000008\Si,0,1.487962,-0.103114,-0.00000
 1\C,0,-1.486066,-1.190237,0.000008\H,0,-2.554236,-0.942767,0.000007\H,
 0,-1.291865,-1.824323,0.87314\H,0,-1.291865,-1.82433,-0.873119\H,0,-0.
 53035,2.204312,-0.000016\H,0,-2.080193,1.535038,-0.00001\H,0,2.169398,
 1.222111,-0.000012\H,0,1.977543,-0.845682,-1.192828\H,0,1.977549,-0.84

 Normal termination of Gaussian 16 at Wed Apr  9 00:46:01 2025.
