 Gaussian 16, Revision C.01,

 ----------------------------------------------------------------------
 #t hf aug-cc-pvdz symm=none int=(grid=ultrafine) guess=(read,tcheck) s
 table=(opt,rrhf)
 ----------------------------------------------------------------------
 -----
 title
 -----
 Symbolic Z-matrix:
 Charge =  0 Multiplicity = 1

 SCF Done:  E(RHF) =  -957.380104318     A.U. after   15 cycles
 Normal termination of Gaussian 16 at Wed Apr  9 00:16:48 2025.
 Gaussian 16:  ES64L-G16RevC.01  3-Jul-2019

 ----------------------------------------------------------------------
 #t hf aug-cc-pvdz iop(5/13=1,5/36=2,99/5=2) pseudo=read geom=check gue
 ss=(read,tcheck) scf=(maxcycle=1)
 ----------------------------------------------------------------------
 -----
 title
 -----
 Structure from the checkpoint file:  "BDE49_nonexpt_2498_mol1.chk"
 Charge =  0 Multiplicity = 1

                         Standard orientation:
 ---------------------------------------------------------------------
 Center     Atomic      Atomic             Coordinates (Angstroms)
 Number     Number       Type             X           Y           Z
 ---------------------------------------------------------------------
      1          6           0       -2.749538    0.399108   -0.429064
      2         16           0       -1.750216   -1.154178   -0.227038
      3         14           0        0.226609   -0.388166   -0.090966
      4          6           0        0.730028    1.284199   -0.356987
      5          6           0        2.101366    1.540218   -0.234755
      6          6           0        1.623415   -1.399531    0.291016
      7          6           0        2.863264   -0.756168    0.314094
      8          6           0        3.094200    0.604767    0.072646
      9          1           0        4.117254    0.958630    0.130687
     10          1           0        2.431815    2.565103   -0.394109
     11          1           0        0.071309    2.109584   -0.599798
     12          1           0        1.581553   -2.461939    0.500692
     13          1           0        3.736840   -1.363466    0.544149
     14          6           0       -2.992011    1.155900    0.870998
     15          1           0       -3.687545    0.039571   -0.855926
     16          1           0       -2.268749    1.023258   -1.182803
     17          1           0       -3.479017    0.518451    1.611567
     18          1           0       -3.639315    2.018801    0.682986
     19          1           0       -2.057559    1.522214    1.301004
 ---------------------------------------------------------------------

 SCF Done:  E(RHF) =  -959.092012672     A.U. after    2 cycles

 The electronic state is 1-A.
 Alpha  occ. eigenvalues --  -76.22318 -75.69071 -13.13569 -13.09794 -13.04187
 Alpha  occ. eigenvalues --  -11.46894 -11.43969 -11.42601 -11.38910 -11.38441
 Alpha  occ. eigenvalues --  -11.38242 -11.35542  -8.03164  -5.57019  -2.22873
 Alpha  occ. eigenvalues --   -2.21929  -2.15503  -1.26684  -1.23071  -1.09174
 Alpha  occ. eigenvalues --   -1.05644  -0.97793  -0.88067  -0.82330  -0.75170
 Alpha  occ. eigenvalues --   -0.68693  -0.64864  -0.60442  -0.58681  -0.58310
 Alpha  occ. eigenvalues --   -0.53440  -0.51997  -0.51656  -0.48757  -0.46602
 Alpha  occ. eigenvalues --   -0.42400  -0.38297  -0.34626  -0.33776  -0.30831
 Alpha  occ. eigenvalues --   -0.23400
 Alpha virt. eigenvalues --    0.02896   0.03828   0.05036   0.05133   0.05935
 Alpha virt. eigenvalues --    0.06054   0.06272   0.06770   0.07083   0.07734
 Alpha virt. eigenvalues --    0.08543   0.08991   0.09461   0.09928   0.10086

 Mulliken charges:
               1
     1  C   -4.262525
     2  S   -1.159346
     3  Si   4.594961
     4  C   -4.024865
     5  C   -0.795213
     6  C   -3.784669
     7  C   -1.170518
     8  C   -0.284667
     9  H    1.505563
    10  H    1.438342
    11  H    1.518314
    12  H    1.332823
    13  H    1.458815
    14  C   -3.572443
    15  H    1.477446
    16  H    1.696046
    17  H    1.405240
    18  H    1.208657
    19  H    1.418037
 Sum of Mulliken charges =  -0.00000

 Dipole moment (field-independent basis, Debye):
    X=             -3.3036    Y=             -0.8923    Z=             -0.2464  Tot=              3.4309

 Test job not archived.
 1\1\GINC-SE419\SP\RHF\Aug-CC-pVDZ\C7H10S1Si1\OHZDE\09-Apr-2025\0\\#t h
 f aug-cc-pvdz iop(5/13=1,5/36=2,99/5=2) pseudo=read geom=check guess=(
 read,tcheck) scf=(maxcycle=1)\\title\\0,1\C,0,-2.749538,0.399108,-0.42
 9064\S,0,-1.750216,-1.154178,-0.227038\Si,0,0.226609,-0.388166,-0.0909
 66\C,0,0.730028,1.284199,-0.356987\C,0,2.101366,1.540218,-0.234755\C,0
 ,1.623415,-1.399531,0.291016\C,0,2.863264,-0.756168,0.314094\C,0,3.094
 2,0.604767,0.072646\H,0,4.117254,0.95863,0.130687\H,0,2.431815,2.56510
 3,-0.394109\H,0,0.071309,2.109584,-0.599798\H,0,1.581553,-2.461939,0.5

 Normal termination of Gaussian 16 at Wed Apr  9 00:16:57 2025.
