 Gaussian 16, Revision C.01,

 ----------------------------------------------------------------------
 #t hf aug-cc-pvdz symm=none int=(grid=ultrafine) guess=(read,tcheck) s
 table=(opt,rrhf)
 ----------------------------------------------------------------------
 -----
 title
 -----
 Symbolic Z-matrix:
 Charge =  0 Multiplicity = 1

 SCF Done:  E(RHF) =  -1129.83466899     A.U. after   17 cycles
 Normal termination of Gaussian 16 at Tue Apr  8 23:29:42 2025.
 Gaussian 16:  ES64L-G16RevC.01  3-Jul-2019

 ----------------------------------------------------------------------
 #t hf aug-cc-pvdz iop(5/13=1,5/36=2,99/5=2) pseudo=read geom=check gue
 ss=(read,tcheck) scf=(maxcycle=1)
 ----------------------------------------------------------------------
 -----
 title
 -----
 Structure from the checkpoint file:  "BDE49_nonexpt_1332_mol1.chk"
 Charge =  0 Multiplicity = 1

                         Standard orientation:
 ---------------------------------------------------------------------
 Center     Atomic      Atomic             Coordinates (Angstroms)
 Number     Number       Type             X           Y           Z
 ---------------------------------------------------------------------
      1          7           0       -2.392194   -0.353915   -0.079339
      2         15           0       -1.326327    1.159252   -0.410517
      3          6           0        0.006804    0.756098    0.792142
      4         15           0        0.926957   -0.815011    0.392654
      5          1           0       -0.365824    0.686243    1.814283
      6          1           0        0.753663    1.557406    0.743587
      7          7           0        2.568307   -0.019995   -0.147027
      8          8           0        2.865134    1.110865    0.206435
      9          8           0        3.278896   -0.772193   -0.791057
     10          8           0       -1.831325   -1.373510    0.313557
     11          8           0       -3.573091   -0.255018   -0.343361
     12          1           0       -2.149579    1.955366    0.419959
     13          1           0        0.561759   -0.963002   -0.962760
 ---------------------------------------------------------------------

 SCF Done:  E(RHF) =  -1132.10784071     A.U. after    2 cycles

 The electronic state is 1-A.
 Alpha  occ. eigenvalues -- -105.27919-105.27143 -21.12810 -21.12107 -21.10574
 Alpha  occ. eigenvalues --  -21.10441 -16.00611 -15.98561 -11.43577  -2.85354
 Alpha  occ. eigenvalues --   -2.83939  -2.01531  -1.99444  -1.72102  -1.70054
 Alpha  occ. eigenvalues --   -1.58193  -1.54820  -1.53395  -1.53290  -1.51822
 Alpha  occ. eigenvalues --   -1.51555  -1.06053  -0.96817  -0.92193  -0.77013
 Alpha  occ. eigenvalues --   -0.74894  -0.68103  -0.66246  -0.64636  -0.62911
 Alpha  occ. eigenvalues --   -0.60949  -0.59235  -0.58319  -0.37355  -0.35449
 Alpha  occ. eigenvalues --   -0.34006  -0.32968  -0.31963  -0.28584  -0.26871
 Alpha  occ. eigenvalues --   -0.25319  -0.07686  -0.06541
 Alpha virt. eigenvalues --    0.03900   0.05031   0.06148   0.06658   0.08353
 Alpha virt. eigenvalues --    0.09078   0.09322   0.09684   0.10488   0.11204
 Alpha virt. eigenvalues --    0.12348   0.12697   0.13951   0.14955   0.16104

 Mulliken charges:
               1
     1  N    4.020358
     2  P    3.481149
     3  C   -5.080942
     4  P    3.461797
     5  H    1.155256
     6  H    1.262893
     7  N    4.188041
     8  O   -2.504140
     9  O   -2.728708
    10  O   -2.309727
    11  O   -2.677095
    12  H   -0.951782
    13  H   -1.317101
 Sum of Mulliken charges =   0.00000

 Dipole moment (field-independent basis, Debye):
    X=             -0.7536    Y=             -0.8739    Z=              0.6198  Tot=              1.3099

 Test job not archived.
 1\1\GINC-SE366\SP\RHF\Aug-CC-pVDZ\C1H4N2O4P2\OHZDE\08-Apr-2025\0\\#t h
 f aug-cc-pvdz iop(5/13=1,5/36=2,99/5=2) pseudo=read geom=check guess=(
 read,tcheck) scf=(maxcycle=1)\\title\\0,1\N,0,-2.392194,-0.353915,-0.0
 79339\P,0,-1.326327,1.159252,-0.410517\C,0,0.006804,0.756098,0.792142\
 P,0,0.926957,-0.815011,0.392654\H,0,-0.365824,0.686243,1.814283\H,0,0.
 753663,1.557406,0.743587\N,0,2.568307,-0.019995,-0.147027\O,0,2.865134
 ,1.110865,0.206435\O,0,3.278896,-0.772193,-0.791057\O,0,-1.831325,-1.3
 7351,0.313557\O,0,-3.573091,-0.255018,-0.343361\H,0,-2.149579,1.955366

 Normal termination of Gaussian 16 at Tue Apr  8 23:29:47 2025.
