 Gaussian 16, Revision C.01,

 ----------------------------------------------------------------------
 #t hf aug-cc-pvdz symm=none int=(grid=ultrafine) guess=(read,tcheck) s
 table=(opt,rrhf)
 ----------------------------------------------------------------------
 -----
 title
 -----
 Symbolic Z-matrix:
 Charge =  0 Multiplicity = 1

 SCF Done:  E(RHF) =  -901.203581427     A.U. after   15 cycles
 Normal termination of Gaussian 16 at Tue Apr  8 23:44:40 2025.
 Gaussian 16:  ES64L-G16RevC.01  3-Jul-2019

 ----------------------------------------------------------------------
 #t hf aug-cc-pvdz iop(5/13=1,5/36=2,99/5=2) pseudo=read geom=check gue
 ss=(read,tcheck) scf=(maxcycle=1)
 ----------------------------------------------------------------------
 -----
 title
 -----
 Structure from the checkpoint file:  "BDE49_nonexpt_1697_mol1.chk"
 Charge =  0 Multiplicity = 1

                         Standard orientation:
 ---------------------------------------------------------------------
 Center     Atomic      Atomic             Coordinates (Angstroms)
 Number     Number       Type             X           Y           Z
 ---------------------------------------------------------------------
      1          6           0       -0.515683    0.089494   -0.258707
      2          6           0       -1.308839   -0.874904   -0.901777
      3          6           0       -2.668711   -0.991406   -0.624921
      4          6           0       -3.266315   -0.142257    0.304433
      5          6           0       -2.498573    0.822016    0.953742
      6          6           0       -1.138409    0.934496    0.673945
      7         15           0        2.422368   -1.268135    0.736919
      8          1           0       -3.262178   -1.741928   -1.135474
      9          1           0       -4.325365   -0.230430    0.520104
     10          1           0       -2.958874    1.486884    1.676464
     11          1           0       -0.560162    1.694489    1.190113
     12          1           0       -0.860633   -1.541291   -1.632233
     13         14           0        1.325216    0.209952   -0.624140
     14          6           0        1.948539    1.978656   -0.473980
     15          1           0        1.842577    2.358669    0.545569
     16          1           0        1.394661    2.641815   -1.145170
     17          1           0        3.007782    2.032400   -0.738967
     18          1           0        2.252667   -0.485057    1.910382
     19          1           0        3.715206   -0.744054    0.462698
     20          1           0        1.553713   -0.285366   -2.005734
 ---------------------------------------------------------------------

 SCF Done:  E(RHF) =  -902.886727077     A.U. after    2 cycles

 The electronic state is 1-A.
 Alpha  occ. eigenvalues -- -105.16711 -76.21553 -11.51379 -11.43027 -11.42573
 Alpha  occ. eigenvalues --  -11.40828 -11.40465 -11.36153 -11.35588  -5.55346
 Alpha  occ. eigenvalues --   -2.73259  -2.20177  -2.19019  -2.17108  -1.43321
 Alpha  occ. eigenvalues --   -1.42790  -1.40937  -1.33614  -1.09250  -1.09133
 Alpha  occ. eigenvalues --   -1.03883  -0.86270  -0.85776  -0.76104  -0.71213
 Alpha  occ. eigenvalues --   -0.66070  -0.62424  -0.58722  -0.57154  -0.56112
 Alpha  occ. eigenvalues --   -0.55870  -0.51873  -0.50375  -0.45215  -0.43394
 Alpha  occ. eigenvalues --   -0.38946  -0.34221  -0.33103  -0.25521  -0.14588
 Alpha  occ. eigenvalues --   -0.03315
 Alpha virt. eigenvalues --    0.03241   0.04901   0.05266   0.05591   0.06281
 Alpha virt. eigenvalues --    0.06489   0.06795   0.07193   0.07566   0.07834
 Alpha virt. eigenvalues --    0.08869   0.09334   0.10394   0.10569   0.10941

 Mulliken charges:
               1
     1  C    0.524931
     2  C   -3.012572
     3  C   -0.866303
     4  C   -2.326178
     5  C   -1.432928
     6  C   -1.425222
     7  P    1.527662
     8  H    1.571366
     9  H    1.530054
    10  H    1.535921
    11  H    1.897584
    12  H    1.876112
    13  Si   3.906830
    14  C   -5.549305
    15  H    1.450537
    16  H    1.298412
    17  H    1.143679
    18  H   -0.801268
    19  H   -0.800667
    20  H   -2.048647
 Sum of Mulliken charges =   0.00000

 Dipole moment (field-independent basis, Debye):
    X=             -0.5875    Y=             -6.0450    Z=              1.2364  Tot=              6.1981

 Test job not archived.
 1\1\GINC-SE341\SP\RHF\Aug-CC-pVDZ\C7H11P1Si1\OHZDE\08-Apr-2025\0\\#t h
 f aug-cc-pvdz iop(5/13=1,5/36=2,99/5=2) pseudo=read geom=check guess=(
 read,tcheck) scf=(maxcycle=1)\\title\\0,1\C,0,0.515683,0.089494,0.2587
 07\C,0,1.308839,-0.874904,0.901777\C,0,2.668711,-0.991406,0.624921\C,0
 ,3.266315,-0.142257,-0.304433\C,0,2.498573,0.822016,-0.953742\C,0,1.13
 8409,0.934496,-0.673945\P,0,-2.422368,-1.268135,-0.736919\H,0,3.262178
 ,-1.741928,1.135474\H,0,4.325365,-0.23043,-0.520104\H,0,2.958874,1.486
 884,-1.676464\H,0,0.560162,1.694489,-1.190113\H,0,0.860633,-1.541291,1

 Normal termination of Gaussian 16 at Tue Apr  8 23:44:50 2025.
