 Gaussian 16, Revision C.01,

 ----------------------------------------------------------------------
 #t hf aug-cc-pvdz symm=none int=(grid=ultrafine) guess=(read,tcheck) s
 table=(opt,rrhf)
 ----------------------------------------------------------------------
 -----
 title
 -----
 Symbolic Z-matrix:
 Charge =  0 Multiplicity = 1

 SCF Done:  E(RHF) =  -685.934516643     A.U. after   15 cycles
 Normal termination of Gaussian 16 at Tue Apr  8 23:34:11 2025.
 Gaussian 16:  ES64L-G16RevC.01  3-Jul-2019

 ----------------------------------------------------------------------
 #t hf aug-cc-pvdz iop(5/13=1,5/36=2,99/5=2) pseudo=read geom=check gue
 ss=(read,tcheck) scf=(maxcycle=1)
 ----------------------------------------------------------------------
 -----
 title
 -----
 Structure from the checkpoint file:  "BDE49_nonexpt_1430_mol1.chk"
 Charge =  0 Multiplicity = 1

                         Standard orientation:
 ---------------------------------------------------------------------
 Center     Atomic      Atomic             Coordinates (Angstroms)
 Number     Number       Type             X           Y           Z
 ---------------------------------------------------------------------
      1          6           0       -0.140016    2.210719    0.002978
      2          6           0       -1.278131    1.404073   -0.005383
      3          6           0       -1.142441    0.013955   -0.011120
      4          6           0        1.128916    1.649032    0.009706
      5          6           0        1.274810    0.257767    0.002788
      6          6           0        0.138302   -0.557083   -0.013880
      7          1           0       -0.244455    3.290155    0.005615
      8          1           0       -2.261962    1.857537   -0.005642
      9         15           0       -2.578360   -1.154256   -0.026246
     10          8           0        2.556702   -0.204516    0.006240
     11          1           0        2.021887    2.262046    0.016327
     12          6           0        2.774401   -1.608995   -0.003283
     13          1           0        2.361711   -2.074010   -0.905382
     14          1           0        2.343650   -2.088859    0.882473
     15          1           0        3.855010   -1.740914    0.006426
     16          1           0        0.233273   -1.634854   -0.034885
     17          1           0       -3.486348   -0.334568   -0.744464
     18          1           0       -3.136035   -0.803383    1.232470
 ---------------------------------------------------------------------

 SCF Done:  E(RHF) =  -687.740055614     A.U. after    2 cycles

 The electronic state is 1-A.
 Alpha  occ. eigenvalues -- -105.18352 -21.07609 -11.52916 -11.46109 -11.43208
 Alpha  occ. eigenvalues --  -11.41928 -11.41124 -11.40845 -11.36684  -2.75174
 Alpha  occ. eigenvalues --   -1.78974  -1.49895  -1.44982  -1.43702  -1.30911
 Alpha  occ. eigenvalues --   -1.09077  -1.08802  -0.98918  -0.86458  -0.83524
 Alpha  occ. eigenvalues --   -0.73958  -0.69009  -0.63665  -0.62601  -0.62059
 Alpha  occ. eigenvalues --   -0.60017  -0.53813  -0.52588  -0.50726  -0.45495
 Alpha  occ. eigenvalues --   -0.41498  -0.41005  -0.34305  -0.26905  -0.24957
 Alpha  occ. eigenvalues --   -0.22877  -0.02868
 Alpha virt. eigenvalues --    0.03338   0.05239   0.05474   0.06218   0.06413
 Alpha virt. eigenvalues --    0.06505   0.07336   0.07984   0.08687   0.09451
 Alpha virt. eigenvalues --    0.10343   0.10768   0.10948   0.12464   0.13170

 Mulliken charges:
               1
     1  C    0.588032
     2  C   -4.000567
     3  C    4.068209
     4  C   -3.503818
     5  C    5.687882
     6  C   -5.332666
     7  H    1.460259
     8  H    1.864737
     9  P    1.053532
    10  O   -4.774709
    11  H    1.806249
    12  C   -3.723940
    13  H    1.384198
    14  H    1.373225
    15  H    1.419185
    16  H    2.066846
    17  H   -0.842475
    18  H   -0.594181
 Sum of Mulliken charges =   0.00000

 Dipole moment (field-independent basis, Debye):
    X=              2.4568    Y=             -1.5942    Z=             -0.7338  Tot=              3.0192

 Test job not archived.
 1\1\GINC-SE403\SP\RHF\Aug-CC-pVDZ\C7H9O1P1\OHZDE\08-Apr-2025\0\\#t hf
 aug-cc-pvdz iop(5/13=1,5/36=2,99/5=2) pseudo=read geom=check guess=(re
 ad,tcheck) scf=(maxcycle=1)\\title\\0,1\C,0,-0.140016,2.210719,0.00297
 8\C,0,-1.278131,1.404073,-0.005383\C,0,-1.142441,0.013955,-0.01112\C,0
 ,1.128916,1.649032,0.009706\C,0,1.27481,0.257767,0.002788\C,0,0.138302
 ,-0.557083,-0.01388\H,0,-0.244455,3.290155,0.005615\H,0,-2.261962,1.85
 7537,-0.005642\P,0,-2.57836,-1.154256,-0.026246\O,0,2.556702,-0.204516
 ,0.00624\H,0,2.021887,2.262046,0.016327\C,0,2.774401,-1.608995,-0.0032

 Normal termination of Gaussian 16 at Tue Apr  8 23:34:19 2025.
