 Gaussian 16, Revision C.01,

 ----------------------------------------------------------------------
 #t hf aug-cc-pvdz symm=none int=(grid=ultrafine) guess=(read,tcheck) s
 table=(opt,rrhf)
 ----------------------------------------------------------------------
 -----
 title
 -----
 Symbolic Z-matrix:
 Charge =  0 Multiplicity = 1

 SCF Done:  E(RHF) =  -855.210517372     A.U. after   15 cycles
 Normal termination of Gaussian 16 at Tue Apr  8 23:25:27 2025.
 Gaussian 16:  ES64L-G16RevC.01  3-Jul-2019

 ----------------------------------------------------------------------
 #t hf aug-cc-pvdz iop(5/13=1,5/36=2,99/5=2) pseudo=read geom=check gue
 ss=(read,tcheck) scf=(maxcycle=1)
 ----------------------------------------------------------------------
 -----
 title
 -----
 Structure from the checkpoint file:  "BDE49_nonexpt_1227_mol1.chk"
 Charge =  0 Multiplicity = 1

                         Standard orientation:
 ---------------------------------------------------------------------
 Center     Atomic      Atomic             Coordinates (Angstroms)
 Number     Number       Type             X           Y           Z
 ---------------------------------------------------------------------
      1         16           0       -0.666102    1.370384   -0.063896
      2          8           0        0.807506    0.847784   -0.707902
      3          6           0        1.697409    0.197670    0.136770
      4          6           0       -1.542711   -0.204925   -0.014306
      5          8           0       -1.034474   -1.233319   -0.365059
      6          8           0        1.520903    0.054369    1.308318
      7          6           0        3.976396   -0.898763    0.182315
      8          6           0       -3.963332   -0.915766   -0.216491
      9          1           0       -4.942232   -0.861035    0.263887
     10          1           0       -3.638747   -1.956809   -0.230410
     11          1           0       -4.071034   -0.580955   -1.250824
     12          1           0        4.795379   -1.251812   -0.448155
     13          1           0        3.592420   -1.743898    0.755740
     14          1           0        4.377948   -0.173303    0.892509
     15          6           0       -2.947252   -0.053505    0.539143
     16          6           0        2.878127   -0.278643   -0.677658
     17          1           0       -2.890985   -0.360682    1.589938
     18          1           0       -3.239137    1.002542    0.537819
     19          1           0        3.246791    0.568134   -1.264209
     20          1           0        2.483931   -0.995402   -1.405452
 ---------------------------------------------------------------------

 SCF Done:  E(RHF) =  -857.492754418     A.U. after    2 cycles

 The electronic state is 1-A.
 Alpha  occ. eigenvalues --  -75.75232 -21.10862 -21.07351 -21.06102 -13.24480
 Alpha  occ. eigenvalues --  -13.16441 -13.10585 -11.53946 -11.51913 -11.43029
 Alpha  occ. eigenvalues --  -11.42299 -11.38306 -11.37106  -8.09047  -1.84468
 Alpha  occ. eigenvalues --   -1.73175  -1.67755  -1.22330  -1.18947  -1.11160
 Alpha  occ. eigenvalues --   -0.96553  -0.93255  -0.77839  -0.72695  -0.67102
 Alpha  occ. eigenvalues --   -0.65489  -0.64727  -0.62471  -0.57564  -0.55949
 Alpha  occ. eigenvalues --   -0.54640  -0.53568  -0.52625  -0.51579  -0.49074
 Alpha  occ. eigenvalues --   -0.48619  -0.46622  -0.44793  -0.40560  -0.35919
 Alpha  occ. eigenvalues --   -0.30577  -0.27189  -0.25843
 Alpha virt. eigenvalues --    0.03143   0.04423   0.05026   0.05627   0.05917
 Alpha virt. eigenvalues --    0.06267   0.06563   0.06753   0.07056   0.07397
 Alpha virt. eigenvalues --    0.08966   0.10459   0.11379   0.11689   0.12367

 Mulliken charges:
               1
     1  S    1.487319
     2  O   -2.748013
     3  C    5.489544
     4  C    3.320337
     5  O   -3.285305
     6  O   -2.966169
     7  C   -3.392235
     8  C   -3.744443
     9  H    1.131247
    10  H    1.400445
    11  H    1.268851
    12  H    1.086298
    13  H    1.306031
    14  H    1.274220
    15  C   -3.847753
    16  C   -3.953269
    17  H    1.387094
    18  H    1.797911
    19  H    1.489397
    20  H    1.498495
 Sum of Mulliken charges =   0.00000

 Dipole moment (field-independent basis, Debye):
    X=             -0.5802    Y=              0.9687    Z=             -0.2080  Tot=              1.1481

 Test job not archived.
 1\1\GINC-SE342\SP\RHF\Aug-CC-pVDZ\C6H10O3S1\OHZDE\08-Apr-2025\0\\#t hf
  aug-cc-pvdz iop(5/13=1,5/36=2,99/5=2) pseudo=read geom=check guess=(r
 ead,tcheck) scf=(maxcycle=1)\\title\\0,1\S,0,-0.666102,1.370384,-0.063
 896\O,0,0.807506,0.847784,-0.707902\C,0,1.697409,0.19767,0.13677\C,0,-
 1.542711,-0.204925,-0.014306\O,0,-1.034474,-1.233319,-0.365059\O,0,1.5
 20903,0.054369,1.308318\C,0,3.976396,-0.898763,0.182315\C,0,-3.963332,
 -0.915766,-0.216491\H,0,-4.942232,-0.861035,0.263887\H,0,-3.638747,-1.
 956809,-0.23041\H,0,-4.071034,-0.580955,-1.250824\H,0,4.795379,-1.2518

 Normal termination of Gaussian 16 at Tue Apr  8 23:25:38 2025.
