 Gaussian 16, Revision C.01,

 ----------------------------------------------------------------------
 #t hf aug-cc-pvdz symm=none int=(grid=ultrafine) guess=(read,tcheck) s
 table=(opt,rrhf)
 ----------------------------------------------------------------------
 -----
 title
 -----
 Symbolic Z-matrix:
 Charge =  0 Multiplicity = 1

 SCF Done:  E(RHF) =  -934.489266814     A.U. after   14 cycles
 Normal termination of Gaussian 16 at Wed Apr  9 00:18:07 2025.
 Gaussian 16:  ES64L-G16RevC.01  3-Jul-2019

 ----------------------------------------------------------------------
 #t hf aug-cc-pvdz iop(5/13=1,5/36=2,99/5=2) pseudo=read geom=check gue
 ss=(read,tcheck) scf=(maxcycle=1)
 ----------------------------------------------------------------------
 -----
 title
 -----
 Structure from the checkpoint file:  "BDE49_nonexpt_2560_mol1.chk"
 Charge =  0 Multiplicity = 1

                         Standard orientation:
 ---------------------------------------------------------------------
 Center     Atomic      Atomic             Coordinates (Angstroms)
 Number     Number       Type             X           Y           Z
 ---------------------------------------------------------------------
      1         17           0       -1.418403   -0.575638    0.000000
      2         16           0       -0.108507    1.025751    0.000000
      3          6           0        1.475323    0.262731    0.000000
      4          6           0        1.808685   -1.022810    0.000000
      5          1           0        2.222458    1.055094    0.000001
      6          1           0        1.069251   -1.812737   -0.000001
      7          1           0        2.853211   -1.308043    0.000000
 ---------------------------------------------------------------------

 SCF Done:  E(RHF) =  -935.332206510     A.U. after    2 cycles

 The electronic state is 1-A.
 Alpha  occ. eigenvalues --  -99.91416 -75.75285 -13.16953 -13.11171 -13.06239
 Alpha  occ. eigenvalues --  -11.44514 -11.39692 -10.48572  -9.68279  -9.67776
 Alpha  occ. eigenvalues --   -9.67534  -8.09210  -1.35915  -1.20391  -1.04337
 Alpha  occ. eigenvalues --   -0.82194  -0.65572  -0.61296  -0.56056  -0.55229
 Alpha  occ. eigenvalues --   -0.52686  -0.42934  -0.41899  -0.24651
 Alpha virt. eigenvalues --    0.02778   0.03799   0.06056   0.06336   0.07642
 Alpha virt. eigenvalues --    0.10047   0.11187   0.13248   0.13475   0.14851
 Alpha virt. eigenvalues --    0.15344   0.16062   0.16161   0.17209   0.17421

 Mulliken charges:
               1
     1  Cl  -0.414691
     2  S    0.728665
     3  C   -1.541548
     4  C   -2.828286
     5  H    1.201505
     6  H    1.471165
     7  H    1.383189
 Sum of Mulliken charges =  -0.00000

 Dipole moment (field-independent basis, Debye):
    X=              1.6328    Y=              2.8020    Z=              0.0000  Tot=              3.2430

 Test job not archived.
 1\1\GINC-SE212\SP\RHF\Aug-CC-pVDZ\C2H3Cl1S1\OHZDE\09-Apr-2025\0\\#t hf
  aug-cc-pvdz iop(5/13=1,5/36=2,99/5=2) pseudo=read geom=check guess=(r
 ead,tcheck) scf=(maxcycle=1)\\title\\0,1\Cl,0,-1.418403,-0.575639,0.\S
 ,0,-0.108507,1.025751,0.\C,0,1.475323,0.262731,0.\C,0,1.808686,-1.0228
 1,0.\H,0,2.222458,1.055094,0.000001\H,0,1.069252,-1.812737,-0.000001\H
 ,0,2.853212,-1.308042,0.\\Version=ES64L-G16RevC.01\State=1-A\HF=-935.3
 322065\RMSD=3.790e-01\Dipole=0.6424109,1.1023817,0.\Quadrupole=0.51308
 85,3.7998034,-4.312892,0.5963708,0.0000009,0.0000024\PG=C01 [X(C2H3Cl1

 Normal termination of Gaussian 16 at Wed Apr  9 00:18:09 2025.
