 Gaussian 16, Revision C.01,

 ----------------------------------------------------------------------
 #t hf aug-cc-pvdz symm=none int=(grid=ultrafine) guess=(read,tcheck) s
 table=(opt,rrhf)
 ----------------------------------------------------------------------
 -----
 title
 -----
 Symbolic Z-matrix:
 Charge =  0 Multiplicity = 1

 SCF Done:  E(RHF) =  -447.445281548     A.U. after   10 cycles
 Normal termination of Gaussian 16 at Tue Apr  8 22:46:02 2025.
 Gaussian 16:  ES64L-G16RevC.01  3-Jul-2019

 ----------------------------------------------------------------------
 #t hf aug-cc-pvdz iop(5/13=1,5/36=2,99/5=2) pseudo=read geom=check gue
 ss=(read,tcheck) scf=(maxcycle=1)
 ----------------------------------------------------------------------
 -----
 title
 -----
 Structure from the checkpoint file:  "BDE49_expt_1539_mol1.chk"
 Charge =  0 Multiplicity = 1

                         Standard orientation:
 ---------------------------------------------------------------------
 Center     Atomic      Atomic             Coordinates (Angstroms)
 Number     Number       Type             X           Y           Z
 ---------------------------------------------------------------------
      1         14           0       -0.000017   -0.000021   -0.000034
      2          6           0        1.288192   -1.291218   -0.475999
      3          1           0        1.291452   -1.471732   -1.555571
      4          1           0        1.094086   -2.248601    0.017768
      5          1           0        2.295985   -0.972157   -0.192045
      6          6           0        0.039555    0.269094    1.865257
      7          1           0       -0.180018   -0.656783    2.406198
      8          1           0       -0.698438    1.015365    2.175935
      9          1           0        1.022222    0.619353    2.196546
     10          6           0       -1.711559   -0.601487   -0.511902
     11          1           0       -1.966178   -1.545067   -0.019056
     12          1           0       -1.768896   -0.767848   -1.592232
     13          1           0       -2.485030    0.126995   -0.248984
     14          6           0        0.383834    1.623639   -0.877320
     15          1           0        0.369156    1.502010   -1.965005
     16          1           0        1.373267    2.001570   -0.601151
     17          1           0       -0.347499    2.397018   -0.622145
 ---------------------------------------------------------------------

 SCF Done:  E(RHF) =  -448.464100000     A.U. after    2 cycles

 The electronic state is 1-A.
 Alpha  occ. eigenvalues --  -76.17747 -11.33598 -11.33597 -11.33597 -11.33548
 Alpha  occ. eigenvalues --   -5.51921  -2.15443  -2.15442  -2.15442  -1.08434
 Alpha  occ. eigenvalues --   -1.00154  -1.00153  -1.00153  -0.63875  -0.56307
 Alpha  occ. eigenvalues --   -0.56307  -0.56307  -0.54821  -0.54821  -0.52454
 Alpha  occ. eigenvalues --   -0.52453  -0.52453  -0.38278  -0.38277  -0.38277
 Alpha virt. eigenvalues --    0.02724   0.05620   0.05620   0.05620   0.06359
 Alpha virt. eigenvalues --    0.06359   0.06359   0.07009   0.07009   0.08597
 Alpha virt. eigenvalues --    0.08597   0.08597   0.09576   0.11915   0.11916

 Mulliken charges:
               1
     1  Si  10.767861
     2  C   -5.951036
     3  H    1.086353
     4  H    1.086353
     5  H    1.086343
     6  C   -5.950929
     7  H    1.086345
     8  H    1.086341
     9  H    1.086381
    10  C   -5.951092
    11  H    1.086355
    12  H    1.086323
    13  H    1.086352
    14  C   -5.951000
    15  H    1.086353
    16  H    1.086338
    17  H    1.086358
 Sum of Mulliken charges =  -0.00000

 Dipole moment (field-independent basis, Debye):
    X=             -0.0002    Y=             -0.0002    Z=             -0.0002  Tot=              0.0003

 Test job not archived.
 1\1\GINC-SE051\SP\RHF\Aug-CC-pVDZ\C4H12Si1\OHZDE\08-Apr-2025\0\\#t hf
 aug-cc-pvdz iop(5/13=1,5/36=2,99/5=2) pseudo=read geom=check guess=(re
 ad,tcheck) scf=(maxcycle=1)\\title\\0,1\Si,0,0.000017,-0.000021,0.0000
 34\C,0,-1.282774,-1.297675,0.473063\H,0,-1.289216,-1.476505,1.552901\H
 ,0,-1.081387,-2.25473,-0.018419\H,0,-2.291229,-0.984722,0.184695\C,0,-
 0.033816,0.265931,-1.865823\H,0,0.193044,-0.65955,-2.40443\H,0,0.70118
 4,1.015841,-2.174829\H,0,-1.017136,0.610148,-2.201477\C,0,1.712902,-0.
 591066,0.519492\H,0,1.974719,-1.533977,0.029144\H,0,1.766973,-0.755402

 Normal termination of Gaussian 16 at Tue Apr  8 22:46:07 2025.
