 Gaussian 16, Revision C.01,

 ----------------------------------------------------------------------
 #t hf aug-cc-pvdz symm=none int=(grid=ultrafine) guess=(read,tcheck) s
 table=opt
 ----------------------------------------------------------------------
 -----
 title
 -----
 Symbolic Z-matrix:
 Charge =  0 Multiplicity = 2

 SCF Done:  E(UHF) =  -406.557484358     A.U. after   15 cycles

 1\1\GINC-SE218\Stability\UHF\Aug-CC-pVDZ\C3H7Si1\OHZDE\08-Apr-2025\0\\
 #t hf aug-cc-pvdz symm=none int=(grid=ultrafine) guess=(read,tcheck) s
 table=opt\\title\\0,2\Si,0,0.321183,1.065768,0.\C,0,-0.140179,-0.32662
 5,1.220559\C,0,-0.140179,-0.326625,-1.220559\C,0,-0.140179,-1.306381,0
 .\H,0,0.532558,-0.598463,-2.033785\H,0,-1.139391,-0.175594,-1.640845\H
 ,0,0.771925,-1.90754,0.\H,0,-0.988861,-1.996107,0.\H,0,-1.139391,-0.17
 5594,1.640845\H,0,0.532558,-0.598463,2.033785\H,0,-0.542738,2.288791,0
 .\\Version=ES64L-G16RevC.01\HF=-406.5574844\S2=0.75401\S2-1=0.\S2A=0.7

 Normal termination of Gaussian 16 at Tue Apr  8 23:42:20 2025.
 Gaussian 16:  ES64L-G16RevC.01  3-Jul-2019

 ----------------------------------------------------------------------
 #t hf aug-cc-pvdz iop(5/13=1,5/36=2,99/5=2) pseudo=read geom=check gue
 ss=(read,tcheck) scf=(maxcycle=1)
 ----------------------------------------------------------------------
 -----
 title
 -----
 Structure from the checkpoint file:  "BDE49_nonexpt_1656_mol2.chk"
 Charge =  0 Multiplicity = 2

                         Standard orientation:
 ---------------------------------------------------------------------
 Center     Atomic      Atomic             Coordinates (Angstroms)
 Number     Number       Type             X           Y           Z
 ---------------------------------------------------------------------
      1         14           0        0.321183    1.065768   -0.000000
      2          6           0       -0.140179   -0.326625    1.220559
      3          6           0       -0.140179   -0.326625   -1.220559
      4          6           0       -0.140179   -1.306381    0.000000
      5          1           0        0.532558   -0.598463   -2.033785
      6          1           0       -1.139391   -0.175594   -1.640845
      7          1           0        0.771925   -1.907540    0.000000
      8          1           0       -0.988861   -1.996107    0.000000
      9          1           0       -1.139391   -0.175594    1.640845
     10          1           0        0.532558   -0.598463    2.033785
     11          1           0       -0.542738    2.288791   -0.000000
 ---------------------------------------------------------------------

 SCF Done:  E(UHF) =  -407.301618225     A.U. after    2 cycles

 The electronic state is 2-A'.
 Alpha  occ. eigenvalues --  -76.21328 -11.41243 -11.35575 -11.33885  -5.54845
 Alpha  occ. eigenvalues --   -2.19209  -2.17042  -2.16166  -1.22074  -0.96371
 Alpha  occ. eigenvalues --   -0.84571  -0.69759  -0.63497  -0.58971  -0.54580
 Alpha  occ. eigenvalues --   -0.47176  -0.45276  -0.39287  -0.38059  -0.25706
 Alpha virt. eigenvalues --    0.03789   0.05120   0.05463   0.06240   0.06286
 Alpha virt. eigenvalues --    0.06433   0.06772   0.07543   0.07915   0.10663
 Alpha virt. eigenvalues --    0.12642   0.13408   0.14869   0.15222   0.15223

  Beta  occ. eigenvalues --  -76.20808 -11.41224 -11.35473 -11.33811  -5.54030
  Beta  occ. eigenvalues --   -2.18365  -2.16475  -2.13012  -1.21586  -0.95930
  Beta  occ. eigenvalues --   -0.83756  -0.66887  -0.63172  -0.57325  -0.54186
  Beta  occ. eigenvalues --   -0.46640  -0.45001  -0.37307  -0.37083
  Beta virt. eigenvalues --    0.03232   0.04970   0.05363   0.05860   0.06317
  Beta virt. eigenvalues --    0.06439   0.06482   0.07235   0.07613   0.09230
  Beta virt. eigenvalues --    0.11360   0.13085   0.13577   0.15103   0.15284

 Mulliken charges and spin densities:
               1          2
     1  Si   3.670981   0.859437
     2  C   -3.558232   0.064171
     3  C   -3.558232   0.064171
     4  C   -2.445260  -0.053932
     5  H    1.184604  -0.012007
     6  H    1.282644   0.005375
     7  H    1.342935   0.008023
     8  H    1.310086   0.004073
     9  H    1.282644   0.005375
    10  H    1.184604  -0.012007
    11  H   -1.696773   0.067320
 Sum of Mulliken charges =   0.00000   1.00000

 Dipole moment (field-independent basis, Debye):
    X=              0.0784    Y=             -0.6354    Z=             -0.0000  Tot=              0.6402
                          Isotropic Fermi Contact Couplings
        Atom                 a.u.       MegaHertz       Gauss      10(-4) cm-1
     1  Si(29)             0.42551    -378.16167    -134.93749    -126.14116
     2  C(13)              0.01400      15.74360       5.61771       5.25150
     3  C(13)              0.01400      15.74360       5.61771       5.25150
     4  C(13)             -0.00148      -1.66715      -0.59488      -0.55610
     5  H(1)               0.00118       5.26528       1.87878       1.75631
     6  H(1)               0.00349      15.59446       5.56449       5.20175
     7  H(1)               0.00011       0.49037       0.17498       0.16357
     8  H(1)               0.00115       5.13718       1.83307       1.71358

 Normal termination of Gaussian 16 at Tue Apr  8 23:42:23 2025.
