 Gaussian 16, Revision C.01,

 ----------------------------------------------------------------------
 #t hf aug-cc-pvdz symm=none int=(grid=ultrafine) guess=(read,tcheck) s
 table=(opt,rrhf)
 ----------------------------------------------------------------------
 -----
 title
 -----
 Symbolic Z-matrix:
 Charge =  0 Multiplicity = 1

 SCF Done:  E(RHF) =  -353.999520606     A.U. after   14 cycles
 Normal termination of Gaussian 16 at Wed Apr  9 00:39:21 2025.
 Gaussian 16:  ES64L-G16RevC.01  3-Jul-2019

 ----------------------------------------------------------------------
 #t hf aug-cc-pvdz iop(5/13=1,5/36=2,99/5=2) pseudo=read geom=check gue
 ss=(read,tcheck) scf=(maxcycle=1)
 ----------------------------------------------------------------------
 -----
 title
 -----
 Structure from the checkpoint file:  "BDE49_nonexpt_607_mol1.chk"
 Charge =  0 Multiplicity = 1

                         Standard orientation:
 ---------------------------------------------------------------------
 Center     Atomic      Atomic             Coordinates (Angstroms)
 Number     Number       Type             X           Y           Z
 ---------------------------------------------------------------------
      1          7           0        0.470894   -0.061251    0.406071
      2          5           0       -0.773385   -0.765869    0.041447
      3          9           0        0.445039    1.270704   -0.056533
      4          9           0        1.596554   -0.614504   -0.184003
      5          8           0       -1.910187   -0.073148   -0.101199
      6          1           0       -1.782886    0.884257   -0.086228
      7          1           0       -0.739294   -1.946775    0.010917
 ---------------------------------------------------------------------

 SCF Done:  E(RHF) =  -355.330975880     A.U. after    2 cycles

 The electronic state is 1-A.
 Alpha  occ. eigenvalues --  -29.31469 -29.31112 -21.09546 -15.85884  -7.67808
 Alpha  occ. eigenvalues --   -1.79736  -1.50538  -0.89521  -0.84281  -0.71941
 Alpha  occ. eigenvalues --   -0.65246  -0.55112  -0.48866  -0.46293  -0.43905
 Alpha  occ. eigenvalues --   -0.40858  -0.32952  -0.30899  -0.23261  -0.21714
 Alpha virt. eigenvalues --    0.03993   0.04096   0.04530   0.07001   0.09474
 Alpha virt. eigenvalues --    0.10358   0.13900   0.17122   0.17699   0.19711
 Alpha virt. eigenvalues --    0.20499   0.22324   0.22905   0.23276   0.24391

 Mulliken charges:
               1
     1  N   -1.157281
     2  B    6.810440
     3  F   -0.162577
     4  F    0.074263
     5  O   -3.447305
     6  H    1.305539
     7  H   -3.423080
 Sum of Mulliken charges =   0.00000

 Dipole moment (field-independent basis, Debye):
    X=              0.6967    Y=              1.6323    Z=             -1.0605  Tot=              2.0675

 Test job not archived.
 1\1\GINC-SE099\SP\RHF\Aug-CC-pVDZ\B1F2H2N1O1\OHZDE\09-Apr-2025\0\\#t h
 f aug-cc-pvdz iop(5/13=1,5/36=2,99/5=2) pseudo=read geom=check guess=(
 read,tcheck) scf=(maxcycle=1)\\title\\0,1\N,0,0.470894,-0.061251,0.406
 071\B,0,-0.773385,-0.765869,0.041447\F,0,0.445039,1.270704,-0.056533\F
 ,0,1.596554,-0.614504,-0.184003\O,0,-1.910187,-0.073148,-0.101199\H,0,
 -1.782886,0.884257,-0.086228\H,0,-0.739294,-1.946775,0.010917\\Version
 =ES64L-G16RevC.01\State=1-A\HF=-355.3309759\RMSD=1.669e-01\Dipole=0.27
 40908,0.6422092,-0.4172159\Quadrupole=-0.2376282,0.8052224,-0.5675942,

 Normal termination of Gaussian 16 at Wed Apr  9 00:39:24 2025.
