 Gaussian 16, Revision C.01,

 ----------------------------------------------------------------------
 #t hf aug-cc-pvdz symm=none int=(grid=ultrafine) guess=(read,tcheck) s
 table=(opt,rrhf)
 ----------------------------------------------------------------------
 -----
 title
 -----
 Symbolic Z-matrix:
 Charge =  0 Multiplicity = 1

 SCF Done:  E(RHF) =  -1003.46940202     A.U. after   12 cycles
 Normal termination of Gaussian 16 at Wed Apr  9 00:45:58 2025.
 Gaussian 16:  ES64L-G16RevC.01  3-Jul-2019

 ----------------------------------------------------------------------
 #t hf aug-cc-pvdz iop(5/13=1,5/36=2,99/5=2) pseudo=read geom=check gue
 ss=(read,tcheck) scf=(maxcycle=1)
 ----------------------------------------------------------------------
 -----
 title
 -----
 Structure from the checkpoint file:  "BDE49_nonexpt_778_mol1.chk"
 Charge =  0 Multiplicity = 1

                         Standard orientation:
 ---------------------------------------------------------------------
 Center     Atomic      Atomic             Coordinates (Angstroms)
 Number     Number       Type             X           Y           Z
 ---------------------------------------------------------------------
      1         14           0       -0.394471   -0.433134    0.000008
      2          5           0        1.544052    0.182561   -0.000014
      3          8           0        1.901765    1.498413   -0.000032
      4          6           0       -0.882356   -1.376873    1.544088
      5          1           0       -0.683449   -0.794346    2.446670
      6          1           0       -0.300764   -2.302639    1.604393
      7          6           0       -0.882379   -1.376911   -1.544041
      8         17           0       -1.510530    1.387463   -0.000006
      9          1           0       -0.300784   -2.302677   -1.604333
     10          1           0       -0.683488   -0.794405   -2.446640
     11          1           0       -1.943982   -1.637978   -1.531441
     12          1           0       -1.943961   -1.637936    1.531512
     13          1           0        1.141921    2.091611   -0.000034
     14          8           0        2.520445   -0.767535   -0.000009
     15          1           0        3.406582   -0.381740   -0.000020
 ---------------------------------------------------------------------

 SCF Done:  E(RHF) =  -1005.00271370     A.U. after    2 cycles

 The electronic state is 1-A.
 Alpha  occ. eigenvalues --  -99.87081 -76.23062 -21.06604 -21.06502 -11.35662
 Alpha  occ. eigenvalues --  -11.35628 -10.44374  -9.64344  -9.63878  -9.63819
 Alpha  occ. eigenvalues --   -7.64206  -5.57033  -2.20441  -2.20063  -2.18995
 Alpha  occ. eigenvalues --   -1.81465  -1.66062  -1.27324  -1.06937  -1.01749
 Alpha  occ. eigenvalues --   -0.78222  -0.70065  -0.63521  -0.58470  -0.57831
 Alpha  occ. eigenvalues --   -0.56481  -0.55787  -0.55396  -0.51685  -0.51399
 Alpha  occ. eigenvalues --   -0.48935  -0.48654  -0.43397  -0.40270  -0.36995
 Alpha  occ. eigenvalues --   -0.33723
 Alpha virt. eigenvalues --    0.03040   0.04095   0.04541   0.05254   0.06853
 Alpha virt. eigenvalues --    0.07175   0.07543   0.07558   0.07804   0.08491
 Alpha virt. eigenvalues --    0.09176   0.09650   0.09681   0.10405   0.11038

 Mulliken charges:
               1
     1  Si   4.101694
     2  B    6.280688
     3  O   -4.181916
     4  C   -5.485052
     5  H    1.195503
     6  H    1.304435
     7  C   -5.485053
     8  Cl  -1.040057
     9  H    1.304435
    10  H    1.195503
    11  H    1.121882
    12  H    1.121882
    13  H    1.422863
    14  O   -4.093072
    15  H    1.236265
 Sum of Mulliken charges =  -0.00000

 Dipole moment (field-independent basis, Debye):
    X=              0.9135    Y=             -1.5651    Z=              0.0000  Tot=              1.8122

 Test job not archived.
 1\1\GINC-SE099\SP\RHF\Aug-CC-pVDZ\C2H8B1Cl1O2Si1\OHZDE\09-Apr-2025\0\\
 #t hf aug-cc-pvdz iop(5/13=1,5/36=2,99/5=2) pseudo=read geom=check gue
 ss=(read,tcheck) scf=(maxcycle=1)\\title\\0,1\Si,0,-0.394471,-0.433134
 ,0.000008\B,0,1.544052,0.182561,-0.000014\O,0,1.901765,1.498413,-0.000
 032\C,0,-0.882356,-1.376873,1.544088\H,0,-0.683449,-0.794346,2.44667\H
 ,0,-0.300764,-2.302639,1.604393\C,0,-0.882379,-1.376911,-1.544041\Cl,0
 ,-1.51053,1.387463,-0.000006\H,0,-0.300784,-2.302677,-1.604333\H,0,-0.
 683488,-0.794405,-2.44664\H,0,-1.943982,-1.637978,-1.531441\H,0,-1.943

 Normal termination of Gaussian 16 at Wed Apr  9 00:46:05 2025.
