 Gaussian 16, Revision C.01,

 ----------------------------------------------------------------------
 #t hf aug-cc-pvdz symm=none int=(grid=ultrafine) guess=(read,tcheck) s
 table=(opt,rrhf)
 ----------------------------------------------------------------------
 -----
 title
 -----
 Symbolic Z-matrix:
 Charge =  0 Multiplicity = 1

 SCF Done:  E(RHF) =  -1130.65880396     A.U. after   15 cycles
 Normal termination of Gaussian 16 at Wed Apr  9 00:13:58 2025.
 Gaussian 16:  ES64L-G16RevC.01  3-Jul-2019

 ----------------------------------------------------------------------
 #t hf aug-cc-pvdz iop(5/13=1,5/36=2,99/5=2) pseudo=read geom=check gue
 ss=(read,tcheck) scf=(maxcycle=1)
 ----------------------------------------------------------------------
 -----
 title
 -----
 Structure from the checkpoint file:  "BDE49_nonexpt_2436_mol1.chk"
 Charge =  0 Multiplicity = 1

                         Standard orientation:
 ---------------------------------------------------------------------
 Center     Atomic      Atomic             Coordinates (Angstroms)
 Number     Number       Type             X           Y           Z
 ---------------------------------------------------------------------
      1         14           0        2.815896    0.428512   -0.538906
      2         14           0        1.136776   -0.820509    0.546780
      3          6           0       -0.518688    0.166684    0.435637
      4          1           0        1.433603   -0.968684    1.990187
      5          1           0        0.960839   -2.158176   -0.065940
      6          8           0       -0.613249    1.277282    0.903958
      7         16           0       -1.869840   -0.672534   -0.418838
      8          1           0        2.434004    0.661483   -1.951361
      9          1           0        4.091551   -0.326263   -0.503765
     10          1           0        3.000235    1.729649    0.141990
     11          6           0       -3.176920    0.594236   -0.326052
     12          1           0       -3.477228    0.878995   -1.333307
     13          1           0       -2.754798    1.451688    0.200809
     14          1           0       -4.028538    0.196017    0.223388
 ---------------------------------------------------------------------

 SCF Done:  E(RHF) =  -1131.88616261     A.U. after    2 cycles

 The electronic state is 1-A.
 Alpha  occ. eigenvalues --  -76.23363 -76.22631 -75.69689 -21.07385 -13.13337
 Alpha  occ. eigenvalues --  -13.10023 -13.02764 -11.47866 -11.39946  -8.03902
 Alpha  occ. eigenvalues --   -5.56994  -5.56034  -2.20757  -2.19296  -2.18447
 Alpha  occ. eigenvalues --   -2.18111  -2.18089  -2.17057  -1.72306  -1.20882
 Alpha  occ. eigenvalues --   -0.98950  -0.85543  -0.77162  -0.68364  -0.62075
 Alpha  occ. eigenvalues --   -0.59399  -0.53114  -0.52252  -0.50423  -0.48423
 Alpha  occ. eigenvalues --   -0.47802  -0.46658  -0.39366  -0.35854  -0.25076
 Alpha  occ. eigenvalues --   -0.24807
 Alpha virt. eigenvalues --    0.03305   0.04343   0.04466   0.05734   0.06288
 Alpha virt. eigenvalues --    0.06611   0.06944   0.07846   0.08169   0.08724
 Alpha virt. eigenvalues --    0.09240   0.09690   0.09890   0.10160   0.10611

 Mulliken charges:
               1
     1  Si   4.610452
     2  Si   4.453439
     3  C    0.790161
     4  H   -1.803856
     5  H   -1.657229
     6  O   -2.540928
     7  S    1.156741
     8  H   -1.495466
     9  H   -1.549977
    10  H   -1.470852
    11  C   -4.686326
    12  H    1.432990
    13  H    1.347258
    14  H    1.413593
 Sum of Mulliken charges =   0.00000

 Dipole moment (field-independent basis, Debye):
    X=             -0.7580    Y=             -0.8043    Z=             -0.8667  Tot=              1.4045

 Test job not archived.
 1\1\GINC-SE343\SP\RHF\Aug-CC-pVDZ\C2H8O1S1Si2\OHZDE\09-Apr-2025\0\\#t
 hf aug-cc-pvdz iop(5/13=1,5/36=2,99/5=2) pseudo=read geom=check guess=
 (read,tcheck) scf=(maxcycle=1)\\title\\0,1\Si,0,2.815896,0.428512,-0.5
 38906\Si,0,1.136776,-0.820509,0.54678\C,0,-0.518688,0.166684,0.435637\
 H,0,1.433603,-0.968684,1.990187\H,0,0.960839,-2.158176,-0.06594\O,0,-0
 .613249,1.277282,0.903958\S,0,-1.86984,-0.672534,-0.418838\H,0,2.43400
 4,0.661483,-1.951361\H,0,4.091551,-0.326263,-0.503765\H,0,3.000235,1.7
 29649,0.14199\C,0,-3.17692,0.594236,-0.326052\H,0,-3.477228,0.878995,-

 Normal termination of Gaussian 16 at Wed Apr  9 00:14:02 2025.
