 Gaussian 16, Revision C.01,

 ----------------------------------------------------------------------
 #t hf aug-cc-pvdz symm=none int=(grid=ultrafine) guess=(read,tcheck) s
 table=(opt,rrhf)
 ----------------------------------------------------------------------
 -----
 title
 -----
 Symbolic Z-matrix:
 Charge =  0 Multiplicity = 1

 SCF Done:  E(RHF) =  -731.178948598     A.U. after   12 cycles

 1\1\GINC-SE016\Stability\RHF\Aug-CC-pVDZ\H6O2Si2\OHZDE\09-Apr-2025\0\\
 #t hf aug-cc-pvdz symm=none int=(grid=ultrafine) guess=(read,tcheck) s
 table=(opt,rrhf)\\title\\0,1\Si,0,-1.20311,-0.529256,-0.000019\O,0,-1.
 55243,1.091741,0.000019\H,0,-0.773448,1.660735,-0.000001\Si,0,1.162656
 ,-0.583045,0.000019\O,0,1.429722,1.071057,-0.00002\H,0,2.327935,1.4106
 77,0.000002\H,0,1.779669,-1.217712,-1.194344\H,0,1.77963,-1.217647,1.1
 94436\H,0,-1.78286,-1.183086,-1.197911\H,0,-1.782909,-1.18314,1.197819
 \\Version=ES64L-G16RevC.01\HF=-731.1789486\RMSD=2.338e-09\Dipole=1.081

 Normal termination of Gaussian 16 at Wed Apr  9 00:08:31 2025.
 Gaussian 16:  ES64L-G16RevC.01  3-Jul-2019

 ----------------------------------------------------------------------
 #t hf aug-cc-pvdz iop(5/13=1,5/36=2,99/5=2) pseudo=read geom=check gue
 ss=(read,tcheck) scf=(maxcycle=1)
 ----------------------------------------------------------------------
 -----
 title
 -----
 Structure from the checkpoint file:  "BDE49_nonexpt_2274_mol1.chk"
 Charge =  0 Multiplicity = 1

                         Standard orientation:
 ---------------------------------------------------------------------
 Center     Atomic      Atomic             Coordinates (Angstroms)
 Number     Number       Type             X           Y           Z
 ---------------------------------------------------------------------
      1         14           0       -1.203110   -0.529256   -0.000019
      2          8           0       -1.552430    1.091741    0.000019
      3          1           0       -0.773448    1.660735   -0.000001
      4         14           0        1.162656   -0.583045    0.000019
      5          8           0        1.429722    1.071057   -0.000020
      6          1           0        2.327935    1.410677    0.000002
      7          1           0        1.779669   -1.217712   -1.194344
      8          1           0        1.779630   -1.217647    1.194436
      9          1           0       -1.782860   -1.183086   -1.197911
     10          1           0       -1.782909   -1.183140    1.197819
 ---------------------------------------------------------------------

 SCF Done:  E(RHF) =  -732.127810641     A.U. after    2 cycles

 The electronic state is 1-A.
 Alpha  occ. eigenvalues --  -76.24016 -76.23180 -21.08666 -21.06407  -5.57598
 Alpha  occ. eigenvalues --   -5.56850  -2.23499  -2.23107  -2.18981  -2.18734
 Alpha  occ. eigenvalues --   -2.18224  -2.17603  -1.67137  -1.64550  -0.79061
 Alpha  occ. eigenvalues --   -0.71552  -0.60899  -0.55851  -0.50945  -0.48366
 Alpha  occ. eigenvalues --   -0.44238  -0.41455  -0.39041  -0.36501  -0.33141
 Alpha virt. eigenvalues --    0.03560   0.04716   0.05058   0.06834   0.07149
 Alpha virt. eigenvalues --    0.07774   0.08095   0.08445   0.09181   0.09457
 Alpha virt. eigenvalues --    0.10256   0.11522   0.12535   0.13804   0.14363

 Mulliken charges:
               1
     1  Si   4.833879
     2  O   -3.043623
     3  H    1.442415
     4  Si   5.094120
     5  O   -2.410173
     6  H    1.103163
     7  H   -1.764189
     8  H   -1.764196
     9  H   -1.745698
    10  H   -1.745698
 Sum of Mulliken charges =  -0.00000

 Dipole moment (field-independent basis, Debye):
    X=              1.0814    Y=              1.1874    Z=              0.0000  Tot=              1.6060

 Test job not archived.
 1\1\GINC-SE016\SP\RHF\Aug-CC-pVDZ\H6O2Si2\OHZDE\09-Apr-2025\0\\#t hf a
 ug-cc-pvdz iop(5/13=1,5/36=2,99/5=2) pseudo=read geom=check guess=(rea
 d,tcheck) scf=(maxcycle=1)\\title\\0,1\Si,0,-1.20311,-0.529256,-0.0000
 19\O,0,-1.55243,1.091741,0.000019\H,0,-0.773448,1.660735,-0.000001\Si,
 0,1.162656,-0.583045,0.000019\O,0,1.429722,1.071057,-0.00002\H,0,2.327
 935,1.410677,0.000002\H,0,1.779669,-1.217712,-1.194344\H,0,1.77963,-1.
 217647,1.194436\H,0,-1.78286,-1.183086,-1.197911\H,0,-1.782909,-1.1831
 4,1.197819\\Version=ES64L-G16RevC.01\State=1-A\HF=-732.1278106\RMSD=7.

 Normal termination of Gaussian 16 at Wed Apr  9 00:08:33 2025.
