 Gaussian 16, Revision C.01,

 ----------------------------------------------------------------------
 #t hf aug-cc-pvdz symm=none int=(grid=ultrafine) guess=(read,tcheck) s
 table=(opt,rrhf)
 ----------------------------------------------------------------------
 -----
 title
 -----
 Symbolic Z-matrix:
 Charge =  0 Multiplicity = 1

 SCF Done:  E(RHF) =  -571.525875440     A.U. after   14 cycles

 1\1\GINC-SE044\Stability\RHF\Aug-CC-pVDZ\C7H12O4\OHZDE\08-Apr-2025\0\\
 #t hf aug-cc-pvdz symm=none int=(grid=ultrafine) guess=(read,tcheck) s
 table=(opt,rrhf)\\title\\0,1\C,0,-1.626367,0.037821,-0.186731\O,0,-1.0
 97543,1.106421,-0.138198\O,0,-1.002456,-1.128006,-0.58882\O,0,0.381456
 ,-0.90826,-0.927888\C,0,1.188421,-0.916175,0.196644\O,0,0.783347,-1.04
 2092,1.311741\C,0,-3.052183,-0.308804,0.185006\C,0,2.621906,-0.719222,
 -0.244238\C,0,3.21588,0.56788,0.35979\H,0,2.681297,-0.703701,-1.334422
 \H,0,3.174473,-1.592921,0.114067\C,0,2.590911,1.846695,-0.204714\H,0,4

 Normal termination of Gaussian 16 at Tue Apr  8 23:01:58 2025.
 Gaussian 16:  ES64L-G16RevC.01  3-Jul-2019

 ----------------------------------------------------------------------
 #t hf aug-cc-pvdz iop(5/13=1,5/36=2,99/5=2) pseudo=read geom=check gue
 ss=(read,tcheck) scf=(maxcycle=1)
 ----------------------------------------------------------------------
 -----
 title
 -----
 Structure from the checkpoint file:  "BDE49_expt_1892_mol1.chk"
 Charge =  0 Multiplicity = 1

                         Standard orientation:
 ---------------------------------------------------------------------
 Center     Atomic      Atomic             Coordinates (Angstroms)
 Number     Number       Type             X           Y           Z
 ---------------------------------------------------------------------
      1          6           0       -1.626367    0.037821   -0.186731
      2          8           0       -1.097543    1.106421   -0.138198
      3          8           0       -1.002456   -1.128006   -0.588820
      4          8           0        0.381456   -0.908260   -0.927888
      5          6           0        1.188421   -0.916175    0.196644
      6          8           0        0.783347   -1.042092    1.311741
      7          6           0       -3.052183   -0.308804    0.185006
      8          6           0        2.621906   -0.719222   -0.244238
      9          6           0        3.215880    0.567880    0.359790
     10          1           0        2.681297   -0.703701   -1.334422
     11          1           0        3.174473   -1.592921    0.114067
     12          6           0        2.590911    1.846695   -0.204714
     13          1           0        4.293386    0.561579    0.168619
     14          1           0        3.086747    0.530441    1.445155
     15          1           0        1.513287    1.883160   -0.026271
     16          1           0        2.749891    1.917783   -1.285178
     17          1           0        3.038245    2.730824    0.256407
     18          6           0       -3.952744    0.925068    0.231321
     19          1           0       -3.000967   -0.795070    1.165492
     20          1           0       -3.426399   -1.064081   -0.510424
     21          1           0       -3.548868    1.673949    0.913631
     22          1           0       -4.952925    0.647598    0.570250
     23          1           0       -4.041538    1.386353   -0.754464
 ---------------------------------------------------------------------

 SCF Done:  E(RHF) =  -574.073113046     A.U. after    2 cycles

 The electronic state is 1-A.
 Alpha  occ. eigenvalues --  -21.14783 -21.14461 -21.06798 -21.06693 -11.54965
 Alpha  occ. eigenvalues --  -11.54509 -11.43752 -11.43100 -11.40075 -11.37911
 Alpha  occ. eigenvalues --  -11.35842  -2.02526  -1.75327  -1.70888  -1.51311
 Alpha  occ. eigenvalues --   -1.22906  -1.19002  -1.04322  -0.95720  -0.88060
 Alpha  occ. eigenvalues --   -0.79568  -0.73199  -0.68995  -0.68134  -0.65078
 Alpha  occ. eigenvalues --   -0.63809  -0.60731  -0.59364  -0.56327  -0.55932
 Alpha  occ. eigenvalues --   -0.53860  -0.51585  -0.51427  -0.49821  -0.47960
 Alpha  occ. eigenvalues --   -0.47224  -0.46629  -0.44594  -0.42002  -0.35242
 Alpha  occ. eigenvalues --   -0.34735  -0.30541  -0.30215
 Alpha virt. eigenvalues --    0.03416   0.04693   0.04936   0.05223   0.05670
 Alpha virt. eigenvalues --    0.05912   0.05994   0.06624   0.07115   0.07402
 Alpha virt. eigenvalues --    0.08018   0.09840   0.10305   0.11243   0.11726

 Mulliken charges:
               1
     1  C    5.499772
     2  O   -3.195697
     3  O   -2.075141
     4  O   -2.041960
     5  C    6.432535
     6  O   -3.375487
     7  C   -3.408923
     8  C   -3.671734
     9  C   -3.181209
    10  H    1.640226
    11  H    1.346043
    12  C   -3.776986
    13  H    1.312051
    14  H    1.393031
    15  H    1.594969
    16  H    1.297724
    17  H    1.126989
    18  C   -3.565486
    19  H    1.449017
    20  H    1.526594
    21  H    1.333002
    22  H    1.092025
    23  H    1.248641
 Sum of Mulliken charges =  -0.00000

 Dipole moment (field-independent basis, Debye):
    X=             -0.1224    Y=             -0.1547    Z=             -0.5243  Tot=              0.5602

 Test job not archived.
 1\1\GINC-SE044\SP\RHF\Aug-CC-pVDZ\C7H12O4\OHZDE\08-Apr-2025\0\\#t hf a
 ug-cc-pvdz iop(5/13=1,5/36=2,99/5=2) pseudo=read geom=check guess=(rea
 d,tcheck) scf=(maxcycle=1)\\title\\0,1\C,0,-1.626367,0.037821,-0.18673
 1\O,0,-1.097543,1.106421,-0.138198\O,0,-1.002456,-1.128006,-0.58882\O,
 0,0.381456,-0.90826,-0.927888\C,0,1.188421,-0.916175,0.196644\O,0,0.78
 3347,-1.042092,1.311741\C,0,-3.052183,-0.308804,0.185006\C,0,2.621906,
 -0.719222,-0.244238\C,0,3.21588,0.56788,0.35979\H,0,2.681297,-0.703701
 ,-1.334422\H,0,3.174473,-1.592921,0.114067\C,0,2.590911,1.846695,-0.20

 Normal termination of Gaussian 16 at Tue Apr  8 23:02:12 2025.
