 Gaussian 16, Revision C.01,

 ----------------------------------------------------------------------
 #t hf aug-cc-pvdz symm=none int=(grid=ultrafine) guess=(read,tcheck) s
 table=opt
 ----------------------------------------------------------------------
 -----
 title
 -----
 Symbolic Z-matrix:
 Charge =  0 Multiplicity = 2

 SCF Done:  E(UHF) =  -625.897684706     A.U. after   25 cycles
 Normal termination of Gaussian 16 at Wed Apr  9 00:19:45 2025.
 Gaussian 16:  ES64L-G16RevC.01  3-Jul-2019

 ----------------------------------------------------------------------
 #t hf aug-cc-pvdz iop(5/13=1,5/36=2,99/5=2) pseudo=read geom=check gue
 ss=(read,tcheck) scf=(maxcycle=1)
 ----------------------------------------------------------------------
 -----
 title
 -----
 Structure from the checkpoint file:  "BDE49_nonexpt_2588_mol2.chk"
 Charge =  0 Multiplicity = 2

                         Standard orientation:
 ---------------------------------------------------------------------
 Center     Atomic      Atomic             Coordinates (Angstroms)
 Number     Number       Type             X           Y           Z
 ---------------------------------------------------------------------
      1         16           0        1.679036   -0.514352   -0.003638
      2          6           0        0.049241    0.251713    0.329043
      3          8           0       -0.862336   -0.515643   -0.396663
      4          8           0        0.063519    1.598573   -0.033556
      5          6           0       -2.207645   -0.427632    0.085223
      6          1           0       -2.287547   -0.828483    1.102309
      7          1           0       -2.813981   -1.030623   -0.588433
      8          1           0       -2.560416    0.607582    0.069615
      9          1           0        0.312516    1.635807   -0.967689
     10          1           0       -0.174192    0.237430    1.398560
 ---------------------------------------------------------------------

 SCF Done:  E(UHF) =  -627.085991369     A.U. after    2 cycles

 The electronic state is 2-A.
 Alpha  occ. eigenvalues --  -75.70974 -21.09522 -21.07183 -13.13371 -13.06609
 Alpha  occ. eigenvalues --  -13.03182 -11.47815 -11.41829  -8.04660  -1.82799
 Alpha  occ. eigenvalues --   -1.69203  -1.14854  -1.00557  -0.88662  -0.66572
 Alpha  occ. eigenvalues --   -0.64408  -0.63489  -0.57879  -0.52646  -0.49175
 Alpha  occ. eigenvalues --   -0.39417  -0.33817  -0.32246  -0.28560  -0.25341
 Alpha virt. eigenvalues --    0.03513   0.05526   0.05613   0.06303   0.06316
 Alpha virt. eigenvalues --    0.07131   0.10933   0.12930   0.13947   0.14062
 Alpha virt. eigenvalues --    0.15030   0.15775   0.16368   0.17075   0.17856

  Beta  occ. eigenvalues --  -75.69968 -21.09452 -21.07067 -13.12728 -13.02583
  Beta  occ. eigenvalues --  -13.00606 -11.47946 -11.41820  -8.03534  -1.82637
  Beta  occ. eigenvalues --   -1.69031  -1.09242  -0.98424  -0.86993  -0.66283
  Beta  occ. eigenvalues --   -0.64192  -0.62960  -0.57750  -0.51627  -0.48921
  Beta  occ. eigenvalues --   -0.39284  -0.32355  -0.31386  -0.23977
  Beta virt. eigenvalues --    0.03412   0.04521   0.05538   0.05798   0.06359
  Beta virt. eigenvalues --    0.06371   0.07272   0.11739   0.13000   0.14267
  Beta virt. eigenvalues --    0.14813   0.15692   0.16344   0.17160   0.17413

 Mulliken charges and spin densities:
               1          2
     1  S    0.536669   1.121454
     2  C    0.850192  -0.040638
     3  O   -2.580043  -0.078716
     4  O   -2.433718   0.019961
     5  C   -2.713813  -0.011810
     6  H    1.278122  -0.001275
     7  H    1.281759  -0.000818
     8  H    1.279113   0.000454
     9  H    0.710864  -0.015917
    10  H    1.790854   0.007304
 Sum of Mulliken charges =   0.00000   1.00000

 Dipole moment (field-independent basis, Debye):
    X=             -0.4316    Y=             -0.3987    Z=             -0.0792  Tot=              0.5929
                          Isotropic Fermi Contact Couplings
        Atom                 a.u.       MegaHertz       Gauss      10(-4) cm-1
     1  S(33)              0.28536      98.01185      34.97306      32.69323
     2  C(13)             -0.01389     -15.61476      -5.57174      -5.20852
     3  O(17)              0.03941     -23.89171      -8.52515      -7.96942
     4  O(17)              0.00560      -3.39625      -1.21187      -1.13287
     5  C(13)              0.00489       5.50017       1.96260       1.83466
     6  H(1)              -0.00004      -0.19938      -0.07114      -0.06651
     7  H(1)              -0.00002      -0.11024      -0.03934      -0.03677
     8  H(1)               0.00017       0.75426       0.26914       0.25159

 Normal termination of Gaussian 16 at Wed Apr  9 00:19:48 2025.
