 Gaussian 16, Revision C.01,

 ----------------------------------------------------------------------
 #t hf aug-cc-pvdz symm=none int=(grid=ultrafine) guess=(read,tcheck) s
 table=(opt,rrhf)
 ----------------------------------------------------------------------
 -----
 title
 -----
 Symbolic Z-matrix:
 Charge =  0 Multiplicity = 1

 SCF Done:  E(RHF) =  -779.711026812     A.U. after   12 cycles
 Normal termination of Gaussian 16 at Tue Apr  8 23:50:44 2025.
 Gaussian 16:  ES64L-G16RevC.01  3-Jul-2019

 ----------------------------------------------------------------------
 #t hf aug-cc-pvdz iop(5/13=1,5/36=2,99/5=2) pseudo=read geom=check gue
 ss=(read,tcheck) scf=(maxcycle=1)
 ----------------------------------------------------------------------
 -----
 title
 -----
 Structure from the checkpoint file:  "BDE49_nonexpt_1861_mol1.chk"
 Charge =  0 Multiplicity = 1

                         Standard orientation:
 ---------------------------------------------------------------------
 Center     Atomic      Atomic             Coordinates (Angstroms)
 Number     Number       Type             X           Y           Z
 ---------------------------------------------------------------------
      1         14           0        0.841219   -0.018430   -0.015789
      2          6           0       -1.067004    0.003019    0.030832
      3          8           0       -1.604772    1.299921   -0.103909
      4          1           0       -1.028032    1.794862   -0.700165
      5          8           0        1.168974    1.278590   -0.967332
      6          1           0        2.064495    1.622685   -1.009989
      7          8           0       -1.600338   -0.515481    1.230034
      8          1           0       -1.710429    0.233432    1.827308
      9          8           0        1.355847   -1.466212   -0.577286
     10          1           0        0.715298   -1.919914   -1.136207
     11          8           0       -1.472219   -0.851858   -1.005332
     12          1           0       -2.435796   -0.932898   -0.944967
     13          8           0        1.564159    0.249843    1.426114
     14          1           0        1.726215   -0.516694    1.981758
 ---------------------------------------------------------------------

 SCF Done:  E(RHF) =  -781.881596826     A.U. after    2 cycles

 The electronic state is 1-A.
 Alpha  occ. eigenvalues --  -76.25502 -21.08932 -21.08784 -21.08739 -21.08537
 Alpha  occ. eigenvalues --  -21.08471 -21.08244 -11.46924  -5.60743  -2.28966
 Alpha  occ. eigenvalues --   -2.28098  -2.24733  -1.85296  -1.71727  -1.67616
 Alpha  occ. eigenvalues --   -1.65788  -1.65307  -1.64737  -0.90662  -0.75399
 Alpha  occ. eigenvalues --   -0.68993  -0.65613  -0.62506  -0.61923  -0.59997
 Alpha  occ. eigenvalues --   -0.53634  -0.48001  -0.46651  -0.43942  -0.43705
 Alpha  occ. eigenvalues --   -0.41655  -0.40928  -0.38611  -0.37548  -0.36414
 Alpha  occ. eigenvalues --   -0.31860  -0.29430
 Alpha virt. eigenvalues --    0.03790   0.05546   0.05919   0.06391   0.06806
 Alpha virt. eigenvalues --    0.06825   0.07564   0.07990   0.08338   0.12579
 Alpha virt. eigenvalues --    0.14436   0.15099   0.16541   0.18266   0.19350

 Mulliken charges:
               1
     1  Si   7.652295
     2  C    5.287347
     3  O   -3.066576
     4  H    0.861337
     5  O   -3.202025
     6  H    1.071629
     7  O   -2.934001
     8  H    0.663200
     9  O   -3.245593
    10  H    1.192971
    11  O   -2.753190
    12  H    0.595220
    13  O   -3.111842
    14  H    0.989226
 Sum of Mulliken charges =  -0.00000

 Dipole moment (field-independent basis, Debye):
    X=              0.6271    Y=              0.1700    Z=              0.2042  Tot=              0.6810

 Test job not archived.
 1\1\GINC-SE368\SP\RHF\Aug-CC-pVDZ\C1H6O6Si1\OHZDE\08-Apr-2025\0\\#t hf
  aug-cc-pvdz iop(5/13=1,5/36=2,99/5=2) pseudo=read geom=check guess=(r
 ead,tcheck) scf=(maxcycle=1)\\title\\0,1\Si,0,0.841219,-0.01843,-0.015
 789\C,0,-1.067004,0.003019,0.030832\O,0,-1.604772,1.299921,-0.103909\H
 ,0,-1.028032,1.794862,-0.700165\O,0,1.168974,1.27859,-0.967332\H,0,2.0
 64495,1.622685,-1.009989\O,0,-1.600338,-0.515481,1.230034\H,0,-1.71042
 9,0.233431,1.827308\O,0,1.355847,-1.466212,-0.577286\H,0,0.715298,-1.9
 19914,-1.136207\O,0,-1.472219,-0.851858,-1.005332\H,0,-2.435796,-0.932

 Normal termination of Gaussian 16 at Tue Apr  8 23:50:48 2025.
