 Gaussian 16, Revision C.01,

 ----------------------------------------------------------------------
 #t hf aug-cc-pvdz symm=none int=(grid=ultrafine) guess=(read,tcheck) s
 table=(opt,rrhf)
 ----------------------------------------------------------------------
 -----
 title
 -----
 Symbolic Z-matrix:
 Charge =  0 Multiplicity = 1

 SCF Done:  E(RHF) =  -710.653796917     A.U. after   11 cycles
 Normal termination of Gaussian 16 at Tue Apr  8 23:43:20 2025.
 Gaussian 16:  ES64L-G16RevC.01  3-Jul-2019

 ----------------------------------------------------------------------
 #t hf aug-cc-pvdz iop(5/13=1,5/36=2,99/5=2) pseudo=read geom=check gue
 ss=(read,tcheck) scf=(maxcycle=1)
 ----------------------------------------------------------------------
 -----
 title
 -----
 Structure from the checkpoint file:  "BDE49_nonexpt_1694_mol1.chk"
 Charge =  0 Multiplicity = 1

                         Standard orientation:
 ---------------------------------------------------------------------
 Center     Atomic      Atomic             Coordinates (Angstroms)
 Number     Number       Type             X           Y           Z
 ---------------------------------------------------------------------
      1         15           0        0.497082    0.000000   -0.647447
      2          6           0        1.169997    1.434858    0.343739
      3          1           0        0.973510    1.354383    1.416045
      4          1           0        0.736932    2.366633   -0.027126
      5          1           0        2.250903    1.488454    0.189585
      6         14           0       -1.644120    0.000000    0.115497
      7          6           0        1.169997   -1.434858    0.343739
      8          1           0        2.250903   -1.488454    0.189585
      9          1           0        0.736932   -2.366633   -0.027126
     10          1           0        0.973510   -1.354383    1.416045
     11          1           0       -2.340200    1.206123   -0.394054
     12          1           0       -1.720810    0.000000    1.600983
     13          1           0       -2.340200   -1.206123   -0.394053
 ---------------------------------------------------------------------

 SCF Done:  E(RHF) =  -711.442711287     A.U. after    2 cycles

 The electronic state is 1-A.
 Alpha  occ. eigenvalues -- -105.15271 -76.21858 -11.37281 -11.37272  -5.55290
 Alpha  occ. eigenvalues --   -2.73697  -2.17517  -2.17352  -2.17214  -1.45948
 Alpha  occ. eigenvalues --   -1.44761  -1.41138  -1.03618  -0.96840  -0.76531
 Alpha  occ. eigenvalues --   -0.62059  -0.57516  -0.56784  -0.55874  -0.55031
 Alpha  occ. eigenvalues --   -0.47323  -0.47288  -0.20641  -0.14944  -0.01694
 Alpha virt. eigenvalues --    0.04380   0.05539   0.05697   0.06419   0.06749
 Alpha virt. eigenvalues --    0.06776   0.07314   0.07553   0.09011   0.09375
 Alpha virt. eigenvalues --    0.10322   0.10765   0.11364   0.11448   0.12311

 Mulliken charges:
               1
     1  P    5.080662
     2  C   -5.939106
     3  H    1.191511
     4  H    1.155753
     5  H    1.121850
     6  Si   5.051543
     7  C   -5.939106
     8  H    1.121850
     9  H    1.155753
    10  H    1.191511
    11  H   -1.793779
    12  H   -1.604662
    13  H   -1.793780
 Sum of Mulliken charges =  -0.00000

 Dipole moment (field-independent basis, Debye):
    X=              3.9090    Y=              0.0000    Z=             -3.2301  Tot=              5.0709

 Test job not archived.
 1\1\GINC-SE453\SP\RHF\Aug-CC-pVDZ\C2H9P1Si1\OHZDE\08-Apr-2025\0\\#t hf
  aug-cc-pvdz iop(5/13=1,5/36=2,99/5=2) pseudo=read geom=check guess=(r
 ead,tcheck) scf=(maxcycle=1)\\title\\0,1\P,0,0.497082,0.,-0.647447\C,0
 ,1.169997,1.434858,0.343739\H,0,0.97351,1.354383,1.416045\H,0,0.736932
 ,2.366633,-0.027126\H,0,2.250903,1.488454,0.189585\Si,0,-1.64412,0.,0.
 115497\C,0,1.169997,-1.434858,0.343739\H,0,2.250903,-1.488454,0.189585
 \H,0,0.736932,-2.366633,-0.027126\H,0,0.97351,-1.354383,1.416045\H,0,-
 2.3402,1.206123,-0.394054\H,0,-1.72081,0.,1.600983\H,0,-2.3402,-1.2061

 Normal termination of Gaussian 16 at Tue Apr  8 23:43:24 2025.
