 Gaussian 16, Revision C.01,

 ----------------------------------------------------------------------
 #t hf aug-cc-pvdz symm=none int=(grid=ultrafine) guess=(read,tcheck) s
 table=(opt,rrhf)
 ----------------------------------------------------------------------
 -----
 title
 -----
 Symbolic Z-matrix:
 Charge =  0 Multiplicity = 1

 SCF Done:  E(RHF) =  -298.518053953     A.U. after   13 cycles

 1\1\GINC-SE338\Stability\RHF\Aug-CC-pVDZ\C7H15B1\OHZDE\09-Apr-2025\0\\
 #t hf aug-cc-pvdz symm=none int=(grid=ultrafine) guess=(read,tcheck) s
 table=(opt,rrhf)\\title\\0,1\C,0,0.316541,-1.358731,0.141703\C,0,1.753
 213,-1.078268,-0.322008\C,0,2.264951,0.267351,0.210344\C,0,1.311731,1.
 412061,-0.159913\C,0,-0.123353,1.122941,0.302603\C,0,-2.083288,-0.4892
 75,0.268163\C,0,-0.653351,-0.221916,-0.228336\B,0,-3.242729,0.397503,-
 0.265313\H,0,-3.119742,1.06071,-1.252892\H,0,-4.31146,0.374521,0.26862
 \H,0,0.306662,-1.49041,1.232688\H,0,-0.039964,-2.302813,-0.286042\H,0,

 Normal termination of Gaussian 16 at Wed Apr  9 00:38:10 2025.
 Gaussian 16:  ES64L-G16RevC.01  3-Jul-2019

 ----------------------------------------------------------------------
 #t hf aug-cc-pvdz iop(5/13=1,5/36=2,99/5=2) pseudo=read geom=check gue
 ss=(read,tcheck) scf=(maxcycle=1)
 ----------------------------------------------------------------------
 -----
 title
 -----
 Structure from the checkpoint file:  "BDE49_nonexpt_540_mol1.chk"
 Charge =  0 Multiplicity = 1

                         Standard orientation:
 ---------------------------------------------------------------------
 Center     Atomic      Atomic             Coordinates (Angstroms)
 Number     Number       Type             X           Y           Z
 ---------------------------------------------------------------------
      1          6           0        0.316541   -1.358731    0.141703
      2          6           0        1.753213   -1.078268   -0.322008
      3          6           0        2.264951    0.267351    0.210344
      4          6           0        1.311731    1.412061   -0.159913
      5          6           0       -0.123353    1.122941    0.302603
      6          6           0       -2.083288   -0.489275    0.268163
      7          6           0       -0.653351   -0.221916   -0.228336
      8          5           0       -3.242729    0.397503   -0.265313
      9          1           0       -3.119742    1.060710   -1.252892
     10          1           0       -4.311460    0.374521    0.268620
     11          1           0        0.306662   -1.490410    1.232688
     12          1           0       -0.039964   -2.302813   -0.286042
     13          1           0        1.781968   -1.065816   -1.419385
     14          1           0        2.416559   -1.889382   -0.004181
     15          1           0        3.269553    0.470761   -0.174583
     16          1           0        2.354918    0.212158    1.303147
     17          1           0        1.318340    1.548923   -1.249023
     18          1           0        1.663487    2.354265    0.273010
     19          1           0       -0.789951    1.934076   -0.012647
     20          1           0       -0.153303    1.104644    1.401216
     21          1           0       -2.107222   -0.573856    1.363870
     22          1           0       -2.409609   -1.496659   -0.067157
     23          1           0       -0.685249   -0.153614   -1.325407
 ---------------------------------------------------------------------

 SCF Done:  E(RHF) =  -300.061179571     A.U. after    2 cycles

 The electronic state is 1-A.
 Alpha  occ. eigenvalues --  -11.43171 -11.42740 -11.41464 -11.38527 -11.37135
 Alpha  occ. eigenvalues --  -11.35275 -11.32785  -7.60345  -1.32697  -1.15306
 Alpha  occ. eigenvalues --   -1.09506  -1.01826  -0.87733  -0.86207  -0.77747
 Alpha  occ. eigenvalues --   -0.76196  -0.65309  -0.61262  -0.60697  -0.59631
 Alpha  occ. eigenvalues --   -0.54508  -0.53484  -0.51648  -0.48378  -0.46250
 Alpha  occ. eigenvalues --   -0.45388  -0.44414  -0.43158  -0.41974  -0.37440
 Alpha  occ. eigenvalues --   -0.36095
 Alpha virt. eigenvalues --    0.03459   0.03690   0.03957   0.04411   0.05308
 Alpha virt. eigenvalues --    0.05636   0.05825   0.05897   0.06416   0.07401
 Alpha virt. eigenvalues --    0.08314   0.08552   0.08984   0.09169   0.09969

 Mulliken charges:
               1
     1  C   -3.255221
     2  C   -3.056514
     3  C   -2.716145
     4  C   -3.022465
     5  C   -3.420750
     6  C   -4.004244
     7  C    0.144440
     8  B    7.397170
     9  H   -3.142717
    10  H   -3.845318
    11  H    1.405640
    12  H    1.461077
    13  H    1.406940
    14  H    1.261532
    15  H    1.349445
    16  H    1.377708
    17  H    1.368561
    18  H    1.220665
    19  H    1.355233
    20  H    1.389950
    21  H    1.644061
    22  H    1.744016
    23  H    1.936937
 Sum of Mulliken charges =  -0.00000

 Dipole moment (field-independent basis, Debye):
    X=              0.6459    Y=             -0.3615    Z=              0.1134  Tot=              0.7488

 Test job not archived.
 1\1\GINC-SE338\SP\RHF\Aug-CC-pVDZ\C7H15B1\OHZDE\09-Apr-2025\0\\#t hf a
 ug-cc-pvdz iop(5/13=1,5/36=2,99/5=2) pseudo=read geom=check guess=(rea
 d,tcheck) scf=(maxcycle=1)\\title\\0,1\C,0,0.316541,-1.358731,0.141703
 \C,0,1.753213,-1.078268,-0.322008\C,0,2.264951,0.267351,0.210344\C,0,1
 .311731,1.412061,-0.159913\C,0,-0.123353,1.122941,0.302603\C,0,-2.0832
 88,-0.489275,0.268163\C,0,-0.653351,-0.221916,-0.228336\B,0,-3.242729,
 0.397503,-0.265313\H,0,-3.119742,1.06071,-1.252892\H,0,-4.31146,0.3745
 21,0.26862\H,0,0.306662,-1.49041,1.232688\H,0,-0.039964,-2.302813,-0.2

 Normal termination of Gaussian 16 at Wed Apr  9 00:38:19 2025.
