 Gaussian 16, Revision C.01,

 ----------------------------------------------------------------------
 #t hf aug-cc-pvdz symm=none int=(grid=ultrafine) guess=(read,tcheck) s
 table=(opt,rrhf)
 ----------------------------------------------------------------------
 -----
 title
 -----
 Symbolic Z-matrix:
 Charge =  0 Multiplicity = 1

 SCF Done:  E(RHF) =  -787.639070866     A.U. after   12 cycles
 Normal termination of Gaussian 16 at Wed Apr  9 00:21:37 2025.
 Gaussian 16:  ES64L-G16RevC.01  3-Jul-2019

 ----------------------------------------------------------------------
 #t hf aug-cc-pvdz iop(5/13=1,5/36=2,99/5=2) pseudo=read geom=check gue
 ss=(read,tcheck) scf=(maxcycle=1)
 ----------------------------------------------------------------------
 -----
 title
 -----
 Structure from the checkpoint file:  "BDE49_nonexpt_2627_mol1.chk"
 Charge =  0 Multiplicity = 1

                         Standard orientation:
 ---------------------------------------------------------------------
 Center     Atomic      Atomic             Coordinates (Angstroms)
 Number     Number       Type             X           Y           Z
 ---------------------------------------------------------------------
      1          9           0        1.494736    0.810516    0.000014
      2         16           0        0.662453   -0.658916   -0.000004
      3         14           0       -1.338016    0.167308   -0.000003
      4          1           0       -1.571219    0.978903   -1.211518
      5          1           0       -2.177198   -1.052088   -0.000019
      6          1           0       -1.571227    0.978878    1.211527
 ---------------------------------------------------------------------

 SCF Done:  E(RHF) =  -788.362920858     A.U. after    2 cycles

 The electronic state is 1-A.
 Alpha  occ. eigenvalues --  -76.26272 -75.75257 -29.27162 -13.18169 -13.12169
 Alpha  occ. eigenvalues --  -13.07213  -8.09212  -5.59675  -2.21757  -2.21513
 Alpha  occ. eigenvalues --   -2.21433  -1.18827  -0.79741  -0.64974  -0.50735
 Alpha  occ. eigenvalues --   -0.50415  -0.45107  -0.40829  -0.34041  -0.24783
 Alpha  occ. eigenvalues --   -0.19948
 Alpha virt. eigenvalues --    0.03365   0.04519   0.05648   0.06956   0.09490
 Alpha virt. eigenvalues --    0.09910   0.10350   0.12136   0.13523   0.13983
 Alpha virt. eigenvalues --    0.15480   0.18337   0.18668   0.19819   0.21444

 Mulliken charges:
               1
     1  F   -0.264280
     2  S   -1.024809
     3  Si   6.065400
     4  H   -1.610355
     5  H   -1.555601
     6  H   -1.610355
 Sum of Mulliken charges =  -0.00000

 Dipole moment (field-independent basis, Debye):
    X=              2.3238    Y=              1.5524    Z=              0.0000  Tot=              2.7946

 Test job not archived.
 1\1\GINC-SE222\SP\RHF\Aug-CC-pVDZ\F1H3S1Si1\OHZDE\09-Apr-2025\0\\#t hf
  aug-cc-pvdz iop(5/13=1,5/36=2,99/5=2) pseudo=read geom=check guess=(r
 ead,tcheck) scf=(maxcycle=1)\\title\\0,1\F,0,1.494736,0.810516,0.00001
 4\S,0,0.662453,-0.658916,-0.000004\Si,0,-1.338016,0.167308,-0.000003\H
 ,0,-1.571219,0.978903,-1.211518\H,0,-2.177198,-1.052088,-0.000019\H,0,
 -1.571227,0.978878,1.211527\\Version=ES64L-G16RevC.01\State=1-A\HF=-78
 8.3629209\RMSD=9.250e-02\Dipole=0.9142512,0.6107526,0.0000099\Quadrupo
 le=2.4461908,-0.3473389,-2.0988519,0.4640717,0.0000204,0.0000193\PG=C0

 Normal termination of Gaussian 16 at Wed Apr  9 00:21:39 2025.
