 Gaussian 16, Revision C.01,

 ----------------------------------------------------------------------
 #t hf aug-cc-pvdz symm=none int=(grid=ultrafine) guess=(read,tcheck) s
 table=(opt,rrhf)
 ----------------------------------------------------------------------
 -----
 title
 -----
 Symbolic Z-matrix:
 Charge =  0 Multiplicity = 1

 SCF Done:  E(RHF) =  -683.117661228     A.U. after   13 cycles
 Normal termination of Gaussian 16 at Tue Apr  8 23:27:21 2025.
 Gaussian 16:  ES64L-G16RevC.01  3-Jul-2019

 ----------------------------------------------------------------------
 #t hf aug-cc-pvdz iop(5/13=1,5/36=2,99/5=2) pseudo=read geom=check gue
 ss=(read,tcheck) scf=(maxcycle=1)
 ----------------------------------------------------------------------
 -----
 title
 -----
 Structure from the checkpoint file:  "BDE49_nonexpt_1279_mol1.chk"
 Charge =  0 Multiplicity = 1

                         Standard orientation:
 ---------------------------------------------------------------------
 Center     Atomic      Atomic             Coordinates (Angstroms)
 Number     Number       Type             X           Y           Z
 ---------------------------------------------------------------------
      1          6           0        0.718198   -0.952838   -0.164214
      2         15           0       -0.775001    0.034336    0.108817
      3          8           0       -1.064489    0.446900    1.489474
      4          6           0        1.929684   -0.296241    0.437857
      5          6           0        2.937683    0.211217   -0.264552
      6          1           0        0.829559   -1.100680   -1.241117
      7          1           0        0.528193   -1.928229    0.295609
      8          1           0        1.940462   -0.234065    1.522533
      9          1           0        2.954299    0.174057   -1.349425
     10          1           0        3.785578    0.678302    0.222925
     11          8           0       -1.863641   -0.897811   -0.612643
     12          1           0       -2.769162   -0.614115   -0.435630
     13          8           0       -0.651724    1.279936   -0.910902
     14          1           0       -0.518478    2.104662   -0.429138
 ---------------------------------------------------------------------

 SCF Done:  E(RHF) =  -684.836101670     A.U. after    2 cycles

 The electronic state is 1-A.
 Alpha  occ. eigenvalues -- -105.29656 -21.11497 -21.10962 -21.01834 -11.43770
 Alpha  occ. eigenvalues --  -11.40593 -11.38087  -2.92309  -1.96926  -1.89480
 Alpha  occ. eigenvalues --   -1.80164  -1.54514  -1.39723  -1.26192  -1.19358
 Alpha  occ. eigenvalues --   -0.98359  -0.80478  -0.69642  -0.65665  -0.60547
 Alpha  occ. eigenvalues --   -0.59706  -0.55868  -0.53474  -0.48867  -0.45281
 Alpha  occ. eigenvalues --   -0.40150  -0.39064  -0.34303  -0.33847  -0.29317
 Alpha  occ. eigenvalues --   -0.24165  -0.15113
 Alpha virt. eigenvalues --    0.03437   0.05372   0.05670   0.06049   0.06321
 Alpha virt. eigenvalues --    0.06861   0.07217   0.10538   0.11057   0.11570
 Alpha virt. eigenvalues --    0.12317   0.13510   0.14136   0.15154   0.15507

 Mulliken charges:
               1
     1  C   -5.551779
     2  P    9.642948
     3  O   -2.906966
     4  C   -0.495235
     5  C   -3.235030
     6  H    1.265834
     7  H    1.185566
     8  H    1.412238
     9  H    1.400988
    10  H    1.375365
    11  O   -2.930703
    12  H    0.949956
    13  O   -2.890628
    14  H    0.777447
 Sum of Mulliken charges =  -0.00000

 Dipole moment (field-independent basis, Debye):
    X=             -0.1943    Y=             -0.6599    Z=             -2.5499  Tot=              2.6411

 Test job not archived.
 1\1\GINC-SE367\SP\RHF\Aug-CC-pVDZ\C3H7O3P1\OHZDE\08-Apr-2025\0\\#t hf
 aug-cc-pvdz iop(5/13=1,5/36=2,99/5=2) pseudo=read geom=check guess=(re
 ad,tcheck) scf=(maxcycle=1)\\title\\0,1\C,0,0.718198,-0.952838,-0.1642
 14\P,0,-0.775001,0.034336,0.108817\O,0,-1.064489,0.4469,1.489474\C,0,1
 .929684,-0.296241,0.437857\C,0,2.937683,0.211217,-0.264552\H,0,0.82955
 9,-1.10068,-1.241117\H,0,0.528193,-1.928229,0.295609\H,0,1.940462,-0.2
 34065,1.522533\H,0,2.954299,0.174057,-1.349425\H,0,3.785578,0.678302,0
 .222925\O,0,-1.863641,-0.897811,-0.612643\H,0,-2.769162,-0.614115,-0.4

 Normal termination of Gaussian 16 at Tue Apr  8 23:27:25 2025.
