 Gaussian 16, Revision C.01,

 ----------------------------------------------------------------------
 #t hf aug-cc-pvdz symm=none int=(grid=ultrafine) guess=(read,tcheck) s
 table=(opt,rrhf)
 ----------------------------------------------------------------------
 -----
 title
 -----
 Symbolic Z-matrix:
 Charge =  0 Multiplicity = 1

 SCF Done:  E(RHF) =  -779.211823707     A.U. after   11 cycles

 1\1\GINC-SE423\Stability\RHF\Aug-CC-pVDZ\F2H4Si2\OHZDE\08-Apr-2025\0\\
 #t hf aug-cc-pvdz symm=none int=(grid=ultrafine) guess=(read,tcheck) s
 table=(opt,rrhf)\\title\\0,1\Si,0,-1.290487,1.178755,0.\Si,0,0.662582,
 -0.133092,0.\F,0,0.662582,-1.089376,1.289864\F,0,0.662582,-1.089376,-1
 .289864\H,0,1.945884,0.594482,0.\H,0,-2.483906,0.303131,0.\H,0,-1.2988
 96,2.035934,-1.208218\H,0,-1.298896,2.035934,1.208218\\Version=ES64L-G
 16RevC.01\HF=-779.2118237\RMSD=2.423e-09\Dipole=-0.182697,0.8129909,0.
 \Quadrupole=1.7138277,-0.3250239,-1.3888038,0.8403658,0.,0.\PG=Unknown

 Normal termination of Gaussian 16 at Tue Apr  8 23:57:21 2025.
 Gaussian 16:  ES64L-G16RevC.01  3-Jul-2019

 ----------------------------------------------------------------------
 #t hf aug-cc-pvdz iop(5/13=1,5/36=2,99/5=2) pseudo=read geom=check gue
 ss=(read,tcheck) scf=(maxcycle=1)
 ----------------------------------------------------------------------
 -----
 title
 -----
 Structure from the checkpoint file:  "BDE49_nonexpt_2019_mol1.chk"
 Charge =  0 Multiplicity = 1

                         Standard orientation:
 ---------------------------------------------------------------------
 Center     Atomic      Atomic             Coordinates (Angstroms)
 Number     Number       Type             X           Y           Z
 ---------------------------------------------------------------------
      1         14           0       -1.290487    1.178755    0.000000
      2         14           0        0.662582   -0.133092   -0.000000
      3          9           0        0.662582   -1.089376    1.289864
      4          9           0        0.662582   -1.089376   -1.289864
      5          1           0        1.945884    0.594482   -0.000000
      6          1           0       -2.483906    0.303131    0.000000
      7          1           0       -1.298896    2.035934   -1.208218
      8          1           0       -1.298896    2.035934    1.208218
 ---------------------------------------------------------------------

 SCF Done:  E(RHF) =  -780.208354906     A.U. after    2 cycles

 The electronic state is 1-A'.
 Alpha  occ. eigenvalues --  -76.28975 -76.23446 -29.27894 -29.27893  -5.64229
 Alpha  occ. eigenvalues --   -5.56935  -2.29061  -2.26488  -2.23371  -2.19035
 Alpha  occ. eigenvalues --   -2.19011  -2.18006  -0.94989  -0.78282  -0.69606
 Alpha  occ. eigenvalues --   -0.57859  -0.49080  -0.49027  -0.46952  -0.40961
 Alpha  occ. eigenvalues --   -0.35137  -0.34381  -0.33970  -0.28646  -0.28445
 Alpha virt. eigenvalues --    0.03947   0.05202   0.06656   0.07105   0.07612
 Alpha virt. eigenvalues --    0.08234   0.08369   0.09104   0.09668   0.10020
 Alpha virt. eigenvalues --    0.12088   0.15118   0.16164   0.17617   0.18444

 Mulliken charges:
               1
     1  Si   4.379385
     2  Si   3.781055
     3  F   -0.850213
     4  F   -0.850213
     5  H   -1.944734
     6  H   -1.491248
     7  H   -1.512016
     8  H   -1.512016
 Sum of Mulliken charges =   0.00000

 Dipole moment (field-independent basis, Debye):
    X=             -0.0949    Y=             -2.7723    Z=             -0.0000  Tot=              2.7739

 Test job not archived.
 1\1\GINC-SE423\SP\RHF\Aug-CC-pVDZ\F2H4Si2\OHZDE\08-Apr-2025\0\\#t hf a
 ug-cc-pvdz iop(5/13=1,5/36=2,99/5=2) pseudo=read geom=check guess=(rea
 d,tcheck) scf=(maxcycle=1)\\title\\0,1\Si,0,-1.290487,1.178755,0.\Si,0
 ,0.662582,-0.133092,0.\F,0,0.662582,-1.089376,1.289864\F,0,0.662582,-1
 .089376,-1.289864\H,0,1.945884,0.594482,0.\H,0,-2.483906,0.303131,0.\H
 ,0,-1.298896,2.035934,-1.208218\H,0,-1.298896,2.035934,1.208218\\Versi
 on=ES64L-G16RevC.01\State=1-A'\HF=-780.2083549\RMSD=9.176e-02\Dipole=-
 0.0373452,-1.0907121,0.\Quadrupole=-2.1110826,0.2380786,1.873004,-0.75

 Normal termination of Gaussian 16 at Tue Apr  8 23:57:23 2025.
