 Gaussian 16, Revision C.01,

 ----------------------------------------------------------------------
 #t hf aug-cc-pvdz symm=none int=(grid=ultrafine) guess=(read,tcheck) s
 table=(opt,rrhf)
 ----------------------------------------------------------------------
 -----
 title
 -----
 Symbolic Z-matrix:
 Charge =  0 Multiplicity = 1

 SCF Done:  E(RHF) =  -884.918910777     A.U. after   13 cycles
 Normal termination of Gaussian 16 at Wed Apr  9 00:11:22 2025.
 Gaussian 16:  ES64L-G16RevC.01  3-Jul-2019

 ----------------------------------------------------------------------
 #t hf aug-cc-pvdz iop(5/13=1,5/36=2,99/5=2) pseudo=read geom=check gue
 ss=(read,tcheck) scf=(maxcycle=1)
 ----------------------------------------------------------------------
 -----
 title
 -----
 Structure from the checkpoint file:  "BDE49_nonexpt_2344_mol1.chk"
 Charge =  0 Multiplicity = 1

                         Standard orientation:
 ---------------------------------------------------------------------
 Center     Atomic      Atomic             Coordinates (Angstroms)
 Number     Number       Type             X           Y           Z
 ---------------------------------------------------------------------
      1         14           0        0.866843    1.226570   -0.805200
      2         14           0       -0.866844    1.226570    0.805199
      3          6           0       -2.271710   -0.892924   -0.433362
      4          8           0       -1.617060   -1.273651   -1.379117
      5          6           0       -1.695935   -0.495848    0.888116
      6          1           0       -0.885729   -1.175943    1.168747
      7          1           0       -2.462847   -0.484095    1.667004
      8          1           0       -1.879816    2.251446    0.443251
      9          1           0       -0.351581    1.549552    2.156013
     10          1           0       -3.373938   -0.791109   -0.531460
     11          6           0        1.695935   -0.495848   -0.888116
     12          1           0        1.879815    2.251447   -0.443252
     13          1           0        0.351580    1.549550   -2.156013
     14          6           0        2.271711   -0.892923    0.433362
     15          1           0        0.885729   -1.175944   -1.168745
     16          1           0        2.462847   -0.484096   -1.667004
     17          8           0        1.617060   -1.273649    1.379119
     18          1           0        3.373940   -0.791114    0.531458
 ---------------------------------------------------------------------

 SCF Done:  E(RHF) =  -886.591046238     A.U. after    2 cycles

 The electronic state is 1-A.
 Alpha  occ. eigenvalues --  -76.22412 -76.22401 -21.06205 -21.06196 -11.49162
 Alpha  occ. eigenvalues --  -11.49090 -11.38004 -11.37960  -5.55900  -5.55886
 Alpha  occ. eigenvalues --   -2.19466  -2.19413  -2.18226  -2.18102  -2.18015
 Alpha  occ. eigenvalues --   -2.16820  -1.71200  -1.70870  -1.11637  -1.11434
 Alpha  occ. eigenvalues --   -0.83795  -0.82120  -0.77415  -0.70006  -0.65392
 Alpha  occ. eigenvalues --   -0.64812  -0.59390  -0.56778  -0.51379  -0.50450
 Alpha  occ. eigenvalues --   -0.50171  -0.49609  -0.48026  -0.46346  -0.39379
 Alpha  occ. eigenvalues --   -0.37830  -0.34756  -0.30661  -0.29263
 Alpha virt. eigenvalues --    0.03736   0.04407   0.04689   0.05366   0.05430
 Alpha virt. eigenvalues --    0.06084   0.07426   0.07626   0.07660   0.08346
 Alpha virt. eigenvalues --    0.08758   0.08800   0.09551   0.09646   0.10925

 Mulliken charges:
               1
     1  Si   4.608996
     2  Si   4.608996
     3  C    1.637386
     4  O   -2.724150
     5  C   -4.467824
     6  H    1.803157
     7  H    1.291011
     8  H   -1.858300
     9  H   -1.858998
    10  H    1.568724
    11  C   -4.467821
    12  H   -1.858298
    13  H   -1.859000
    14  C    1.637377
    15  H    1.803156
    16  H    1.291011
    17  O   -2.724145
    18  H    1.568724
 Sum of Mulliken charges =  -0.00000

 Dipole moment (field-independent basis, Debye):
    X=             -0.0000    Y=             -0.2208    Z=             -0.0000  Tot=              0.2208

 Test job not archived.
 1\1\GINC-SE368\SP\RHF\Aug-CC-pVDZ\C4H10O2Si2\OHZDE\09-Apr-2025\0\\#t h
 f aug-cc-pvdz iop(5/13=1,5/36=2,99/5=2) pseudo=read geom=check guess=(
 read,tcheck) scf=(maxcycle=1)\\title\\0,1\Si,0,-0.866843,1.22657,0.805
 2\Si,0,0.866844,1.22657,-0.805199\C,0,2.27171,-0.892924,0.433362\O,0,1
 .61706,-1.273651,1.379117\C,0,1.695935,-0.495848,-0.888116\H,0,0.88572
 9,-1.175943,-1.168747\H,0,2.462847,-0.484095,-1.667004\H,0,1.879816,2.
 251446,-0.443251\H,0,0.351581,1.549552,-2.156013\H,0,3.373938,-0.79110
 9,0.53146\C,0,-1.695935,-0.495848,0.888116\H,0,-1.879815,2.251447,0.44

 Normal termination of Gaussian 16 at Wed Apr  9 00:11:29 2025.
