 Gaussian 16, Revision C.01,

 ----------------------------------------------------------------------
 #t hf aug-cc-pvdz symm=none int=(grid=ultrafine) guess=(read,tcheck) s
 table=(opt,rrhf)
 ----------------------------------------------------------------------
 -----
 title
 -----
 Symbolic Z-matrix:
 Charge =  0 Multiplicity = 1

 SCF Done:  E(RHF) =  -1694.73561993     A.U. after   13 cycles
 Normal termination of Gaussian 16 at Wed Apr  9 00:50:06 2025.
 Gaussian 16:  ES64L-G16RevC.01  3-Jul-2019

 ----------------------------------------------------------------------
 #t hf aug-cc-pvdz iop(5/13=1,5/36=2,99/5=2) pseudo=read geom=check gue
 ss=(read,tcheck) scf=(maxcycle=1)
 ----------------------------------------------------------------------
 -----
 title
 -----
 Structure from the checkpoint file:  "BDE49_nonexpt_878_mol1.chk"
 Charge =  0 Multiplicity = 1

                         Standard orientation:
 ---------------------------------------------------------------------
 Center     Atomic      Atomic             Coordinates (Angstroms)
 Number     Number       Type             X           Y           Z
 ---------------------------------------------------------------------
      1         16           0       -0.009374   -1.280522   -0.225903
      2          5           0        1.265059    0.027409   -0.073115
      3         16           0        1.084148    1.765825   -0.520152
      4         16           0        2.888269   -0.500550    0.564051
      5         16           0       -1.757704   -0.382922   -0.969790
      6          6           0       -2.790253   -0.191286    0.544596
      7          6           0       -2.327588    0.871703    1.531004
      8          1           0       -2.870212   -1.173599    1.012663
      9          1           0       -3.772390    0.052154    0.126081
     10          1           0       -1.330976    0.648091    1.916539
     11          1           0       -3.013806    0.909863    2.382731
     12          1           0       -2.302139    1.861123    1.069930
     13          1           0        2.579559   -1.793184    0.777090
     14          1           0       -0.193705    1.646716   -0.944371
 ---------------------------------------------------------------------

 SCF Done:  E(RHF) =  -1696.16691719     A.U. after    2 cycles

 The electronic state is 1-A.
 Alpha  occ. eigenvalues --  -75.71748 -75.71409 -75.70058 -75.69593 -13.17907
 Alpha  occ. eigenvalues --  -13.16548 -13.16260 -13.14590 -13.11769 -13.11148
 Alpha  occ. eigenvalues --  -13.10574 -13.08931 -13.07975 -13.06595 -13.05197
 Alpha  occ. eigenvalues --  -13.03929 -11.43651 -11.38126  -8.05548  -8.05353
 Alpha  occ. eigenvalues --   -8.04071  -8.03419  -7.68492  -1.29147  -1.21601
 Alpha  occ. eigenvalues --   -1.12567  -1.10373  -1.00456  -0.86990  -0.66879
 Alpha  occ. eigenvalues --   -0.64497  -0.59922  -0.54908  -0.53908  -0.51435
 Alpha  occ. eigenvalues --   -0.48987  -0.44595  -0.42242  -0.37546  -0.34357
 Alpha  occ. eigenvalues --   -0.31585  -0.26290  -0.25316  -0.24292
 Alpha virt. eigenvalues --    0.01437   0.01873   0.02525   0.03043   0.05819
 Alpha virt. eigenvalues --    0.06053   0.06947   0.07928   0.08621   0.09538
 Alpha virt. eigenvalues --    0.10156   0.10833   0.10952   0.11884   0.12408

 Mulliken charges:
               1
     1  S   -1.617406
     2  B    4.979465
     3  S   -2.418164
     4  S   -2.632170
     5  S   -0.153387
     6  C   -3.767970
     7  C   -3.462540
     8  H    1.543317
     9  H    1.544783
    10  H    1.432380
    11  H    1.202055
    12  H    1.325512
    13  H    0.897135
    14  H    1.126989
 Sum of Mulliken charges =   0.00000

 Dipole moment (field-independent basis, Debye):
    X=              0.4709    Y=              1.0415    Z=             -0.0741  Tot=              1.1454

 Test job not archived.
 1\1\GINC-SE109\SP\RHF\Aug-CC-pVDZ\C2H7B1S4\OHZDE\09-Apr-2025\0\\#t hf
 aug-cc-pvdz iop(5/13=1,5/36=2,99/5=2) pseudo=read geom=check guess=(re
 ad,tcheck) scf=(maxcycle=1)\\title\\0,1\S,0,-0.009374,-1.280522,-0.225
 903\B,0,1.265059,0.027409,-0.073115\S,0,1.084148,1.765825,-0.520152\S,
 0,2.888269,-0.50055,0.564051\S,0,-1.757704,-0.382922,-0.96979\C,0,-2.7
 90253,-0.191286,0.544596\C,0,-2.327588,0.871703,1.531004\H,0,-2.870212
 ,-1.173599,1.012663\H,0,-3.77239,0.052154,0.126081\H,0,-1.330976,0.648
 091,1.916539\H,0,-3.013806,0.909863,2.382731\H,0,-2.302139,1.861123,1.

 Normal termination of Gaussian 16 at Wed Apr  9 00:50:12 2025.
