 Gaussian 16, Revision C.01,

 ----------------------------------------------------------------------
 #t hf aug-cc-pvdz symm=none int=(grid=ultrafine) guess=(read,tcheck) s
 table=(opt,rrhf)
 ----------------------------------------------------------------------
 -----
 title
 -----
 Symbolic Z-matrix:
 Charge =  0 Multiplicity = 1

 SCF Done:  E(RHF) =  -1253.31559313     A.U. after   14 cycles
 Normal termination of Gaussian 16 at Wed Apr  9 00:52:08 2025.
 Gaussian 16:  ES64L-G16RevC.01  3-Jul-2019

 ----------------------------------------------------------------------
 #t hf aug-cc-pvdz iop(5/13=1,5/36=2,99/5=2) pseudo=read geom=check gue
 ss=(read,tcheck) scf=(maxcycle=1)
 ----------------------------------------------------------------------
 -----
 title
 -----
 Structure from the checkpoint file:  "BDE49_nonexpt_929_mol1.chk"
 Charge =  0 Multiplicity = 1

                         Standard orientation:
 ---------------------------------------------------------------------
 Center     Atomic      Atomic             Coordinates (Angstroms)
 Number     Number       Type             X           Y           Z
 ---------------------------------------------------------------------
      1         17           0        0.875199    0.533039    2.406761
      2          7           0        0.123357   -0.102022    0.992615
      3          6           0        0.813537   -0.600589   -0.162835
      4          8           0        1.748871   -1.291105   -0.350047
      5          6           0       -0.813537    0.600589    0.162835
      6          7           0       -0.123357    0.102022   -0.992615
      7          8           0       -1.748871    1.291105    0.350047
      8         17           0       -0.875199   -0.533039   -2.406761
 ---------------------------------------------------------------------

 SCF Done:  E(RHF) =  -1255.19376468     A.U. after    2 cycles

 The electronic state is 1-AG.
 Alpha  occ. eigenvalues --  -99.97167 -99.97166 -21.12090 -21.12078 -15.85162
 Alpha  occ. eigenvalues --  -15.85090 -11.60054 -11.57873 -10.54224 -10.54216
 Alpha  occ. eigenvalues --   -9.74303  -9.74051  -9.73206  -9.73094  -9.73087
 Alpha  occ. eigenvalues --   -9.72978  -1.81918  -1.77849  -1.62568  -1.46933
 Alpha  occ. eigenvalues --   -1.34389  -1.16923  -0.93136  -0.84016  -0.78388
 Alpha  occ. eigenvalues --   -0.75156  -0.66064  -0.63201  -0.62938  -0.59965
 Alpha  occ. eigenvalues --   -0.56637  -0.55868  -0.53865  -0.51847  -0.44422
 Alpha  occ. eigenvalues --   -0.42163  -0.37402  -0.33977
 Alpha virt. eigenvalues --    0.00084   0.03150   0.05280   0.09068   0.09469
 Alpha virt. eigenvalues --    0.09550   0.10384   0.10846   0.11510   0.12255
 Alpha virt. eigenvalues --    0.13219   0.13307   0.13938   0.14398   0.16382

 Mulliken charges:
               1
     1  Cl   0.698144
     2  N   -2.172967
     3  C    4.355598
     4  O   -2.880776
     5  C    4.355598
     6  N   -2.172967
     7  O   -2.880776
     8  Cl   0.698144
 Sum of Mulliken charges =   0.00000

 Dipole moment (field-independent basis, Debye):
    X=              0.0000    Y=              0.0000    Z=              0.0000  Tot=              0.0000

 Test job not archived.
 1\1\GINC-SE036\SP\RHF\Aug-CC-pVDZ\C2Cl2N2O2\OHZDE\09-Apr-2025\0\\#t hf
  aug-cc-pvdz iop(5/13=1,5/36=2,99/5=2) pseudo=read geom=check guess=(r
 ead,tcheck) scf=(maxcycle=1)\\title\\0,1\Cl,0,0.875199,0.533039,2.4067
 61\N,0,0.123357,-0.102022,0.992615\C,0,0.813537,-0.600589,-0.162835\O,
 0,1.748871,-1.291105,-0.350047\C,0,-0.813537,0.600589,0.162835\N,0,-0.
 123357,0.102022,-0.992615\O,0,-1.748871,1.291105,0.350047\Cl,0,-0.8751
 99,-0.533039,-2.406761\\Version=ES64L-G16RevC.01\State=1-AG\HF=-1255.1
 937647\RMSD=6.223e-02\Dipole=0.,0.,0.\Quadrupole=-1.3020084,-0.6545743

 Normal termination of Gaussian 16 at Wed Apr  9 00:52:12 2025.
