 Gaussian 16, Revision C.01,

 ----------------------------------------------------------------------
 #t hf aug-cc-pvdz symm=none int=(grid=ultrafine) guess=(read,tcheck) s
 table=(opt,rrhf)
 ----------------------------------------------------------------------
 -----
 title
 -----
 Symbolic Z-matrix:
 Charge =  0 Multiplicity = 1

 SCF Done:  E(RHF) =  -606.362809327     A.U. after   15 cycles
 Normal termination of Gaussian 16 at Wed Apr  9 00:23:37 2025.
 Gaussian 16:  ES64L-G16RevC.01  3-Jul-2019

 ----------------------------------------------------------------------
 #t hf aug-cc-pvdz iop(5/13=1,5/36=2,99/5=2) pseudo=read geom=check gue
 ss=(read,tcheck) scf=(maxcycle=1)
 ----------------------------------------------------------------------
 -----
 title
 -----
 Structure from the checkpoint file:  "BDE49_nonexpt_2687_mol1.chk"
 Charge =  0 Multiplicity = 1

                         Standard orientation:
 ---------------------------------------------------------------------
 Center     Atomic      Atomic             Coordinates (Angstroms)
 Number     Number       Type             X           Y           Z
 ---------------------------------------------------------------------
      1          9           0       -1.508895    0.810484    0.000020
      2         16           0       -0.541638   -0.588518   -0.000001
      3          7           0        1.005820   -0.350881   -0.000007
      4          7           0        1.781599    0.620978   -0.000020
      5          1           0        2.734341    0.231250    0.000033
 ---------------------------------------------------------------------

 SCF Done:  E(RHF) =  -607.411379946     A.U. after    2 cycles

 The electronic state is 1-A.
 Alpha  occ. eigenvalues --  -75.81010 -29.27296 -15.86864 -15.83173 -13.34223
 Alpha  occ. eigenvalues --  -13.19967 -13.11335  -8.15286  -1.58638  -1.27029
 Alpha  occ. eigenvalues --   -0.95169  -0.74817  -0.64161  -0.59099  -0.53575
 Alpha  occ. eigenvalues --   -0.41632  -0.40268  -0.31348  -0.30709  -0.21432
 Alpha virt. eigenvalues --    0.03562   0.08233   0.08258   0.09943   0.13247
 Alpha virt. eigenvalues --    0.14540   0.14890   0.17653   0.19027   0.19249
 Alpha virt. eigenvalues --    0.21092   0.22507   0.24294   0.25617   0.28246

 Mulliken charges:
               1
     1  F   -0.013087
     2  S    1.676931
     3  N   -1.106921
     4  N   -1.287882
     5  H    0.730959
 Sum of Mulliken charges =   0.00000

 Dipole moment (field-independent basis, Debye):
    X=             -3.4587    Y=              0.5127    Z=              0.0001  Tot=              3.4965

 Test job not archived.
 1\1\GINC-SE366\SP\RHF\Aug-CC-pVDZ\F1H1N2S1\OHZDE\09-Apr-2025\0\\#t hf
 aug-cc-pvdz iop(5/13=1,5/36=2,99/5=2) pseudo=read geom=check guess=(re
 ad,tcheck) scf=(maxcycle=1)\\title\\0,1\F,0,1.508895,0.810484,-0.00002
 \S,0,0.541638,-0.588518,0.000001\N,0,-1.00582,-0.350881,0.000007\N,0,-
 1.781599,0.620978,0.00002\H,0,-2.734341,0.231249,-0.000033\\Version=ES
 64L-G16RevC.01\State=1-A\HF=-607.4113799\RMSD=1.107e-01\Dipole=1.36075
 65,0.2017098,-0.0000447\Quadrupole=3.6031655,-1.8907767,-1.7123888,1.4
 067599,0.0000904,-0.0000262\PG=C01 [X(F1H1N2S1)]\\@

 Normal termination of Gaussian 16 at Wed Apr  9 00:23:38 2025.
