 Gaussian 16, Revision C.01,

 ----------------------------------------------------------------------
 #t hf aug-cc-pvdz symm=none int=(grid=ultrafine) guess=(read,tcheck) s
 table=(opt,rrhf)
 ----------------------------------------------------------------------
 -----
 title
 -----
 Symbolic Z-matrix:
 Charge =  0 Multiplicity = 1

 SCF Done:  E(RHF) =  -143.402453699     A.U. after   13 cycles
 Normal termination of Gaussian 16 at Wed Apr  9 00:49:55 2025.
 Gaussian 16:  ES64L-G16RevC.01  3-Jul-2019

 ----------------------------------------------------------------------
 #t hf aug-cc-pvdz iop(5/13=1,5/36=2,99/5=2) pseudo=read geom=check gue
 ss=(read,tcheck) scf=(maxcycle=1)
 ----------------------------------------------------------------------
 -----
 title
 -----
 Structure from the checkpoint file:  "BDE49_nonexpt_88_mol1.chk"
 Charge =  0 Multiplicity = 1

                         Standard orientation:
 ---------------------------------------------------------------------
 Center     Atomic      Atomic             Coordinates (Angstroms)
 Number     Number       Type             X           Y           Z
 ---------------------------------------------------------------------
      1          5           0        1.921764   -0.364865    0.000066
      2          5           0        0.608643    0.623086   -0.000217
      3          6           0       -0.824249    0.099589   -0.000019
      4          7           0       -1.902787   -0.321355    0.000111
      5          1           0        2.433653   -0.725079   -1.016878
      6          1           0        2.434451   -0.723441    1.017187
      7          1           0        0.744862    1.809367   -0.000213
 ---------------------------------------------------------------------

 SCF Done:  E(RHF) =  -144.029989865     A.U. after    2 cycles

 The electronic state is 1-A.
 Alpha  occ. eigenvalues --  -15.78203 -11.40276  -7.65341  -7.62502  -1.31498
 Alpha  occ. eigenvalues --   -1.01209  -0.81658  -0.61459  -0.52697  -0.51117
 Alpha  occ. eigenvalues --   -0.48741  -0.46427  -0.39715
 Alpha virt. eigenvalues --    0.01916   0.02230   0.02424   0.04305   0.04716
 Alpha virt. eigenvalues --    0.06776   0.08279   0.08920   0.09962   0.10579
 Alpha virt. eigenvalues --    0.12360   0.12485   0.13295   0.15191   0.16360

 Mulliken charges:
               1
     1  B    4.189307
     2  B    4.667880
     3  C    0.116984
     4  N   -2.114322
     5  H   -2.350022
     6  H   -2.350189
     7  H   -2.159639
 Sum of Mulliken charges =  -0.00000

 Dipole moment (field-independent basis, Debye):
    X=              2.3759    Y=              0.6748    Z=             -0.0004  Tot=              2.4699

 Test job not archived.
 1\1\GINC-SE404\SP\RHF\Aug-CC-pVDZ\C1H3B2N1\OHZDE\09-Apr-2025\0\\#t hf
 aug-cc-pvdz iop(5/13=1,5/36=2,99/5=2) pseudo=read geom=check guess=(re
 ad,tcheck) scf=(maxcycle=1)\\title\\0,1\B,0,1.921764,-0.364865,0.00006
 6\B,0,0.608643,0.623086,-0.000217\C,0,-0.824249,0.099589,-0.000019\N,0
 ,-1.902787,-0.321355,0.000111\H,0,2.433653,-0.725079,-1.016878\H,0,2.4
 34451,-0.723441,1.017187\H,0,0.744862,1.809367,-0.000213\\Version=ES64
 L-G16RevC.01\State=1-A\HF=-144.0299899\RMSD=1.554e-01\Dipole=0.9347669
 ,0.2655012,-0.0001654\Quadrupole=-2.600969,1.1037517,1.4972173,0.23392

 Normal termination of Gaussian 16 at Wed Apr  9 00:49:57 2025.
