 Gaussian 16, Revision C.01,

 ----------------------------------------------------------------------
 #t hf aug-cc-pvdz symm=none int=(grid=ultrafine) guess=(read,tcheck) s
 table=(opt,rrhf)
 ----------------------------------------------------------------------
 -----
 title
 -----
 Symbolic Z-matrix:
 Charge =  0 Multiplicity = 1

 SCF Done:  E(RHF) =  -1030.91302579     A.U. after   12 cycles

 1\1\GINC-SE435\Stability\RHF\Aug-CC-pVDZ\H6O6Si2\OHZDE\09-Apr-2025\0\\
 #t hf aug-cc-pvdz symm=none int=(grid=ultrafine) guess=(read,tcheck) s
 table=(opt,rrhf)\\title\\0,1\Si,0,0.071439,1.166118,0.030084\Si,0,-0.0
 71439,-1.166118,0.030084\O,0,-0.418765,-1.939824,1.438451\H,0,0.329981
 ,-2.24267,1.958669\O,0,0.418765,1.939824,1.438451\H,0,-0.329981,2.2426
 7,1.958669\O,0,1.351473,-1.815227,-0.492401\H,0,1.880333,-1.241481,-1.
 056349\O,0,-1.351473,1.815227,-0.492401\H,0,-1.880333,1.241481,-1.0563
 49\O,0,-1.351473,-1.413845,-0.977272\H,0,-1.699204,-2.30569,-1.073722\

 Normal termination of Gaussian 16 at Wed Apr  9 00:10:03 2025.
 Gaussian 16:  ES64L-G16RevC.01  3-Jul-2019

 ----------------------------------------------------------------------
 #t hf aug-cc-pvdz iop(5/13=1,5/36=2,99/5=2) pseudo=read geom=check gue
 ss=(read,tcheck) scf=(maxcycle=1)
 ----------------------------------------------------------------------
 -----
 title
 -----
 Structure from the checkpoint file:  "BDE49_nonexpt_2332_mol1.chk"
 Charge =  0 Multiplicity = 1

                         Standard orientation:
 ---------------------------------------------------------------------
 Center     Atomic      Atomic             Coordinates (Angstroms)
 Number     Number       Type             X           Y           Z
 ---------------------------------------------------------------------
      1         14           0        0.071439    1.166118    0.030084
      2         14           0       -0.071439   -1.166118    0.030084
      3          8           0       -0.418765   -1.939824    1.438451
      4          1           0        0.329981   -2.242670    1.958669
      5          8           0        0.418765    1.939824    1.438451
      6          1           0       -0.329981    2.242670    1.958669
      7          8           0        1.351473   -1.815227   -0.492401
      8          1           0        1.880333   -1.241481   -1.056349
      9          8           0       -1.351473    1.815227   -0.492401
     10          1           0       -1.880333    1.241481   -1.056349
     11          8           0       -1.351473   -1.413845   -0.977272
     12          1           0       -1.699204   -2.305690   -1.073722
     13          8           0        1.351473    1.413845   -0.977272
     14          1           0        1.699204    2.305690   -1.073722
 ---------------------------------------------------------------------

 SCF Done:  E(RHF) =  -1033.07517761     A.U. after    2 cycles

 The electronic state is 1-A.
 Alpha  occ. eigenvalues --  -76.25229 -76.25201 -21.08069 -21.08060 -21.07809
 Alpha  occ. eigenvalues --  -21.07795 -21.07644 -21.07637  -5.59992  -5.59987
 Alpha  occ. eigenvalues --   -2.27873  -2.27846  -2.26841  -2.26788  -2.21979
 Alpha  occ. eigenvalues --   -2.21185  -1.70889  -1.70563  -1.64656  -1.64243
 Alpha  occ. eigenvalues --   -1.63869  -1.63831  -0.76105  -0.70324  -0.63100
 Alpha  occ. eigenvalues --   -0.61703  -0.61304  -0.60948  -0.51632  -0.49260
 Alpha  occ. eigenvalues --   -0.46678  -0.45789  -0.43093  -0.42810  -0.40695
 Alpha  occ. eigenvalues --   -0.39957  -0.39352  -0.38547  -0.36167  -0.35501
 Alpha  occ. eigenvalues --   -0.30100
 Alpha virt. eigenvalues --    0.03925   0.05059   0.06029   0.06234   0.07048
 Alpha virt. eigenvalues --    0.07404   0.07846   0.08372   0.08552   0.08971
 Alpha virt. eigenvalues --    0.09649   0.09780   0.12951   0.14799   0.15194

 Mulliken charges:
               1
     1  Si   5.966582
     2  Si   5.966582
     3  O   -2.896097
     4  H    0.952799
     5  O   -2.896097
     6  H    0.952799
     7  O   -3.307260
     8  H    1.248152
     9  O   -3.307260
    10  H    1.248152
    11  O   -2.998241
    12  H    1.034066
    13  O   -2.998241
    14  H    1.034066
 Sum of Mulliken charges =  -0.00000

 Dipole moment (field-independent basis, Debye):
    X=             -0.0000    Y=              0.0000    Z=              0.1337  Tot=              0.1337

 Test job not archived.
 1\1\GINC-SE435\SP\RHF\Aug-CC-pVDZ\H6O6Si2\OHZDE\09-Apr-2025\0\\#t hf a
 ug-cc-pvdz iop(5/13=1,5/36=2,99/5=2) pseudo=read geom=check guess=(rea
 d,tcheck) scf=(maxcycle=1)\\title\\0,1\Si,0,0.071439,1.166118,0.030084
 \Si,0,-0.071439,-1.166118,0.030084\O,0,-0.418765,-1.939824,1.438451\H,
 0,0.329981,-2.24267,1.958669\O,0,0.418765,1.939824,1.438451\H,0,-0.329
 981,2.24267,1.958669\O,0,1.351473,-1.815227,-0.492401\H,0,1.880333,-1.
 241481,-1.056349\O,0,-1.351473,1.815227,-0.492401\H,0,-1.880333,1.2414
 81,-1.056349\O,0,-1.351473,-1.413845,-0.977272\H,0,-1.699204,-2.30569,

 Normal termination of Gaussian 16 at Wed Apr  9 00:10:20 2025.
