 Gaussian 16, Revision C.01,

 ----------------------------------------------------------------------
 #t hf aug-cc-pvdz symm=none int=(grid=ultrafine) guess=(read,tcheck) s
 table=(opt,rrhf)
 ----------------------------------------------------------------------
 -----
 title
 -----
 Symbolic Z-matrix:
 Charge =  0 Multiplicity = 1

 SCF Done:  E(RHF) =  -551.599056769     A.U. after   13 cycles
 Normal termination of Gaussian 16 at Tue Apr  8 22:44:29 2025.
 Gaussian 16:  ES64L-G16RevC.01  3-Jul-2019

 ----------------------------------------------------------------------
 #t hf aug-cc-pvdz iop(5/13=1,5/36=2,99/5=2) pseudo=read geom=check gue
 ss=(read,tcheck) scf=(maxcycle=1)
 ----------------------------------------------------------------------
 -----
 title
 -----
 Structure from the checkpoint file:  "BDE49_expt_1495_mol1.chk"
 Charge =  0 Multiplicity = 1

                         Standard orientation:
 ---------------------------------------------------------------------
 Center     Atomic      Atomic             Coordinates (Angstroms)
 Number     Number       Type             X           Y           Z
 ---------------------------------------------------------------------
      1          6           0       -1.578884    0.808693    0.045409
      2         16           0       -0.568110   -0.681800   -0.158336
      3          1           0       -1.191757    1.651912   -0.528269
      4          1           0       -1.661116    1.067197    1.101469
      5          1           0       -2.568904    0.545560   -0.337941
      6          8           0        0.860049   -0.206802    0.604918
      7          6           0        1.814445    0.438395   -0.246150
      8          1           0        1.434545    1.392271   -0.627921
      9          1           0        2.094063   -0.201461   -1.088245
     10          1           0        2.689168    0.625219    0.379384
 ---------------------------------------------------------------------

 SCF Done:  E(RHF) =  -552.552945654     A.U. after    2 cycles

 The electronic state is 1-A.
 Alpha  occ. eigenvalues --  -75.71446 -21.06467 -13.18131 -13.10195 -13.06176
 Alpha  occ. eigenvalues --  -11.40673 -11.39671  -8.05147  -1.74972  -1.15812
 Alpha  occ. eigenvalues --   -0.99968  -0.88864  -0.62273  -0.61500  -0.59580
 Alpha  occ. eigenvalues --   -0.58378  -0.52275  -0.45519  -0.38084  -0.31369
 Alpha  occ. eigenvalues --   -0.22604
 Alpha virt. eigenvalues --    0.03087   0.04194   0.05794   0.05817   0.06815
 Alpha virt. eigenvalues --    0.08051   0.08762   0.11643   0.12666   0.13141
 Alpha virt. eigenvalues --    0.14260   0.16183   0.16269   0.17554   0.17701

 Mulliken charges:
               1
     1  C   -4.784956
     2  S    1.584842
     3  H    1.455696
     4  H    1.414373
     5  H    1.368803
     6  O   -2.284337
     7  C   -2.543241
     8  H    1.297861
     9  H    1.319068
    10  H    1.171891
 Sum of Mulliken charges =  -0.00000

 Dipole moment (field-independent basis, Debye):
    X=             -0.1023    Y=             -0.0667    Z=             -0.3894  Tot=              0.4081

 Test job not archived.
 1\1\GINC-SE460\SP\RHF\Aug-CC-pVDZ\C2H6O1S1\OHZDE\08-Apr-2025\0\\#t hf
 aug-cc-pvdz iop(5/13=1,5/36=2,99/5=2) pseudo=read geom=check guess=(re
 ad,tcheck) scf=(maxcycle=1)\\title\\0,1\C,0,-1.578884,0.808693,0.04540
 9\S,0,-0.56811,-0.6818,-0.158336\H,0,-1.191757,1.651912,-0.528269\H,0,
 -1.661116,1.067197,1.101469\H,0,-2.568904,0.54556,-0.337941\O,0,0.8600
 49,-0.206802,0.604918\C,0,1.814445,0.438395,-0.24615\H,0,1.434545,1.39
 2271,-0.627921\H,0,2.094063,-0.201461,-1.088245\H,0,2.689168,0.62522,0
 .379384\\Version=ES64L-G16RevC.01\State=1-A\HF=-552.5529457\RMSD=6.565

 Normal termination of Gaussian 16 at Tue Apr  8 22:44:32 2025.
