 Gaussian 16, Revision C.01,

 ----------------------------------------------------------------------
 #t hf aug-cc-pvdz symm=none int=(grid=ultrafine) guess=(read,tcheck) s
 table=(opt,rrhf)
 ----------------------------------------------------------------------
 -----
 title
 -----
 Symbolic Z-matrix:
 Charge =  0 Multiplicity = 1

 SCF Done:  E(RHF) =  -1207.93150570     A.U. after   16 cycles
 Normal termination of Gaussian 16 at Tue Apr  8 23:31:13 2025.
 Gaussian 16:  ES64L-G16RevC.01  3-Jul-2019

 ----------------------------------------------------------------------
 #t hf aug-cc-pvdz iop(5/13=1,5/36=2,99/5=2) pseudo=read geom=check gue
 ss=(read,tcheck) scf=(maxcycle=1)
 ----------------------------------------------------------------------
 -----
 title
 -----
 Structure from the checkpoint file:  "BDE49_nonexpt_1314_mol1.chk"
 Charge =  0 Multiplicity = 1

                         Standard orientation:
 ---------------------------------------------------------------------
 Center     Atomic      Atomic             Coordinates (Angstroms)
 Number     Number       Type             X           Y           Z
 ---------------------------------------------------------------------
      1         15           0       -1.173598   -0.537749   -0.414368
      2          6           0       -0.014230    0.647237    0.438851
      3          7           0       -2.757475    0.476372   -0.139861
      4          8           0       -2.693542    1.698081   -0.109740
      5          8           0       -3.792511   -0.171097   -0.111806
      6          6           0       -1.511383   -1.780341    0.901475
      7          1           0       -0.653588   -2.453016    0.934515
      8          1           0       -2.400650   -2.342774    0.618659
      9          1           0       -1.664678   -1.325220    1.881576
     10         15           0        1.554575    0.903735   -0.498760
     11          1           0        0.164571    0.368718    1.480201
     12          1           0       -0.530848    1.614335    0.414191
     13          7           0        2.276169   -0.803972   -0.212778
     14          8           0        1.489993   -1.748715   -0.203490
     15          8           0        3.487385   -0.903648   -0.137525
     16          6           0        2.591684    1.794600    0.734444
     17          1           0        2.272003    2.839983    0.740669
     18          1           0        3.630483    1.753110    0.405940
     19          1           0        2.510173    1.382325    1.741517
 ---------------------------------------------------------------------

 SCF Done:  E(RHF) =  -1210.62772956     A.U. after    2 cycles

 The electronic state is 1-A.
 Alpha  occ. eigenvalues -- -105.25487-105.24729 -21.11646 -21.10929 -21.09631
 Alpha  occ. eigenvalues --  -21.09486 -15.99215 -15.97424 -11.42661 -11.41788
 Alpha  occ. eigenvalues --  -11.40276  -2.84020  -2.82667  -2.00357  -1.98523
 Alpha  occ. eigenvalues --   -1.70885  -1.69036  -1.57856  -1.55162  -1.53991
 Alpha  occ. eigenvalues --   -1.52708  -1.51555  -1.50683  -1.09808  -1.04878
 Alpha  occ. eigenvalues --   -0.98385  -0.93367  -0.91329  -0.74520  -0.72602
 Alpha  occ. eigenvalues --   -0.67324  -0.65477  -0.63934  -0.62389  -0.60796
 Alpha  occ. eigenvalues --   -0.60605  -0.60308  -0.59089  -0.58489  -0.56924
 Alpha  occ. eigenvalues --   -0.55484  -0.35472  -0.33629  -0.32717  -0.31772
 Alpha  occ. eigenvalues --   -0.30107  -0.26409  -0.24925  -0.21281  -0.06261
 Alpha  occ. eigenvalues --   -0.03344
 Alpha virt. eigenvalues --    0.03793   0.04923   0.05527   0.05788   0.06472
 Alpha virt. eigenvalues --    0.07294   0.07618   0.08208   0.08446   0.08913
 Alpha virt. eigenvalues --    0.09338   0.10415   0.11083   0.12036   0.12650

 Mulliken charges:
               1
     1  P    6.068097
     2  C   -6.453850
     3  N    3.697561
     4  O   -2.540765
     5  O   -2.723223
     6  C   -6.515133
     7  H    1.345805
     8  H    1.269599
     9  H    1.014389
    10  P    6.601048
    11  H    1.191313
    12  H    1.294532
    13  N    3.496930
    14  O   -2.431880
    15  O   -2.648653
    16  C   -6.258171
    17  H    1.175021
    18  H    1.378935
    19  H    1.038446
 Sum of Mulliken charges =   0.00000

 Dipole moment (field-independent basis, Debye):
    X=              2.0093    Y=             -0.1580    Z=             -3.0413  Tot=              3.6485

 Test job not archived.
 1\1\GINC-SE162\SP\RHF\Aug-CC-pVDZ\C3H8N2O4P2\OHZDE\08-Apr-2025\0\\#t h
 f aug-cc-pvdz iop(5/13=1,5/36=2,99/5=2) pseudo=read geom=check guess=(
 read,tcheck) scf=(maxcycle=1)\\title\\0,1\P,0,-1.173598,-0.537749,-0.4
 14368\C,0,-0.01423,0.647237,0.438851\N,0,-2.757475,0.476372,-0.139861\
 O,0,-2.693542,1.698081,-0.10974\O,0,-3.792511,-0.171097,-0.111806\C,0,
 -1.511383,-1.780341,0.901475\H,0,-0.653588,-2.453016,0.934515\H,0,-2.4
 0065,-2.342774,0.618659\H,0,-1.664678,-1.32522,1.881576\P,0,1.554575,0
 .903735,-0.49876\H,0,0.164571,0.368718,1.480201\H,0,-0.530848,1.614335

 Normal termination of Gaussian 16 at Tue Apr  8 23:31:25 2025.
