 Gaussian 16, Revision C.01,

 ----------------------------------------------------------------------
 #t hf aug-cc-pvdz symm=none int=(grid=ultrafine) guess=(read,tcheck) s
 table=opt
 ----------------------------------------------------------------------
 -----
 title
 -----
 Symbolic Z-matrix:
 Charge =  0 Multiplicity = 2

 SCF Done:  E(UHF) =  -862.300247186     A.U. after   21 cycles
 Normal termination of Gaussian 16 at Tue Apr  8 23:51:20 2025.
 Gaussian 16:  ES64L-G16RevC.01  3-Jul-2019

 ----------------------------------------------------------------------
 #t hf aug-cc-pvdz iop(5/13=1,5/36=2,99/5=2) pseudo=read geom=check gue
 ss=(read,tcheck) scf=(maxcycle=1)
 ----------------------------------------------------------------------
 -----
 title
 -----
 Structure from the checkpoint file:  "BDE49_nonexpt_1875_mol2.chk"
 Charge =  0 Multiplicity = 2

                         Standard orientation:
 ---------------------------------------------------------------------
 Center     Atomic      Atomic             Coordinates (Angstroms)
 Number     Number       Type             X           Y           Z
 ---------------------------------------------------------------------
      1         14           0        1.592955   -0.477621   -0.083903
      2          6           0        0.010376    0.560530    0.018789
      3          8           0       -0.105175    1.734913    0.019876
      4          1           0        2.752930    0.324186    0.359647
      5          1           0        1.444164   -1.784313    0.581158
      6         17           0       -1.512901   -0.535039   -0.002230
 ---------------------------------------------------------------------

 SCF Done:  E(UHF) =  -863.138406681     A.U. after    2 cycles

 The electronic state is 2-A.
 Alpha  occ. eigenvalues --  -99.89243 -76.27716 -21.12918 -11.53191 -10.46440
 Alpha  occ. eigenvalues --   -9.66228  -9.65667  -9.65561  -5.61187  -2.24622
 Alpha  occ. eigenvalues --   -2.23499  -2.21693  -1.77638  -1.30116  -0.91523
 Alpha  occ. eigenvalues --   -0.75314  -0.62693  -0.58594  -0.57811  -0.51822
 Alpha  occ. eigenvalues --   -0.48911  -0.47447  -0.35734  -0.30101
 Alpha virt. eigenvalues --    0.03506   0.04739   0.05808   0.06160   0.06999
 Alpha virt. eigenvalues --    0.08131   0.08866   0.10927   0.11686   0.13240
 Alpha virt. eigenvalues --    0.14209   0.15360   0.15734   0.16780   0.17677

  Beta  occ. eigenvalues --  -99.89248 -76.27135 -21.12245 -11.53499 -10.46446
  Beta  occ. eigenvalues --   -9.66234  -9.65674  -9.65571  -5.60282  -2.23887
  Beta  occ. eigenvalues --   -2.22806  -2.17948  -1.76402  -1.30098  -0.89569
  Beta  occ. eigenvalues --   -0.73261  -0.62273  -0.58304  -0.57426  -0.51419
  Beta  occ. eigenvalues --   -0.48774  -0.46242  -0.34542
  Beta virt. eigenvalues --    0.01115   0.03790   0.05183   0.06007   0.07212
  Beta virt. eigenvalues --    0.07824   0.09219   0.09659   0.11805   0.13053
  Beta virt. eigenvalues --    0.14139   0.14791   0.15797   0.17571   0.17764

 Mulliken charges and spin densities:
               1          2
     1  Si   4.057174   1.038243
     2  C    0.644968  -0.202220
     3  O   -1.886400   0.186965
     4  H   -1.364220  -0.014430
     5  H   -1.382133  -0.013041
     6  Cl  -0.069389   0.004482
 Sum of Mulliken charges =   0.00000   1.00000

 Dipole moment (field-independent basis, Debye):
    X=              3.2908    Y=              1.1395    Z=             -0.1763  Tot=              3.4869
                          Isotropic Fermi Contact Couplings
        Atom                 a.u.       MegaHertz       Gauss      10(-4) cm-1
     1  Si(29)             0.48213    -428.48099    -152.89267    -142.92587
     2  C(13)             -0.00993     -11.15895      -3.98179      -3.72222
     3  O(17)              0.03698     -22.41479      -7.99815      -7.47677
     4  H(1)               0.00204       9.09695       3.24602       3.03441
     5  H(1)               0.00038       1.70936       0.60994       0.57018
     6  Cl(35)            -0.01035      -4.53600      -1.61856      -1.51305
 --------------------------------------------------------
       Center         ----  Spin Dipole Couplings  ----

 Normal termination of Gaussian 16 at Tue Apr  8 23:51:22 2025.
