 Gaussian 16, Revision C.01,

 ----------------------------------------------------------------------
 #t hf aug-cc-pvdz symm=none int=(grid=ultrafine) guess=(read,tcheck) s
 table=(opt,rrhf)
 ----------------------------------------------------------------------
 -----
 title
 -----
 Symbolic Z-matrix:
 Charge =  0 Multiplicity = 1

 SCF Done:  E(RHF) =  -193.046341115     A.U. after   13 cycles
 Normal termination of Gaussian 16 at Wed Apr  9 00:36:17 2025.
 Gaussian 16:  ES64L-G16RevC.01  3-Jul-2019

 ----------------------------------------------------------------------
 #t hf aug-cc-pvdz iop(5/13=1,5/36=2,99/5=2) pseudo=read geom=check gue
 ss=(read,tcheck) scf=(maxcycle=1)
 ----------------------------------------------------------------------
 -----
 title
 -----
 Structure from the checkpoint file:  "BDE49_nonexpt_509_mol1.chk"
 Charge =  0 Multiplicity = 1

                         Standard orientation:
 ---------------------------------------------------------------------
 Center     Atomic      Atomic             Coordinates (Angstroms)
 Number     Number       Type             X           Y           Z
 ---------------------------------------------------------------------
      1          1           0       -2.686481   -0.201704   -0.000003
      2          5           0       -1.638596    0.346900   -0.000000
      3          6           0        0.684500   -0.089502   -0.000001
      4          7           0        1.798380    0.214644    0.000005
      5          8           0       -0.544262   -0.502127   -0.000003
      6          1           0       -1.462103    1.518726    0.000004
 ---------------------------------------------------------------------

 SCF Done:  E(RHF) =  -193.858422251     A.U. after    2 cycles

 The electronic state is 1-A.
 Alpha  occ. eigenvalues --  -21.15545 -15.76920 -11.49769  -7.69062  -1.89245
 Alpha  occ. eigenvalues --   -1.30283  -0.92705  -0.71212  -0.61356  -0.60081
 Alpha  occ. eigenvalues --   -0.54435  -0.50151  -0.40678  -0.40434
 Alpha virt. eigenvalues --    0.02729   0.03470   0.03545   0.04625   0.09352
 Alpha virt. eigenvalues --    0.09989   0.10741   0.11842   0.12992   0.13378
 Alpha virt. eigenvalues --    0.14475   0.17502   0.18950   0.20102   0.20186

 Mulliken charges:
               1
     1  H   -2.969026
     2  B    7.269867
     3  C    4.197476
     4  N   -2.531154
     5  O   -3.150020
     6  H   -2.817143
 Sum of Mulliken charges =  -0.00000

 Dipole moment (field-independent basis, Debye):
    X=             -2.9096    Y=             -0.5063    Z=             -0.0000  Tot=              2.9533

 Test job not archived.
 1\1\GINC-SE102\SP\RHF\Aug-CC-pVDZ\C1H2B1N1O1\OHZDE\09-Apr-2025\0\\#t h
 f aug-cc-pvdz iop(5/13=1,5/36=2,99/5=2) pseudo=read geom=check guess=(
 read,tcheck) scf=(maxcycle=1)\\title\\0,1\H,0,-2.686481,-0.201704,-0.0
 00003\B,0,-1.638596,0.3469,0.\C,0,0.6845,-0.089502,-0.000001\N,0,1.798
 38,0.214644,0.000005\O,0,-0.544262,-0.502127,-0.000003\H,0,-1.462103,1
 .518726,0.000004\\Version=ES64L-G16RevC.01\State=1-A\HF=-193.8584223\R
 MSD=2.517e-01\Dipole=-1.144724,-0.1992117,-0.0000029\Quadrupole=-2.639
 0405,0.4272298,2.2118106,-0.8262518,-0.0000119,-0.0000073\PG=C01 [X(C1

 Normal termination of Gaussian 16 at Wed Apr  9 00:36:19 2025.
