 Gaussian 16, Revision C.01,

 ----------------------------------------------------------------------
 #t hf aug-cc-pvdz symm=none int=(grid=ultrafine) guess=(read,tcheck) s
 table=(opt,rrhf)
 ----------------------------------------------------------------------
 -----
 title
 -----
 Symbolic Z-matrix:
 Charge =  0 Multiplicity = 1

 SCF Done:  E(RHF) =  -605.023655723     A.U. after   13 cycles
 Normal termination of Gaussian 16 at Wed Apr  9 00:35:16 2025.
 Gaussian 16:  ES64L-G16RevC.01  3-Jul-2019

 ----------------------------------------------------------------------
 #t hf aug-cc-pvdz iop(5/13=1,5/36=2,99/5=2) pseudo=read geom=check gue
 ss=(read,tcheck) scf=(maxcycle=1)
 ----------------------------------------------------------------------
 -----
 title
 -----
 Structure from the checkpoint file:  "BDE49_nonexpt_415_mol1.chk"
 Charge =  0 Multiplicity = 1

                         Standard orientation:
 ---------------------------------------------------------------------
 Center     Atomic      Atomic             Coordinates (Angstroms)
 Number     Number       Type             X           Y           Z
 ---------------------------------------------------------------------
      1          9           0       -1.591427   -1.268132   -1.378932
      2          5           0       -1.278123   -0.472961   -0.377283
      3          9           0       -2.279244    0.002452    0.354693
      4          6           0        0.220705    0.010050   -0.086589
      5          8           0        0.540843    0.169734    1.279647
      6          8           0        0.350004    1.285558   -0.692469
      7          8           0        1.081096   -0.863146   -0.734831
      8          6           0        0.335593   -0.993742    2.075971
      9          1           0        0.703198   -0.754532    3.072859
     10          1           0        0.887309   -1.850603    1.678628
     11          1           0       -0.729904   -1.247260    2.147208
     12          6           0       -0.170208    2.417703    0.014308
     13          1           0       -0.006182    3.269229   -0.645204
     14          1           0        0.354849    2.569019    0.957681
     15          1           0       -1.242429    2.316419    0.210517
     16          6           0        2.458344   -0.459437   -0.788452
     17          1           0        3.004103   -1.328713   -1.152115
     18          1           0        2.825074   -0.178845    0.201756
     19          1           0        2.588481    0.376596   -1.476969
 ---------------------------------------------------------------------

 SCF Done:  E(RHF) =  -607.497797922     A.U. after    2 cycles

 The electronic state is 1-A.
 Alpha  occ. eigenvalues --  -29.26392 -29.25858 -21.06143 -21.05746 -21.05645
 Alpha  occ. eigenvalues --  -11.48389 -11.42164 -11.41030 -11.40481  -7.70910
 Alpha  occ. eigenvalues --   -1.88345  -1.71142  -1.70224  -1.17686  -1.04443
 Alpha  occ. eigenvalues --   -0.99508  -0.98194  -0.82577  -0.75801  -0.69980
 Alpha  occ. eigenvalues --   -0.67085  -0.64575  -0.62858  -0.59976  -0.59479
 Alpha  occ. eigenvalues --   -0.57072  -0.55094  -0.54034  -0.49328  -0.47143
 Alpha  occ. eigenvalues --   -0.46179  -0.44427  -0.40495  -0.39075  -0.35320
 Alpha  occ. eigenvalues --   -0.34337  -0.33642  -0.33006  -0.30252  -0.22700
 Alpha virt. eigenvalues --    0.03609   0.04419   0.04613   0.05279   0.05446
 Alpha virt. eigenvalues --    0.05904   0.06232   0.06461   0.06862   0.08216
 Alpha virt. eigenvalues --    0.08960   0.09586   0.09906   0.11484   0.13100

 Mulliken charges:
               1
     1  F   -0.628454
     2  B    1.858426
     3  F   -0.432511
     4  C    8.643067
     5  O   -3.921144
     6  O   -4.181706
     7  O   -3.591458
     8  C   -3.489799
     9  H    1.329839
    10  H    1.428258
    11  H    1.446318
    12  C   -3.561409
    13  H    1.250396
    14  H    1.524935
    15  H    1.555500
    16  C   -3.421069
    17  H    1.286478
    18  H    1.376951
    19  H    1.527383
 Sum of Mulliken charges =  -0.00000

 Dipole moment (field-independent basis, Debye):
    X=             -1.6434    Y=             -0.1225    Z=              0.0945  Tot=              1.6507

 Test job not archived.
 1\1\GINC-SE039\SP\RHF\Aug-CC-pVDZ\C4H9B1F2O3\OHZDE\09-Apr-2025\0\\#t h
 f aug-cc-pvdz iop(5/13=1,5/36=2,99/5=2) pseudo=read geom=check guess=(
 read,tcheck) scf=(maxcycle=1)\\title\\0,1\F,0,-1.591427,-1.268132,-1.3
 78932\B,0,-1.278123,-0.472961,-0.377283\F,0,-2.279244,0.002453,0.35469
 3\C,0,0.220705,0.01005,-0.086589\O,0,0.540843,0.169734,1.279647\O,0,0.
 350004,1.285558,-0.692469\O,0,1.081096,-0.863146,-0.734831\C,0,0.33559
 3,-0.993742,2.075971\H,0,0.703198,-0.754532,3.072859\H,0,0.887309,-1.8
 50603,1.678628\H,0,-0.729904,-1.24726,2.147208\C,0,-0.170207,2.417703,

 Normal termination of Gaussian 16 at Wed Apr  9 00:35:29 2025.
