 Gaussian 16, Revision C.01,

 ----------------------------------------------------------------------
 #t hf aug-cc-pvdz symm=none int=(grid=ultrafine) guess=(read,tcheck) s
 table=(opt,rrhf)
 ----------------------------------------------------------------------
 -----
 title
 -----
 Symbolic Z-matrix:
 Charge =  0 Multiplicity = 1

 SCF Done:  E(RHF) =  -330.923682725     A.U. after   13 cycles
 Normal termination of Gaussian 16 at Tue Apr  8 23:21:16 2025.
 Gaussian 16:  ES64L-G16RevC.01  3-Jul-2019

 ----------------------------------------------------------------------
 #t hf aug-cc-pvdz iop(5/13=1,5/36=2,99/5=2) pseudo=read geom=check gue
 ss=(read,tcheck) scf=(maxcycle=1)
 ----------------------------------------------------------------------
 -----
 title
 -----
 Structure from the checkpoint file:  "BDE49_nonexpt_1122_mol1.chk"
 Charge =  0 Multiplicity = 1

                         Standard orientation:
 ---------------------------------------------------------------------
 Center     Atomic      Atomic             Coordinates (Angstroms)
 Number     Number       Type             X           Y           Z
 ---------------------------------------------------------------------
      1          9           0       -0.673166   -1.837464    0.000000
      2          8           0        0.532879   -1.023927    0.000000
      3          6           0        0.117182    0.362207   -0.000000
      4          6           0        1.488095    1.053023   -0.000000
      5          1           0        2.061560    0.780965    0.887986
      6          1           0        1.338071    2.134933   -0.000000
      7          1           0        2.061560    0.780965   -0.887986
      8          6           0       -0.673166    0.670970   -1.271981
      9          1           0       -0.919961    1.734724   -1.316987
     10          1           0       -1.601935    0.100070   -1.291241
     11          1           0       -0.087802    0.409559   -2.156017
     12          6           0       -0.673166    0.670970    1.271981
     13          1           0       -0.087802    0.409559    2.156017
     14          1           0       -1.601935    0.100070    1.291241
     15          1           0       -0.919961    1.734724    1.316987
 ---------------------------------------------------------------------

 SCF Done:  E(RHF) =  -332.378334766     A.U. after    2 cycles

 The electronic state is 1-A'.
 Alpha  occ. eigenvalues --  -29.26867 -21.13561 -11.46441 -11.40650 -11.40143
 Alpha  occ. eigenvalues --  -11.36358  -1.79024  -1.21986  -1.03204  -1.02877
 Alpha  occ. eigenvalues --   -0.82342  -0.68674  -0.64520  -0.63822  -0.58469
 Alpha  occ. eigenvalues --   -0.56941  -0.54626  -0.52915  -0.49098  -0.47653
 Alpha  occ. eigenvalues --   -0.45487  -0.41250  -0.33188  -0.24427  -0.20323
 Alpha virt. eigenvalues --    0.03766   0.05462   0.05540   0.05557   0.05850
 Alpha virt. eigenvalues --    0.06025   0.06924   0.06926   0.09597   0.11366
 Alpha virt. eigenvalues --    0.13847   0.14101   0.14521   0.15017   0.15668

 Mulliken charges:
               1
     1  F   -0.348487
     2  O   -2.021544
     3  C    3.350145
     4  C   -3.609582
     5  H    1.232028
     6  H    1.246887
     7  H    1.232028
     8  C   -4.153996
     9  H    1.189833
    10  H    1.224469
    11  H    1.198956
    12  C   -4.153996
    13  H    1.198956
    14  H    1.224469
    15  H    1.189833
 Sum of Mulliken charges =   0.00000

 Dipole moment (field-independent basis, Debye):
    X=             -0.8714    Y=              0.3128    Z=              0.0000  Tot=              0.9258

 Test job not archived.
 1\1\GINC-SE039\SP\RHF\Aug-CC-pVDZ\C4H9F1O1\OHZDE\08-Apr-2025\0\\#t hf
 aug-cc-pvdz iop(5/13=1,5/36=2,99/5=2) pseudo=read geom=check guess=(re
 ad,tcheck) scf=(maxcycle=1)\\title\\0,1\F,0,-0.673166,-1.837464,0.\O,0
 ,0.532879,-1.023927,0.\C,0,0.117182,0.362207,0.\C,0,1.488095,1.053023,
 0.\H,0,2.06156,0.780965,0.887986\H,0,1.338071,2.134933,0.\H,0,2.06156,
 0.780965,-0.887986\C,0,-0.673166,0.67097,-1.271981\H,0,-0.919961,1.734
 724,-1.316987\H,0,-1.601935,0.10007,-1.291241\H,0,-0.087802,0.409559,-
 2.156017\C,0,-0.673166,0.67097,1.271981\H,0,-0.087802,0.409559,2.15601

 Normal termination of Gaussian 16 at Tue Apr  8 23:21:20 2025.
