 Gaussian 16, Revision C.01,

 ----------------------------------------------------------------------
 #t hf aug-cc-pvdz symm=none int=(grid=ultrafine) guess=(read,tcheck) s
 table=(opt,rrhf)
 ----------------------------------------------------------------------
 -----
 title
 -----
 Symbolic Z-matrix:
 Charge =  0 Multiplicity = 1

 SCF Done:  E(RHF) =  -798.234707890     A.U. after   12 cycles
 Normal termination of Gaussian 16 at Tue Apr  8 23:40:25 2025.
 Gaussian 16:  ES64L-G16RevC.01  3-Jul-2019

 ----------------------------------------------------------------------
 #t hf aug-cc-pvdz iop(5/13=1,5/36=2,99/5=2) pseudo=read geom=check gue
 ss=(read,tcheck) scf=(maxcycle=1)
 ----------------------------------------------------------------------
 -----
 title
 -----
 Structure from the checkpoint file:  "BDE49_nonexpt_1587_mol1.chk"
 Charge =  0 Multiplicity = 1

                         Standard orientation:
 ---------------------------------------------------------------------
 Center     Atomic      Atomic             Coordinates (Angstroms)
 Number     Number       Type             X           Y           Z
 ---------------------------------------------------------------------
      1          8           0        0.143564    0.600921    0.480574
      2         15           0        1.412295   -0.186503   -0.037029
      3          8           0        1.188505   -1.245917   -1.025839
      4          6           0       -0.825013    1.136870   -0.467250
      5          6           0       -2.192519    1.164366    0.194764
      6          1           0       -0.822988    0.511415   -1.362661
      7          6           0       -2.721652   -0.206754    0.641803
      8          1           0       -2.886864    1.615296   -0.525610
      9          1           0       -2.150604    1.839322    1.055790
     10          6           0       -2.864449   -1.233077   -0.487637
     11          1           0       -3.694353   -0.053307    1.121038
     12          1           0       -2.059035   -0.604163    1.416614
     13          1           0       -3.490617   -0.848019   -1.299471
     14          1           0       -3.331590   -2.150349   -0.119472
     15          1           0       -1.895392   -1.509665   -0.910902
     16          1           0       -0.497884    2.143462   -0.737812
     17          8           0        2.373575    1.000038   -0.510027
     18          1           0        3.060518    0.682462   -1.107855
     19          8           0        2.087957   -0.658301    1.330089
     20          1           0        1.857367   -1.571262    1.537331
 ---------------------------------------------------------------------

 SCF Done:  E(RHF) =  -800.484090700     A.U. after    2 cycles

 The electronic state is 1-A.
 Alpha  occ. eigenvalues -- -105.32171 -21.11712 -21.11657 -21.07788 -21.02340
 Alpha  occ. eigenvalues --  -11.46347 -11.41709 -11.38331 -11.35032  -2.95726
 Alpha  occ. eigenvalues --   -2.00700  -1.92900  -1.91925  -1.75082  -1.42976
 Alpha  occ. eigenvalues --   -1.40629  -1.26219  -1.21304  -1.05202  -0.92229
 Alpha  occ. eigenvalues --   -0.81651  -0.70854  -0.66611  -0.63341  -0.60542
 Alpha  occ. eigenvalues --   -0.57665  -0.57337  -0.55183  -0.53443  -0.49259
 Alpha  occ. eigenvalues --   -0.46525  -0.45957  -0.44632  -0.44139  -0.41333
 Alpha  occ. eigenvalues --   -0.38062  -0.34499  -0.33934  -0.29032  -0.26815
 Alpha  occ. eigenvalues --   -0.16445
 Alpha virt. eigenvalues --    0.03809   0.05029   0.05328   0.05624   0.05879
 Alpha virt. eigenvalues --    0.06068   0.06309   0.06797   0.07837   0.08552
 Alpha virt. eigenvalues --    0.10072   0.11518   0.11804   0.13247   0.14190

 Mulliken charges:
               1
     1  O   -4.050281
     2  P    9.337446
     3  O   -2.841128
     4  C   -1.481617
     5  C   -3.431823
     6  H    2.007121
     7  C   -2.881429
     8  H    1.353817
     9  H    1.354287
    10  C   -3.785264
    11  H    1.302212
    12  H    1.554390
    13  H    1.263554
    14  H    1.152115
    15  H    1.435125
    16  H    1.318448
    17  O   -2.613054
    18  H    0.787954
    19  O   -2.614749
    20  H    0.832873
 Sum of Mulliken charges =  -0.00000

 Dipole moment (field-independent basis, Debye):
    X=             -0.0386    Y=              1.7600    Z=              1.6253  Tot=              2.3960

 Test job not archived.
 1\1\GINC-SE333\SP\RHF\Aug-CC-pVDZ\C4H11O4P1\OHZDE\08-Apr-2025\0\\#t hf
  aug-cc-pvdz iop(5/13=1,5/36=2,99/5=2) pseudo=read geom=check guess=(r
 ead,tcheck) scf=(maxcycle=1)\\title\\0,1\O,0,-0.143564,-0.600921,0.480
 574\P,0,-1.412295,0.186503,-0.037029\O,0,-1.188505,1.245917,-1.025839\
 C,0,0.825013,-1.13687,-0.46725\C,0,2.192519,-1.164366,0.194764\H,0,0.8
 22988,-0.511415,-1.362661\C,0,2.721652,0.206754,0.641803\H,0,2.886864,
 -1.615296,-0.52561\H,0,2.150604,-1.839322,1.05579\C,0,2.864449,1.23307
 7,-0.487637\H,0,3.694353,0.053307,1.121038\H,0,2.059035,0.604163,1.416

 Normal termination of Gaussian 16 at Tue Apr  8 23:40:35 2025.
