 Gaussian 16, Revision C.01,

 ----------------------------------------------------------------------
 #t hf aug-cc-pvdz symm=none int=(grid=ultrafine) guess=(read,tcheck) s
 table=opt
 ----------------------------------------------------------------------
 -----
 title
 -----
 Symbolic Z-matrix:
 Charge =  0 Multiplicity = 2

 SCF Done:  E(UHF) =  -262.605529622     A.U. after   15 cycles
 Normal termination of Gaussian 16 at Wed Apr  9 00:30:57 2025.
 Gaussian 16:  ES64L-G16RevC.01  3-Jul-2019

 ----------------------------------------------------------------------
 #t hf aug-cc-pvdz iop(5/13=1,5/36=2,99/5=2) pseudo=read geom=check gue
 ss=(read,tcheck) scf=(maxcycle=1)
 ----------------------------------------------------------------------
 -----
 title
 -----
 Structure from the checkpoint file:  "BDE49_nonexpt_357_mol2.chk"
 Charge =  0 Multiplicity = 2

                         Standard orientation:
 ---------------------------------------------------------------------
 Center     Atomic      Atomic             Coordinates (Angstroms)
 Number     Number       Type             X           Y           Z
 ---------------------------------------------------------------------
      1          9           0       -1.589934   -0.359277   -0.000002
      2          5           0       -0.803181    0.684463    0.000002
      3          6           0        0.764110    0.619940    0.000002
      4          9           0        1.270467   -0.689160   -0.000002
      5          1           0        1.153225    1.146986    0.880580
      6          1           0        1.153225    1.146992   -0.880571
 ---------------------------------------------------------------------

 SCF Done:  E(UHF) =  -263.554603691     A.U. after    2 cycles

 The electronic state is 2-A.
 Alpha  occ. eigenvalues --  -29.27332 -29.25887 -11.42500  -7.69163  -1.21055
 Alpha  occ. eigenvalues --   -0.94842  -0.70098  -0.65042  -0.61788  -0.49053
 Alpha  occ. eigenvalues --   -0.43666  -0.39951  -0.38842  -0.27064  -0.25767
 Alpha  occ. eigenvalues --   -0.20089
 Alpha virt. eigenvalues --    0.03347   0.03443   0.04908   0.06698   0.08153
 Alpha virt. eigenvalues --    0.12737   0.13635   0.14292   0.15445   0.16490
 Alpha virt. eigenvalues --    0.16936   0.22139   0.24855   0.25580   0.26164

  Beta  occ. eigenvalues --  -29.27042 -29.25708 -11.42170  -7.67296  -1.19342
  Beta  occ. eigenvalues --   -0.92068  -0.69344  -0.64810  -0.59810  -0.43176
  Beta  occ. eigenvalues --   -0.42235  -0.38397  -0.36765  -0.25702  -0.25115
  Beta virt. eigenvalues --    0.02629   0.03475   0.04906   0.06413   0.08260
  Beta virt. eigenvalues --    0.10449   0.13466   0.14528   0.15859   0.17037
  Beta virt. eigenvalues --    0.17641   0.18803   0.22978   0.25548   0.25933

 Mulliken charges and spin densities:
               1          2
     1  F   -0.218716  -0.097072
     2  B    0.879759   1.083884
     3  C   -4.017845  -0.005087
     4  F    0.189139   0.043624
     5  H    1.583832  -0.012674
     6  H    1.583832  -0.012674
 Sum of Mulliken charges =  -0.00000   1.00000

 Dipole moment (field-independent basis, Debye):
    X=             -0.9051    Y=             -3.8644    Z=             -0.0000  Tot=              3.9690
                          Isotropic Fermi Contact Couplings
        Atom                 a.u.       MegaHertz       Gauss      10(-4) cm-1
     1  F(19)              0.06000     252.45592      90.08255      84.21023
     2  B(11)              0.16558     237.50738      84.74854      79.22394
     3  C(13)              0.06818      76.64811      27.34995      25.56706
     4  F(19)              0.01113      46.84964      16.71712      15.62736
     5  H(1)              -0.00154      -6.89241      -2.45938      -2.29906
     6  H(1)              -0.00154      -6.89239      -2.45938      -2.29905
 --------------------------------------------------------
       Center         ----  Spin Dipole Couplings  ----

 Normal termination of Gaussian 16 at Wed Apr  9 00:30:58 2025.
