 Gaussian 16, Revision C.01,

 ----------------------------------------------------------------------
 #t hf aug-cc-pvdz symm=none int=(grid=ultrafine) guess=(read,tcheck) s
 table=(opt,rrhf)
 ----------------------------------------------------------------------
 -----
 title
 -----
 Symbolic Z-matrix:
 Charge =  0 Multiplicity = 1

 SCF Done:  E(RHF) =  -1047.59190298     A.U. after   13 cycles
 Normal termination of Gaussian 16 at Tue Apr  8 22:58:59 2025.
 Gaussian 16:  ES64L-G16RevC.01  3-Jul-2019

 ----------------------------------------------------------------------
 #t hf aug-cc-pvdz iop(5/13=1,5/36=2,99/5=2) pseudo=read geom=check gue
 ss=(read,tcheck) scf=(maxcycle=1)
 ----------------------------------------------------------------------
 -----
 title
 -----
 Structure from the checkpoint file:  "BDE49_expt_1873_mol1.chk"
 Charge =  0 Multiplicity = 1

                         Standard orientation:
 ---------------------------------------------------------------------
 Center     Atomic      Atomic             Coordinates (Angstroms)
 Number     Number       Type             X           Y           Z
 ---------------------------------------------------------------------
      1          8           0        0.677422    0.241618    0.772602
      2          8           0       -0.677414   -0.241568    0.772615
      3          6           0       -1.434077    0.419859   -0.157176
      4          6           0        1.434057   -0.419784   -0.157229
      5          8           0        1.065236   -1.220944   -0.945326
      6          8           0       -1.065269    1.220990   -0.945308
      7          6           0       -2.902035   -0.060738    0.024576
      8          6           0        2.902039    0.060722    0.024569
      9          9           0        3.645541   -0.432915   -0.959490
     10          9           0        3.380414   -0.380039    1.196819
     11          9           0        2.978377    1.395819    0.004618
     12          9           0       -3.645535    0.432844   -0.959513
     13          9           0       -3.380476    0.380005    1.196806
     14          9           0       -2.978289   -1.395840    0.004636
 ---------------------------------------------------------------------

 SCF Done:  E(RHF) =  -1051.43154366     A.U. after    2 cycles

 The electronic state is 1-A.
 Alpha  occ. eigenvalues --  -29.35221 -29.35220 -29.35179 -29.35174 -29.34929
 Alpha  occ. eigenvalues --  -29.34925 -21.21402 -21.21149 -21.13897 -21.13878
 Alpha  occ. eigenvalues --  -11.66592 -11.66275 -11.58827 -11.58572  -2.09681
 Alpha  occ. eigenvalues --   -1.81940  -1.77911  -1.59249  -1.45888  -1.44634
 Alpha  occ. eigenvalues --   -1.00175  -0.93711  -0.93567  -0.93504  -0.93092
 Alpha  occ. eigenvalues --   -0.92242  -0.78829  -0.75748  -0.64180  -0.63310
 Alpha  occ. eigenvalues --   -0.62487  -0.56877  -0.54676  -0.51051  -0.50986
 Alpha  occ. eigenvalues --   -0.47797  -0.47519  -0.47203  -0.46752  -0.43151
 Alpha  occ. eigenvalues --   -0.42957  -0.42040  -0.41525  -0.39784  -0.39355
 Alpha  occ. eigenvalues --   -0.37998  -0.37940  -0.31607  -0.30221  -0.29656
 Alpha  occ. eigenvalues --   -0.29388  -0.28583  -0.28383  -0.25101  -0.25044
 Alpha virt. eigenvalues --    0.07742   0.09476   0.10347   0.10462   0.11104
 Alpha virt. eigenvalues --    0.11528   0.11686   0.12239   0.12708   0.12952
 Alpha virt. eigenvalues --    0.13384   0.14098   0.14844   0.14957   0.17818

 Mulliken charges:
               1
     1  O   -1.545198
     2  O   -1.545252
     3  C    2.999006
     4  C    2.998860
     5  O   -2.771657
     6  O   -2.771683
     7  C    0.115909
     8  C    0.116091
     9  F    0.469181
    10  F    0.376883
    11  F    0.355873
    12  F    0.469195
    13  F    0.376908
    14  F    0.355884
 Sum of Mulliken charges =  -0.00000

 Dipole moment (field-independent basis, Debye):
    X=              0.0000    Y=             -0.0002    Z=              1.1439  Tot=              1.1439

 Test job not archived.
 1\1\GINC-SE424\SP\RHF\Aug-CC-pVDZ\C4F6O4\OHZDE\08-Apr-2025\0\\#t hf au
 g-cc-pvdz iop(5/13=1,5/36=2,99/5=2) pseudo=read geom=check guess=(read
 ,tcheck) scf=(maxcycle=1)\\title\\0,1\O,0,-0.677422,0.241618,-0.772602
 \O,0,0.677414,-0.241568,-0.772615\C,0,1.434077,0.419859,0.157176\C,0,-
 1.434057,-0.419784,0.157229\O,0,-1.065236,-1.220944,0.945326\O,0,1.065
 269,1.22099,0.945308\C,0,2.902035,-0.060738,-0.024576\C,0,-2.902039,0.
 060722,-0.024569\F,0,-3.645541,-0.432915,0.95949\F,0,-3.380414,-0.3800
 39,-1.196819\F,0,-2.978377,1.395819,-0.004618\F,0,3.645535,0.432844,0.

 Normal termination of Gaussian 16 at Tue Apr  8 22:59:08 2025.
