 Gaussian 16, Revision C.01,

 ----------------------------------------------------------------------
 #t hf aug-cc-pvdz symm=none int=(grid=ultrafine) guess=(read,tcheck) s
 table=(opt,rrhf)
 ----------------------------------------------------------------------
 -----
 title
 -----
 Symbolic Z-matrix:
 Charge =  0 Multiplicity = 1

 SCF Done:  E(RHF) =  -1136.58651838     A.U. after   18 cycles
 Normal termination of Gaussian 16 at Tue Apr  8 23:10:02 2025.
 Gaussian 16:  ES64L-G16RevC.01  3-Jul-2019

 ----------------------------------------------------------------------
 #t hf aug-cc-pvdz iop(5/13=1,5/36=2,99/5=2) pseudo=read geom=check gue
 ss=(read,tcheck) scf=(maxcycle=1)
 ----------------------------------------------------------------------
 -----
 title
 -----
 Structure from the checkpoint file:  "BDE49_expt_1765_mol1.chk"
 Charge =  0 Multiplicity = 1

                         Standard orientation:
 ---------------------------------------------------------------------
 Center     Atomic      Atomic             Coordinates (Angstroms)
 Number     Number       Type             X           Y           Z
 ---------------------------------------------------------------------
      1          6           0        3.444472   -0.277049    1.501464
      2          6           0        2.095730   -0.546345    1.281766
      3          6           0        4.289993   -0.007030    0.428084
      4          6           0        3.785365    0.003699   -0.871834
      5          6           0        2.437596   -0.251654   -1.100455
      6          6           0        1.598844   -0.528533   -0.020935
      7          1           0        1.421846   -0.746174    2.104539
      8          1           0        3.832662   -0.281393    2.513394
      9          1           0        5.340334    0.196520    0.602863
     10          1           0        4.441045    0.214649   -1.708710
     11          1           0        2.031792   -0.238852   -2.103795
     12          7           0        0.206924   -0.810176   -0.261264
     13          7           0       -0.205352   -1.974267   -0.909237
     14          8           0        0.682383   -2.692937   -1.275042
     15         15           0       -1.009385    0.224140    0.349429
     16          8           0       -0.966092    0.395378    1.805604
     17          8           0       -0.739387    1.515445   -0.524137
     18          6           0       -1.241109    2.819803   -0.110606
     19          6           0       -0.405645    3.879401   -0.797213
     20          1           0       -1.174327    2.888336    0.976932
     21          1           0       -2.291255    2.882532   -0.407225
     22          1           0        0.640500    3.801596   -0.494977
     23          1           0       -0.773189    4.872529   -0.524722
     24          1           0       -0.463167    3.775180   -1.882616
     25          8           0       -2.356112   -0.345220   -0.248681
     26          6           0       -3.135699   -1.374803    0.430707
     27          6           0       -4.580813   -1.225507    0.004743
     28          1           0       -3.012900   -1.247720    1.508097
     29          1           0       -2.723469   -2.339408    0.129899
     30          1           0       -4.979266   -0.255193    0.308588
     31          1           0       -5.183861   -2.008559    0.472523
     32          1           0       -4.675716   -1.318262   -1.079004
 ---------------------------------------------------------------------

 SCF Done:  E(RHF) =  -1140.41987288     A.U. after    2 cycles

 The electronic state is 1-A.
 Alpha  occ. eigenvalues -- -105.32253 -21.11009 -21.08174 -21.07948 -21.02095
 Alpha  occ. eigenvalues --  -15.90149 -15.77867 -11.53808 -11.46358 -11.45743
 Alpha  occ. eigenvalues --  -11.45552 -11.43763 -11.42059 -11.41220 -11.38033
 Alpha  occ. eigenvalues --  -11.37894 -11.37172  -2.94984  -2.00409  -1.94874
 Alpha  occ. eigenvalues --   -1.88701  -1.82747  -1.63169  -1.43982  -1.39810
 Alpha  occ. eigenvalues --   -1.30851  -1.26335  -1.12403  -1.11073  -1.10601
 Alpha  occ. eigenvalues --   -1.10033  -0.94320  -0.88871  -0.88160  -0.87752
 Alpha  occ. eigenvalues --   -0.81126  -0.73165  -0.70420  -0.66588  -0.66358
 Alpha  occ. eigenvalues --   -0.66135  -0.63344  -0.61249  -0.60290  -0.59704
 Alpha  occ. eigenvalues --   -0.58778  -0.55758  -0.55441  -0.54748  -0.54169
 Alpha  occ. eigenvalues --   -0.52369  -0.52061  -0.51010  -0.48742  -0.48265
 Alpha  occ. eigenvalues --   -0.46322  -0.45524  -0.40343  -0.40089  -0.38108
 Alpha  occ. eigenvalues --   -0.35144  -0.34191  -0.33748  -0.33195  -0.30202
 Alpha  occ. eigenvalues --   -0.27110  -0.25681  -0.16146
 Alpha virt. eigenvalues --    0.03641   0.04520   0.04794   0.05140   0.05274
 Alpha virt. eigenvalues --    0.05554   0.06152   0.06412   0.06564   0.06809
 Alpha virt. eigenvalues --    0.07254   0.07506   0.08090   0.08372   0.08802

 Mulliken charges:
               1
     1  C   -0.517004
     2  C   -2.886358
     3  C   -2.828614
     4  C   -0.677949
     5  C   -2.752065
     6  C    3.967952
     7  H    2.121528
     8  H    1.591109
     9  H    1.589309
    10  H    1.598065
    11  H    1.957501
    12  N   -3.536725
    13  N    1.009532
    14  O   -2.080829
    15  P   11.958193
    16  O   -3.395660
    17  O   -4.421896
    18  C   -2.474010
    19  C   -4.039377
    20  H    1.802720
    21  H    1.597527
    22  H    1.404992
    23  H    1.127965
    24  H    1.369695
    25  O   -3.903601
    26  C   -2.704068
    27  C   -4.115861
    28  H    1.690606
    29  H    1.741254
    30  H    1.332274
    31  H    1.123580
    32  H    1.350214
 Sum of Mulliken charges =  -0.00000

 Dipole moment (field-independent basis, Debye):
    X=              0.2604    Y=              1.0801    Z=             -2.1646  Tot=              2.4331

 Test job not archived.
 1\1\GINC-SE184\SP\RHF\Aug-CC-pVDZ\C10H15N2O4P1\OHZDE\08-Apr-2025\0\\#t
  hf aug-cc-pvdz iop(5/13=1,5/36=2,99/5=2) pseudo=read geom=check guess
 =(read,tcheck) scf=(maxcycle=1)\\title\\0,1\C,0,3.444472,-0.277049,1.5
 01464\C,0,2.09573,-0.546345,1.281766\C,0,4.289993,-0.00703,0.428084\C,
 0,3.785365,0.003699,-0.871834\C,0,2.437596,-0.251654,-1.100455\C,0,1.5
 98844,-0.528533,-0.020935\H,0,1.421846,-0.746174,2.104539\H,0,3.832662
 ,-0.281393,2.513394\H,0,5.340334,0.19652,0.602863\H,0,4.441045,0.21464
 9,-1.70871\H,0,2.031792,-0.238852,-2.103795\N,0,0.206924,-0.810176,-0.

 Normal termination of Gaussian 16 at Tue Apr  8 23:10:47 2025.
