 Gaussian 16, Revision C.01,

 ----------------------------------------------------------------------
 #t hf aug-cc-pvdz symm=none int=(grid=ultrafine) guess=(read,tcheck) s
 table=(opt,rrhf)
 ----------------------------------------------------------------------
 -----
 title
 -----
 Symbolic Z-matrix:
 Charge =  0 Multiplicity = 1

 SCF Done:  E(RHF) =  -851.803370870     A.U. after   16 cycles
 Normal termination of Gaussian 16 at Tue Apr  8 23:30:48 2025.
 Gaussian 16:  ES64L-G16RevC.01  3-Jul-2019

 ----------------------------------------------------------------------
 #t hf aug-cc-pvdz iop(5/13=1,5/36=2,99/5=2) pseudo=read geom=check gue
 ss=(read,tcheck) scf=(maxcycle=1)
 ----------------------------------------------------------------------
 -----
 title
 -----
 Structure from the checkpoint file:  "BDE49_nonexpt_1324_mol1.chk"
 Charge =  0 Multiplicity = 1

                         Standard orientation:
 ---------------------------------------------------------------------
 Center     Atomic      Atomic             Coordinates (Angstroms)
 Number     Number       Type             X           Y           Z
 ---------------------------------------------------------------------
      1          6           0        1.982307   -1.209804    0.036176
      2          6           0        0.598556   -1.179236    0.023919
      3          6           0        2.726100   -0.014677    0.012822
      4          6           0        2.033431    1.207440   -0.020077
      5          6           0        0.647322    1.231586   -0.033060
      6          6           0       -0.090370    0.041597   -0.012933
      7          1           0        0.117763    2.176279   -0.062946
      8          1           0        2.502843   -2.161562    0.067316
      9          1           0        0.045570   -2.111022    0.040066
     10         15           0       -1.870106    0.132301   -0.016702
     11          8           0       -2.422544    1.494079    0.031005
     12          8           0       -2.411125   -0.816566    1.182852
     13          7           0        4.108895   -0.044446    0.077786
     14          1           0        4.556331   -0.902103   -0.206570
     15          1           0        4.593137    0.782422   -0.236053
     16          1           0        2.590942    2.138342   -0.033899
     17          1           0       -2.598809   -0.293615    1.971231
     18          8           0       -2.253204   -0.787482   -1.275074
     19          1           0       -3.207543   -0.883813   -1.384477
 ---------------------------------------------------------------------

 SCF Done:  E(RHF) =  -854.295331333     A.U. after    2 cycles

 The electronic state is 1-A.
 Alpha  occ. eigenvalues -- -105.29343 -21.10494 -21.10184 -21.00810 -15.77456
 Alpha  occ. eigenvalues --  -11.53006 -11.46396 -11.44616 -11.42610 -11.41329
 Alpha  occ. eigenvalues --  -11.37267  -2.91604  -1.96578  -1.87314  -1.80319
 Alpha  occ. eigenvalues --   -1.55379  -1.41986  -1.39024  -1.27406  -1.24102
 Alpha  occ. eigenvalues --   -1.10519  -1.04650  -0.88697  -0.84594  -0.72288
 Alpha  occ. eigenvalues --   -0.69176  -0.69142  -0.63532  -0.60066  -0.59019
 Alpha  occ. eigenvalues --   -0.56216  -0.55437  -0.54106  -0.50997  -0.45748
 Alpha  occ. eigenvalues --   -0.45235  -0.43407  -0.40063  -0.34349  -0.33751
 Alpha  occ. eigenvalues --   -0.33188  -0.29303  -0.28124  -0.24351  -0.14560
 Alpha virt. eigenvalues --    0.03053   0.04695   0.04784   0.05712   0.06320
 Alpha virt. eigenvalues --    0.06943   0.07607   0.09041   0.09292   0.11067
 Alpha virt. eigenvalues --    0.11704   0.11981   0.12239   0.12752   0.13026

 Mulliken charges:
               1
     1  C   -1.638958
     2  C    0.524612
     3  C    1.913461
     4  C   -2.149090
     5  C   -3.416529
     6  C   -2.155006
     7  H    1.938613
     8  H    1.720032
     9  H    1.654030
    10  P    9.454894
    11  O   -2.905741
    12  O   -2.713848
    13  N   -4.095474
    14  H    0.657951
    15  H    0.658393
    16  H    1.781196
    17  H    0.711911
    18  O   -2.862154
    19  H    0.921707
 Sum of Mulliken charges =   0.00000

 Dipole moment (field-independent basis, Debye):
    X=              3.7987    Y=             -2.8049    Z=             -0.4663  Tot=              4.7449

 Test job not archived.
 1\1\GINC-SE250\SP\RHF\Aug-CC-pVDZ\C6H8N1O3P1\OHZDE\08-Apr-2025\0\\#t h
 f aug-cc-pvdz iop(5/13=1,5/36=2,99/5=2) pseudo=read geom=check guess=(
 read,tcheck) scf=(maxcycle=1)\\title\\0,1\C,0,1.982307,-1.209804,0.036
 176\C,0,0.598556,-1.179236,0.023919\C,0,2.7261,-0.014677,0.012822\C,0,
 2.033431,1.20744,-0.020077\C,0,0.647322,1.231586,-0.03306\C,0,-0.09037
 ,0.041597,-0.012933\H,0,0.117763,2.176279,-0.062946\H,0,2.502843,-2.16
 1562,0.067316\H,0,0.04557,-2.111022,0.040066\P,0,-1.870106,0.132301,-0
 .016702\O,0,-2.422544,1.494079,0.031005\O,0,-2.411125,-0.816566,1.1828

 Normal termination of Gaussian 16 at Tue Apr  8 23:31:00 2025.
