 Gaussian 16, Revision C.01,

 ----------------------------------------------------------------------
 #t hf aug-cc-pvdz symm=none int=(grid=ultrafine) guess=(read,tcheck) s
 table=(opt,rrhf)
 ----------------------------------------------------------------------
 -----
 title
 -----
 Symbolic Z-matrix:
 Charge =  0 Multiplicity = 1

 SCF Done:  E(RHF) =  -1168.59352890     A.U. after   16 cycles
 Normal termination of Gaussian 16 at Tue Apr  8 23:12:14 2025.
 Gaussian 16:  ES64L-G16RevC.01  3-Jul-2019

 ----------------------------------------------------------------------
 #t hf aug-cc-pvdz iop(5/13=1,5/36=2,99/5=2) pseudo=read geom=check gue
 ss=(read,tcheck) scf=(maxcycle=1)
 ----------------------------------------------------------------------
 -----
 title
 -----
 Structure from the checkpoint file:  "BDE49_expt_473_mol1.chk"
 Charge =  0 Multiplicity = 1

                         Standard orientation:
 ---------------------------------------------------------------------
 Center     Atomic      Atomic             Coordinates (Angstroms)
 Number     Number       Type             X           Y           Z
 ---------------------------------------------------------------------
      1          6           0       -2.331510    1.795377   -0.407094
      2          6           0       -3.205925    0.716330   -0.438945
      3          6           0       -2.785925   -0.573067   -0.064861
      4          6           0       -1.006752    1.633007   -0.008683
      5          6           0       -0.598456    0.351011    0.354052
      6          6           0       -1.453005   -0.746736    0.335737
      7          1           0       -2.689293    2.777886   -0.691881
      8          1           0       -4.232907    0.866335   -0.755657
      9          7           0       -3.649833   -1.654168   -0.140980
     10          1           0       -4.635772   -1.445149   -0.109821
     11          1           0       -3.399997   -2.468190    0.399337
     12         16           0        1.083243    0.099519    0.879126
     13          1           0       -0.317755    2.464364    0.038480
     14          6           0        1.955724   -0.270692   -0.745723
     15          1           0       -1.087642   -1.718068    0.645169
     16          8           0        1.174053   -1.121877    1.643682
     17          8           0        1.641015    1.349727    1.334443
     18          9           0        3.245375   -0.487603   -0.494820
     19          9           0        1.837659    0.762089   -1.584222
     20          9           0        1.429727   -1.357205   -1.318367
 ---------------------------------------------------------------------

 SCF Done:  E(RHF) =  -1172.00530735     A.U. after    2 cycles

 The electronic state is 1-A.
 Alpha  occ. eigenvalues --  -75.91331 -29.33858 -29.33812 -29.33657 -21.07013
 Alpha  occ. eigenvalues --  -21.06966 -15.78345 -13.54746 -13.44160 -13.39081
 Alpha  occ. eigenvalues --  -11.61673 -11.55232 -11.49075 -11.47385 -11.45067
 Alpha  occ. eigenvalues --  -11.44604 -11.40148  -8.26570  -1.85485  -1.67648
 Alpha  occ. eigenvalues --   -1.44610  -1.43119  -1.30560  -1.15472  -1.09374
 Alpha  occ. eigenvalues --   -1.02140  -0.92065  -0.91546  -0.89989  -0.87986
 Alpha  occ. eigenvalues --   -0.77059  -0.73140  -0.70429  -0.67029  -0.61755
 Alpha  occ. eigenvalues --   -0.61259  -0.59142  -0.56782  -0.51651  -0.50713
 Alpha  occ. eigenvalues --   -0.49388  -0.47712  -0.47403  -0.46646  -0.46085
 Alpha  occ. eigenvalues --   -0.44986  -0.41977  -0.39314  -0.38764  -0.38488
 Alpha  occ. eigenvalues --   -0.37355  -0.36984  -0.30337  -0.28099  -0.27684
 Alpha  occ. eigenvalues --   -0.26046  -0.23585
 Alpha virt. eigenvalues --    0.02694   0.04265   0.04509   0.06032   0.06582
 Alpha virt. eigenvalues --    0.07174   0.08786   0.09214   0.09839   0.10998
 Alpha virt. eigenvalues --    0.11389   0.12297   0.12555   0.12752   0.12913

 Mulliken charges:
               1
     1  C    0.433013
     2  C   -3.242955
     3  C    3.114026
     4  C   -3.989419
     5  C    2.742231
     6  C   -3.429552
     7  H    1.516344
     8  H    1.720168
     9  N   -4.134204
    10  H    0.651928
    11  H    0.677247
    12  S    5.982383
    13  H    1.787254
    14  C   -0.983555
    15  H    1.865304
    16  O   -2.877630
    17  O   -2.900048
    18  F    0.432092
    19  F    0.320236
    20  F    0.315136
 Sum of Mulliken charges =   0.00000

 Dipole moment (field-independent basis, Debye):
    X=             -3.1615    Y=             -0.9760    Z=             -2.7688  Tot=              4.3144

 Test job not archived.
 1\1\GINC-SE364\SP\RHF\Aug-CC-pVDZ\C7H6F3N1O2S1\OHZDE\08-Apr-2025\0\\#t
  hf aug-cc-pvdz iop(5/13=1,5/36=2,99/5=2) pseudo=read geom=check guess
 =(read,tcheck) scf=(maxcycle=1)\\title\\0,1\C,0,-2.33151,1.795377,-0.4
 07094\C,0,-3.205925,0.71633,-0.438945\C,0,-2.785925,-0.573067,-0.06486
 1\C,0,-1.006752,1.633007,-0.008683\C,0,-0.598456,0.351011,0.354052\C,0
 ,-1.453005,-0.746736,0.335737\H,0,-2.689293,2.777886,-0.691881\H,0,-4.
 232907,0.866335,-0.755657\N,0,-3.649833,-1.654168,-0.14098\H,0,-4.6357
 72,-1.445149,-0.109821\H,0,-3.399997,-2.46819,0.399337\S,0,1.083243,0.

 Normal termination of Gaussian 16 at Tue Apr  8 23:12:30 2025.
