 Gaussian 16, Revision C.01,

 ----------------------------------------------------------------------
 #t hf aug-cc-pvdz symm=none int=(grid=ultrafine) guess=(read,tcheck) s
 table=(opt,rrhf)
 ----------------------------------------------------------------------
 -----
 title
 -----
 Symbolic Z-matrix:
 Charge =  0 Multiplicity = 1

 SCF Done:  E(RHF) =  -295.024317945     A.U. after   15 cycles
 Normal termination of Gaussian 16 at Wed Apr  9 00:37:42 2025.
 Gaussian 16:  ES64L-G16RevC.01  3-Jul-2019

 ----------------------------------------------------------------------
 #t hf aug-cc-pvdz iop(5/13=1,5/36=2,99/5=2) pseudo=read geom=check gue
 ss=(read,tcheck) scf=(maxcycle=1)
 ----------------------------------------------------------------------
 -----
 title
 -----
 Structure from the checkpoint file:  "BDE49_nonexpt_530_mol1.chk"
 Charge =  0 Multiplicity = 1

                         Standard orientation:
 ---------------------------------------------------------------------
 Center     Atomic      Atomic             Coordinates (Angstroms)
 Number     Number       Type             X           Y           Z
 ---------------------------------------------------------------------
      1          1           0        2.747469    1.509925   -0.000005
      2          1           0        1.349130    3.006573   -0.000006
      3          5           0        1.602432    1.839788    0.000003
      4          6           0        0.448579    0.825955    0.000001
      5          6           0        0.632130   -0.586677   -0.000000
      6          6           0       -0.489448   -1.416260   -0.000001
      7          6           0       -1.781863   -0.891039   -0.000001
      8          6           0       -0.872747    1.324209    0.000001
      9          1           0       -1.015790    2.399577    0.000002
     10          6           0       -1.981210    0.486734   -0.000000
     11          1           0       -2.984424    0.897357   -0.000000
     12          1           0       -0.355078   -2.493045   -0.000002
     13          6           0        2.007051   -1.213777   -0.000000
     14          1           0        2.584796   -0.913618    0.877718
     15          1           0        2.584796   -0.913617   -0.877717
     16          1           0        1.934978   -2.303034   -0.000000
     17          1           0       -2.632991   -1.563928   -0.000002
 ---------------------------------------------------------------------

 SCF Done:  E(RHF) =  -296.465658559     A.U. after    2 cycles

 The electronic state is 1-A.
 Alpha  occ. eigenvalues --  -11.50970 -11.44367 -11.42938 -11.40791 -11.39907
 Alpha  occ. eigenvalues --  -11.38526 -11.35272  -7.63640  -1.35364  -1.14516
 Alpha  occ. eigenvalues --   -1.10589  -0.99890  -0.90026  -0.84103  -0.78161
 Alpha  occ. eigenvalues --   -0.68203  -0.62462  -0.61065  -0.57453  -0.56306
 Alpha  occ. eigenvalues --   -0.52413  -0.50745  -0.48688  -0.46899  -0.41913
 Alpha  occ. eigenvalues --   -0.39647  -0.33913  -0.32051
 Alpha virt. eigenvalues --    0.03338   0.04192   0.04300   0.04397   0.05276
 Alpha virt. eigenvalues --    0.05695   0.06812   0.07297   0.07393   0.07976
 Alpha virt. eigenvalues --    0.08727   0.10559   0.11734   0.11940   0.12494

 Mulliken charges:
               1
     1  H   -3.787367
     2  H   -4.141411
     3  B    6.128345
     4  C   -0.644127
     5  C    5.566445
     6  C   -1.710828
     7  C   -1.626561
     8  C   -1.642805
     9  H    1.810367
    10  C   -2.370280
    11  H    1.568509
    12  H    1.828751
    13  C   -5.971128
    14  H    1.093202
    15  H    1.093206
    16  H    1.295341
    17  H    1.510343
 Sum of Mulliken charges =   0.00000

 Dipole moment (field-independent basis, Debye):
    X=             -0.9621    Y=             -1.1994    Z=              0.0000  Tot=              1.5376

 Test job not archived.
 1\1\GINC-SE083\SP\RHF\Aug-CC-pVDZ\C7H9B1\OHZDE\09-Apr-2025\0\\#t hf au
 g-cc-pvdz iop(5/13=1,5/36=2,99/5=2) pseudo=read geom=check guess=(read
 ,tcheck) scf=(maxcycle=1)\\title\\0,1\H,0,-2.747469,1.509924,0.000005\
 H,0,-1.349131,3.006573,0.000006\B,0,-1.602432,1.839788,-0.000003\C,0,-
 0.448579,0.825955,-0.000001\C,0,-0.63213,-0.586677,0.\C,0,0.489448,-1.
 41626,0.000001\C,0,1.781863,-0.891039,0.000001\C,0,0.872747,1.324209,-
 0.000001\H,0,1.01579,2.399577,-0.000002\C,0,1.98121,0.486734,0.\H,0,2.
 984424,0.897358,0.\H,0,0.355079,-2.493045,0.000002\C,0,-2.007051,-1.21

 Normal termination of Gaussian 16 at Wed Apr  9 00:37:50 2025.
