 Gaussian 16, Revision C.01,

 ----------------------------------------------------------------------
 #t hf aug-cc-pvdz symm=none int=(grid=ultrafine) guess=(read,tcheck) s
 table=(opt,rrhf)
 ----------------------------------------------------------------------
 -----
 title
 -----
 Symbolic Z-matrix:
 Charge =  0 Multiplicity = 1

 SCF Done:  E(RHF) =  -796.936072909     A.U. after   17 cycles
 Normal termination of Gaussian 16 at Tue Apr  8 23:11:33 2025.
 Gaussian 16:  ES64L-G16RevC.01  3-Jul-2019

 ----------------------------------------------------------------------
 #t hf aug-cc-pvdz iop(5/13=1,5/36=2,99/5=2) pseudo=read geom=check gue
 ss=(read,tcheck) scf=(maxcycle=1)
 ----------------------------------------------------------------------
 -----
 title
 -----
 Structure from the checkpoint file:  "BDE49_expt_551_mol1.chk"
 Charge =  0 Multiplicity = 1

                         Standard orientation:
 ---------------------------------------------------------------------
 Center     Atomic      Atomic             Coordinates (Angstroms)
 Number     Number       Type             X           Y           Z
 ---------------------------------------------------------------------
      1          6           0       -1.580341   -1.541209   -0.000001
      2          6           0       -2.917082   -1.181819   -0.000001
      3          6           0       -3.297873    0.168548    0.000002
      4          6           0       -2.329158    1.155805    0.000005
      5          6           0       -0.962682    0.823802    0.000006
      6          6           0       -0.595498   -0.542009    0.000003
      7          7           0        0.747203   -0.860035    0.000005
      8          6           0        1.792220    0.031744    0.000018
      9          1           0       -4.347860    0.434324    0.000002
     10          1           0        1.018120   -1.835720   -0.000000
     11          1           0       -3.676054   -1.955443   -0.000003
     12          1           0       -2.611754    2.202871    0.000005
     13         16           0        3.375773   -0.500834   -0.000015
     14          6           0        0.095738    1.793984    0.000003
     15          6           0        1.399937    1.420913    0.000002
     16          1           0       -0.168411    2.846525   -0.000001
     17          1           0        2.199553    2.148092   -0.000007
     18          1           0       -1.287940   -2.585620   -0.000004
 ---------------------------------------------------------------------

 SCF Done:  E(RHF) =  -799.040197147     A.U. after    2 cycles

 The electronic state is 1-A.
 Alpha  occ. eigenvalues --  -75.62847 -15.81462 -13.14221 -12.99369 -12.93872
 Alpha  occ. eigenvalues --  -11.55280 -11.51930 -11.50175 -11.48486 -11.46179
 Alpha  occ. eigenvalues --  -11.44303 -11.43732 -11.42445 -11.39774  -7.96904
 Alpha  occ. eigenvalues --   -1.52882  -1.33469  -1.23611  -1.15990  -1.10449
 Alpha  occ. eigenvalues --   -1.04127  -0.93271  -0.90331  -0.88859  -0.76664
 Alpha  occ. eigenvalues --   -0.74611  -0.68876  -0.66166  -0.62472  -0.61421
 Alpha  occ. eigenvalues --   -0.60796  -0.57321  -0.54254  -0.50200  -0.49486
 Alpha  occ. eigenvalues --   -0.46005  -0.43923  -0.42584  -0.36884  -0.32994
 Alpha  occ. eigenvalues --   -0.21808  -0.21034
 Alpha virt. eigenvalues --    0.02379   0.04259   0.04421   0.05320   0.05797
 Alpha virt. eigenvalues --    0.06723   0.07227   0.07702   0.08521   0.09486
 Alpha virt. eigenvalues --    0.09907   0.10080   0.10637   0.11577   0.11742

 Mulliken charges:
               1
     1  C   -3.688131
     2  C   -2.230567
     3  C   -2.846709
     4  C   -1.048575
     5  C    6.441854
     6  C    1.172854
     7  N   -4.952932
     8  C   -1.700390
     9  H    1.505115
    10  H    0.680314
    11  H    1.472463
    12  H    1.717209
    13  S    0.620915
    14  C    0.410523
    15  C   -2.676616
    16  H    1.767523
    17  H    1.619675
    18  H    1.735475
 Sum of Mulliken charges =  -0.00000

 Dipole moment (field-independent basis, Debye):
    X=             -2.9846    Y=             -0.0882    Z=             -0.0001  Tot=              2.9859

 Test job not archived.
 1\1\GINC-SE340\SP\RHF\Aug-CC-pVDZ\C9H7N1S1\OHZDE\08-Apr-2025\0\\#t hf
 aug-cc-pvdz iop(5/13=1,5/36=2,99/5=2) pseudo=read geom=check guess=(re
 ad,tcheck) scf=(maxcycle=1)\\title\\0,1\C,0,-1.580341,-1.541209,-0.000
 001\C,0,-2.917082,-1.181819,-0.000001\C,0,-3.297873,0.168548,0.000002\
 C,0,-2.329158,1.155805,0.000005\C,0,-0.962682,0.823802,0.000006\C,0,-0
 .595498,-0.542009,0.000003\N,0,0.747203,-0.860035,0.000005\C,0,1.79222
 ,0.031744,0.000018\H,0,-4.34786,0.434324,0.000002\H,0,1.01812,-1.83572
 ,0.\H,0,-3.676054,-1.955443,-0.000003\H,0,-2.611754,2.202871,0.000005\

 Normal termination of Gaussian 16 at Tue Apr  8 23:11:42 2025.
