 Gaussian 16, Revision C.01,

 ----------------------------------------------------------------------
 #t hf aug-cc-pvdz symm=none int=(grid=ultrafine) guess=(read,tcheck) s
 table=opt
 ----------------------------------------------------------------------
 -----
 title
 -----
 Symbolic Z-matrix:
 Charge =  0 Multiplicity = 2

 SCF Done:  E(UHF) =  -406.546666032     A.U. after   16 cycles

 1\1\GINC-SE250\Stability\UHF\Aug-CC-pVDZ\C3H7Si1\OHZDE\09-Apr-2025\0\\
 #t hf aug-cc-pvdz symm=none int=(grid=ultrafine) guess=(read,tcheck) s
 table=opt\\title\\0,2\C,0,0.265374,0.044176,-0.570792\C,0,1.393367,-0.
 731554,0.088972\C,0,1.329132,0.753804,0.269492\H,0,2.163819,-1.139305,
 -0.554856\H,0,1.152905,-1.357213,0.941686\H,0,1.041328,1.140093,1.2403
 12\H,0,2.044842,1.371122,-0.261527\Si,0,-1.491607,-0.1022,0.029993\H,0
 ,-1.500509,-0.225405,1.513677\H,0,-2.32171,1.062494,-0.382105\H,0,0.37
 4591,0.180463,-1.643129\\Version=ES64L-G16RevC.01\HF=-406.546666\S2=0.

 Normal termination of Gaussian 16 at Wed Apr  9 00:48:03 2025.
 Gaussian 16:  ES64L-G16RevC.01  3-Jul-2019

 ----------------------------------------------------------------------
 #t hf aug-cc-pvdz iop(5/13=1,5/36=2,99/5=2) pseudo=read geom=check gue
 ss=(read,tcheck) scf=(maxcycle=1)
 ----------------------------------------------------------------------
 -----
 title
 -----
 Structure from the checkpoint file:  "BDE49_nonexpt_846_mol2.chk"
 Charge =  0 Multiplicity = 2

                         Standard orientation:
 ---------------------------------------------------------------------
 Center     Atomic      Atomic             Coordinates (Angstroms)
 Number     Number       Type             X           Y           Z
 ---------------------------------------------------------------------
      1          6           0        0.265374    0.044176   -0.570792
      2          6           0        1.393367   -0.731554    0.088972
      3          6           0        1.329132    0.753804    0.269492
      4          1           0        2.163819   -1.139305   -0.554856
      5          1           0        1.152905   -1.357213    0.941686
      6          1           0        1.041328    1.140093    1.240312
      7          1           0        2.044842    1.371122   -0.261527
      8         14           0       -1.491607   -0.102200    0.029993
      9          1           0       -1.500509   -0.225405    1.513677
     10          1           0       -2.321710    1.062494   -0.382105
     11          1           0        0.374591    0.180463   -1.643129
 ---------------------------------------------------------------------

 SCF Done:  E(UHF) =  -407.281109445     A.U. after    2 cycles

 The electronic state is 2-A.
 Alpha  occ. eigenvalues --  -76.21827 -11.41169 -11.40139 -11.35757  -5.55279
 Alpha  occ. eigenvalues --   -2.19339  -2.17432  -2.16493  -1.29414  -0.87010
 Alpha  occ. eigenvalues --   -0.86260  -0.74173  -0.66599  -0.60092  -0.51156
 Alpha  occ. eigenvalues --   -0.47851  -0.44322  -0.41855  -0.38389  -0.25962
 Alpha virt. eigenvalues --    0.03963   0.05465   0.05618   0.05849   0.06324
 Alpha virt. eigenvalues --    0.06515   0.07753   0.08083   0.09119   0.10425
 Alpha virt. eigenvalues --    0.12469   0.13371   0.13572   0.14491   0.15380

  Beta  occ. eigenvalues --  -76.21288 -11.41101 -11.40082 -11.35709  -5.54434
  Beta  occ. eigenvalues --   -2.18599  -2.16811  -2.13123  -1.29091  -0.86082
  Beta  occ. eigenvalues --   -0.85994  -0.71367  -0.65955  -0.59485  -0.51057
  Beta  occ. eigenvalues --   -0.47085  -0.44009  -0.40570  -0.37799
  Beta virt. eigenvalues --    0.03872   0.04414   0.05585   0.05822   0.05876
  Beta virt. eigenvalues --    0.06501   0.07154   0.07839   0.09331   0.10094
  Beta virt. eigenvalues --    0.10822   0.12906   0.13490   0.13701   0.14999

 Mulliken charges and spin densities:
               1          2
     1  C   -2.080783  -0.080000
     2  C   -2.315753   0.016199
     3  C   -2.346769   0.055135
     4  H    1.218692  -0.003701
     5  H    1.178272  -0.005019
     6  H    1.258917  -0.015259
     7  H    1.200382  -0.002086
     8  Si   3.662711   1.042670
     9  H   -1.517180  -0.010465
    10  H   -1.533259   0.017402
    11  H    1.274769  -0.014877
 Sum of Mulliken charges =  -0.00000   1.00000

 Dipole moment (field-independent basis, Debye):
    X=              1.1727    Y=             -0.1328    Z=             -0.5067  Tot=              1.2844
                          Isotropic Fermi Contact Couplings
        Atom                 a.u.       MegaHertz       Gauss      10(-4) cm-1
     1  C(13)              0.01274      14.31781       5.10895       4.77591
     2  C(13)             -0.00028      -0.31361      -0.11190      -0.10461
     3  C(13)              0.02144      24.10743       8.60213       8.04137
     4  H(1)              -0.00006      -0.28207      -0.10065      -0.09409
     5  H(1)               0.00034       1.51023       0.53889       0.50376
     6  H(1)              -0.00047      -2.09078      -0.74604      -0.69741
     7  H(1)               0.00074       3.28664       1.17275       1.09630
     8  Si(29)             0.46033    -409.10578    -145.97912    -136.46300

 Normal termination of Gaussian 16 at Wed Apr  9 00:48:06 2025.
