 Gaussian 16, Revision C.01,

 ----------------------------------------------------------------------
 #t hf aug-cc-pvdz symm=none int=(grid=ultrafine) guess=(read,tcheck) s
 table=opt
 ----------------------------------------------------------------------
 -----
 title
 -----
 Symbolic Z-matrix:
 Charge =  0 Multiplicity = 2

 SCF Done:  E(UHF) =  -158.922072635     A.U. after   16 cycles
 Normal termination of Gaussian 16 at Wed Apr  9 00:34:54 2025.
 Gaussian 16:  ES64L-G16RevC.01  3-Jul-2019

 ----------------------------------------------------------------------
 #t hf aug-cc-pvdz iop(5/13=1,5/36=2,99/5=2) pseudo=read geom=check gue
 ss=(read,tcheck) scf=(maxcycle=1)
 ----------------------------------------------------------------------
 -----
 title
 -----
 Structure from the checkpoint file:  "BDE49_nonexpt_453_mol2.chk"
 Charge =  0 Multiplicity = 2

                         Standard orientation:
 ---------------------------------------------------------------------
 Center     Atomic      Atomic             Coordinates (Angstroms)
 Number     Number       Type             X           Y           Z
 ---------------------------------------------------------------------
      1          1           0       -1.606671    1.878160    0.000000
      2          7           0       -0.039643    0.216974    0.000000
      3          5           0       -0.467370    1.526072    0.000000
      4          6           0       -0.948457   -0.933992   -0.000001
      5          1           0       -0.784030   -1.557203   -0.887003
      6          1           0       -1.980598   -0.587354   -0.000001
      7          1           0       -0.784031   -1.557203    0.887002
      8          6           0        1.373436   -0.158548    0.000000
      9          1           0        1.987692    0.740590    0.000001
     10          1           0        1.616057   -0.755463   -0.887254
     11          1           0        1.616056   -0.755464    0.887255
 ---------------------------------------------------------------------

 SCF Done:  E(UHF) =  -159.688174224     A.U. after    2 cycles

 The electronic state is 2-A.
 Alpha  occ. eigenvalues --  -15.70383 -11.39966 -11.39009  -7.61284  -1.41839
 Alpha  occ. eigenvalues --   -1.04373  -0.96717  -0.73103  -0.63253  -0.62077
 Alpha  occ. eigenvalues --   -0.58625  -0.54915  -0.50946  -0.48547  -0.35795
 Alpha  occ. eigenvalues --   -0.29612
 Alpha virt. eigenvalues --    0.03169   0.04386   0.04419   0.05357   0.06872
 Alpha virt. eigenvalues --    0.06955   0.07673   0.08064   0.09206   0.10268
 Alpha virt. eigenvalues --    0.12614   0.13794   0.14461   0.15144   0.16328

  Beta  occ. eigenvalues --  -15.70706 -11.39837 -11.38891  -7.59425  -1.41713
  Beta  occ. eigenvalues --   -1.04044  -0.95314  -0.71015  -0.63629  -0.61333
  Beta  occ. eigenvalues --   -0.56952  -0.54908  -0.50785  -0.47556  -0.36424
  Beta virt. eigenvalues --    0.03175   0.03801   0.04528   0.04961   0.06877
  Beta virt. eigenvalues --    0.06996   0.07677   0.08113   0.08767   0.09992
  Beta virt. eigenvalues --    0.10837   0.13572   0.14160   0.14658   0.15886

 Mulliken charges and spin densities:
               1          2
     1  H   -2.343738   0.062465
     2  N   -2.388334  -0.244654
     3  B    1.880151   1.054588
     4  C   -2.354467   0.021028
     5  H    1.400983  -0.005028
     6  H    1.364417   0.013814
     7  H    1.400982  -0.005028
     8  C   -3.144080   0.095884
     9  H    1.442428  -0.002054
    10  H    1.370829   0.004492
    11  H    1.370829   0.004492
 Sum of Mulliken charges =   0.00000   1.00000

 Dipole moment (field-independent basis, Debye):
    X=              0.1754    Y=             -2.0789    Z=             -0.0000  Tot=              2.0863
                          Isotropic Fermi Contact Couplings
        Atom                 a.u.       MegaHertz       Gauss      10(-4) cm-1
     1  H(1)               0.01565      69.95401      24.96133      23.33415
     2  N(14)              0.00021       0.06889       0.02458       0.02298
     3  B(11)              0.24204     347.17853     123.88193     115.80629
     4  C(13)              0.03034      34.10247      12.16861      11.37536
     5  H(1)              -0.00066      -2.96296      -1.05726      -0.98834
     6  H(1)               0.00020       0.90079       0.32142       0.30047
     7  H(1)              -0.00066      -2.96297      -1.05726      -0.98834
     8  C(13)              0.02362      26.55091       9.47402       8.85643

 Normal termination of Gaussian 16 at Wed Apr  9 00:34:56 2025.
