 Gaussian 16, Revision C.01,

 ----------------------------------------------------------------------
 #t hf aug-cc-pvdz symm=none int=(grid=ultrafine) guess=(read,tcheck) s
 table=(opt,rrhf)
 ----------------------------------------------------------------------
 -----
 title
 -----
 Symbolic Z-matrix:
 Charge =  0 Multiplicity = 1

 SCF Done:  E(RHF) =  -767.734948436     A.U. after   15 cycles

 1\1\GINC-SE334\Stability\RHF\Aug-CC-pVDZ\C8H9Cl1\OHZDE\08-Apr-2025\0\\
 #t hf aug-cc-pvdz symm=none int=(grid=ultrafine) guess=(read,tcheck) s
 table=(opt,rrhf)\\title\\0,1\C,0,-0.517135,-2.560825,1.20422\C,0,-0.51
 7135,-1.168097,1.202175\C,0,-0.5164,-3.261428,0.\C,0,-0.517135,-2.5608
 25,-1.20422\C,0,-0.517135,-1.168097,-1.202175\C,0,-0.517467,-0.452762,
 0.\H,0,-0.525931,-0.629157,2.144483\H,0,-0.523008,-3.098526,2.145781\H
 ,0,-0.519968,-4.345466,0.\H,0,-0.523008,-3.098526,-2.145781\H,0,-0.525
 931,-0.629157,-2.144483\C,0,-0.483023,1.061487,0.\C,0,0.957862,1.57062

 Normal termination of Gaussian 16 at Tue Apr  8 22:51:39 2025.
 Gaussian 16:  ES64L-G16RevC.01  3-Jul-2019

 ----------------------------------------------------------------------
 #t hf aug-cc-pvdz iop(5/13=1,5/36=2,99/5=2) pseudo=read geom=check gue
 ss=(read,tcheck) scf=(maxcycle=1)
 ----------------------------------------------------------------------
 -----
 title
 -----
 Structure from the checkpoint file:  "BDE49_expt_1702_mol1.chk"
 Charge =  0 Multiplicity = 1

                         Standard orientation:
 ---------------------------------------------------------------------
 Center     Atomic      Atomic             Coordinates (Angstroms)
 Number     Number       Type             X           Y           Z
 ---------------------------------------------------------------------
      1          6           0       -0.517135   -2.560825    1.204220
      2          6           0       -0.517135   -1.168097    1.202175
      3          6           0       -0.516400   -3.261428    0.000000
      4          6           0       -0.517135   -2.560825   -1.204220
      5          6           0       -0.517135   -1.168097   -1.202175
      6          6           0       -0.517467   -0.452762    0.000000
      7          1           0       -0.525931   -0.629157    2.144483
      8          1           0       -0.523008   -3.098526    2.145781
      9          1           0       -0.519968   -4.345466    0.000000
     10          1           0       -0.523008   -3.098526   -2.145781
     11          1           0       -0.525931   -0.629157   -2.144483
     12          6           0       -0.483023    1.061487   -0.000000
     13          6           0        0.957862    1.570629   -0.000000
     14          1           0        1.499344    1.248654    0.887831
     15         17           0        1.022545    3.390321   -0.000000
     16          1           0        1.499344    1.248654   -0.887831
     17          1           0       -0.999344    1.453788    0.879675
     18          1           0       -0.999344    1.453788   -0.879675
 ---------------------------------------------------------------------

 SCF Done:  E(RHF) =  -769.493812967     A.U. after    2 cycles

 The electronic state is 1-A'.
 Alpha  occ. eigenvalues --  -99.87352 -11.52479 -11.46198 -11.43958 -11.43793
 Alpha  occ. eigenvalues --  -11.41445 -11.40996 -11.40532 -11.36695 -10.44580
 Alpha  occ. eigenvalues --   -9.64507  -9.63782  -9.63724  -1.37462  -1.31202
 Alpha  occ. eigenvalues --   -1.16790  -1.09689  -1.05353  -0.91727  -0.87001
 Alpha  occ. eigenvalues --   -0.83385  -0.71424  -0.67337  -0.65925  -0.60959
 Alpha  occ. eigenvalues --   -0.59002  -0.58429  -0.58015  -0.53564  -0.51714
 Alpha  occ. eigenvalues --   -0.50411  -0.47112  -0.46965  -0.44570  -0.42910
 Alpha  occ. eigenvalues --   -0.33582  -0.32769
 Alpha virt. eigenvalues --    0.03045   0.04834   0.04935   0.05632   0.06199
 Alpha virt. eigenvalues --    0.06374   0.06526   0.07175   0.07723   0.08369
 Alpha virt. eigenvalues --    0.09357   0.11050   0.11197   0.12423   0.12493

 Mulliken charges:
               1
     1  C   -1.549037
     2  C   -2.283256
     3  C   -2.878674
     4  C   -1.549037
     5  C   -2.283256
     6  C    4.284069
     7  H    1.802033
     8  H    1.487796
     9  H    1.527890
    10  H    1.487796
    11  H    1.802033
    12  C   -3.765375
    13  C   -4.031811
    14  H    1.695948
    15  Cl  -0.049804
    16  H    1.695948
    17  H    1.303369
    18  H    1.303369
 Sum of Mulliken charges =  -0.00000

 Dipole moment (field-independent basis, Debye):
    X=             -0.4924    Y=             -2.8340    Z=             -0.0000  Tot=              2.8765

 Test job not archived.
 1\1\GINC-SE334\SP\RHF\Aug-CC-pVDZ\C8H9Cl1\OHZDE\08-Apr-2025\0\\#t hf a
 ug-cc-pvdz iop(5/13=1,5/36=2,99/5=2) pseudo=read geom=check guess=(rea
 d,tcheck) scf=(maxcycle=1)\\title\\0,1\C,0,-0.517135,-2.560825,1.20422
 \C,0,-0.517135,-1.168097,1.202175\C,0,-0.5164,-3.261428,0.\C,0,-0.5171
 35,-2.560825,-1.20422\C,0,-0.517135,-1.168097,-1.202175\C,0,-0.517467,
 -0.452762,0.\H,0,-0.525931,-0.629157,2.144483\H,0,-0.523008,-3.098526,
 2.145781\H,0,-0.519968,-4.345466,0.\H,0,-0.523008,-3.098526,-2.145781\
 H,0,-0.525931,-0.629157,-2.144483\C,0,-0.483023,1.061487,0.\C,0,0.9578

 Normal termination of Gaussian 16 at Tue Apr  8 22:51:44 2025.
