 Gaussian 16, Revision C.01,

 ----------------------------------------------------------------------
 #t hf aug-cc-pvdz symm=none int=(grid=ultrafine) guess=(read,tcheck) s
 table=(opt,rrhf)
 ----------------------------------------------------------------------
 -----
 title
 -----
 Symbolic Z-matrix:
 Charge =  0 Multiplicity = 1

 SCF Done:  E(RHF) =  -737.536035641     A.U. after   11 cycles
 Normal termination of Gaussian 16 at Tue Apr  8 23:13:32 2025.
 Gaussian 16:  ES64L-G16RevC.01  3-Jul-2019

 ----------------------------------------------------------------------
 #t hf aug-cc-pvdz iop(5/13=1,5/36=2,99/5=2) pseudo=read geom=check gue
 ss=(read,tcheck) scf=(maxcycle=1)
 ----------------------------------------------------------------------
 -----
 title
 -----
 Structure from the checkpoint file:  "BDE49_expt_802_mol1.chk"
 Charge =  0 Multiplicity = 1

                         Standard orientation:
 ---------------------------------------------------------------------
 Center     Atomic      Atomic             Coordinates (Angstroms)
 Number     Number       Type             X           Y           Z
 ---------------------------------------------------------------------
      1         14           0       -0.313409    1.141533   -0.000000
      2         14           0        0.313409   -1.141533   -0.000000
      3          6           0        0.313409    2.027487    1.548852
      4          1           0       -1.803844    1.213805    0.000000
      5          6           0        0.313409    2.027487   -1.548852
      6          6           0       -0.313409   -2.027487   -1.548852
      7          6           0       -0.313409   -2.027487    1.548852
      8          1           0        1.803844   -1.213805    0.000000
      9          1           0        1.405518    1.998724   -1.605385
     10          1           0        0.005467    3.077559   -1.547107
     11          1           0       -0.081178    1.566619   -2.458540
     12          1           0       -0.081178    1.566619    2.458540
     13          1           0        0.005467    3.077559    1.547107
     14          1           0        1.405518    1.998724    1.605385
     15          1           0       -1.405518   -1.998724    1.605385
     16          1           0        0.081178   -1.566619    2.458540
     17          1           0       -0.005467   -3.077559    1.547107
     18          1           0       -1.405518   -1.998724   -1.605385
     19          1           0       -0.005467   -3.077559   -1.547107
     20          1           0        0.081178   -1.566619   -2.458540
 ---------------------------------------------------------------------

 SCF Done:  E(RHF) =  -738.713617053     A.U. after    2 cycles

 The electronic state is 1-AG.
 Alpha  occ. eigenvalues --  -76.18904 -76.18890 -11.34420 -11.34403 -11.34299
 Alpha  occ. eigenvalues --  -11.34187  -5.52690  -5.52683  -2.16501  -2.16317
 Alpha  occ. eigenvalues --   -2.15628  -2.15457  -2.14616  -2.13649  -1.05966
 Alpha  occ. eigenvalues --   -1.04745  -1.00703  -1.00096  -0.72177  -0.64346
 Alpha  occ. eigenvalues --   -0.56490  -0.56210  -0.56084  -0.55308  -0.54676
 Alpha  occ. eigenvalues --   -0.54228  -0.54222  -0.53547  -0.43327  -0.41925
 Alpha  occ. eigenvalues --   -0.40285  -0.38371  -0.30898
 Alpha virt. eigenvalues --    0.03541   0.04234   0.04521   0.05789   0.06189
 Alpha virt. eigenvalues --    0.06551   0.06777   0.06807   0.07093   0.07364
 Alpha virt. eigenvalues --    0.07523   0.08146   0.08239   0.08846   0.08963

 Mulliken charges:
               1
     1  Si   5.346893
     2  Si   5.346893
     3  C   -5.346672
     4  H   -2.409544
     5  C   -5.346672
     6  C   -5.346672
     7  C   -5.346672
     8  H   -2.409544
     9  H    1.342023
    10  H    1.230717
    11  H    1.305257
    12  H    1.305257
    13  H    1.230717
    14  H    1.342023
    15  H    1.342023
    16  H    1.305257
    17  H    1.230717
    18  H    1.342023
    19  H    1.230717
    20  H    1.305257
 Sum of Mulliken charges =  -0.00000

 Dipole moment (field-independent basis, Debye):
    X=              0.0000    Y=             -0.0000    Z=              0.0000  Tot=              0.0000

 Test job not archived.
 1\1\GINC-SE454\SP\RHF\Aug-CC-pVDZ\C4H14Si2\OHZDE\08-Apr-2025\0\\#t hf
 aug-cc-pvdz iop(5/13=1,5/36=2,99/5=2) pseudo=read geom=check guess=(re
 ad,tcheck) scf=(maxcycle=1)\\title\\0,1\Si,0,-0.313409,1.141533,0.\Si,
 0,0.313409,-1.141533,0.\C,0,0.313409,2.027487,1.548852\H,0,-1.803844,1
 .213805,0.\C,0,0.313409,2.027487,-1.548852\C,0,-0.313409,-2.027487,-1.
 548852\C,0,-0.313409,-2.027487,1.548852\H,0,1.803844,-1.213805,0.\H,0,
 1.405518,1.998724,-1.605385\H,0,0.005467,3.077559,-1.547107\H,0,-0.081
 178,1.566619,-2.45854\H,0,-0.081178,1.566619,2.45854\H,0,0.005467,3.07

 Normal termination of Gaussian 16 at Tue Apr  8 23:13:38 2025.
