 Gaussian 16, Revision C.01,

 ----------------------------------------------------------------------
 #t hf aug-cc-pvdz symm=none int=(grid=ultrafine) guess=(read,tcheck) s
 table=opt
 ----------------------------------------------------------------------
 -----
 title
 -----
 Symbolic Z-matrix:
 Charge =  0 Multiplicity = 2

 SCF Done:  E(UHF) =  -445.170046736     A.U. after   20 cycles
 Normal termination of Gaussian 16 at Tue Apr  8 23:30:08 2025.
 Gaussian 16:  ES64L-G16RevC.01  3-Jul-2019

 ----------------------------------------------------------------------
 #t hf aug-cc-pvdz iop(5/13=1,5/36=2,99/5=2) pseudo=read geom=check gue
 ss=(read,tcheck) scf=(maxcycle=1)
 ----------------------------------------------------------------------
 -----
 title
 -----
 Structure from the checkpoint file:  "BDE49_nonexpt_134_mol2.chk"
 Charge =  0 Multiplicity = 2

                         Standard orientation:
 ---------------------------------------------------------------------
 Center     Atomic      Atomic             Coordinates (Angstroms)
 Number     Number       Type             X           Y           Z
 ---------------------------------------------------------------------
      1          5           0        0.473994    1.849940    0.256445
      2         15           0        0.052229    0.213536   -0.317762
      3          6           0        1.171852   -1.191771    0.140584
      4          1           0        1.052224   -1.477136    1.187773
      5          1           0        2.204570   -0.885327   -0.029819
      6          1           0        0.957525   -2.056993   -0.491393
      7          6           0       -1.642373   -0.344802    0.151529
      8          1           0       -2.334239    0.483609   -0.002999
      9          1           0       -1.690068   -0.657574    1.196799
     10          1           0       -1.948279   -1.179132   -0.483380
     11          1           0        1.427985    2.539258    0.354550
 ---------------------------------------------------------------------

 SCF Done:  E(UHF) =  -445.878183224     A.U. after    2 cycles

 The electronic state is 2-A.
 Alpha  occ. eigenvalues -- -105.15419 -11.38180 -11.37881  -7.62175  -2.74770
 Alpha  occ. eigenvalues --   -1.55439  -1.47934  -1.38948  -1.05809  -0.97200
 Alpha  occ. eigenvalues --   -0.76986  -0.60234  -0.57725  -0.57198  -0.56508
 Alpha  occ. eigenvalues --   -0.56007  -0.32427  -0.20954  -0.13434  -0.07159
 Alpha virt. eigenvalues --    0.02699   0.04480   0.05121   0.05870   0.06936
 Alpha virt. eigenvalues --    0.07282   0.07676   0.08298   0.08798   0.09234
 Alpha virt. eigenvalues --    0.12309   0.12768   0.13987   0.14395   0.15575

  Beta  occ. eigenvalues -- -105.15550 -11.38041 -11.37843  -7.60454  -2.75078
  Beta  occ. eigenvalues --   -1.55481  -1.48093  -1.41547  -1.05462  -0.97058
  Beta  occ. eigenvalues --   -0.72746  -0.59373  -0.57640  -0.57203  -0.56442
  Beta  occ. eigenvalues --   -0.55949  -0.19696  -0.14410  -0.02428
  Beta virt. eigenvalues --    0.02709   0.03932   0.04824   0.05854   0.06965
  Beta virt. eigenvalues --    0.07448   0.07694   0.08148   0.08398   0.08895
  Beta virt. eigenvalues --    0.11025   0.12329   0.12976   0.14541   0.15137

 Mulliken charges and spin densities:
               1          2
     1  B    0.730640   1.001657
     2  P    5.475345  -0.015618
     3  C   -6.098013   0.013570
     4  H    1.213591  -0.023399
     5  H    1.281991   0.001487
     6  H    1.181287   0.029027
     7  C   -6.100884   0.032755
     8  H    1.326253  -0.004985
     9  H    1.226818  -0.013592
    10  H    1.191938   0.001604
    11  H   -1.428965  -0.022507
 Sum of Mulliken charges =  -0.00000   1.00000

 Dipole moment (field-independent basis, Debye):
    X=             -1.4827    Y=             -7.2955    Z=             -4.1039  Tot=              8.5009
                          Isotropic Fermi Contact Couplings
        Atom                 a.u.       MegaHertz       Gauss      10(-4) cm-1
     1  B(11)              0.07375     105.77926      37.74467      35.28416
     2  P(31)             -0.09763    -176.80902     -63.08986     -58.97714
     3  C(13)              0.02462      27.67213       9.87410       9.23043
     4  H(1)              -0.00179      -7.98871      -2.85057      -2.66475
     5  H(1)              -0.00029      -1.31753      -0.47013      -0.43948
     6  H(1)               0.00107       4.76043       1.69864       1.58791
     7  C(13)             -0.01210     -13.60739      -4.85546      -4.53894
     8  H(1)               0.00022       0.99904       0.35648       0.33324

 Normal termination of Gaussian 16 at Tue Apr  8 23:30:12 2025.
