 Gaussian 16, Revision C.01,

 ----------------------------------------------------------------------
 #t hf aug-cc-pvdz symm=none int=(grid=ultrafine) guess=(read,tcheck) s
 table=opt
 ----------------------------------------------------------------------
 -----
 title
 -----
 Symbolic Z-matrix:
 Charge =  0 Multiplicity = 2

 SCF Done:  E(UHF) =  -562.742457714     A.U. after   15 cycles
 Normal termination of Gaussian 16 at Wed Apr  9 00:02:51 2025.
 Gaussian 16:  ES64L-G16RevC.01  3-Jul-2019

 ----------------------------------------------------------------------
 #t hf aug-cc-pvdz iop(5/13=1,5/36=2,99/5=2) pseudo=read geom=check gue
 ss=(read,tcheck) scf=(maxcycle=1)
 ----------------------------------------------------------------------
 -----
 title
 -----
 Structure from the checkpoint file:  "BDE49_nonexpt_2088_mol2.chk"
 Charge =  0 Multiplicity = 2

                         Standard orientation:
 ---------------------------------------------------------------------
 Center     Atomic      Atomic             Coordinates (Angstroms)
 Number     Number       Type             X           Y           Z
 ---------------------------------------------------------------------
      1          6           0        0.901894    1.382272   -0.133799
      2          6           0        2.286856    0.975750    0.390208
      3          6           0        2.714835   -0.395048   -0.150897
      4          6           0        1.654898   -1.465101    0.144113
      5          6           0        0.272143   -1.050754   -0.378744
      6          6           0       -1.548834    0.745178   -0.382484
      7          6           0       -0.173378    0.319081    0.165269
      8         14           0       -3.031040   -0.313071    0.147162
      9          1           0        0.953939    1.533972   -1.220702
     10          1           0        0.601768    2.342736    0.299358
     11          1           0        2.260805    0.938605    1.487017
     12          1           0        3.026511    1.737767    0.123733
     13          1           0        3.679042   -0.688103    0.276953
     14          1           0        2.863663   -0.324215   -1.236279
     15          1           0        1.596803   -1.626450    1.228312
     16          1           0        1.949345   -2.423207   -0.296205
     17          1           0       -0.470160   -1.815940   -0.123907
     18          1           0        0.298052   -1.001604   -1.476211
     19          1           0       -1.519956    0.781106   -1.478608
     20          1           0       -1.775813    1.769705   -0.054510
     21          1           0       -0.251388    0.232875    1.259116
     22          1           0       -4.296891    0.244674   -0.401573
     23          1           0       -3.131649   -0.387190    1.631234
 ---------------------------------------------------------------------

 SCF Done:  E(UHF) =  -564.297474155     A.U. after    2 cycles

 The electronic state is 2-A.
 Alpha  occ. eigenvalues --  -76.21561 -11.43489 -11.43244 -11.41763 -11.39416
 Alpha  occ. eigenvalues --  -11.37369 -11.36262 -11.33484  -5.54912  -2.18825
 Alpha  occ. eigenvalues --   -2.17232  -2.16616  -1.32692  -1.14349  -1.09861
 Alpha  occ. eigenvalues --   -0.98960  -0.88047  -0.85027  -0.77841  -0.72969
 Alpha  occ. eigenvalues --   -0.65585  -0.61823  -0.61017  -0.60022  -0.55604
 Alpha  occ. eigenvalues --   -0.52633  -0.51747  -0.48394  -0.46569  -0.46207
 Alpha  occ. eigenvalues --   -0.45454  -0.43711  -0.41921  -0.38186  -0.36635
 Alpha  occ. eigenvalues --   -0.26175
 Alpha virt. eigenvalues --    0.04261   0.04843   0.04912   0.05205   0.05413
 Alpha virt. eigenvalues --    0.05487   0.05652   0.06047   0.06646   0.07881
 Alpha virt. eigenvalues --    0.08244   0.08308   0.08673   0.08901   0.09588

  Beta  occ. eigenvalues --  -76.21017 -11.43482 -11.43246 -11.41761 -11.39386
  Beta  occ. eigenvalues --  -11.37364 -11.36245 -11.33476  -5.54062  -2.18121
  Beta  occ. eigenvalues --   -2.16559  -2.13224  -1.32643  -1.14225  -1.09837
  Beta  occ. eigenvalues --   -0.98564  -0.88013  -0.84762  -0.77797  -0.68923
  Beta  occ. eigenvalues --   -0.65511  -0.61581  -0.60961  -0.59828  -0.55218
  Beta  occ. eigenvalues --   -0.52492  -0.51650  -0.48229  -0.46544  -0.45710
  Beta  occ. eigenvalues --   -0.45257  -0.43685  -0.41614  -0.38108  -0.35806
  Beta virt. eigenvalues --    0.03814   0.04648   0.04924   0.05112   0.05305
  Beta virt. eigenvalues --    0.05422   0.05649   0.05872   0.06458   0.06882
  Beta virt. eigenvalues --    0.08008   0.08379   0.08634   0.08727   0.09514

 Mulliken charges and spin densities:
               1          2
     1  C   -3.321149   0.003163
     2  C   -3.049915  -0.006565
     3  C   -2.702853   0.001904
     4  C   -3.032316   0.004844
     5  C   -3.233758   0.003445
     6  C   -5.083615   0.059337
     7  C    1.210338  -0.095427
     8  Si   3.558962   1.123487
     9  H    1.369268  -0.001654
    10  H    1.420536   0.005977
    11  H    1.403094  -0.000144
    12  H    1.274769  -0.000682
    13  H    1.349085   0.000773
    14  H    1.387245   0.001136
    15  H    1.374621  -0.001033
    16  H    1.248733  -0.002455
    17  H    1.510923   0.000046
    18  H    1.440175  -0.018580
    19  H    1.485981   0.000224
    20  H    1.435485  -0.011270
    21  H    2.030222  -0.018614
    22  H   -1.576843  -0.012353
    23  H   -1.498987  -0.035561
 Sum of Mulliken charges =   0.00000   1.00000

 Dipole moment (field-independent basis, Debye):
    X=              1.2646    Y=              0.2032    Z=             -0.3265  Tot=              1.3218
                          Isotropic Fermi Contact Couplings
        Atom                 a.u.       MegaHertz       Gauss      10(-4) cm-1
     1  C(13)              0.00177       1.98859       0.70958       0.66332
     2  C(13)             -0.00020      -0.22958      -0.08192      -0.07658
     3  C(13)              0.00061       0.68165       0.24323       0.22737
     4  C(13)             -0.00024      -0.26768      -0.09552      -0.08929
     5  C(13)              0.00190       2.13414       0.76151       0.71187
     6  C(13)              0.00957      10.75351       3.83712       3.58698
     7  C(13)             -0.00081      -0.91467      -0.32638      -0.30510
     8  Si(29)             0.43836    -389.57854    -139.01131    -129.94941

 Normal termination of Gaussian 16 at Wed Apr  9 00:03:06 2025.
