 Gaussian 16, Revision C.01,

 ----------------------------------------------------------------------
 #t hf aug-cc-pvdz symm=none int=(grid=ultrafine) guess=(read,tcheck) s
 table=opt
 ----------------------------------------------------------------------
 -----
 title
 -----
 Symbolic Z-matrix:
 Charge =  0 Multiplicity = 2

 SCF Done:  E(UHF) =  -536.488483410     A.U. after   20 cycles
 Normal termination of Gaussian 16 at Tue Apr  8 23:47:47 2025.
 Gaussian 16:  ES64L-G16RevC.01  3-Jul-2019

 ----------------------------------------------------------------------
 #t hf aug-cc-pvdz iop(5/13=1,5/36=2,99/5=2) pseudo=read geom=check gue
 ss=(read,tcheck) scf=(maxcycle=1)
 ----------------------------------------------------------------------
 -----
 title
 -----
 Structure from the checkpoint file:  "BDE49_nonexpt_1784_mol2.chk"
 Charge =  0 Multiplicity = 2

                         Standard orientation:
 ---------------------------------------------------------------------
 Center     Atomic      Atomic             Coordinates (Angstroms)
 Number     Number       Type             X           Y           Z
 ---------------------------------------------------------------------
      1         14           0       -1.956331    0.347619   -0.057535
      2          6           0       -0.238190   -0.527326   -0.020467
      3          7           0        0.930157    0.182385   -0.031583
      4          6           0        0.985724    1.630852   -0.048329
      5          8           0       -0.279868   -1.752516    0.009782
      6          1           0       -0.006300    2.046084   -0.235586
      7          1           0        1.647991    1.975641   -0.849411
      8          1           0        1.356615    2.030184    0.902978
      9          6           0        2.202998   -0.523286    0.052199
     10          1           0        2.837998   -0.264483   -0.801458
     11          1           0        2.001470   -1.592142    0.046245
     12          1           0        2.732689   -0.258481    0.974025
     13          1           0       -2.180452    1.178693    1.157559
     14          1           0       -2.976725   -0.720181   -0.146456
 ---------------------------------------------------------------------

 SCF Done:  E(UHF) =  -537.763337648     A.U. after    2 cycles

 The electronic state is 2-A.
 Alpha  occ. eigenvalues --  -76.23850 -21.02597 -15.75218 -11.46022 -11.41599
 Alpha  occ. eigenvalues --  -11.39495  -5.57252  -2.20991  -2.19720  -2.18601
 Alpha  occ. eigenvalues --   -1.70033  -1.42980  -1.06262  -0.99423  -0.82780
 Alpha  occ. eigenvalues --   -0.72031  -0.65895  -0.63358  -0.62307  -0.56412
 Alpha  occ. eigenvalues --   -0.52980  -0.52322  -0.50013  -0.47347  -0.45723
 Alpha  occ. eigenvalues --   -0.32328  -0.29559  -0.24264
 Alpha virt. eigenvalues --    0.03240   0.04720   0.05297   0.05520   0.06146
 Alpha virt. eigenvalues --    0.06670   0.07314   0.07817   0.08255   0.09153
 Alpha virt. eigenvalues --    0.11155   0.11796   0.12905   0.13304   0.13601

  Beta  occ. eigenvalues --  -76.23301 -21.02323 -15.75227 -11.46017 -11.41571
  Beta  occ. eigenvalues --  -11.39494  -5.56398  -2.20203  -2.18962  -2.15298
  Beta  occ. eigenvalues --   -1.69560  -1.42915  -1.06187  -0.99267  -0.79977
  Beta  occ. eigenvalues --   -0.71019  -0.65870  -0.62662  -0.61743  -0.56402
  Beta  occ. eigenvalues --   -0.52846  -0.52105  -0.49382  -0.46794  -0.45380
  Beta  occ. eigenvalues --   -0.29220  -0.27185
  Beta virt. eigenvalues --    0.02730   0.03841   0.05117   0.05363   0.05541
  Beta virt. eigenvalues --    0.06465   0.07087   0.07443   0.08316   0.09000
  Beta virt. eigenvalues --    0.09281   0.11427   0.12160   0.13212   0.13677

 Mulliken charges and spin densities:
               1          2
     1  Si   4.073415   1.095989
     2  C    2.536026  -0.010926
     3  N   -2.556055  -0.097920
     4  C   -3.554143   0.027638
     5  O   -2.674545   0.085119
     6  H    1.605586  -0.025596
     7  H    1.433547  -0.007022
     8  H    1.396165  -0.002641
     9  C   -3.366536  -0.002031
    10  H    1.420167   0.000577
    11  H    1.455161  -0.008195
    12  H    1.402520   0.000489
    13  H   -1.550339  -0.041089
    14  H   -1.620967  -0.014392
 Sum of Mulliken charges =   0.00000   1.00000

 Dipole moment (field-independent basis, Debye):
    X=              1.7263    Y=              1.7273    Z=             -0.3021  Tot=              2.4607
                          Isotropic Fermi Contact Couplings
        Atom                 a.u.       MegaHertz       Gauss      10(-4) cm-1
     1  Si(29)             0.41171    -365.89744    -130.56131    -122.05025
     2  C(13)              0.00789       8.87185       3.16570       2.95933
     3  N(14)             -0.00346      -1.11931      -0.39940      -0.37336
     4  C(13)              0.00353       3.96583       1.41511       1.32286
     5  O(17)              0.02154     -13.05592      -4.65868      -4.35499
     6  H(1)              -0.00028      -1.24780      -0.44525      -0.41622
     7  H(1)              -0.00009      -0.40555      -0.14471      -0.13528
     8  H(1)              -0.00030      -1.33849      -0.47761      -0.44647

 1\1\GINC-SE343\SP\UHF\Aug-CC-pVDZ\C3H8N1O1Si1(2)\OHZDE\08-Apr-2025\0\\
 #t hf aug-cc-pvdz iop(5/13=1,5/36=2,99/5=2) pseudo=read geom=check gue
 ss=(read,tcheck) scf=(maxcycle=1)\\title\\0,2\Si,0,-1.956331,0.34762,-
 0.057535\C,0,-0.23819,-0.527326,-0.020467\N,0,0.930157,0.182385,-0.031
 583\C,0,0.985725,1.630852,-0.048329\O,0,-0.279868,-1.752516,0.009782\H
 ,0,-0.006299,2.046084,-0.235586\H,0,1.647992,1.975641,-0.849411\H,0,1.
 356616,2.030184,0.902978\C,0,2.202998,-0.523286,0.052199\H,0,2.837998,
 -0.264484,-0.801458\H,0,2.00147,-1.592142,0.046245\H,0,2.732689,-0.258

 Normal termination of Gaussian 16 at Tue Apr  8 23:47:51 2025.
