 Gaussian 16, Revision C.01,

 ----------------------------------------------------------------------
 #t hf aug-cc-pvdz symm=none int=(grid=ultrafine) guess=(read,tcheck) s
 table=(opt,rrhf)
 ----------------------------------------------------------------------
 -----
 title
 -----
 Symbolic Z-matrix:
 Charge =  0 Multiplicity = 1

 SCF Done:  E(RHF) =  -392.017802096     A.U. after   14 cycles
 Normal termination of Gaussian 16 at Wed Apr  9 00:33:49 2025.
 Gaussian 16:  ES64L-G16RevC.01  3-Jul-2019

 ----------------------------------------------------------------------
 #t hf aug-cc-pvdz iop(5/13=1,5/36=2,99/5=2) pseudo=read geom=check gue
 ss=(read,tcheck) scf=(maxcycle=1)
 ----------------------------------------------------------------------
 -----
 title
 -----
 Structure from the checkpoint file:  "BDE49_nonexpt_411_mol1.chk"
 Charge =  0 Multiplicity = 1

                         Standard orientation:
 ---------------------------------------------------------------------
 Center     Atomic      Atomic             Coordinates (Angstroms)
 Number     Number       Type             X           Y           Z
 ---------------------------------------------------------------------
      1          9           0       -2.053218   -0.906045   -0.000027
      2          5           0       -1.062850   -0.021725    0.000040
      3          9           0       -1.393425    1.257724   -0.000019
      4          6           0        0.404701   -0.512492    0.000019
      5          7           0        1.333269    0.370275    0.000014
      6          1           0        0.660952   -1.573780    0.000012
      7          8           0        2.591491   -0.195943   -0.000000
      8          1           0        3.180054    0.567868   -0.000000
 ---------------------------------------------------------------------

 SCF Done:  E(RHF) =  -393.510420303     A.U. after    2 cycles

 The electronic state is 1-A.
 Alpha  occ. eigenvalues --  -29.26555 -29.26015 -21.12856 -15.82729 -11.39956
 Alpha  occ. eigenvalues --   -7.71568  -1.82678  -1.30537  -1.13128  -0.85534
 Alpha  occ. eigenvalues --   -0.75850  -0.70181  -0.61217  -0.57360  -0.56835
 Alpha  occ. eigenvalues --   -0.49391  -0.46470  -0.45735  -0.38477  -0.34583
 Alpha  occ. eigenvalues --   -0.33871  -0.32845  -0.27288
 Alpha virt. eigenvalues --    0.03822   0.04268   0.04786   0.05888   0.07410
 Alpha virt. eigenvalues --    0.08560   0.09893   0.11938   0.15123   0.15659
 Alpha virt. eigenvalues --    0.17128   0.17469   0.18150   0.20038   0.20144

 Mulliken charges:
               1
     1  F    0.102745
     2  B    1.758043
     3  F   -0.205887
     4  C   -2.165283
     5  N    0.224851
     6  H    1.681562
     7  O   -2.243569
     8  H    0.847539
 Sum of Mulliken charges =   0.00000

 Dipole moment (field-independent basis, Debye):
    X=             -0.9723    Y=              0.4292    Z=             -0.0001  Tot=              1.0629

 Test job not archived.
 1\1\GINC-SE099\SP\RHF\Aug-CC-pVDZ\C1H2B1F2N1O1\OHZDE\09-Apr-2025\0\\#t
  hf aug-cc-pvdz iop(5/13=1,5/36=2,99/5=2) pseudo=read geom=check guess
 =(read,tcheck) scf=(maxcycle=1)\\title\\0,1\F,0,-2.053218,-0.906045,-0
 .000027\B,0,-1.06285,-0.021725,0.00004\F,0,-1.393425,1.257724,-0.00001
 9\C,0,0.404701,-0.512492,0.000019\N,0,1.333269,0.370275,0.000014\H,0,0
 .660952,-1.57378,0.000012\O,0,2.591491,-0.195943,0.\H,0,3.180054,0.567
 868,0.\\Version=ES64L-G16RevC.01\State=1-A\HF=-393.5104203\RMSD=2.338e
 -01\Dipole=-0.3825493,0.1688568,-0.0000585\Quadrupole=4.12919,0.520160

 Normal termination of Gaussian 16 at Wed Apr  9 00:33:51 2025.
