 Gaussian 16, Revision C.01,

 ----------------------------------------------------------------------
 #t hf aug-cc-pvdz symm=none int=(grid=ultrafine) guess=(read,tcheck) s
 table=(opt,rrhf)
 ----------------------------------------------------------------------
 -----
 title
 -----
 Symbolic Z-matrix:
 Charge =  0 Multiplicity = 1

 SCF Done:  E(RHF) =  -805.937523466     A.U. after   12 cycles
 Normal termination of Gaussian 16 at Wed Apr  9 00:14:52 2025.
 Gaussian 16:  ES64L-G16RevC.01  3-Jul-2019

 ----------------------------------------------------------------------
 #t hf aug-cc-pvdz iop(5/13=1,5/36=2,99/5=2) pseudo=read geom=check gue
 ss=(read,tcheck) scf=(maxcycle=1)
 ----------------------------------------------------------------------
 -----
 title
 -----
 Structure from the checkpoint file:  "BDE49_nonexpt_2471_mol1.chk"
 Charge =  0 Multiplicity = 1

                         Standard orientation:
 ---------------------------------------------------------------------
 Center     Atomic      Atomic             Coordinates (Angstroms)
 Number     Number       Type             X           Y           Z
 ---------------------------------------------------------------------
      1         16           0        1.832926    0.000097   -0.690827
      2         14           0        0.455101   -0.000139    0.994261
      3          1           0        2.942184   -0.000026    0.069336
      4          6           0       -1.312901   -0.000043    0.323814
      5          6           0       -1.648349   -1.274433   -0.473251
      6          1           0       -1.060432   -1.336553   -1.393693
      7          1           0       -2.705551   -1.281302   -0.758928
      8          1           0       -1.454894   -2.182380    0.104502
      9          6           0       -1.648343    1.274565   -0.472903
     10          1           0       -1.060426    1.336934   -1.393327
     11          1           0       -1.454883    2.182354    0.105099
     12          1           0       -2.705545    1.281518   -0.758577
     13          1           0       -1.929982   -0.000166    1.234546
     14          1           0        0.694427    1.201446    1.829499
     15          1           0        0.694426   -1.201960    1.829160
 ---------------------------------------------------------------------

 SCF Done:  E(RHF) =  -806.953374056     A.U. after    2 cycles

 The electronic state is 1-A.
 Alpha  occ. eigenvalues --  -76.23156 -75.67936 -13.14463 -13.06583 -13.02802
 Alpha  occ. eigenvalues --  -11.40757 -11.38720 -11.34994  -8.01892  -5.56709
 Alpha  occ. eigenvalues --   -2.20590  -2.18930  -2.18728  -1.21494  -1.09551
 Alpha  occ. eigenvalues --   -1.00282  -0.85319  -0.72193  -0.62754  -0.58732
 Alpha  occ. eigenvalues --   -0.56427  -0.53685  -0.50598  -0.48371  -0.47328
 Alpha  occ. eigenvalues --   -0.45221  -0.38244  -0.33570  -0.26719
 Alpha virt. eigenvalues --    0.03172   0.04360   0.04772   0.05608   0.06117
 Alpha virt. eigenvalues --    0.06118   0.06484   0.07219   0.07615   0.09500
 Alpha virt. eigenvalues --    0.09801   0.10151   0.11565   0.11756   0.12655

 Mulliken charges:
               1
     1  S   -2.625070
     2  Si   6.146703
     3  H    0.975522
     4  C   -2.541528
     5  C   -3.790551
     6  H    1.297358
     7  H    1.229135
     8  H    1.310892
     9  C   -3.790546
    10  H    1.297361
    11  H    1.310888
    12  H    1.229135
    13  H    1.735958
    14  H   -1.892631
    15  H   -1.892626
 Sum of Mulliken charges =   0.00000

 Dipole moment (field-independent basis, Debye):
    X=             -1.0731    Y=              0.0002    Z=             -1.5934  Tot=              1.9210

 Test job not archived.
 1\1\GINC-SE402\SP\RHF\Aug-CC-pVDZ\C3H10S1Si1\OHZDE\09-Apr-2025\0\\#t h
 f aug-cc-pvdz iop(5/13=1,5/36=2,99/5=2) pseudo=read geom=check guess=(
 read,tcheck) scf=(maxcycle=1)\\title\\0,1\S,0,1.832926,0.000097,-0.690
 827\Si,0,0.455101,-0.000139,0.994261\H,0,2.942184,-0.000025,0.069336\C
 ,0,-1.312901,-0.000043,0.323814\C,0,-1.648349,-1.274433,-0.473251\H,0,
 -1.060432,-1.336553,-1.393693\H,0,-2.705551,-1.281302,-0.758928\H,0,-1
 .454894,-2.18238,0.104502\C,0,-1.648343,1.274565,-0.472903\H,0,-1.0604
 26,1.336934,-1.393327\H,0,-1.454883,2.182354,0.105099\H,0,-2.705545,1.

 Normal termination of Gaussian 16 at Wed Apr  9 00:14:56 2025.
