 Gaussian 16, Revision C.01,

 ----------------------------------------------------------------------
 #t hf aug-cc-pvdz symm=none int=(grid=ultrafine) guess=(read,tcheck) s
 table=(opt,rrhf)
 ----------------------------------------------------------------------
 -----
 title
 -----
 Symbolic Z-matrix:
 Charge =  0 Multiplicity = 1

 SCF Done:  E(RHF) =  -227.821525282     A.U. after   13 cycles
 Normal termination of Gaussian 16 at Tue Apr  8 22:43:27 2025.
 Gaussian 16:  ES64L-G16RevC.01  3-Jul-2019

 ----------------------------------------------------------------------
 #t hf aug-cc-pvdz iop(5/13=1,5/36=2,99/5=2) pseudo=read geom=check gue
 ss=(read,tcheck) scf=(maxcycle=1)
 ----------------------------------------------------------------------
 -----
 title
 -----
 Structure from the checkpoint file:  "BDE49_expt_1440_mol1.chk"
 Charge =  0 Multiplicity = 1

                         Standard orientation:
 ---------------------------------------------------------------------
 Center     Atomic      Atomic             Coordinates (Angstroms)
 Number     Number       Type             X           Y           Z
 ---------------------------------------------------------------------
      1          6           0        0.832748    0.431310    0.000014
      2          8           0        1.301601   -0.672923   -0.000006
      3          8           0       -0.474822    0.729460    0.000000
      4          1           0        1.409236    1.367362   -0.000015
      5          6           0       -1.370897   -0.400666   -0.000002
      6          1           0       -1.211086   -1.013020   -0.888649
      7          1           0       -2.372375    0.022503   -0.000016
      8          1           0       -1.211104   -1.013008    0.888655
 ---------------------------------------------------------------------

 SCF Done:  E(RHF) =  -228.797117959     A.U. after    2 cycles

 The electronic state is 1-A.
 Alpha  occ. eigenvalues --  -21.10259 -21.06252 -11.50765 -11.42026  -1.84372
 Alpha  occ. eigenvalues --   -1.66811  -1.03675  -0.83077  -0.69524  -0.63584
 Alpha  occ. eigenvalues --   -0.56819  -0.56393  -0.51185  -0.43144  -0.32822
 Alpha  occ. eigenvalues --   -0.31287
 Alpha virt. eigenvalues --    0.03400   0.05431   0.06174   0.06576   0.10041
 Alpha virt. eigenvalues --    0.10974   0.11206   0.14168   0.14539   0.16127
 Alpha virt. eigenvalues --    0.17007   0.18268   0.18565   0.20549   0.26095

 Mulliken charges:
               1
     1  C    2.463682
     2  O   -2.397789
     3  O   -2.633769
     4  H    1.578376
     5  C   -2.803120
     6  H    1.265505
     7  H    1.261609
     8  H    1.265507
 Sum of Mulliken charges =  -0.00000

 Dipole moment (field-independent basis, Debye):
    X=             -1.3380    Y=              0.4887    Z=             -0.0000  Tot=              1.4245

 Test job not archived.
 1\1\GINC-SE453\SP\RHF\Aug-CC-pVDZ\C2H4O2\OHZDE\08-Apr-2025\0\\#t hf au
 g-cc-pvdz iop(5/13=1,5/36=2,99/5=2) pseudo=read geom=check guess=(read
 ,tcheck) scf=(maxcycle=1)\\title\\0,1\C,0,0.832748,0.43131,0.000014\O,
 0,1.301601,-0.672923,-0.000006\O,0,-0.474822,0.72946,0.\H,0,1.409236,1
 .367362,-0.000015\C,0,-1.370897,-0.400666,-0.000002\H,0,-1.211086,-1.0
 1302,-0.888649\H,0,-2.372375,0.022503,-0.000016\H,0,-1.211104,-1.01300
 8,0.888655\\Version=ES64L-G16RevC.01\State=1-A\HF=-228.797118\RMSD=5.6
 82e-02\Dipole=-0.5264098,0.1922789,-0.0000069\Quadrupole=0.4599159,-0.

 Normal termination of Gaussian 16 at Tue Apr  8 22:43:30 2025.
