 Gaussian 16, Revision C.01,

 ----------------------------------------------------------------------
 #t hf aug-cc-pvdz symm=none int=(grid=ultrafine) guess=(read,tcheck) s
 table=opt
 ----------------------------------------------------------------------
 -----
 title
 -----
 Symbolic Z-matrix:
 Charge =  0 Multiplicity = 2

 SCF Done:  E(UHF) =  -566.549694754     A.U. after   16 cycles
 Normal termination of Gaussian 16 at Tue Apr  8 23:26:58 2025.
 Gaussian 16:  ES64L-G16RevC.01  3-Jul-2019

 ----------------------------------------------------------------------
 #t hf aug-cc-pvdz iop(5/13=1,5/36=2,99/5=2) pseudo=read geom=check gue
 ss=(read,tcheck) scf=(maxcycle=1)
 ----------------------------------------------------------------------
 -----
 title
 -----
 Structure from the checkpoint file:  "BDE49_nonexpt_1268_mol3.chk"
 Charge =  0 Multiplicity = 2

                         Standard orientation:
 ---------------------------------------------------------------------
 Center     Atomic      Atomic             Coordinates (Angstroms)
 Number     Number       Type             X           Y           Z
 ---------------------------------------------------------------------
      1         15           0        0.000001    0.138797    0.308660
      2          8           0        0.000019    1.515518   -0.233241
      3          8           0       -1.205052   -0.840727   -0.154070
      4          1           0       -2.052048   -0.377098   -0.149431
      5          8           0        1.205033   -0.840755   -0.154069
      6          1           0        2.052037   -0.377144   -0.149437
 ---------------------------------------------------------------------

 SCF Done:  E(UHF) =  -567.650503430     A.U. after    2 cycles

 The electronic state is 2-A.
 Alpha  occ. eigenvalues -- -105.31298 -21.13520 -21.13502 -21.05997  -2.93078
 Alpha  occ. eigenvalues --   -1.98334  -1.88443  -1.79708  -1.50599  -1.41629
 Alpha  occ. eigenvalues --   -1.28473  -0.70869  -0.59357  -0.57258  -0.44595
 Alpha  occ. eigenvalues --   -0.44044  -0.37457  -0.36626  -0.31099  -0.22897
 Alpha  occ. eigenvalues --   -0.05183
 Alpha virt. eigenvalues --    0.04750   0.05563   0.10209   0.10418   0.10480
 Alpha virt. eigenvalues --    0.16173   0.19109   0.20640   0.20734   0.21664
 Alpha virt. eigenvalues --    0.22796   0.23360   0.25835   0.26230   0.27146

  Beta  occ. eigenvalues -- -105.30776 -21.12950 -21.12932 -21.04843  -2.91780
  Beta  occ. eigenvalues --   -1.97438  -1.87583  -1.76288  -1.40424  -1.39086
  Beta  occ. eigenvalues --   -1.24728  -0.68255  -0.58963  -0.55161  -0.42626
  Beta  occ. eigenvalues --   -0.42626  -0.35720  -0.30015  -0.28097  -0.17007
  Beta virt. eigenvalues --    0.03119   0.05601   0.08396   0.10313   0.10756
  Beta virt. eigenvalues --    0.11778   0.18559   0.20746   0.21490   0.21763
  Beta virt. eigenvalues --    0.22757   0.23555   0.23982   0.26559   0.27605

 Mulliken charges and spin densities:
               1          2
     1  P    5.407289   1.066005
     2  O   -2.257143  -0.110449
     3  O   -2.428456  -0.055991
     4  H    0.853383   0.078213
     5  O   -2.428456  -0.055992
     6  H    0.853383   0.078214
 Sum of Mulliken charges =   0.00000   1.00000

 Dipole moment (field-independent basis, Debye):
    X=             -0.0000    Y=             -2.2455    Z=              1.1069  Tot=              2.5035
                          Isotropic Fermi Contact Couplings
        Atom                 a.u.       MegaHertz       Gauss      10(-4) cm-1
     1  P(31)              0.39334     712.38413     254.19637     237.62577
     2  O(17)              0.17032    -103.24714     -36.84115     -34.43954
     3  O(17)              0.10277     -62.29807     -22.22950     -20.78040
     4  H(1)              -0.00184      -8.20512      -2.92779      -2.73693
     5  O(17)              0.10277     -62.29801     -22.22948     -20.78038
     6  H(1)              -0.00184      -8.20509      -2.92778      -2.73692
 --------------------------------------------------------
       Center         ----  Spin Dipole Couplings  ----

 Normal termination of Gaussian 16 at Tue Apr  8 23:27:00 2025.
