 Gaussian 16, Revision C.01,

 ----------------------------------------------------------------------
 #t hf aug-cc-pvdz symm=none int=(grid=ultrafine) guess=(read,tcheck) s
 table=opt
 ----------------------------------------------------------------------
 -----
 title
 -----
 Symbolic Z-matrix:
 Charge =  0 Multiplicity = 2

 SCF Done:  E(UHF) =  -964.120164832     A.U. after   17 cycles
 Normal termination of Gaussian 16 at Tue Apr  8 23:44:15 2025.
 Gaussian 16:  ES64L-G16RevC.01  3-Jul-2019

 ----------------------------------------------------------------------
 #t hf aug-cc-pvdz iop(5/13=1,5/36=2,99/5=2) pseudo=read geom=check gue
 ss=(read,tcheck) scf=(maxcycle=1)
 ----------------------------------------------------------------------
 -----
 title
 -----
 Structure from the checkpoint file:  "BDE49_nonexpt_1703_mol2.chk"
 Charge =  0 Multiplicity = 2

                         Standard orientation:
 ---------------------------------------------------------------------
 Center     Atomic      Atomic             Coordinates (Angstroms)
 Number     Number       Type             X           Y           Z
 ---------------------------------------------------------------------
      1         15           0        0.342216   -0.000003    0.127028
      2         16           0       -1.695275    0.000003   -0.171963
      3          8           0        0.519164   -0.000043    1.591837
      4          8           0        1.016904   -1.183120   -0.699711
      5          1           0        0.783717   -2.050536   -0.346970
      6          8           0        1.016900    1.183162   -0.699648
      7          1           0        0.783695    2.050559   -0.346872
 ---------------------------------------------------------------------

 SCF Done:  E(UHF) =  -965.429597296     A.U. after    2 cycles

 The electronic state is 2-A.
 Alpha  occ. eigenvalues -- -105.33259 -75.74758 -21.13744 -21.13736 -21.03874
 Alpha  occ. eigenvalues --  -13.12240 -13.09090 -13.07144  -8.08602  -2.95932
 Alpha  occ. eigenvalues --   -2.01263  -1.91723  -1.80956  -1.56075  -1.41983
 Alpha  occ. eigenvalues --   -1.27883  -1.07515  -0.70788  -0.59713  -0.57861
 Alpha  occ. eigenvalues --   -0.46039  -0.45658  -0.39847  -0.36264  -0.31084
 Alpha  occ. eigenvalues --   -0.30767  -0.29274  -0.23861  -0.16904
 Alpha virt. eigenvalues --    0.03002   0.05234   0.07002   0.10814   0.11807
 Alpha virt. eigenvalues --    0.13015   0.13147   0.13504   0.13687   0.18675
 Alpha virt. eigenvalues --    0.20345   0.20592   0.22772   0.23145   0.23859

  Beta  occ. eigenvalues -- -105.33296 -75.73773 -21.13739 -21.13730 -21.03568
  Beta  occ. eigenvalues --  -13.11675 -13.06555 -13.03163  -8.07501  -2.96033
  Beta  occ. eigenvalues --   -2.01251  -1.91776  -1.80921  -1.56035  -1.42062
  Beta  occ. eigenvalues --   -1.27362  -0.98001  -0.70216  -0.59714  -0.57651
  Beta  occ. eigenvalues --   -0.45470  -0.45344  -0.36055  -0.35365  -0.29895
  Beta  occ. eigenvalues --   -0.28564  -0.22716  -0.15967
  Beta virt. eigenvalues --    0.01331   0.03135   0.05249   0.07221   0.11546
  Beta virt. eigenvalues --    0.11850   0.13193   0.13278   0.13808   0.15359
  Beta virt. eigenvalues --    0.18910   0.20484   0.20869   0.23186   0.23983

 Mulliken charges and spin densities:
               1          2
     1  P    7.588340  -0.095549
     2  S   -1.693530   1.082329
     3  O   -2.566530   0.013832
     4  O   -2.594279  -0.007776
     5  H    0.930139   0.007470
     6  O   -2.594285  -0.007776
     7  H    0.930145   0.007470
 Sum of Mulliken charges =  -0.00000   1.00000

 Dipole moment (field-independent basis, Debye):
    X=              1.0168    Y=              0.0001    Z=             -2.4305  Tot=              2.6346
                          Isotropic Fermi Contact Couplings
        Atom                 a.u.       MegaHertz       Gauss      10(-4) cm-1
     1  P(31)             -0.03723     -67.43594     -24.06282     -22.49421
     2  S(33)              0.20800      71.44267      25.49252      23.83071
     3  O(17)              0.02705     -16.39978      -5.85185      -5.47038
     4  O(17)             -0.00153       0.92917       0.33155       0.30994
     5  H(1)              -0.00003      -0.12106      -0.04320      -0.04038
     6  O(17)             -0.00153       0.92915       0.33154       0.30993
     7  H(1)              -0.00003      -0.12107      -0.04320      -0.04038
 --------------------------------------------------------

 Normal termination of Gaussian 16 at Tue Apr  8 23:44:18 2025.
