 Gaussian 16, Revision C.01,

 ----------------------------------------------------------------------
 #t hf aug-cc-pvdz symm=none int=(grid=ultrafine) guess=(read,tcheck) s
 table=(opt,rrhf)
 ----------------------------------------------------------------------
 -----
 title
 -----
 Symbolic Z-matrix:
 Charge =  0 Multiplicity = 1

 SCF Done:  E(RHF) =  -859.248816937     A.U. after   15 cycles
 Normal termination of Gaussian 16 at Tue Apr  8 23:43:33 2025.
 Gaussian 16:  ES64L-G16RevC.01  3-Jul-2019

 ----------------------------------------------------------------------
 #t hf aug-cc-pvdz iop(5/13=1,5/36=2,99/5=2) pseudo=read geom=check gue
 ss=(read,tcheck) scf=(maxcycle=1)
 ----------------------------------------------------------------------
 -----
 title
 -----
 Structure from the checkpoint file:  "BDE49_nonexpt_1689_mol1.chk"
 Charge =  0 Multiplicity = 1

                         Standard orientation:
 ---------------------------------------------------------------------
 Center     Atomic      Atomic             Coordinates (Angstroms)
 Number     Number       Type             X           Y           Z
 ---------------------------------------------------------------------
      1          6           0       -1.527299    0.314633    0.043762
      2         14           0       -0.185716   -0.980825    0.545197
      3          8           0       -1.404953    1.467982    0.364916
      4          8           0       -2.597582   -0.066511   -0.711592
      5         15           0        1.842365   -0.506687   -0.355033
      6          6           0        1.991925    1.317319    0.040559
      7          1           0        2.796907    1.727483   -0.572745
      8          1           0        2.283182    1.419888    1.087831
      9          1           0        1.075618    1.881033   -0.128227
     10          1           0       -2.565531   -1.019225   -0.862877
     11          1           0        1.325536   -0.395521   -1.673646
     12          1           0       -0.606979   -2.331574    0.088917
     13          1           0       -0.111667   -0.953704    2.020958
 ---------------------------------------------------------------------

 SCF Done:  E(RHF) =  -860.582601131     A.U. after    2 cycles

 The electronic state is 1-A.
 Alpha  occ. eigenvalues -- -105.18136 -76.24952 -21.13027 -21.06273 -11.49177
 Alpha  occ. eigenvalues --  -11.38023  -5.58577  -2.75523  -2.21888  -2.20851
 Alpha  occ. eigenvalues --   -2.20514  -1.81856  -1.65831  -1.47295  -1.44668
 Alpha  occ. eigenvalues --   -1.42849  -1.01367  -0.86897  -0.76836  -0.68787
 Alpha  occ. eigenvalues --   -0.61828  -0.57296  -0.56835  -0.55027  -0.54062
 Alpha  occ. eigenvalues --   -0.50005  -0.45559  -0.34441  -0.29088  -0.24615
 Alpha  occ. eigenvalues --   -0.16859  -0.03978
 Alpha virt. eigenvalues --    0.03678   0.04752   0.05528   0.05979   0.06283
 Alpha virt. eigenvalues --    0.07326   0.08433   0.08635   0.08944   0.09552
 Alpha virt. eigenvalues --    0.10460   0.10969   0.11590   0.12994   0.14062

 Mulliken charges:
               1
     1  C    3.065104
     2  Si   4.587153
     3  O   -2.443766
     4  O   -2.778485
     5  P    2.670527
     6  C   -5.595240
     7  H    1.278170
     8  H    1.341579
     9  H    1.330805
    10  H    1.096828
    11  H   -0.919569
    12  H   -1.749755
    13  H   -1.883351
 Sum of Mulliken charges =  -0.00000

 Dipole moment (field-independent basis, Debye):
    X=              6.3621    Y=             -1.3787    Z=             -1.1000  Tot=              6.6021

 Test job not archived.
 1\1\GINC-SE328\SP\RHF\Aug-CC-pVDZ\C2H7O2P1Si1\OHZDE\08-Apr-2025\0\\#t
 hf aug-cc-pvdz iop(5/13=1,5/36=2,99/5=2) pseudo=read geom=check guess=
 (read,tcheck) scf=(maxcycle=1)\\title\\0,1\C,0,-1.527299,0.314633,0.04
 3762\Si,0,-0.185716,-0.980825,0.545197\O,0,-1.404953,1.467982,0.364916
 \O,0,-2.597582,-0.066511,-0.711592\P,0,1.842365,-0.506687,-0.355033\C,
 0,1.991925,1.317319,0.040559\H,0,2.796907,1.727484,-0.572745\H,0,2.283
 182,1.419889,1.087831\H,0,1.075618,1.881033,-0.128227\H,0,-2.565531,-1
 .019225,-0.862877\H,0,1.325536,-0.395521,-1.673646\H,0,-0.606979,-2.33

 Normal termination of Gaussian 16 at Tue Apr  8 23:43:37 2025.
