 Gaussian 16, Revision C.01,

 ----------------------------------------------------------------------
 #t hf aug-cc-pvdz symm=none int=(grid=ultrafine) guess=(read,tcheck) s
 table=(opt,rrhf)
 ----------------------------------------------------------------------
 -----
 title
 -----
 Symbolic Z-matrix:
 Charge =  0 Multiplicity = 1

 SCF Done:  E(RHF) =  -1194.58894693     A.U. after   15 cycles
 Normal termination of Gaussian 16 at Tue Apr  8 23:45:43 2025.
 Gaussian 16:  ES64L-G16RevC.01  3-Jul-2019

 ----------------------------------------------------------------------
 #t hf aug-cc-pvdz iop(5/13=1,5/36=2,99/5=2) pseudo=read geom=check gue
 ss=(read,tcheck) scf=(maxcycle=1)
 ----------------------------------------------------------------------
 -----
 title
 -----
 Structure from the checkpoint file:  "BDE49_nonexpt_1721_mol1.chk"
 Charge =  0 Multiplicity = 1

                         Standard orientation:
 ---------------------------------------------------------------------
 Center     Atomic      Atomic             Coordinates (Angstroms)
 Number     Number       Type             X           Y           Z
 ---------------------------------------------------------------------
      1          6           0        2.543459   -0.304269   -0.315141
      2          6           0        1.142398    0.177551    0.033431
      3         16           0       -0.149232   -0.727888   -0.824146
      4          8           0        0.945210    1.079255    0.825521
      5         15           0       -1.956367   -0.024310    0.155975
      6          8           0       -2.433553   -0.966747    1.168095
      7          6           0        3.112881   -1.065386    0.898417
      8          1           0        3.181497   -0.403915    1.764621
      9          1           0        4.113623   -1.435011    0.663369
     10          1           0        2.487457   -1.920297    1.165167
     11          6           0        3.423418    0.891148   -0.711265
     12          1           0        2.466980   -0.996697   -1.158662
     13          1           0        3.479724    1.611621    0.106564
     14          1           0        3.029509    1.403237   -1.592448
     15          1           0        4.433981    0.546340   -0.942155
     16          8           0       -2.945353    0.169660   -1.082874
     17          1           0       -3.672141   -0.464734   -1.044258
     18          8           0       -1.621465    1.459518    0.540669
     19          1           0       -0.679070    1.542568    0.840576
 ---------------------------------------------------------------------

 SCF Done:  E(RHF) =  -1197.02852368     A.U. after    2 cycles

 The electronic state is 1-A.
 Alpha  occ. eigenvalues -- -105.33076 -75.72486 -21.12979 -21.10893 -21.09628
 Alpha  occ. eigenvalues --  -21.03484 -13.18399 -13.13824 -13.06312 -11.54574
 Alpha  occ. eigenvalues --  -11.45320 -11.40972 -11.39018  -8.06811  -2.95567
 Alpha  occ. eigenvalues --   -2.01260  -1.93158  -1.79677  -1.76444  -1.53673
 Alpha  occ. eigenvalues --   -1.40356  -1.27860  -1.25823  -1.13001  -1.02832
 Alpha  occ. eigenvalues --   -0.92829  -0.75998  -0.72201  -0.66074  -0.62959
 Alpha  occ. eigenvalues --   -0.61082  -0.60326  -0.57205  -0.56290  -0.52660
 Alpha  occ. eigenvalues --   -0.52070  -0.51585  -0.48044  -0.45950  -0.44574
 Alpha  occ. eigenvalues --   -0.42367  -0.35760  -0.35010  -0.29999  -0.28668
 Alpha  occ. eigenvalues --   -0.28121  -0.23875  -0.16208
 Alpha virt. eigenvalues --    0.02993   0.04459   0.05111   0.05339   0.05632
 Alpha virt. eigenvalues --    0.06177   0.06434   0.07190   0.07812   0.09323
 Alpha virt. eigenvalues --    0.10492   0.10917   0.10970   0.12372   0.13164

 Mulliken charges:
               1
     1  C   -2.123641
     2  C    3.726585
     3  S   -1.554970
     4  O   -3.360543
     5  P    8.615932
     6  O   -3.067221
     7  C   -4.266645
     8  H    1.341833
     9  H    1.294792
    10  H    1.267448
    11  C   -3.947725
    12  H    1.954098
    13  H    1.411230
    14  H    1.240000
    15  H    1.247804
    16  O   -2.856962
    17  H    0.909935
    18  O   -3.417470
    19  H    1.585521
 Sum of Mulliken charges =   0.00000

 Dipole moment (field-independent basis, Debye):
    X=              0.9605    Y=              0.4465    Z=             -2.4672  Tot=              2.6850

 Test job not archived.
 1\1\GINC-SE364\SP\RHF\Aug-CC-pVDZ\C4H9O4P1S1\OHZDE\08-Apr-2025\0\\#t h
 f aug-cc-pvdz iop(5/13=1,5/36=2,99/5=2) pseudo=read geom=check guess=(
 read,tcheck) scf=(maxcycle=1)\\title\\0,1\C,0,2.543459,-0.304269,-0.31
 5141\C,0,1.142398,0.177551,0.033431\S,0,-0.149232,-0.727888,-0.824146\
 O,0,0.94521,1.079255,0.825521\P,0,-1.956367,-0.02431,0.155975\O,0,-2.4
 33553,-0.966747,1.168095\C,0,3.112881,-1.065386,0.898417\H,0,3.181497,
 -0.403915,1.764621\H,0,4.113623,-1.435011,0.663369\H,0,2.487457,-1.920
 297,1.165167\C,0,3.423418,0.891148,-0.711265\H,0,2.46698,-0.996697,-1.

 Normal termination of Gaussian 16 at Tue Apr  8 23:45:54 2025.
