 Gaussian 16, Revision C.01,

 ----------------------------------------------------------------------
 #t hf aug-cc-pvdz symm=none int=(grid=ultrafine) guess=(read,tcheck) s
 table=(opt,rrhf)
 ----------------------------------------------------------------------
 -----
 title
 -----
 Symbolic Z-matrix:
 Charge =  0 Multiplicity = 1

 SCF Done:  E(RHF) =  -412.479813544     A.U. after   12 cycles
 Normal termination of Gaussian 16 at Tue Apr  8 22:31:21 2025.
 Gaussian 16:  ES64L-G16RevC.01  3-Jul-2019

 ----------------------------------------------------------------------
 #t hf aug-cc-pvdz iop(5/13=1,5/36=2,99/5=2) pseudo=read geom=check gue
 ss=(read,tcheck) scf=(maxcycle=1)
 ----------------------------------------------------------------------
 -----
 title
 -----
 Structure from the checkpoint file:  "BDE49_expt_1021_mol1.chk"
 Charge =  0 Multiplicity = 1

                         Standard orientation:
 ---------------------------------------------------------------------
 Center     Atomic      Atomic             Coordinates (Angstroms)
 Number     Number       Type             X           Y           Z
 ---------------------------------------------------------------------
      1          6           0       -0.330927    0.000000   -0.000018
      2          9           0       -0.820081   -1.082414   -0.633921
      3          9           0       -0.820076    1.090236   -0.620375
      4          9           0       -0.819925   -0.007820    1.254388
      5          6           0        1.129440   -0.000003   -0.000078
      6          6           0        2.326580   -0.000000   -0.000040
      7          1           0        3.390189   -0.000002   -0.000002
 ---------------------------------------------------------------------

 SCF Done:  E(RHF) =  -414.011584571     A.U. after    2 cycles

 The electronic state is 1-A.
 Alpha  occ. eigenvalues --  -29.32080 -29.32080 -29.32017 -11.65246 -11.46465
 Alpha  occ. eigenvalues --  -11.44002  -1.45097  -1.12634  -0.89854  -0.89853
 Alpha  occ. eigenvalues --   -0.88251  -0.73119  -0.48785  -0.45309  -0.45308
 Alpha  occ. eigenvalues --   -0.43865  -0.43865  -0.35590  -0.35590  -0.33650
 Alpha  occ. eigenvalues --   -0.26219  -0.26219  -0.22231
 Alpha virt. eigenvalues --    0.03052   0.08323   0.10692   0.10819   0.10819
 Alpha virt. eigenvalues --    0.13211   0.13211   0.13732   0.15958   0.17231
 Alpha virt. eigenvalues --    0.17231   0.20924   0.22146   0.22147   0.23024

 Mulliken charges:
               1
     1  C    0.046706
     2  F    0.337268
     3  F    0.337268
     4  F    0.337322
     5  C    1.478535
     6  C   -3.338490
     7  H    0.801391
 Sum of Mulliken charges =   0.00000

 Dipole moment (field-independent basis, Debye):
    X=             -1.1696    Y=              0.0000    Z=              0.0003  Tot=              1.1696

 Test job not archived.
 1\1\GINC-SE453\SP\RHF\Aug-CC-pVDZ\C3H1F3\OHZDE\08-Apr-2025\0\\#t hf au
 g-cc-pvdz iop(5/13=1,5/36=2,99/5=2) pseudo=read geom=check guess=(read
 ,tcheck) scf=(maxcycle=1)\\title\\0,1\C,0,-0.330927,0.,0.000018\F,0,-0
 .820081,1.086159,0.627483\F,0,-0.820076,-1.086533,0.626838\F,0,-0.8199
 25,0.000372,-1.254412\C,0,1.12944,0.000003,0.000078\C,0,2.32658,0.,0.0
 0004\H,0,3.390189,0.000001,0.000002\\Version=ES64L-G16RevC.01\State=1-
 A\HF=-414.0115846\RMSD=8.034e-01\Dipole=-0.4601716,-0.000002,-0.000111
 7\Quadrupole=3.3434768,-1.6716433,-1.6718335,-0.0000031,-0.0002523,-0.

 Normal termination of Gaussian 16 at Tue Apr  8 22:31:24 2025.
