 Gaussian 16, Revision C.01,

 ----------------------------------------------------------------------
 #t hf aug-cc-pvdz symm=none int=(grid=ultrafine) guess=(read,tcheck) s
 table=(opt,rrhf)
 ----------------------------------------------------------------------
 -----
 title
 -----
 Symbolic Z-matrix:
 Charge =  0 Multiplicity = 1

 SCF Done:  E(RHF) =  -727.867370758     A.U. after   11 cycles
 Normal termination of Gaussian 16 at Wed Apr  9 00:15:34 2025.
 Gaussian 16:  ES64L-G16RevC.01  3-Jul-2019

 ----------------------------------------------------------------------
 #t hf aug-cc-pvdz iop(5/13=1,5/36=2,99/5=2) pseudo=read geom=check gue
 ss=(read,tcheck) scf=(maxcycle=1)
 ----------------------------------------------------------------------
 -----
 title
 -----
 Structure from the checkpoint file:  "BDE49_nonexpt_2490_mol1.chk"
 Charge =  0 Multiplicity = 1

                         Standard orientation:
 ---------------------------------------------------------------------
 Center     Atomic      Atomic             Coordinates (Angstroms)
 Number     Number       Type             X           Y           Z
 ---------------------------------------------------------------------
      1         16           0        1.435758   -0.355989   -0.000003
      2         14           0       -0.492857    0.643543    0.000003
      3          6           0       -1.798681   -0.697843    0.000001
      4          1           0       -1.711680   -1.331120   -0.886310
      5          1           0       -2.796141   -0.248957    0.000008
      6          1           0       -1.711672   -1.331131    0.886304
      7          1           0        2.163944    0.774845   -0.000004
      8          1           0       -0.612247    1.504828   -1.199433
      9          1           0       -0.612244    1.504822    1.199443
 ---------------------------------------------------------------------

 SCF Done:  E(RHF) =  -728.474498409     A.U. after    2 cycles

 The electronic state is 1-A.
 Alpha  occ. eigenvalues --  -76.23726 -75.68001 -13.13232 -13.06094 -13.01376
 Alpha  occ. eigenvalues --  -11.35893  -8.01981  -5.57232  -2.20483  -2.19003
 Alpha  occ. eigenvalues --   -2.18977  -1.10753  -1.04055  -0.72462  -0.57238
 Alpha  occ. eigenvalues --   -0.57153  -0.50571  -0.47562  -0.42404  -0.34171
 Alpha  occ. eigenvalues --   -0.26825
 Alpha virt. eigenvalues --    0.02940   0.03971   0.04670   0.05665   0.06931
 Alpha virt. eigenvalues --    0.08411   0.08507   0.09388   0.11074   0.11861
 Alpha virt. eigenvalues --    0.12383   0.14971   0.15309   0.15651   0.16847

 Mulliken charges:
               1
     1  S   -2.473715
     2  Si   5.998715
     3  C   -4.820930
     4  H    1.241167
     5  H    1.287354
     6  H    1.241165
     7  H    1.021937
     8  H   -1.747846
     9  H   -1.747847
 Sum of Mulliken charges =  -0.00000

 Dipole moment (field-independent basis, Debye):
    X=             -0.2430    Y=             -1.7952    Z=             -0.0000  Tot=              1.8115

 Test job not archived.
 1\1\GINC-SE059\SP\RHF\Aug-CC-pVDZ\C1H6S1Si1\OHZDE\09-Apr-2025\0\\#t hf
  aug-cc-pvdz iop(5/13=1,5/36=2,99/5=2) pseudo=read geom=check guess=(r
 ead,tcheck) scf=(maxcycle=1)\\title\\0,1\S,0,1.435758,-0.35599,-0.0000
 03\Si,0,-0.492857,0.643543,0.000003\C,0,-1.798681,-0.697842,0.000001\H
 ,0,-1.71168,-1.33112,-0.88631\H,0,-2.796141,-0.248956,0.000008\H,0,-1.
 711672,-1.331131,0.886304\H,0,2.163944,0.774844,-0.000004\H,0,-0.61224
 6,1.504828,-1.199433\H,0,-0.612243,1.504822,1.199443\\Version=ES64L-G1
 6RevC.01\State=1-A\HF=-728.4744984\RMSD=1.072e-01\Dipole=-0.0956045,-0

 Normal termination of Gaussian 16 at Wed Apr  9 00:15:37 2025.
