 Gaussian 16, Revision C.01,

 ----------------------------------------------------------------------
 #t hf aug-cc-pvdz symm=none int=(grid=ultrafine) guess=(read,tcheck) s
 table=(opt,rrhf)
 ----------------------------------------------------------------------
 -----
 title
 -----
 Symbolic Z-matrix:
 Charge =  0 Multiplicity = 1

 SCF Done:  E(RHF) =  -653.998895485     A.U. after   14 cycles
 Normal termination of Gaussian 16 at Wed Apr  9 00:05:19 2025.
 Gaussian 16:  ES64L-G16RevC.01  3-Jul-2019

 ----------------------------------------------------------------------
 #t hf aug-cc-pvdz iop(5/13=1,5/36=2,99/5=2) pseudo=read geom=check gue
 ss=(read,tcheck) scf=(maxcycle=1)
 ----------------------------------------------------------------------
 -----
 title
 -----
 Structure from the checkpoint file:  "BDE49_nonexpt_2160_mol1.chk"
 Charge =  0 Multiplicity = 1

                         Standard orientation:
 ---------------------------------------------------------------------
 Center     Atomic      Atomic             Coordinates (Angstroms)
 Number     Number       Type             X           Y           Z
 ---------------------------------------------------------------------
      1          6           0       -0.416460    0.014697   -0.033391
      2          6           0       -1.141854   -1.188726   -0.059112
      3          6           0       -2.534420   -1.196151   -0.021612
      4          6           0       -3.237202    0.005406    0.046725
      5          6           0       -2.540325    1.211349    0.073424
      6          6           0       -1.147168    1.212028    0.032705
      7          7           0        1.931762   -1.386466   -0.989549
      8          1           0       -3.071914   -2.138234   -0.045669
      9          1           0       -4.321435    0.002093    0.076306
     10          1           0       -3.081364    2.150308    0.122941
     11          1           0       -0.626221    2.164127    0.047828
     12          1           0       -0.603835   -2.128874   -0.122062
     13         14           0        1.468483   -0.015789   -0.033878
     14          1           0        1.607632   -1.467845   -1.943457
     15          1           0        2.865488   -1.762407   -0.901633
     16          6           0        2.148434   -0.316012    1.692259
     17          1           0        1.739593   -1.235854    2.118444
     18          1           0        1.888309    0.508992    2.361957
     19          1           0        3.240432   -0.400867    1.684102
     20          6           0        2.117747    1.638019   -0.665060
     21          1           0        1.832071    2.469358   -0.012440
     22          1           0        1.746147    1.859691   -1.670095
     23          1           0        3.211491    1.622159   -0.710710
 ---------------------------------------------------------------------

 SCF Done:  E(RHF) =  -655.959870128     A.U. after    2 cycles

 The electronic state is 1-A.
 Alpha  occ. eigenvalues --  -76.19310 -15.71600 -11.50746 -11.42327 -11.41746
 Alpha  occ. eigenvalues --  -11.40039 -11.39715 -11.35256 -11.34045 -11.33736
 Alpha  occ. eigenvalues --   -5.53664  -2.19098  -2.18046  -2.16944  -1.32901
 Alpha  occ. eigenvalues --   -1.24201  -1.08349  -1.08113  -1.03944  -1.00402
 Alpha  occ. eigenvalues --   -0.85263  -0.84545  -0.71964  -0.67417  -0.63881
 Alpha  occ. eigenvalues --   -0.62216  -0.57902  -0.56345  -0.56150  -0.55507
 Alpha  occ. eigenvalues --   -0.53930  -0.53588  -0.51095  -0.49540  -0.46570
 Alpha  occ. eigenvalues --   -0.43579  -0.40859  -0.37415  -0.35270  -0.32464
 Alpha  occ. eigenvalues --   -0.32186
 Alpha virt. eigenvalues --    0.03008   0.04846   0.05131   0.05585   0.05797
 Alpha virt. eigenvalues --    0.06095   0.06251   0.06644   0.07071   0.07415
 Alpha virt. eigenvalues --    0.08102   0.08760   0.08821   0.09393   0.10287

 Mulliken charges:
               1
     1  C   -0.294676
     2  C   -1.979277
     3  C   -1.610411
     4  C   -2.449539
     5  C   -1.913278
     6  C   -1.693157
     7  N   -3.037010
     8  H    1.540137
     9  H    1.544251
    10  H    1.547724
    11  H    1.839804
    12  H    1.774312
    13  Si   9.079069
    14  H    0.690542
    15  H    0.606514
    16  C   -6.018778
    17  H    1.110493
    18  H    1.062731
    19  H    1.067917
    20  C   -6.197948
    21  H    1.206168
    22  H    1.125237
    23  H    0.999174
 Sum of Mulliken charges =   0.00000

 Dipole moment (field-independent basis, Debye):
    X=              0.2036    Y=             -0.1232    Z=             -0.5477  Tot=              0.5971

 Test job not archived.
 1\1\GINC-SE099\SP\RHF\Aug-CC-pVDZ\C8H13N1Si1\OHZDE\09-Apr-2025\0\\#t h
 f aug-cc-pvdz iop(5/13=1,5/36=2,99/5=2) pseudo=read geom=check guess=(
 read,tcheck) scf=(maxcycle=1)\\title\\0,1\C,0,-0.41646,0.014697,-0.033
 391\C,0,-1.141854,-1.188726,-0.059112\C,0,-2.53442,-1.196151,-0.021612
 \C,0,-3.237202,0.005406,0.046725\C,0,-2.540325,1.211349,0.073424\C,0,-
 1.147168,1.212028,0.032705\N,0,1.931762,-1.386466,-0.989549\H,0,-3.071
 914,-2.138234,-0.045669\H,0,-4.321435,0.002093,0.076306\H,0,-3.081364,
 2.150308,0.122941\H,0,-0.626221,2.164127,0.047828\H,0,-0.603835,-2.128

 Normal termination of Gaussian 16 at Wed Apr  9 00:05:34 2025.
