 Gaussian 16, Revision C.01,

 ----------------------------------------------------------------------
 #t hf aug-cc-pvdz symm=none int=(grid=ultrafine) guess=(read,tcheck) s
 table=(opt,rrhf)
 ----------------------------------------------------------------------
 -----
 title
 -----
 Symbolic Z-matrix:
 Charge =  0 Multiplicity = 1

 SCF Done:  E(RHF) =  -305.927064461     A.U. after   13 cycles
 Normal termination of Gaussian 16 at Tue Apr  8 22:43:42 2025.
 Gaussian 16:  ES64L-G16RevC.01  3-Jul-2019

 ----------------------------------------------------------------------
 #t hf aug-cc-pvdz iop(5/13=1,5/36=2,99/5=2) pseudo=read geom=check gue
 ss=(read,tcheck) scf=(maxcycle=1)
 ----------------------------------------------------------------------
 -----
 title
 -----
 Structure from the checkpoint file:  "BDE49_expt_1445_mol1.chk"
 Charge =  0 Multiplicity = 1

                         Standard orientation:
 ---------------------------------------------------------------------
 Center     Atomic      Atomic             Coordinates (Angstroms)
 Number     Number       Type             X           Y           Z
 ---------------------------------------------------------------------
      1          6           0        0.974489    0.102291   -0.075606
      2          8           0        2.120227   -0.404130    0.444561
      3          8           0        0.883401    1.247518   -0.438442
      4          1           0        2.766740    0.317450    0.437026
      5          6           0       -0.108351   -0.951311   -0.150095
      6          6           0       -1.487316   -0.396020   -0.515220
      7          1           0       -0.128517   -1.485281    0.805570
      8          1           0        0.226523   -1.686389   -0.891184
      9          6           0       -2.125792    0.440485    0.597633
     10          1           0       -2.140636   -1.238962   -0.762073
     11          1           0       -1.394858    0.209109   -1.421269
     12          1           0       -2.242956   -0.145324    1.515239
     13          1           0       -3.117164    0.792534    0.301039
     14          1           0       -1.516339    1.317093    0.826429
 ---------------------------------------------------------------------

 SCF Done:  E(RHF) =  -307.311677171     A.U. after    2 cycles

 The electronic state is 1-A.
 Alpha  occ. eigenvalues --  -21.12131 -21.05282 -11.52556 -11.42965 -11.39417
 Alpha  occ. eigenvalues --  -11.35574  -1.82704  -1.65241  -1.22481  -1.04610
 Alpha  occ. eigenvalues --   -0.88518  -0.76988  -0.66406  -0.64399  -0.61167
 Alpha  occ. eigenvalues --   -0.57145  -0.56216  -0.51567  -0.48428  -0.46384
 Alpha  occ. eigenvalues --   -0.45403  -0.44704  -0.33990  -0.29801
 Alpha virt. eigenvalues --    0.03779   0.05393   0.05570   0.05792   0.05931
 Alpha virt. eigenvalues --    0.06654   0.07307   0.08124   0.11194   0.11686
 Alpha virt. eigenvalues --    0.13369   0.13594   0.14463   0.14862   0.15425

 Mulliken charges:
               1
     1  C    5.578715
     2  O   -3.020408
     3  O   -2.910752
     4  H    0.886000
     5  C   -3.424121
     6  C   -2.818173
     7  H    1.468081
     8  H    1.426445
     9  C   -3.619861
    10  H    1.245666
    11  H    1.402420
    12  H    1.275022
    13  H    1.144873
    14  H    1.366093
 Sum of Mulliken charges =   0.00000

 Dipole moment (field-independent basis, Debye):
    X=              0.0146    Y=             -0.9915    Z=              0.2041  Tot=              1.0124

 Test job not archived.
 1\1\GINC-SE366\SP\RHF\Aug-CC-pVDZ\C4H8O2\OHZDE\08-Apr-2025\0\\#t hf au
 g-cc-pvdz iop(5/13=1,5/36=2,99/5=2) pseudo=read geom=check guess=(read
 ,tcheck) scf=(maxcycle=1)\\title\\0,1\C,0,0.974489,0.102291,-0.075606\
 O,0,2.120227,-0.40413,0.444561\O,0,0.883401,1.247518,-0.438442\H,0,2.7
 6674,0.31745,0.437026\C,0,-0.108351,-0.951311,-0.150095\C,0,-1.487316,
 -0.39602,-0.51522\H,0,-0.128517,-1.485281,0.80557\H,0,0.226523,-1.6863
 89,-0.891184\C,0,-2.125792,0.440485,0.597633\H,0,-2.140636,-1.238962,-
 0.762073\H,0,-1.394858,0.209109,-1.421269\H,0,-2.242956,-0.145324,1.51

 Normal termination of Gaussian 16 at Tue Apr  8 22:43:45 2025.
