 Gaussian 16, Revision C.01,

 ----------------------------------------------------------------------
 #t hf aug-cc-pvdz symm=none int=(grid=ultrafine) guess=(read,tcheck) s
 table=(opt,rrhf)
 ----------------------------------------------------------------------
 -----
 title
 -----
 Symbolic Z-matrix:
 Charge =  0 Multiplicity = 1

 SCF Done:  E(RHF) =  -247.023684769     A.U. after   13 cycles
 Normal termination of Gaussian 16 at Tue Apr  8 22:40:44 2025.
 Gaussian 16:  ES64L-G16RevC.01  3-Jul-2019

 ----------------------------------------------------------------------
 #t hf aug-cc-pvdz iop(5/13=1,5/36=2,99/5=2) pseudo=read geom=check gue
 ss=(read,tcheck) scf=(maxcycle=1)
 ----------------------------------------------------------------------
 -----
 title
 -----
 Structure from the checkpoint file:  "BDE49_expt_1318_mol1.chk"
 Charge =  0 Multiplicity = 1

                         Standard orientation:
 ---------------------------------------------------------------------
 Center     Atomic      Atomic             Coordinates (Angstroms)
 Number     Number       Type             X           Y           Z
 ---------------------------------------------------------------------
      1          6           0        0.862724   -0.648994   -0.000000
      2          7           0       -0.347136   -0.018344   -0.000000
      3          6           0       -1.594134   -0.756623    0.000002
      4          1           0       -2.192376   -0.521638   -0.887799
      5          1           0       -2.192373   -0.521639    0.887804
      6          1           0       -1.384970   -1.827742   -0.000000
      7          8           0        1.947249   -0.103637   -0.000002
      8          6           0       -0.411949    1.433464    0.000001
      9          1           0        0.607292    1.815134   -0.000002
     10          1           0       -0.937788    1.798215    0.889184
     11          1           0       -0.937794    1.798215   -0.889179
     12          1           0        0.750125   -1.750126   -0.000002
 ---------------------------------------------------------------------

 SCF Done:  E(RHF) =  -248.166471637     A.U. after    2 cycles

 The electronic state is 1-A.
 Alpha  occ. eigenvalues --  -21.02336 -15.75157 -11.47579 -11.41399 -11.39571
 Alpha  occ. eigenvalues --   -1.69737  -1.43194  -1.06397  -0.99743  -0.79555
 Alpha  occ. eigenvalues --   -0.68581  -0.65695  -0.61804  -0.56412  -0.55026
 Alpha  occ. eigenvalues --   -0.52695  -0.48313  -0.48082  -0.29280  -0.29143
 Alpha virt. eigenvalues --    0.03002   0.05114   0.05494   0.05504   0.06995
 Alpha virt. eigenvalues --    0.07039   0.08031   0.10684   0.11195   0.12730
 Alpha virt. eigenvalues --    0.13517   0.14366   0.15065   0.16369   0.16473

 Mulliken charges:
               1
     1  C    2.226889
     2  N   -2.831673
     3  C   -3.272972
     4  H    1.389299
     5  H    1.389301
     6  H    1.409438
     7  O   -2.760271
     8  C   -3.323461
     9  H    1.373139
    10  H    1.381380
    11  H    1.381380
    12  H    1.637550
 Sum of Mulliken charges =  -0.00000

 Dipole moment (field-independent basis, Debye):
    X=             -2.6884    Y=             -0.0704    Z=              0.0000  Tot=              2.6893

 Test job not archived.
 1\1\GINC-SE109\SP\RHF\Aug-CC-pVDZ\C3H7N1O1\OHZDE\08-Apr-2025\0\\#t hf
 aug-cc-pvdz iop(5/13=1,5/36=2,99/5=2) pseudo=read geom=check guess=(re
 ad,tcheck) scf=(maxcycle=1)\\title\\0,1\C,0,0.862724,-0.648994,0.\N,0,
 -0.347136,-0.018344,0.\C,0,-1.594134,-0.756623,0.000002\H,0,-2.192376,
 -0.521639,-0.887799\H,0,-2.192373,-0.52164,0.887804\H,0,-1.38497,-1.82
 7742,0.\O,0,1.947249,-0.103636,-0.000002\C,0,-0.411949,1.433464,0.0000
 01\H,0,0.607291,1.815134,-0.000002\H,0,-0.937789,1.798215,0.889184\H,0
 ,-0.937795,1.798215,-0.889179\H,0,0.750125,-1.750126,-0.000002\\Versio

 Normal termination of Gaussian 16 at Tue Apr  8 22:40:48 2025.
