 Gaussian 16, Revision C.01,

 ----------------------------------------------------------------------
 #t hf aug-cc-pvdz symm=none int=(grid=ultrafine) guess=(read,tcheck) s
 table=(opt,rrhf)
 ----------------------------------------------------------------------
 -----
 title
 -----
 Symbolic Z-matrix:
 Charge =  0 Multiplicity = 1

 SCF Done:  E(RHF) =  -546.057289691     A.U. after   15 cycles
 Normal termination of Gaussian 16 at Wed Apr  9 00:46:49 2025.
 Gaussian 16:  ES64L-G16RevC.01  3-Jul-2019

 ----------------------------------------------------------------------
 #t hf aug-cc-pvdz iop(5/13=1,5/36=2,99/5=2) pseudo=read geom=check gue
 ss=(read,tcheck) scf=(maxcycle=1)
 ----------------------------------------------------------------------
 -----
 title
 -----
 Structure from the checkpoint file:  "BDE49_nonexpt_802_mol1.chk"
 Charge =  0 Multiplicity = 1

                         Standard orientation:
 ---------------------------------------------------------------------
 Center     Atomic      Atomic             Coordinates (Angstroms)
 Number     Number       Type             X           Y           Z
 ---------------------------------------------------------------------
      1          6           0       -1.924244   -1.205430    0.108418
      2          6           0       -0.552491   -1.204087   -0.133298
      3          6           0        0.158867   -0.000066   -0.264159
      4          6           0       -2.612639    0.000076    0.229954
      5          6           0       -1.924162    1.205512    0.108180
      6          6           0       -0.552410    1.204029   -0.133534
      7          1           0       -2.455991   -2.146331    0.198798
      8          1           0       -0.033337   -2.152327   -0.231606
      9          1           0       -0.033193    2.152216   -0.232026
     10          1           0       -3.680847    0.000131    0.416320
     11          1           0       -2.455846    2.146467    0.198376
     12          5           0        2.788788    0.000318    1.320520
     13         14           0        2.029528   -0.000155   -0.543683
     14          1           0        2.397725   -1.205862   -1.328321
     15          1           0        2.397772    1.205141   -1.328932
     16          1           0        2.974492   -1.018506    1.911736
     17          1           0        2.974363    1.019449    1.911250
 ---------------------------------------------------------------------

 SCF Done:  E(RHF) =  -547.451295568     A.U. after    2 cycles

 The electronic state is 1-A.
 Alpha  occ. eigenvalues --  -76.19862 -11.51119 -11.42925 -11.42368 -11.40559
 Alpha  occ. eigenvalues --  -11.40151 -11.36043  -7.61757  -5.53614  -2.18357
 Alpha  occ. eigenvalues --   -2.16922  -2.16145  -1.33598  -1.09005  -1.09002
 Alpha  occ. eigenvalues --   -0.88359  -0.86070  -0.83656  -0.73385  -0.68523
 Alpha  occ. eigenvalues --   -0.63249  -0.58343  -0.56692  -0.52834  -0.50492
 Alpha  occ. eigenvalues --   -0.49776  -0.45447  -0.44315  -0.40983  -0.36521
 Alpha  occ. eigenvalues --   -0.33021  -0.32034
 Alpha virt. eigenvalues --    0.02534   0.03432   0.03806   0.04235   0.05416
 Alpha virt. eigenvalues --    0.05602   0.06159   0.07481   0.07883   0.08197
 Alpha virt. eigenvalues --    0.09143   0.09685   0.10270   0.10736   0.11048

 Mulliken charges:
               1
     1  C   -0.601354
     2  C   -2.687802
     3  C    0.558118
     4  C   -2.181009
     5  C   -0.601476
     6  C   -2.687531
     7  H    1.553901
     8  H    1.885548
     9  H    1.885558
    10  H    1.511482
    11  H    1.553892
    12  B    2.498795
    13  Si   4.826682
    14  H   -1.773146
    15  H   -1.773167
    16  H   -1.984290
    17  H   -1.984202
 Sum of Mulliken charges =  -0.00000

 Dipole moment (field-independent basis, Debye):
    X=             -0.9391    Y=              0.0001    Z=              0.4077  Tot=              1.0238

 Test job not archived.
 1\1\GINC-SE074\SP\RHF\Aug-CC-pVDZ\C6H9B1Si1\OHZDE\09-Apr-2025\0\\#t hf
  aug-cc-pvdz iop(5/13=1,5/36=2,99/5=2) pseudo=read geom=check guess=(r
 ead,tcheck) scf=(maxcycle=1)\\title\\0,1\C,0,-1.924244,-1.20543,0.1084
 18\C,0,-0.552491,-1.204087,-0.133298\C,0,0.158867,-0.000066,-0.264159\
 C,0,-2.612639,0.000076,0.229954\C,0,-1.924162,1.205512,0.10818\C,0,-0.
 55241,1.204029,-0.133534\H,0,-2.455991,-2.146331,0.198798\H,0,-0.03333
 7,-2.152327,-0.231606\H,0,-0.033193,2.152216,-0.232026\H,0,-3.680847,0
 .000131,0.41632\H,0,-2.455846,2.146467,0.198376\B,0,2.788788,0.000318,

 Normal termination of Gaussian 16 at Wed Apr  9 00:46:57 2025.
