 Gaussian 16, Revision C.01,

 ----------------------------------------------------------------------
 #t hf aug-cc-pvdz symm=none int=(grid=ultrafine) guess=(read,tcheck) s
 table=(opt,rrhf)
 ----------------------------------------------------------------------
 -----
 title
 -----
 Symbolic Z-matrix:
 Charge =  0 Multiplicity = 1

 SCF Done:  E(RHF) =  -554.949605875     A.U. after   12 cycles
 Normal termination of Gaussian 16 at Tue Apr  8 23:50:21 2025.
 Gaussian 16:  ES64L-G16RevC.01  3-Jul-2019

 ----------------------------------------------------------------------
 #t hf aug-cc-pvdz iop(5/13=1,5/36=2,99/5=2) pseudo=read geom=check gue
 ss=(read,tcheck) scf=(maxcycle=1)
 ----------------------------------------------------------------------
 -----
 title
 -----
 Structure from the checkpoint file:  "BDE49_nonexpt_1866_mol1.chk"
 Charge =  0 Multiplicity = 1

                         Standard orientation:
 ---------------------------------------------------------------------
 Center     Atomic      Atomic             Coordinates (Angstroms)
 Number     Number       Type             X           Y           Z
 ---------------------------------------------------------------------
      1          6           0        0.839727    0.082736    0.371294
      2         14           0       -0.856901   -0.653156   -0.090942
      3          8           0        0.859230    1.370075   -0.242643
      4          1           0        1.618115    1.872437    0.075214
      5          8           0       -2.008700    0.509459    0.131492
      6          1           0       -1.203749   -1.768179    0.812308
      7          1           0       -0.773143   -1.122785   -1.491573
      8          1           0       -1.753421    1.392033   -0.154013
      9          8           0        1.830013   -0.791486   -0.134447
     10          1           0        2.669094   -0.624867    0.308465
     11          1           0        0.957015    0.194739    1.459804
 ---------------------------------------------------------------------

 SCF Done:  E(RHF) =  -556.227746425     A.U. after    2 cycles

 The electronic state is 1-A.
 Alpha  occ. eigenvalues --  -76.22516 -21.08876 -21.08818 -21.06810 -11.42701
 Alpha  occ. eigenvalues --   -5.56477  -2.23404  -2.19758  -2.18120  -1.78203
 Alpha  occ. eigenvalues --   -1.66035  -1.65074  -0.93999  -0.74706  -0.69001
 Alpha  occ. eigenvalues --   -0.63637  -0.58546  -0.52834  -0.48057  -0.44769
 Alpha  occ. eigenvalues --   -0.43123  -0.38916  -0.36626  -0.35089  -0.31625
 Alpha virt. eigenvalues --    0.03194   0.05319   0.05493   0.05792   0.06764
 Alpha virt. eigenvalues --    0.07608   0.07977   0.08876   0.10340   0.12424
 Alpha virt. eigenvalues --    0.14469   0.15580   0.16866   0.17071   0.18951

 Mulliken charges:
               1
     1  C    0.971309
     2  Si   5.875127
     3  O   -2.420324
     4  H    0.762667
     5  O   -2.693825
     6  H   -1.678765
     7  H   -1.705892
     8  H    1.173683
     9  O   -2.501195
    10  H    0.755628
    11  H    1.461587
 Sum of Mulliken charges =  -0.00000

 Dipole moment (field-independent basis, Debye):
    X=              1.1555    Y=              1.1816    Z=              0.9334  Tot=              1.8980

 Test job not archived.
 1\1\GINC-SE339\SP\RHF\Aug-CC-pVDZ\C1H6O3Si1\OHZDE\08-Apr-2025\0\\#t hf
  aug-cc-pvdz iop(5/13=1,5/36=2,99/5=2) pseudo=read geom=check guess=(r
 ead,tcheck) scf=(maxcycle=1)\\title\\0,1\C,0,0.839727,0.082736,0.37129
 4\Si,0,-0.856901,-0.653156,-0.090942\O,0,0.85923,1.370075,-0.242643\H,
 0,1.618115,1.872437,0.075214\O,0,-2.0087,0.509459,0.131492\H,0,-1.2037
 49,-1.768179,0.812308\H,0,-0.773143,-1.122785,-1.491573\H,0,-1.753421,
 1.392033,-0.154013\O,0,1.830013,-0.791486,-0.134447\H,0,2.669094,-0.62
 4867,0.308465\H,0,0.957015,0.194739,1.459804\\Version=ES64L-G16RevC.01

 Normal termination of Gaussian 16 at Tue Apr  8 23:50:24 2025.
