 Gaussian 16, Revision C.01,

 ----------------------------------------------------------------------
 #t hf aug-cc-pvdz symm=none int=(grid=ultrafine) guess=(read,tcheck) s
 table=(opt,rrhf)
 ----------------------------------------------------------------------
 -----
 title
 -----
 Symbolic Z-matrix:
 Charge =  0 Multiplicity = 1

 SCF Done:  E(RHF) =  -705.863842876     A.U. after   14 cycles
 Normal termination of Gaussian 16 at Tue Apr  8 22:39:32 2025.
 Gaussian 16:  ES64L-G16RevC.01  3-Jul-2019

 ----------------------------------------------------------------------
 #t hf aug-cc-pvdz iop(5/13=1,5/36=2,99/5=2) pseudo=read geom=check gue
 ss=(read,tcheck) scf=(maxcycle=1)
 ----------------------------------------------------------------------
 -----
 title
 -----
 Structure from the checkpoint file:  "BDE49_expt_1233_mol1.chk"
 Charge =  0 Multiplicity = 1

                         Standard orientation:
 ---------------------------------------------------------------------
 Center     Atomic      Atomic             Coordinates (Angstroms)
 Number     Number       Type             X           Y           Z
 ---------------------------------------------------------------------
      1          6           0        0.252350   -0.347447    0.000007
      2          7           0       -1.193817   -0.812576   -0.000042
      3          8           0       -2.036004    0.028981   -0.000065
      4          6           0        0.866448   -0.916003   -1.277327
      5          1           0        0.395068   -0.478916   -2.158760
      6          1           0        0.724338   -1.998986   -1.300525
      7          6           0        0.866364   -0.916011    1.277377
      8         17           0        0.389803    1.463604    0.000017
      9          1           0        0.724253   -1.998994    1.300559
     10          1           0        0.394927   -0.478930    2.158783
     11          1           0        1.934226   -0.696251    1.303657
     12          1           0        1.934312   -0.696243   -1.303534
 ---------------------------------------------------------------------

 SCF Done:  E(RHF) =  -707.249493075     A.U. after    2 cycles

 The electronic state is 1-A.
 Alpha  occ. eigenvalues --  -99.88475 -21.14300 -15.87424 -11.49934 -11.42130
 Alpha  occ. eigenvalues --  -11.39184 -10.45796  -9.65739  -9.64960  -9.64933
 Alpha  occ. eigenvalues --   -1.88109  -1.37268  -1.21180  -1.05046  -1.02138
 Alpha  occ. eigenvalues --   -0.81547  -0.67945  -0.66888  -0.64395  -0.58670
 Alpha  occ. eigenvalues --   -0.58411  -0.53914  -0.53464  -0.50682  -0.50470
 Alpha  occ. eigenvalues --   -0.48286  -0.45869  -0.28876
 Alpha virt. eigenvalues --    0.03459   0.05601   0.05638   0.06414   0.06432
 Alpha virt. eigenvalues --    0.07093   0.08109   0.10659   0.11718   0.13005
 Alpha virt. eigenvalues --    0.13025   0.14026   0.15080   0.15275   0.16442

 Mulliken charges:
               1
     1  C    0.318596
     2  N    0.796234
     3  O   -2.231403
     4  C   -3.184703
     5  H    1.259547
     6  H    1.263307
     7  C   -3.184699
     8  Cl  -0.043668
     9  H    1.263307
    10  H    1.259546
    11  H    1.241968
    12  H    1.241967
 Sum of Mulliken charges =   0.00000

 Dipole moment (field-independent basis, Debye):
    X=              0.6905    Y=             -1.7120    Z=              0.0000  Tot=              1.8460

 Test job not archived.
 1\1\GINC-SE453\SP\RHF\Aug-CC-pVDZ\C3H6Cl1N1O1\OHZDE\08-Apr-2025\0\\#t
 hf aug-cc-pvdz iop(5/13=1,5/36=2,99/5=2) pseudo=read geom=check guess=
 (read,tcheck) scf=(maxcycle=1)\\title\\0,1\C,0,0.252349,-0.347448,0.00
 0007\N,0,-1.193819,-0.812573,-0.000042\O,0,-2.036004,0.028986,-0.00006
 5\C,0,0.866446,-0.916005,-1.277327\H,0,0.395067,-0.478917,-2.15876\H,0
 ,0.724333,-1.998988,-1.300525\C,0,0.866362,-0.916013,1.277377\Cl,0,0.3
 89806,1.463603,0.000017\H,0,0.724248,-1.998996,1.300559\H,0,0.394926,-
 0.478931,2.158783\H,0,1.934224,-0.696256,1.303657\H,0,1.93431,-0.69624

 Normal termination of Gaussian 16 at Tue Apr  8 22:39:36 2025.
