 Gaussian 16, Revision C.01,

 ----------------------------------------------------------------------
 #t hf aug-cc-pvdz symm=none int=(grid=ultrafine) guess=(read,tcheck) s
 table=(opt,rrhf)
 ----------------------------------------------------------------------
 -----
 title
 -----
 Symbolic Z-matrix:
 Charge =  0 Multiplicity = 1

 SCF Done:  E(RHF) =  -1103.85295552     A.U. after   16 cycles
 Normal termination of Gaussian 16 at Tue Apr  8 23:02:37 2025.
 Gaussian 16:  ES64L-G16RevC.01  3-Jul-2019

 ----------------------------------------------------------------------
 #t hf aug-cc-pvdz iop(5/13=1,5/36=2,99/5=2) pseudo=read geom=check gue
 ss=(read,tcheck) scf=(maxcycle=1)
 ----------------------------------------------------------------------
 -----
 title
 -----
 Structure from the checkpoint file:  "BDE49_expt_1896_mol1.chk"
 Charge =  0 Multiplicity = 1

                         Standard orientation:
 ---------------------------------------------------------------------
 Center     Atomic      Atomic             Coordinates (Angstroms)
 Number     Number       Type             X           Y           Z
 ---------------------------------------------------------------------
      1          6           0       -0.701621    0.494764    0.417406
      2          8           0       -0.209495    1.584873    0.409421
      3          8           0        0.016687   -0.661001    0.711759
      4          8           0        1.360596   -0.342790    1.089388
      5          6           0        2.179889   -0.187188   -0.013602
      6          8           0        1.860767   -0.356723   -1.142382
      7          6           0       -2.116570    0.149409    0.127672
      8          6           0       -2.608861   -1.160959    0.172375
      9          6           0       -3.948569   -1.402515   -0.111279
     10          6           0       -4.797532   -0.345990   -0.437879
     11          6           0       -4.307749    0.959035   -0.482842
     12          6           0       -2.970550    1.208548   -0.201457
     13          1           0       -2.568174    2.213179   -0.231858
     14          1           0       -1.948743   -1.980276    0.423320
     15          1           0       -4.330486   -2.416077   -0.078428
     16          1           0       -5.841112   -0.540005   -0.658491
     17          1           0       -4.967794    1.779712   -0.738037
     18          6           0        3.517461    0.277559    0.542530
     19         17           0        4.868470   -0.117315   -0.559161
     20          1           0        3.713369   -0.174253    1.512083
     21          1           0        3.475121    1.361225    0.654124
 ---------------------------------------------------------------------

 SCF Done:  E(RHF) =  -1106.90251326     A.U. after    2 cycles

 The electronic state is 1-A.
 Alpha  occ. eigenvalues --  -99.89826 -21.16199 -21.15699 -21.08591 -21.07618
 Alpha  occ. eigenvalues --  -11.56622 -11.56406 -11.53954 -11.46987 -11.45842
 Alpha  occ. eigenvalues --  -11.45618 -11.43793 -11.42863 -11.38872 -10.47088
 Alpha  occ. eigenvalues --   -9.67000  -9.66216  -9.66145  -2.04638  -1.76632
 Alpha  occ. eigenvalues --   -1.72338  -1.52587  -1.36180  -1.34433  -1.13748
 Alpha  occ. eigenvalues --   -1.11438  -1.08263  -0.93658  -0.88642  -0.82908
 Alpha  occ. eigenvalues --   -0.77393  -0.73725  -0.70681  -0.69735  -0.67717
 Alpha  occ. eigenvalues --   -0.63867  -0.63568  -0.60696  -0.60325  -0.58382
 Alpha  occ. eigenvalues --   -0.55945  -0.55526  -0.53100  -0.50666  -0.49590
 Alpha  occ. eigenvalues --   -0.49345  -0.47652  -0.46516  -0.44090  -0.37212
 Alpha  occ. eigenvalues --   -0.36148  -0.34940  -0.34059  -0.32194  -0.31671
 Alpha virt. eigenvalues --    0.02758   0.04551   0.04653   0.04909   0.06166
 Alpha virt. eigenvalues --    0.06557   0.06977   0.07355   0.07989   0.08940
 Alpha virt. eigenvalues --    0.10000   0.10211   0.10477   0.11449   0.12306

 Mulliken charges:
               1
     1  C    3.594168
     2  O   -3.671625
     3  O   -2.213098
     4  O   -2.053708
     5  C    5.920826
     6  O   -3.051831
     7  C    3.718514
     8  C   -0.903808
     9  C   -1.245264
    10  C   -3.150611
    11  C   -1.229451
    12  C   -3.049614
    13  H    1.702220
    14  H    2.010502
    15  H    1.487922
    16  H    1.537851
    17  H    1.465241
    18  C   -4.353907
    19  Cl   0.164683
    20  H    1.755075
    21  H    1.565914
 Sum of Mulliken charges =  -0.00000

 Dipole moment (field-independent basis, Debye):
    X=             -3.2006    Y=             -0.2328    Z=              1.3576  Tot=              3.4844

 Test job not archived.
 1\1\GINC-SE103\SP\RHF\Aug-CC-pVDZ\C9H7Cl1O4\OHZDE\08-Apr-2025\0\\#t hf
  aug-cc-pvdz iop(5/13=1,5/36=2,99/5=2) pseudo=read geom=check guess=(r
 ead,tcheck) scf=(maxcycle=1)\\title\\0,1\C,0,-0.701621,0.494764,0.4174
 06\O,0,-0.209495,1.584873,0.409421\O,0,0.016687,-0.661001,0.711759\O,0
 ,1.360596,-0.34279,1.089388\C,0,2.179889,-0.187188,-0.013602\O,0,1.860
 767,-0.356723,-1.142382\C,0,-2.11657,0.149409,0.127672\C,0,-2.608861,-
 1.160959,0.172375\C,0,-3.948569,-1.402515,-0.111279\C,0,-4.797532,-0.3
 4599,-0.437879\C,0,-4.307749,0.959035,-0.482842\C,0,-2.97055,1.208548,

 Normal termination of Gaussian 16 at Tue Apr  8 23:02:57 2025.
