 Gaussian 16, Revision C.01,

 ----------------------------------------------------------------------
 #t hf aug-cc-pvdz symm=none int=(grid=ultrafine) guess=(read,tcheck) s
 table=(opt,rrhf)
 ----------------------------------------------------------------------
 -----
 title
 -----
 Symbolic Z-matrix:
 Charge =  0 Multiplicity = 1

 SCF Done:  E(RHF) =  -789.212813428     A.U. after   12 cycles
 Normal termination of Gaussian 16 at Tue Apr  8 23:57:20 2025.
 Gaussian 16:  ES64L-G16RevC.01  3-Jul-2019

 ----------------------------------------------------------------------
 #t hf aug-cc-pvdz iop(5/13=1,5/36=2,99/5=2) pseudo=read geom=check gue
 ss=(read,tcheck) scf=(maxcycle=1)
 ----------------------------------------------------------------------
 -----
 title
 -----
 Structure from the checkpoint file:  "BDE49_nonexpt_2024_mol1.chk"
 Charge =  0 Multiplicity = 1

                         Standard orientation:
 ---------------------------------------------------------------------
 Center     Atomic      Atomic             Coordinates (Angstroms)
 Number     Number       Type             X           Y           Z
 ---------------------------------------------------------------------
      1         14           0       -1.512094   -0.192233   -0.000000
      2          6           0        0.073050    0.841675   -0.000000
      3         17           0        1.541632   -0.233783   -0.000000
      4          1           0        0.149179    1.473907    0.884542
      5          1           0        0.149179    1.473907   -0.884541
      6          1           0       -1.554769   -1.036409    1.212117
      7          1           0       -1.554769   -1.036409   -1.212117
      8          1           0       -2.665555    0.740530   -0.000000
 ---------------------------------------------------------------------

 SCF Done:  E(RHF) =  -789.830292966     A.U. after    2 cycles

 The electronic state is 1-A.
 Alpha  occ. eigenvalues --  -99.88306 -76.22777 -11.41549 -10.45474  -9.65287
 Alpha  occ. eigenvalues --   -9.64727  -9.64608  -5.56295  -2.19710  -2.18485
 Alpha  occ. eigenvalues --   -2.18456  -1.32036  -1.01216  -0.76940  -0.64209
 Alpha  occ. eigenvalues --   -0.60782  -0.54225  -0.48535  -0.47874  -0.47433
 Alpha  occ. eigenvalues --   -0.42303
 Alpha virt. eigenvalues --    0.03057   0.04363   0.05454   0.06484   0.07422
 Alpha virt. eigenvalues --    0.07648   0.08058   0.09534   0.09720   0.11981
 Alpha virt. eigenvalues --    0.15213   0.16073   0.16644   0.16664   0.17235

 Mulliken charges:
               1
     1  Si   6.088459
     2  C   -4.208928
     3  Cl  -0.004560
     4  H    1.520488
     5  H    1.520489
     6  H   -1.663840
     7  H   -1.663840
     8  H   -1.588269
 Sum of Mulliken charges =  -0.00000

 Dipole moment (field-independent basis, Debye):
    X=             -1.5544    Y=              1.4475    Z=             -0.0000  Tot=              2.1240

 Test job not archived.
 1\1\GINC-SE331\SP\RHF\Aug-CC-pVDZ\C1H5Cl1Si1\OHZDE\08-Apr-2025\0\\#t h
 f aug-cc-pvdz iop(5/13=1,5/36=2,99/5=2) pseudo=read geom=check guess=(
 read,tcheck) scf=(maxcycle=1)\\title\\0,1\Si,0,1.512094,-0.192233,0.\C
 ,0,-0.07305,0.841675,0.\Cl,0,-1.541632,-0.233783,0.\H,0,-0.149179,1.47
 3907,-0.884542\H,0,-0.149179,1.473907,0.884541\H,0,1.554769,-1.036409,
 -1.212117\H,0,1.554769,-1.036409,1.212117\H,0,2.665555,0.74053,0.\\Ver
 sion=ES64L-G16RevC.01\State=1-A\HF=-789.830293\RMSD=8.299e-02\Dipole=0
 .6115355,0.5694761,0.\Quadrupole=-1.3776333,1.2645457,0.1130875,0.0497

 Normal termination of Gaussian 16 at Tue Apr  8 23:57:23 2025.
