 Gaussian 16, Revision C.01,

 ----------------------------------------------------------------------
 #t hf aug-cc-pvdz symm=none int=(grid=ultrafine) guess=(read,tcheck) s
 table=(opt,rrhf)
 ----------------------------------------------------------------------
 -----
 title
 -----
 Symbolic Z-matrix:
 Charge =  0 Multiplicity = 1

 SCF Done:  E(RHF) =  -878.155592846     A.U. after   11 cycles

 1\1\GINC-SE453\Stability\RHF\Aug-CC-pVDZ\F3H3Si2\OHZDE\08-Apr-2025\0\\
 #t hf aug-cc-pvdz symm=none int=(grid=ultrafine) guess=(read,tcheck) s
 table=(opt,rrhf)\\title\\0,1\Si,0,1.905813,0.000008,-0.000002\Si,0,-0.
 432819,0.000006,-0.000011\F,0,-1.028207,-1.232778,-0.812026\F,0,-1.028
 217,-0.086878,1.473608\F,0,-1.028244,1.319634,-0.661566\H,0,2.380015,-
 1.25153,0.628786\H,0,2.380026,1.170306,0.769496\H,0,2.380058,0.081241,
 -1.398247\\Version=ES64L-G16RevC.01\HF=-878.1555928\RMSD=1.271e-09\Dip
 ole=0.9978935,0.0000282,-0.0000471\Quadrupole=1.2352425,-0.6177072,-0.

 Normal termination of Gaussian 16 at Tue Apr  8 23:57:22 2025.
 Gaussian 16:  ES64L-G16RevC.01  3-Jul-2019

 ----------------------------------------------------------------------
 #t hf aug-cc-pvdz iop(5/13=1,5/36=2,99/5=2) pseudo=read geom=check gue
 ss=(read,tcheck) scf=(maxcycle=1)
 ----------------------------------------------------------------------
 -----
 title
 -----
 Structure from the checkpoint file:  "BDE49_nonexpt_2018_mol1.chk"
 Charge =  0 Multiplicity = 1

                         Standard orientation:
 ---------------------------------------------------------------------
 Center     Atomic      Atomic             Coordinates (Angstroms)
 Number     Number       Type             X           Y           Z
 ---------------------------------------------------------------------
      1         14           0        1.905813    0.000008   -0.000001
      2         14           0       -0.432819    0.000006   -0.000011
      3          9           0       -1.028207   -1.229219   -0.817404
      4          9           0       -1.028217   -0.093315    1.473214
      5          9           0       -1.028244    1.322512   -0.655795
      6          1           0        2.380015   -1.254266    0.623313
      7          1           0        2.380026    1.166933    0.774602
      8          1           0        2.380058    0.087348   -1.397878
 ---------------------------------------------------------------------

 SCF Done:  E(RHF) =  -879.482927209     A.U. after    2 cycles

 The electronic state is 1-A.
 Alpha  occ. eigenvalues --  -76.31713 -76.24706 -29.29459 -29.29451 -29.29451
 Alpha  occ. eigenvalues --   -5.68329  -5.58188  -2.32398  -2.32398  -2.27598
 Alpha  occ. eigenvalues --   -2.20301  -2.20301  -2.19347  -1.00874  -0.79749
 Alpha  occ. eigenvalues --   -0.72162  -0.72161  -0.51314  -0.50129  -0.50129
 Alpha  occ. eigenvalues --   -0.42649  -0.42648  -0.42511  -0.36417  -0.36416
 Alpha  occ. eigenvalues --   -0.30520  -0.30520  -0.28815  -0.28598
 Alpha virt. eigenvalues --    0.03854   0.06281   0.06701   0.06701   0.07628
 Alpha virt. eigenvalues --    0.08582   0.08582   0.09498   0.09498   0.14718
 Alpha virt. eigenvalues --    0.14718   0.15468   0.17322   0.18264   0.18265

 Mulliken charges:
               1
     1  Si   4.315405
     2  Si   2.623010
     3  F   -0.770336
     4  F   -0.770309
     5  F   -0.770375
     6  H   -1.542466
     7  H   -1.542461
     8  H   -1.542468
 Sum of Mulliken charges =  -0.00000

 Dipole moment (field-independent basis, Debye):
    X=             -2.4874    Y=             -0.0000    Z=             -0.0000  Tot=              2.4874

 Test job not archived.
 1\1\GINC-SE453\SP\RHF\Aug-CC-pVDZ\F3H3Si2\OHZDE\08-Apr-2025\0\\#t hf a
 ug-cc-pvdz iop(5/13=1,5/36=2,99/5=2) pseudo=read geom=check guess=(rea
 d,tcheck) scf=(maxcycle=1)\\title\\0,1\Si,0,1.905813,0.000008,-0.00000
 2\Si,0,-0.432819,0.000006,-0.000011\F,0,-1.028207,-1.232778,-0.812026\
 F,0,-1.028217,-0.086878,1.473608\F,0,-1.028244,1.319634,-0.661566\H,0,
 2.380015,-1.25153,0.628786\H,0,2.380026,1.170306,0.769496\H,0,2.380058
 ,0.081241,-1.398247\\Version=ES64L-G16RevC.01\State=1-A\HF=-879.482927
 2\RMSD=7.505e-02\Dipole=-0.9786085,-0.0000069,-0.0000127\Quadrupole=-1

 Normal termination of Gaussian 16 at Tue Apr  8 23:57:24 2025.
