 Gaussian 16, Revision C.01,

 ----------------------------------------------------------------------
 #t hf aug-cc-pvdz symm=none int=(grid=ultrafine) guess=(read,tcheck) s
 table=(opt,rrhf)
 ----------------------------------------------------------------------
 -----
 title
 -----
 Symbolic Z-matrix:
 Charge =  0 Multiplicity = 1

 SCF Done:  E(RHF) =  -744.020048183     A.U. after   14 cycles
 Normal termination of Gaussian 16 at Tue Apr  8 23:54:29 2025.
 Gaussian 16:  ES64L-G16RevC.01  3-Jul-2019

 ----------------------------------------------------------------------
 #t hf aug-cc-pvdz iop(5/13=1,5/36=2,99/5=2) pseudo=read geom=check gue
 ss=(read,tcheck) scf=(maxcycle=1)
 ----------------------------------------------------------------------
 -----
 title
 -----
 Structure from the checkpoint file:  "BDE49_nonexpt_1909_mol1.chk"
 Charge =  0 Multiplicity = 1

                         Standard orientation:
 ---------------------------------------------------------------------
 Center     Atomic      Atomic             Coordinates (Angstroms)
 Number     Number       Type             X           Y           Z
 ---------------------------------------------------------------------
      1         14           0       -0.157461   -0.871728    0.002895
      2          6           0        0.505447    0.784157   -0.677193
      3          7           0        1.931743    0.998721   -0.450572
      4          6           0        2.703038    0.016749    0.054976
      5          8           0        2.216107   -1.081216    0.338220
      6          1           0        2.344287    1.892658   -0.666526
      7          7           0       -1.913049   -0.713795   -0.373427
      8          1           0       -0.102574   -1.026054    1.463496
      9          1           0        0.123832   -2.079844   -0.793168
     10          6           0       -2.727713    0.238067    0.177268
     11          8           0       -2.286229    1.139144    0.877936
     12          1           0       -2.369692   -1.418660   -0.934986
     13          6           0        4.169834    0.306997    0.266214
     14          1           0        4.464656    1.306071   -0.059401
     15          1           0        4.755437   -0.436797   -0.277085
     16          1           0        4.398983    0.193070    1.327627
     17          6           0       -4.218866    0.105651   -0.099996
     18          1           0       -4.424532   -0.271202   -1.104996
     19          1           0       -4.691112    1.077756    0.032600
     20          1           0       -4.658548   -0.591453    0.619908
     21          1           0       -0.078919    1.566185   -0.187027
     22          1           0        0.282320    0.824830   -1.749856
 ---------------------------------------------------------------------

 SCF Done:  E(RHF) =  -746.251210832     A.U. after    2 cycles

 The electronic state is 1-A.
 Alpha  occ. eigenvalues --  -76.21575 -21.03146 -21.00844 -15.77600 -15.72307
 Alpha  occ. eigenvalues --  -11.51232 -11.48457 -11.40104 -11.37847 -11.37824
 Alpha  occ. eigenvalues --   -5.54966  -2.19829  -2.18210  -2.17226  -1.72886
 Alpha  occ. eigenvalues --   -1.68783  -1.39679  -1.31617  -1.12214  -1.07482
 Alpha  occ. eigenvalues --   -0.99058  -0.80837  -0.78970  -0.72743  -0.70152
 Alpha  occ. eigenvalues --   -0.64694  -0.63578  -0.62023  -0.59605  -0.59023
 Alpha  occ. eigenvalues --   -0.57959  -0.53586  -0.50140  -0.49208  -0.47978
 Alpha  occ. eigenvalues --   -0.47247  -0.45394  -0.44640  -0.42015  -0.31719
 Alpha  occ. eigenvalues --   -0.31393  -0.31028  -0.27244
 Alpha virt. eigenvalues --    0.03139   0.04225   0.05116   0.05387   0.05873
 Alpha virt. eigenvalues --    0.06153   0.06489   0.06818   0.06906   0.07685
 Alpha virt. eigenvalues --    0.07996   0.08712   0.09746   0.10629   0.11780

 Mulliken charges:
               1
     1  Si   5.707363
     2  C   -2.877614
     3  N   -3.409348
     4  C    5.408899
     5  O   -3.336628
     6  H    0.728355
     7  N   -2.916507
     8  H   -2.196452
     9  H   -1.948580
    10  C    5.375185
    11  O   -3.246488
    12  H    0.862798
    13  C   -4.464887
    14  H    1.353571
    15  H    1.241254
    16  H    1.257404
    17  C   -4.411461
    18  H    1.271262
    19  H    1.237585
    20  H    1.256886
    21  H    1.695292
    22  H    1.412111
 Sum of Mulliken charges =   0.00000

 Dipole moment (field-independent basis, Debye):
    X=              2.1700    Y=              1.0143    Z=             -1.7735  Tot=              2.9804

 Test job not archived.
 1\1\GINC-SE334\SP\RHF\Aug-CC-pVDZ\C5H12N2O2Si1\OHZDE\08-Apr-2025\0\\#t
  hf aug-cc-pvdz iop(5/13=1,5/36=2,99/5=2) pseudo=read geom=check guess
 =(read,tcheck) scf=(maxcycle=1)\\title\\0,1\Si,0,-0.157461,-0.871728,0
 .002895\C,0,0.505447,0.784157,-0.677193\N,0,1.931743,0.998721,-0.45057
 2\C,0,2.703038,0.016749,0.054976\O,0,2.216107,-1.081216,0.33822\H,0,2.
 344287,1.892658,-0.666526\N,0,-1.913049,-0.713795,-0.373427\H,0,-0.102
 574,-1.026054,1.463496\H,0,0.123832,-2.079844,-0.793168\C,0,-2.727713,
 0.238067,0.177268\O,0,-2.286229,1.139144,0.877936\H,0,-2.369692,-1.418

 Normal termination of Gaussian 16 at Tue Apr  8 23:54:40 2025.
