 Gaussian 16, Revision C.01,

 ----------------------------------------------------------------------
 #t hf aug-cc-pvdz symm=none int=(grid=ultrafine) guess=(read,tcheck) s
 table=(opt,rrhf)
 ----------------------------------------------------------------------
 -----
 title
 -----
 Symbolic Z-matrix:
 Charge =  0 Multiplicity = 1

 SCF Done:  E(RHF) =  -515.809009767     A.U. after   12 cycles
 Normal termination of Gaussian 16 at Tue Apr  8 22:46:31 2025.
 Gaussian 16:  ES64L-G16RevC.01  3-Jul-2019

 ----------------------------------------------------------------------
 #t hf aug-cc-pvdz iop(5/13=1,5/36=2,99/5=2) pseudo=read geom=check gue
 ss=(read,tcheck) scf=(maxcycle=1)
 ----------------------------------------------------------------------
 -----
 title
 -----
 Structure from the checkpoint file:  "BDE49_expt_1547_mol1.chk"
 Charge =  0 Multiplicity = 1

                         Standard orientation:
 ---------------------------------------------------------------------
 Center     Atomic      Atomic             Coordinates (Angstroms)
 Number     Number       Type             X           Y           Z
 ---------------------------------------------------------------------
      1         16           0       -1.751441    0.016062    0.000000
      2          6           0        0.000000    0.596137    0.000000
      3          6           0        0.942601   -0.608399    0.000000
      4          1           0        0.168551    1.209200    0.887623
      5          1           0        0.168551    1.209200   -0.887623
      6          1           0       -2.326424    1.230657    0.000000
      7          6           0        2.416100   -0.188140    0.000000
      8          1           0        0.735264   -1.229163   -0.877925
      9          1           0        0.735264   -1.229163    0.877925
     10          1           0        2.659473    0.409028   -0.883908
     11          1           0        3.070698   -1.063378    0.000000
     12          1           0        2.659473    0.409028    0.883908
 ---------------------------------------------------------------------

 SCF Done:  E(RHF) =  -516.661788881     A.U. after    2 cycles

 The electronic state is 1-A'.
 Alpha  occ. eigenvalues --  -75.67956 -13.13247 -13.07027 -13.00330 -11.42333
 Alpha  occ. eigenvalues --  -11.39590 -11.35944  -8.01808  -1.25183  -1.10006
 Alpha  occ. eigenvalues --   -0.95119  -0.84083  -0.65241  -0.58476  -0.57099
 Alpha  occ. eigenvalues --   -0.55533  -0.48451  -0.47495  -0.43873  -0.37635
 Alpha  occ. eigenvalues --   -0.23405
 Alpha virt. eigenvalues --    0.03469   0.04207   0.05639   0.05743   0.06127
 Alpha virt. eigenvalues --    0.06912   0.06994   0.07390   0.10692   0.11115
 Alpha virt. eigenvalues --    0.12729   0.14362   0.15059   0.16589   0.16894

 Mulliken charges:
               1
     1  S   -0.367516
     2  C   -3.385297
     3  C   -2.865549
     4  H    1.397445
     5  H    1.397445
     6  H    0.858333
     7  C   -3.664973
     8  H    1.471933
     9  H    1.471933
    10  H    1.264141
    11  H    1.157962
    12  H    1.264141
 Sum of Mulliken charges =   0.00000

 Dipole moment (field-independent basis, Debye):
    X=              0.8237    Y=             -0.8101    Z=             -0.0000  Tot=              1.1553

 Test job not archived.
 1\1\GINC-SE093\SP\RHF\Aug-CC-pVDZ\C3H8S1\OHZDE\08-Apr-2025\0\\#t hf au
 g-cc-pvdz iop(5/13=1,5/36=2,99/5=2) pseudo=read geom=check guess=(read
 ,tcheck) scf=(maxcycle=1)\\title\\0,1\S,0,-1.751441,0.016062,0.\C,0,0.
 ,0.596137,0.\C,0,0.942601,-0.608399,0.\H,0,0.168551,1.2092,0.887623\H,
 0,0.168551,1.2092,-0.887623\H,0,-2.326424,1.230657,0.\C,0,2.4161,-0.18
 814,0.\H,0,0.735264,-1.229163,-0.877925\H,0,0.735264,-1.229163,0.87792
 5\H,0,2.659473,0.409028,-0.883908\H,0,3.070698,-1.063378,0.\H,0,2.6594
 73,0.409028,0.883908\\Version=ES64L-G16RevC.01\State=1-A'\HF=-516.6617

 Normal termination of Gaussian 16 at Tue Apr  8 22:46:35 2025.
