 Gaussian 16, Revision C.01,

 ----------------------------------------------------------------------
 #t hf aug-cc-pvdz symm=none int=(grid=ultrafine) guess=(read,tcheck) s
 table=(opt,rrhf)
 ----------------------------------------------------------------------
 -----
 title
 -----
 Symbolic Z-matrix:
 Charge =  0 Multiplicity = 1

 SCF Done:  E(RHF) =  -1420.94246520     A.U. after   17 cycles
 Normal termination of Gaussian 16 at Tue Apr  8 23:49:05 2025.
 Gaussian 16:  ES64L-G16RevC.01  3-Jul-2019

 ----------------------------------------------------------------------
 #t hf aug-cc-pvdz iop(5/13=1,5/36=2,99/5=2) pseudo=read geom=check gue
 ss=(read,tcheck) scf=(maxcycle=1)
 ----------------------------------------------------------------------
 -----
 title
 -----
 Structure from the checkpoint file:  "BDE49_nonexpt_1717_mol1.chk"
 Charge =  0 Multiplicity = 1

                         Standard orientation:
 ---------------------------------------------------------------------
 Center     Atomic      Atomic             Coordinates (Angstroms)
 Number     Number       Type             X           Y           Z
 ---------------------------------------------------------------------
      1          6           0        3.733845    0.160419    0.031579
      2          6           0        3.124025    1.426147   -0.014563
      3          6           0        1.750837    1.531447   -0.060999
      4          6           0        2.939263   -0.993568    0.033892
      5          6           0        1.556135   -0.875459   -0.014408
      6          6           0        0.939729    0.379286   -0.067057
      7          1           0        3.759246    2.303061   -0.013819
      8          1           0        1.274100    2.502486   -0.096579
      9          1           0        3.385216   -1.977268    0.078175
     10          1           0        0.956037   -1.776591    0.003479
     11          6           0       -0.521491    0.567945   -0.123251
     12         16           0       -1.504563   -0.933915   -0.414259
     13         15           0       -3.504254   -0.249986    0.013866
     14          8           0       -4.444921   -1.240086   -0.501396
     15          8           0       -1.037928    1.671317   -0.023059
     16          8           0        5.083576    0.162902    0.074683
     17          6           0        5.778814   -1.081812    0.115700
     18          1           0        5.522170   -1.650158    1.015164
     19          1           0        6.835946   -0.825963    0.138806
     20          1           0        5.568816   -1.682907   -0.774466
     21          8           0       -3.566285    1.216310   -0.532647
     22          1           0       -2.702592    1.677871   -0.366957
     23          8           0       -3.538360   -0.025537    1.602042
     24          1           0       -3.737716   -0.843774    2.074018
 ---------------------------------------------------------------------

 SCF Done:  E(RHF) =  -1424.36406472     A.U. after    2 cycles

 The electronic state is 1-A.
 Alpha  occ. eigenvalues -- -105.32682 -75.71921 -21.12270 -21.10580 -21.10381
 Alpha  occ. eigenvalues --  -21.08623 -21.03144 -13.17320 -13.14096 -13.05998
 Alpha  occ. eigenvalues --  -11.56465 -11.55444 -11.49859 -11.47246 -11.45568
 Alpha  occ. eigenvalues --  -11.43861 -11.43431 -11.40070  -8.06219  -2.95034
 Alpha  occ. eigenvalues --   -2.01163  -1.92001  -1.82103  -1.78590  -1.75753
 Alpha  occ. eigenvalues --   -1.53653  -1.39919  -1.35861  -1.25613  -1.16908
 Alpha  occ. eigenvalues --   -1.12986  -1.10142  -1.02334  -0.91592  -0.89293
 Alpha  occ. eigenvalues --   -0.80120  -0.71537  -0.70967  -0.66736  -0.65982
 Alpha  occ. eigenvalues --   -0.64912  -0.62413  -0.62264  -0.61087  -0.57793
 Alpha  occ. eigenvalues --   -0.57195  -0.54499  -0.52464  -0.52042  -0.49794
 Alpha  occ. eigenvalues --   -0.46976  -0.44142  -0.43090  -0.41970  -0.41387
 Alpha  occ. eigenvalues --   -0.36540  -0.35633  -0.34873  -0.29860  -0.29548
 Alpha  occ. eigenvalues --   -0.28735  -0.27289  -0.23294  -0.15431
 Alpha virt. eigenvalues --    0.02300   0.04025   0.04486   0.05180   0.05395
 Alpha virt. eigenvalues --    0.05957   0.06375   0.06773   0.07326   0.08282
 Alpha virt. eigenvalues --    0.08469   0.09356   0.09875   0.10835   0.11538

 Mulliken charges:
               1
     1  C    3.628441
     2  C   -3.421732
     3  C   -2.604655
     4  C   -3.499420
     5  C    1.982261
     6  C    3.538874
     7  H    1.903545
     8  H    1.849605
     9  H    1.813070
    10  H    2.077070
    11  C    0.989321
    12  S   -1.357861
    13  P    7.786306
    14  O   -2.843035
    15  O   -4.048574
    16  O   -4.742772
    17  C   -3.834109
    18  H    1.403929
    19  H    1.431513
    20  H    1.399170
    21  O   -3.386498
    22  H    1.684480
    23  O   -2.607897
    24  H    0.858970
 Sum of Mulliken charges =   0.00000

 Dipole moment (field-independent basis, Debye):
    X=              5.1884    Y=             -0.0761    Z=              1.7196  Tot=              5.4665

 Test job not archived.
 1\1\GINC-SE340\SP\RHF\Aug-CC-pVDZ\C8H9O5P1S1\OHZDE\08-Apr-2025\0\\#t h
 f aug-cc-pvdz iop(5/13=1,5/36=2,99/5=2) pseudo=read geom=check guess=(
 read,tcheck) scf=(maxcycle=1)\\title\\0,1\C,0,3.733845,0.160419,0.0315
 79\C,0,3.124025,1.426147,-0.014563\C,0,1.750837,1.531447,-0.060999\C,0
 ,2.939263,-0.993568,0.033892\C,0,1.556135,-0.875459,-0.014408\C,0,0.93
 9729,0.379286,-0.067057\H,0,3.759246,2.303061,-0.013819\H,0,1.2741,2.5
 02486,-0.096579\H,0,3.385216,-1.977268,0.078175\H,0,0.956037,-1.776591
 ,0.003479\C,0,-0.521491,0.567945,-0.123251\S,0,-1.504563,-0.933915,-0.

 Normal termination of Gaussian 16 at Tue Apr  8 23:49:24 2025.
