 Gaussian 16, Revision C.01,

 ----------------------------------------------------------------------
 #t hf aug-cc-pvdz symm=none int=(grid=ultrafine) guess=(read,tcheck) s
 table=(opt,rrhf)
 ----------------------------------------------------------------------
 -----
 title
 -----
 Symbolic Z-matrix:
 Charge =  0 Multiplicity = 1

 SCF Done:  E(RHF) =  -2166.01968058     A.U. after   12 cycles
 Normal termination of Gaussian 16 at Tue Apr  8 23:46:59 2025.
 Gaussian 16:  ES64L-G16RevC.01  3-Jul-2019

 ----------------------------------------------------------------------
 #t hf aug-cc-pvdz iop(5/13=1,5/36=2,99/5=2) pseudo=read geom=check gue
 ss=(read,tcheck) scf=(maxcycle=1)
 ----------------------------------------------------------------------
 -----
 title
 -----
 Structure from the checkpoint file:  "BDE49_nonexpt_1767_mol1.chk"
 Charge =  0 Multiplicity = 1

                         Standard orientation:
 ---------------------------------------------------------------------
 Center     Atomic      Atomic             Coordinates (Angstroms)
 Number     Number       Type             X           Y           Z
 ---------------------------------------------------------------------
      1         14           0       -0.958728    1.076893   -0.000000
      2          6           0        0.603244   -0.032326   -0.000000
      3         17           0       -2.657084   -0.093272    0.000001
      4         17           0        2.002123    1.115188   -0.000001
      5         17           0        0.670130   -1.059097   -1.469100
      6         17           0        0.670131   -1.059095    1.469101
      7          1           0       -0.923681    1.877066   -1.232008
      8          1           0       -0.923680    1.877067    1.232006
 ---------------------------------------------------------------------

 SCF Done:  E(RHF) =  -2167.33956784     A.U. after    2 cycles

 The electronic state is 1-A.
 Alpha  occ. eigenvalues --  -99.92623 -99.92391 -99.92378 -99.90258 -76.29484
 Alpha  occ. eigenvalues --  -11.53543 -10.50043 -10.49645 -10.49556 -10.47710
 Alpha  occ. eigenvalues --   -9.69776  -9.69595  -9.69509  -9.69054  -9.68973
 Alpha  occ. eigenvalues --   -9.68854  -9.68778  -9.68719  -9.68683  -9.67589
 Alpha  occ. eigenvalues --   -9.66952  -9.66892  -5.63011  -2.26299  -2.25256
 Alpha  occ. eigenvalues --   -2.24948  -1.45348  -1.31271  -1.31125  -1.30704
 Alpha  occ. eigenvalues --   -0.98931  -0.81643  -0.70819  -0.70767  -0.66364
 Alpha  occ. eigenvalues --   -0.58638  -0.58467  -0.55803  -0.55589  -0.54474
 Alpha  occ. eigenvalues --   -0.51987  -0.51842  -0.50799  -0.49627  -0.44860
 Alpha virt. eigenvalues --   -0.00905   0.03888   0.04790   0.05367   0.05811
 Alpha virt. eigenvalues --    0.06121   0.06207   0.09074   0.10194   0.10646
 Alpha virt. eigenvalues --    0.11580   0.11718   0.12792   0.12924   0.14192

 Mulliken charges:
               1
     1  Si   5.609809
     2  C   -1.915379
     3  Cl  -0.884144
     4  Cl   0.190736
     5  Cl   0.254870
     6  Cl   0.254870
     7  H   -1.755380
     8  H   -1.755382
 Sum of Mulliken charges =  -0.00000

 Dipole moment (field-independent basis, Debye):
    X=             -0.3161    Y=              1.2273    Z=              0.0000  Tot=              1.2674

 Test job not archived.
 1\1\GINC-SE045\SP\RHF\Aug-CC-pVDZ\C1H2Cl4Si1\OHZDE\08-Apr-2025\0\\#t h
 f aug-cc-pvdz iop(5/13=1,5/36=2,99/5=2) pseudo=read geom=check guess=(
 read,tcheck) scf=(maxcycle=1)\\title\\0,1\Si,0,-0.958728,1.076893,0.\C
 ,0,0.603244,-0.032326,0.\Cl,0,-2.657084,-0.093272,0.000001\Cl,0,2.0021
 23,1.115188,-0.000001\Cl,0,0.67013,-1.059097,-1.4691\Cl,0,0.670131,-1.
 059095,1.469101\H,0,-0.923681,1.877066,-1.232008\H,0,-0.92368,1.877067
 ,1.232006\\Version=ES64L-G16RevC.01\State=1-A\HF=-2167.3395678\RMSD=6.
 067e-02\Dipole=-0.1243546,0.4828654,0.0000009\Quadrupole=-1.5135866,1.

 Normal termination of Gaussian 16 at Tue Apr  8 23:47:03 2025.
