 Gaussian 16, Revision C.01,

 ----------------------------------------------------------------------
 #t hf aug-cc-pvdz symm=none int=(grid=ultrafine) guess=(read,tcheck) s
 table=(opt,rrhf)
 ----------------------------------------------------------------------
 -----
 title
 -----
 Symbolic Z-matrix:
 Charge =  0 Multiplicity = 1

 SCF Done:  E(RHF) =  -626.436241943     A.U. after   12 cycles
 Normal termination of Gaussian 16 at Tue Apr  8 22:47:34 2025.
 Gaussian 16:  ES64L-G16RevC.01  3-Jul-2019

 ----------------------------------------------------------------------
 #t hf aug-cc-pvdz iop(5/13=1,5/36=2,99/5=2) pseudo=read geom=check gue
 ss=(read,tcheck) scf=(maxcycle=1)
 ----------------------------------------------------------------------
 -----
 title
 -----
 Structure from the checkpoint file:  "BDE49_expt_1597_mol1.chk"
 Charge =  0 Multiplicity = 1

                         Standard orientation:
 ---------------------------------------------------------------------
 Center     Atomic      Atomic             Coordinates (Angstroms)
 Number     Number       Type             X           Y           Z
 ---------------------------------------------------------------------
      1         16           0       -0.000000    0.194781    0.000000
      2          8           0       -0.000002    0.909628   -1.260117
      3          8           0       -0.000002    0.909627    1.260118
      4          6           0       -1.412545   -0.917362    0.000000
      5          1           0       -1.393845   -1.528266   -0.901920
      6          1           0       -2.293419   -0.274579    0.000001
      7          1           0       -1.393844   -1.528267    0.901919
      8          6           0        1.412549   -0.917358   -0.000001
      9          1           0        1.393849   -1.528262   -0.901921
     10          1           0        1.393850   -1.528263    0.901919
     11          1           0        2.293419   -0.274574   -0.000001
 ---------------------------------------------------------------------

 SCF Done:  E(RHF) =  -627.750300774     A.U. after    2 cycles

 The electronic state is 1-A.
 Alpha  occ. eigenvalues --  -75.88065 -21.03875 -21.03852 -13.50498 -13.39872
 Alpha  occ. eigenvalues --  -13.33065 -11.43452 -11.41975  -8.23247  -1.82528
 Alpha  occ. eigenvalues --   -1.64282  -1.18806  -1.08729  -0.87420  -0.65141
 Alpha  occ. eigenvalues --   -0.64507  -0.64460  -0.61707  -0.55395  -0.54025
 Alpha  occ. eigenvalues --   -0.42873  -0.38802  -0.38568  -0.36073  -0.34703
 Alpha virt. eigenvalues --    0.02074   0.04256   0.04822   0.05679   0.06943
 Alpha virt. eigenvalues --    0.06959   0.09767   0.12667   0.12797   0.13220
 Alpha virt. eigenvalues --    0.14280   0.15225   0.15631   0.16445   0.16818

 Mulliken charges:
               1
     1  S    5.869864
     2  O   -2.475453
     3  O   -2.475452
     4  C   -4.483524
     5  H    1.332401
     6  H    1.359242
     7  H    1.332401
     8  C   -4.483524
     9  H    1.332401
    10  H    1.332401
    11  H    1.359243
 Sum of Mulliken charges =  -0.00000

 Dipole moment (field-independent basis, Debye):
    X=              0.0000    Y=             -2.3898    Z=             -0.0000  Tot=              2.3898

 Test job not archived.
 1\1\GINC-SE423\SP\RHF\Aug-CC-pVDZ\C2H6O2S1\OHZDE\08-Apr-2025\0\\#t hf
 aug-cc-pvdz iop(5/13=1,5/36=2,99/5=2) pseudo=read geom=check guess=(re
 ad,tcheck) scf=(maxcycle=1)\\title\\0,1\S,0,0.,0.194781,0.\O,0,-0.0000
 01,0.909628,-1.260117\O,0,-0.000001,0.909627,1.260118\C,0,-1.412546,-0
 .917361,0.\H,0,-1.393846,-1.528265,-0.90192\H,0,-2.293419,-0.274578,0.
 000001\H,0,-1.393845,-1.528266,0.901919\C,0,1.412548,-0.917359,-0.0000
 01\H,0,1.393848,-1.528263,-0.901921\H,0,1.393849,-1.528264,0.901919\H,
 0,2.293419,-0.274575,-0.000001\\Version=ES64L-G16RevC.01\State=1-A\HF=

 Normal termination of Gaussian 16 at Tue Apr  8 22:47:37 2025.
