 Gaussian 16, Revision C.01,

 ----------------------------------------------------------------------
 #t hf aug-cc-pvdz symm=none int=(grid=ultrafine) guess=(read,tcheck) s
 table=(opt,rrhf)
 ----------------------------------------------------------------------
 -----
 title
 -----
 Symbolic Z-matrix:
 Charge =  0 Multiplicity = 1

 SCF Done:  E(RHF) =  -761.556736912     A.U. after   15 cycles
 Normal termination of Gaussian 16 at Tue Apr  8 23:17:54 2025.
 Gaussian 16:  ES64L-G16RevC.01  3-Jul-2019

 ----------------------------------------------------------------------
 #t hf aug-cc-pvdz iop(5/13=1,5/36=2,99/5=2) pseudo=read geom=check gue
 ss=(read,tcheck) scf=(maxcycle=1)
 ----------------------------------------------------------------------
 -----
 title
 -----
 Structure from the checkpoint file:  "BDE49_nonexpt_1043_mol1.chk"
 Charge =  0 Multiplicity = 1

                         Standard orientation:
 ---------------------------------------------------------------------
 Center     Atomic      Atomic             Coordinates (Angstroms)
 Number     Number       Type             X           Y           Z
 ---------------------------------------------------------------------
      1         17           0        2.194515    0.021977    0.000090
      2          8           0        0.667158   -0.773946   -0.000027
      3          6           0       -0.402239    0.094715   -0.000105
      4          8           0       -0.361242    1.286497   -0.000028
      5          8           0       -1.473034   -0.694349   -0.000059
      6          6           0       -2.736452    0.005468   -0.000003
      7          1           0       -3.491580   -0.776054    0.000028
      8          1           0       -2.823080    0.627860   -0.890991
      9          1           0       -2.823006    0.627857    0.890994
 ---------------------------------------------------------------------

 SCF Done:  E(RHF) =  -763.056020309     A.U. after    2 cycles

 The electronic state is 1-A.
 Alpha  occ. eigenvalues --  -99.96014 -21.15383 -21.12025 -21.07567 -11.56257
 Alpha  occ. eigenvalues --  -11.43657 -10.52728  -9.72643  -9.71757  -9.71572
 Alpha  occ. eigenvalues --   -1.93641  -1.76238  -1.69857  -1.27387  -1.03859
 Alpha  occ. eigenvalues --   -0.80876  -0.71923  -0.67566  -0.65209  -0.61902
 Alpha  occ. eigenvalues --   -0.59167  -0.55411  -0.55296  -0.50359  -0.44158
 Alpha  occ. eigenvalues --   -0.37748  -0.35137  -0.32675
 Alpha virt. eigenvalues --    0.02060   0.03656   0.05778   0.06236   0.07838
 Alpha virt. eigenvalues --    0.09953   0.11103   0.12300   0.13409   0.14162
 Alpha virt. eigenvalues --    0.15240   0.15970   0.17044   0.17583   0.18853

 Mulliken charges:
               1
     1  Cl   0.533102
     2  O   -2.065597
     3  C    5.947856
     4  O   -2.332784
     5  O   -2.901040
     6  C   -3.067445
     7  H    1.347691
     8  H    1.269095
     9  H    1.269123
 Sum of Mulliken charges =  -0.00000

 Dipole moment (field-independent basis, Debye):
    X=             -3.1234    Y=             -1.1403    Z=              0.0000  Tot=              3.3250

 Test job not archived.
 1\1\GINC-SE071\SP\RHF\Aug-CC-pVDZ\C2H3Cl1O3\OHZDE\08-Apr-2025\0\\#t hf
  aug-cc-pvdz iop(5/13=1,5/36=2,99/5=2) pseudo=read geom=check guess=(r
 ead,tcheck) scf=(maxcycle=1)\\title\\0,1\Cl,0,-2.194515,0.021977,-0.00
 009\O,0,-0.667158,-0.773946,0.000027\C,0,0.402239,0.094715,0.000105\O,
 0,0.361242,1.286497,0.000028\O,0,1.473034,-0.694349,0.000059\C,0,2.736
 452,0.005468,0.000003\H,0,3.49158,-0.776054,-0.000028\H,0,2.82308,0.62
 786,0.890991\H,0,2.823006,0.627857,-0.890994\\Version=ES64L-G16RevC.01
 \State=1-A\HF=-763.0560203\RMSD=4.707e-02\Dipole=1.2288245,-0.4486371,

 Normal termination of Gaussian 16 at Tue Apr  8 23:17:57 2025.
