 Gaussian 16, Revision C.01,

 ----------------------------------------------------------------------
 #t hf aug-cc-pvdz symm=none int=(grid=ultrafine) guess=(read,tcheck) s
 table=opt
 ----------------------------------------------------------------------
 -----
 title
 -----
 Symbolic Z-matrix:
 Charge =  0 Multiplicity = 2

 SCF Done:  E(UHF) =  -375.204676709     A.U. after   16 cycles
 Normal termination of Gaussian 16 at Tue Apr  8 22:39:28 2025.
 Gaussian 16:  ES64L-G16RevC.01  3-Jul-2019

 ----------------------------------------------------------------------
 #t hf aug-cc-pvdz iop(5/13=1,5/36=2,99/5=2) pseudo=read geom=check gue
 ss=(read,tcheck) scf=(maxcycle=1)
 ----------------------------------------------------------------------
 -----
 title
 -----
 Structure from the checkpoint file:  "BDE49_expt_122_mol2.chk"
 Charge =  0 Multiplicity = 2

                         Standard orientation:
 ---------------------------------------------------------------------
 Center     Atomic      Atomic             Coordinates (Angstroms)
 Number     Number       Type             X           Y           Z
 ---------------------------------------------------------------------
      1          6           0        0.430829    0.000133    0.309486
      2          9           0        1.420867   -0.898004    0.024566
      3          6           0       -0.819405   -0.442860   -0.344629
      4          9           0        0.852109    1.222618   -0.178569
      5          1           0        0.323916    0.099320    1.392338
      6          9           0       -1.952931    0.043279    0.176071
      7          1           0       -0.872871   -0.754004   -1.380087
 ---------------------------------------------------------------------

 SCF Done:  E(UHF) =  -376.553853349     A.U. after    2 cycles

 The electronic state is 2-A.
 Alpha  occ. eigenvalues --  -29.31635 -29.29844 -29.28977 -11.54900 -11.46795
 Alpha  occ. eigenvalues --   -1.36697  -1.11102  -0.82696  -0.79359  -0.73858
 Alpha  occ. eigenvalues --   -0.66316  -0.53719  -0.45160  -0.43169  -0.39001
 Alpha  occ. eigenvalues --   -0.35188  -0.30657  -0.30044  -0.26288  -0.22904
 Alpha  occ. eigenvalues --   -0.19516
 Alpha virt. eigenvalues --    0.04771   0.05202   0.10577   0.11457   0.11731
 Alpha virt. eigenvalues --    0.12356   0.13140   0.15079   0.18698   0.22722
 Alpha virt. eigenvalues --    0.23270   0.23383   0.25015   0.26306   0.29624

  Beta  occ. eigenvalues --  -29.31209 -29.29816 -29.28699 -11.54916 -11.44509
  Beta  occ. eigenvalues --   -1.34119  -1.06170  -0.81266  -0.77779  -0.72573
  Beta  occ. eigenvalues --   -0.65267  -0.44985  -0.42540  -0.40725  -0.37590
  Beta  occ. eigenvalues --   -0.34572  -0.30248  -0.29754  -0.25520  -0.22566
  Beta virt. eigenvalues --    0.04817   0.05222   0.09978   0.11504   0.11784
  Beta virt. eigenvalues --    0.12032   0.13144   0.15235   0.16316   0.19734
  Beta virt. eigenvalues --    0.22907   0.23467   0.23883   0.25511   0.26869

 Mulliken charges and spin densities:
               1          2
     1  C   -1.929594  -0.275196
     2  F    0.370689  -0.005684
     3  C   -2.185328   1.143289
     4  F    0.392566   0.028555
     5  H    1.477517  -0.003325
     6  F    0.538502   0.161055
     7  H    1.335649  -0.048694
 Sum of Mulliken charges =  -0.00000   1.00000

 Dipole moment (field-independent basis, Debye):
    X=             -0.1650    Y=              1.0048    Z=             -0.1569  Tot=              1.0303
                          Isotropic Fermi Contact Couplings
        Atom                 a.u.       MegaHertz       Gauss      10(-4) cm-1
     1  C(13)             -0.02089     -23.48571      -8.38029      -7.83399
     2  F(19)              0.00545      22.92835       8.18141       7.64807
     3  C(13)              0.15060     169.30542      60.41238      56.47421
     4  F(19)              0.02680     112.77441      40.24071      37.61749
     5  H(1)               0.00189       8.45294       3.01622       2.81960
     6  F(19)              0.03032     127.56954      45.51998      42.55262
     7  H(1)              -0.01626     -72.69878     -25.94073     -24.24970
 --------------------------------------------------------

 Normal termination of Gaussian 16 at Tue Apr  8 22:39:31 2025.
