 Gaussian 16, Revision C.01,

 ----------------------------------------------------------------------
 #t hf aug-cc-pvdz symm=none int=(grid=ultrafine) guess=(read,tcheck) s
 table=(opt,rrhf)
 ----------------------------------------------------------------------
 -----
 title
 -----
 Symbolic Z-matrix:
 Charge =  0 Multiplicity = 1

 SCF Done:  E(RHF) =  -814.725493717     A.U. after   16 cycles
 Normal termination of Gaussian 16 at Tue Apr  8 23:40:59 2025.
 Gaussian 16:  ES64L-G16RevC.01  3-Jul-2019

 ----------------------------------------------------------------------
 #t hf aug-cc-pvdz iop(5/13=1,5/36=2,99/5=2) pseudo=read geom=check gue
 ss=(read,tcheck) scf=(maxcycle=1)
 ----------------------------------------------------------------------
 -----
 title
 -----
 Structure from the checkpoint file:  "BDE49_nonexpt_1585_mol1.chk"
 Charge =  0 Multiplicity = 1

                         Standard orientation:
 ---------------------------------------------------------------------
 Center     Atomic      Atomic             Coordinates (Angstroms)
 Number     Number       Type             X           Y           Z
 ---------------------------------------------------------------------
      1          6           0       -2.357112    0.522429    0.260350
      2         15           0       -1.833506   -1.056166   -0.613719
      3          8           0       -3.087707    1.334969   -0.245085
      4          8           0       -1.939322    0.582391    1.541908
      5          7           0       -0.255791   -1.387285   -0.082663
      6          6           0        0.901914   -0.588282   -0.076737
      7          1           0       -2.323583    1.387523    1.926534
      8          6           0        0.922475    0.704241   -0.614400
      9          6           0        2.082542   -1.109776    0.473903
     10          6           0        3.250320   -0.358270    0.483740
     11          6           0        3.269803    0.927948   -0.054554
     12          6           0        2.100099    1.447823   -0.600543
     13          1           0        2.095539    2.446897   -1.022049
     14          1           0        0.027490    1.135236   -1.043952
     15          1           0        2.078767   -2.111052    0.893880
     16          1           0        4.150525   -0.781862    0.915093
     17          1           0        4.181175    1.513563   -0.046574
     18          1           0       -1.570861   -0.374534   -1.822818
     19          1           0       -0.149938   -2.277849    0.379173
 ---------------------------------------------------------------------

 SCF Done:  E(RHF) =  -817.044681404     A.U. after    2 cycles

 The electronic state is 1-A.
 Alpha  occ. eigenvalues -- -105.22488 -21.13113 -21.06625 -15.76628 -11.52908
 Alpha  occ. eigenvalues --  -11.50732 -11.45797 -11.43611 -11.40957 -11.40863
 Alpha  occ. eigenvalues --  -11.36671  -2.80184  -1.83246  -1.66640  -1.61268
 Alpha  occ. eigenvalues --   -1.49499  -1.48908  -1.37337  -1.24017  -1.09842
 Alpha  occ. eigenvalues --   -1.05235  -0.88292  -0.87007  -0.82440  -0.72694
 Alpha  occ. eigenvalues --   -0.71519  -0.67805  -0.61448  -0.60623  -0.58677
 Alpha  occ. eigenvalues --   -0.56723  -0.55861  -0.53938  -0.52863  -0.47959
 Alpha  occ. eigenvalues --   -0.45436  -0.44422  -0.39075  -0.35118  -0.33621
 Alpha  occ. eigenvalues --   -0.30405  -0.28227  -0.22801  -0.03655
 Alpha virt. eigenvalues --    0.03523   0.05002   0.05271   0.05567   0.06061
 Alpha virt. eigenvalues --    0.07323   0.07770   0.08364   0.09020   0.10724
 Alpha virt. eigenvalues --    0.10985   0.11557   0.11992   0.12389   0.12891

 Mulliken charges:
               1
     1  C    3.331025
     2  P    2.956397
     3  O   -2.854502
     4  O   -3.011061
     5  N   -3.890679
     6  C    3.769050
     7  H    0.915935
     8  C   -2.443930
     9  C   -3.276071
    10  C   -0.050060
    11  C   -2.860502
    12  C   -0.896248
    13  H    1.496204
    14  H    2.451837
    15  H    1.740140
    16  H    1.499137
    17  H    1.556087
    18  H   -1.213796
    19  H    0.781035
 Sum of Mulliken charges =  -0.00000

 Dipole moment (field-independent basis, Debye):
    X=              1.1455    Y=             -1.4929    Z=              0.9161  Tot=              2.0929

 Test job not archived.
 1\1\GINC-SE345\SP\RHF\Aug-CC-pVDZ\C7H8N1O2P1\OHZDE\08-Apr-2025\0\\#t h
 f aug-cc-pvdz iop(5/13=1,5/36=2,99/5=2) pseudo=read geom=check guess=(
 read,tcheck) scf=(maxcycle=1)\\title\\0,1\C,0,-2.357112,0.522429,0.260
 35\P,0,-1.833506,-1.056166,-0.613719\O,0,-3.087707,1.334969,-0.245085\
 O,0,-1.939322,0.582391,1.541908\N,0,-0.255791,-1.387285,-0.082663\C,0,
 0.901914,-0.588282,-0.076737\H,0,-2.323583,1.387523,1.926534\C,0,0.922
 475,0.704241,-0.6144\C,0,2.082542,-1.109776,0.473903\C,0,3.25032,-0.35
 827,0.48374\C,0,3.269803,0.927948,-0.054554\C,0,2.100099,1.447823,-0.6

 Normal termination of Gaussian 16 at Tue Apr  8 23:41:09 2025.
