 Gaussian 16, Revision C.01,

 ----------------------------------------------------------------------
 #t hf aug-cc-pvdz symm=none int=(grid=ultrafine) guess=(read,tcheck) s
 table=(opt,rrhf)
 ----------------------------------------------------------------------
 -----
 title
 -----
 Symbolic Z-matrix:
 Charge =  0 Multiplicity = 1

 SCF Done:  E(RHF) =  -94.0471631346     A.U. after   11 cycles
 Normal termination of Gaussian 16 at Tue Apr  8 23:06:41 2025.
 Gaussian 16:  ES64L-G16RevC.01  3-Jul-2019

 ----------------------------------------------------------------------
 #t hf aug-cc-pvdz iop(5/13=1,5/36=2,99/5=2) pseudo=read geom=check gue
 ss=(read,tcheck) scf=(maxcycle=1)
 ----------------------------------------------------------------------
 -----
 title
 -----
 Structure from the checkpoint file:  "BDE49_expt_402_mol1.chk"
 Charge =  0 Multiplicity = 1

                         Standard orientation:
 ---------------------------------------------------------------------
 Center     Atomic      Atomic             Coordinates (Angstroms)
 Number     Number       Type             X           Y           Z
 ---------------------------------------------------------------------
      1          7           0        0.667856   -0.153911    0.000001
      2          6           0       -0.584861    0.028648   -0.000003
      3          1           0       -1.084311    1.005725    0.000001
      4          1           0       -1.242976   -0.843023    0.000003
      5          1           0        1.161463    0.742792    0.000003
 ---------------------------------------------------------------------

 SCF Done:  E(RHF) =  -94.4865693109     A.U. after    2 cycles

 The electronic state is 1-A.
 Alpha  occ. eigenvalues --  -15.75234 -11.42102  -1.32976  -0.87733  -0.67354
 Alpha  occ. eigenvalues --   -0.57713  -0.42969  -0.39604
 Alpha virt. eigenvalues --    0.03488   0.05581   0.06118   0.10043   0.11480
 Alpha virt. eigenvalues --    0.15540   0.16226   0.17209   0.20021   0.21290
 Alpha virt. eigenvalues --    0.25026   0.25166   0.30471   0.32351   0.32428

 Mulliken charges:
               1
     1  N   -2.270653
     2  C   -1.074833
     3  H    1.312872
     4  H    1.323628
     5  H    0.708986
 Sum of Mulliken charges =  -0.00000

 Dipole moment (field-independent basis, Debye):
    X=             -1.1609    Y=              1.3687    Z=              0.0000  Tot=              1.7947

 Test job not archived.
 1\1\GINC-SE460\SP\RHF\Aug-CC-pVDZ\C1H3N1\OHZDE\08-Apr-2025\0\\#t hf au
 g-cc-pvdz iop(5/13=1,5/36=2,99/5=2) pseudo=read geom=check guess=(read
 ,tcheck) scf=(maxcycle=1)\\title\\0,1\N,0,0.667856,-0.153911,0.000001\
 C,0,-0.584861,0.028648,-0.000003\H,0,-1.084311,1.005725,0.000001\H,0,-
 1.242976,-0.843023,0.000003\H,0,1.161463,0.742792,0.000003\\Version=ES
 64L-G16RevC.01\State=1-A\HF=-94.4865693\RMSD=6.004e-02\Dipole=-0.45673
 74,0.5384911,0.0000018\Quadrupole=0.5044636,0.2473604,-0.751824,1.4716
 101,-0.0000006,0.0000033\PG=C01 [X(C1H3N1)]\\@

 Normal termination of Gaussian 16 at Tue Apr  8 23:06:42 2025.
