 Gaussian 16, Revision C.01,

 ----------------------------------------------------------------------
 #t hf aug-cc-pvdz symm=none int=(grid=ultrafine) guess=(read,tcheck) s
 table=(opt,rrhf)
 ----------------------------------------------------------------------
 -----
 title
 -----
 Symbolic Z-matrix:
 Charge =  0 Multiplicity = 1

 SCF Done:  E(RHF) =  -289.261488288     A.U. after   12 cycles

 1\1\GINC-SE424\Stability\RHF\Aug-CC-pVDZ\C6H13N1\OHZDE\08-Apr-2025\0\\
 #t hf aug-cc-pvdz symm=none int=(grid=ultrafine) guess=(read,tcheck) s
 table=(opt,rrhf)\\title\\0,1\N,0,-0.339353,-1.238423,0.111006\C,0,1.09
 0952,-1.280483,-0.20996\C,0,1.88158,-0.060062,0.288689\C,0,1.224488,1.
 240668,-0.19387\C,0,-0.268797,1.271446,0.16522\C,0,-0.993454,0.003933,
 -0.329998\H,0,1.333493,1.315177,-1.283831\H,0,1.736672,2.110797,0.2286
 62\H,0,-0.743592,2.164623,-0.256835\H,0,-0.383939,1.337685,1.256082\H,
 0,1.182913,-1.34941,-1.30156\H,0,1.50697,-2.20672,0.19718\H,0,2.921268

 Normal termination of Gaussian 16 at Tue Apr  8 22:39:12 2025.
 Gaussian 16:  ES64L-G16RevC.01  3-Jul-2019

 ----------------------------------------------------------------------
 #t hf aug-cc-pvdz iop(5/13=1,5/36=2,99/5=2) pseudo=read geom=check gue
 ss=(read,tcheck) scf=(maxcycle=1)
 ----------------------------------------------------------------------
 -----
 title
 -----
 Structure from the checkpoint file:  "BDE49_expt_1189_mol1.chk"
 Charge =  0 Multiplicity = 1

                         Standard orientation:
 ---------------------------------------------------------------------
 Center     Atomic      Atomic             Coordinates (Angstroms)
 Number     Number       Type             X           Y           Z
 ---------------------------------------------------------------------
      1          7           0       -0.339353   -1.238423    0.111006
      2          6           0        1.090952   -1.280483   -0.209960
      3          6           0        1.881580   -0.060062    0.288689
      4          6           0        1.224488    1.240668   -0.193870
      5          6           0       -0.268797    1.271446    0.165220
      6          6           0       -0.993454    0.003933   -0.329998
      7          1           0        1.333493    1.315177   -1.283831
      8          1           0        1.736672    2.110797    0.228662
      9          1           0       -0.743592    2.164623   -0.256835
     10          1           0       -0.383939    1.337685    1.256082
     11          1           0        1.182913   -1.349410   -1.301560
     12          1           0        1.506970   -2.206720    0.197180
     13          1           0        2.921268   -0.117473   -0.052657
     14          1           0        1.907183   -0.072754    1.386319
     15          1           0       -0.459252   -1.331560    1.117542
     16          6           0       -2.464101   -0.023266    0.079224
     17          1           0       -0.941883   -0.000894   -1.428324
     18          1           0       -2.563857   -0.015429    1.170725
     19          1           0       -2.946851   -0.927228   -0.297957
     20          1           0       -2.997663    0.848734   -0.308212
 ---------------------------------------------------------------------

 SCF Done:  E(RHF) =  -290.735442561     A.U. after    2 cycles

 The electronic state is 1-A.
 Alpha  occ. eigenvalues --  -15.70188 -11.44139 -11.42297 -11.40664 -11.38462
 Alpha  occ. eigenvalues --  -11.35878 -11.33929  -1.41058  -1.17695  -1.15075
 Alpha  occ. eigenvalues --   -1.00350  -0.90460  -0.85666  -0.79701  -0.65289
 Alpha  occ. eigenvalues --   -0.62556  -0.62015  -0.60396  -0.56763  -0.53714
 Alpha  occ. eigenvalues --   -0.50539  -0.48655  -0.47838  -0.46267  -0.45024
 Alpha  occ. eigenvalues --   -0.43737  -0.39611  -0.29683
 Alpha virt. eigenvalues --    0.04444   0.05209   0.05458   0.05562   0.05709
 Alpha virt. eigenvalues --    0.05764   0.05966   0.06371   0.06523   0.08317
 Alpha virt. eigenvalues --    0.08587   0.08825   0.09079   0.12674   0.13099

 Mulliken charges:
               1
     1  N   -2.479694
     2  C   -2.508863
     3  C   -2.439634
     4  C   -2.826414
     5  C   -2.567695
     6  C    0.021199
     7  H    1.412738
     8  H    1.215335
     9  H    1.342100
    10  H    1.428989
    11  H    1.494316
    12  H    1.293512
    13  H    1.274759
    14  H    1.362732
    15  H    0.527622
    16  C   -4.148941
    17  H    1.906297
    18  H    1.306939
    19  H    1.174759
    20  H    1.209943
 Sum of Mulliken charges =  -0.00000

 Dipole moment (field-independent basis, Debye):
    X=              0.4489    Y=              0.5303    Z=              0.3123  Tot=              0.7617

 Test job not archived.
 1\1\GINC-SE424\SP\RHF\Aug-CC-pVDZ\C6H13N1\OHZDE\08-Apr-2025\0\\#t hf a
 ug-cc-pvdz iop(5/13=1,5/36=2,99/5=2) pseudo=read geom=check guess=(rea
 d,tcheck) scf=(maxcycle=1)\\title\\0,1\N,0,-0.339353,-1.238423,0.11100
 6\C,0,1.090952,-1.280483,-0.20996\C,0,1.88158,-0.060062,0.288689\C,0,1
 .224488,1.240668,-0.19387\C,0,-0.268797,1.271446,0.16522\C,0,-0.993454
 ,0.003933,-0.329998\H,0,1.333493,1.315177,-1.283831\H,0,1.736672,2.110
 797,0.228662\H,0,-0.743592,2.164623,-0.256835\H,0,-0.383939,1.337685,1
 .256082\H,0,1.182913,-1.34941,-1.30156\H,0,1.50697,-2.20672,0.19718\H,

 Normal termination of Gaussian 16 at Tue Apr  8 22:39:20 2025.
