 Gaussian 16, Revision C.01,

 ----------------------------------------------------------------------
 #t hf aug-cc-pvdz symm=none int=(grid=ultrafine) guess=(read,tcheck) s
 table=opt
 ----------------------------------------------------------------------
 -----
 title
 -----
 Symbolic Z-matrix:
 Charge =  0 Multiplicity = 2

 SCF Done:  E(UHF) =  -622.428401068     A.U. after   23 cycles
 Normal termination of Gaussian 16 at Tue Apr  8 23:39:23 2025.
 Gaussian 16:  ES64L-G16RevC.01  3-Jul-2019

 ----------------------------------------------------------------------
 #t hf aug-cc-pvdz iop(5/13=1,5/36=2,99/5=2) pseudo=read geom=check gue
 ss=(read,tcheck) scf=(maxcycle=1)
 ----------------------------------------------------------------------
 -----
 title
 -----
 Structure from the checkpoint file:  "BDE49_nonexpt_1572_mol2.chk"
 Charge =  0 Multiplicity = 2

                         Standard orientation:
 ---------------------------------------------------------------------
 Center     Atomic      Atomic             Coordinates (Angstroms)
 Number     Number       Type             X           Y           Z
 ---------------------------------------------------------------------
      1          6           0        1.925076    0.154347    0.000013
      2          7           0        0.633556   -0.373323    0.000034
      3          6           0       -0.531927    0.397981    0.000040
      4          8           0        2.907831   -0.541419   -0.000060
      5          1           0        1.928004    1.252262   -0.000052
      6          8           0       -0.512528    1.607886    0.000002
      7          1           0        0.573014   -1.384396    0.000037
      8         15           0       -2.102244   -0.640908   -0.000005
      9          1           0       -2.923570    0.513310   -0.000005
 ---------------------------------------------------------------------

 SCF Done:  E(UHF) =  -623.758738717     A.U. after    2 cycles

 The electronic state is 2-A.
 Alpha  occ. eigenvalues -- -105.22593 -21.08121 -21.06884 -15.80858 -11.51847
 Alpha  occ. eigenvalues --  -11.50744  -2.80354  -1.76035  -1.72756  -1.51648
 Alpha  occ. eigenvalues --   -1.49101  -1.48516  -1.39989  -0.94437  -0.84775
 Alpha  occ. eigenvalues --   -0.76618  -0.67190  -0.60522  -0.57698  -0.52976
 Alpha  occ. eigenvalues --   -0.47850  -0.42531  -0.34696  -0.33675  -0.23741
 Alpha  occ. eigenvalues --   -0.08897  -0.01831
 Alpha virt. eigenvalues --    0.04156   0.05609   0.06693   0.07459   0.09401
 Alpha virt. eigenvalues --    0.10652   0.10903   0.11513   0.12863   0.13784
 Alpha virt. eigenvalues --    0.14654   0.14683   0.16643   0.17448   0.17798

  Beta  occ. eigenvalues -- -105.21964 -21.07531 -21.06881 -15.80869 -11.52199
  Beta  occ. eigenvalues --  -11.50776  -2.78430  -1.75317  -1.72493  -1.49598
  Beta  occ. eigenvalues --   -1.47459  -1.39822  -1.24311  -0.94346  -0.84629
  Beta  occ. eigenvalues --   -0.73704  -0.67099  -0.60676  -0.56940  -0.52920
  Beta  occ. eigenvalues --   -0.47497  -0.41872  -0.33820  -0.33425  -0.24143
  Beta  occ. eigenvalues --   -0.07377
  Beta virt. eigenvalues --    0.04213   0.05637   0.06434   0.06800   0.07981
  Beta virt. eigenvalues --    0.10163   0.10806   0.11661   0.12348   0.12954
  Beta virt. eigenvalues --    0.13975   0.15086   0.15242   0.16713   0.17901

 Mulliken charges and spin densities:
               1          2
     1  C    1.718011   0.013146
     2  N   -2.175439   0.006806
     3  C    1.707010  -0.238536
     4  O   -2.626145   0.012187
     5  H    1.661366   0.000787
     6  O   -2.588796   0.176540
     7  H    0.601842  -0.016395
     8  P    2.786360   1.210667
     9  H   -1.084210  -0.165202
 Sum of Mulliken charges =  -0.00000   1.00000

 Dipole moment (field-independent basis, Debye):
    X=             -3.1428    Y=             -3.1211    Z=             -0.0003  Tot=              4.4293
                          Isotropic Fermi Contact Couplings
        Atom                 a.u.       MegaHertz       Gauss      10(-4) cm-1
     1  C(13)             -0.00075      -0.84261      -0.30066      -0.28106
     2  N(14)             -0.00212      -0.68364      -0.24394      -0.22804
     3  C(13)             -0.01921     -21.59327      -7.70501      -7.20274
     4  O(17)              0.00015      -0.09214      -0.03288      -0.03073
     5  H(1)               0.00001       0.04670       0.01666       0.01558
     6  O(17)              0.03377     -20.47323      -7.30536      -6.82914
     7  H(1)               0.00015       0.65312       0.23305       0.21786
     8  P(31)              0.26016     471.17832     168.12814     157.16817

 Normal termination of Gaussian 16 at Tue Apr  8 23:39:26 2025.
