 Gaussian 16, Revision C.01,

 ----------------------------------------------------------------------
 #t hf aug-cc-pvdz symm=none int=(grid=ultrafine) guess=(read,tcheck) s
 table=(opt,rrhf)
 ----------------------------------------------------------------------
 -----
 title
 -----
 Symbolic Z-matrix:
 Charge =  0 Multiplicity = 1

 SCF Done:  E(RHF) =  -408.394436502     A.U. after   10 cycles
 Normal termination of Gaussian 16 at Tue Apr  8 22:45:38 2025.
 Gaussian 16:  ES64L-G16RevC.01  3-Jul-2019

 ----------------------------------------------------------------------
 #t hf aug-cc-pvdz iop(5/13=1,5/36=2,99/5=2) pseudo=read geom=check gue
 ss=(read,tcheck) scf=(maxcycle=1)
 ----------------------------------------------------------------------
 -----
 title
 -----
 Structure from the checkpoint file:  "BDE49_expt_1538_mol1.chk"
 Charge =  0 Multiplicity = 1

                         Standard orientation:
 ---------------------------------------------------------------------
 Center     Atomic      Atomic             Coordinates (Angstroms)
 Number     Number       Type             X           Y           Z
 ---------------------------------------------------------------------
      1         14           0       -0.000001   -0.000004    0.376076
      2          6           0       -1.499727   -0.969284   -0.222114
      3          1           0       -1.471594   -2.002658    0.135926
      4          1           0       -1.541766   -0.996550   -1.315642
      5          1           0       -2.430371   -0.519141    0.135822
      6          6           0       -0.089570    1.783425   -0.222122
      7          1           0       -0.092179    1.833506   -1.315644
      8          1           0        0.765583    2.364322    0.135818
      9          1           0       -0.998565    2.275734    0.135946
     10          6           0        1.589297   -0.814146   -0.222121
     11          1           0        0.000003    0.000014    1.864759
     12          1           0        1.633873   -0.837026   -1.315648
     13          1           0        1.664900   -1.845136    0.135920
     14          1           0        2.470130   -0.272980    0.135818
 ---------------------------------------------------------------------

 SCF Done:  E(RHF) =  -409.203132537     A.U. after    2 cycles

 The electronic state is 1-A.
 Alpha  occ. eigenvalues --  -76.18718 -11.33904 -11.33904 -11.33863  -5.52647
 Alpha  occ. eigenvalues --   -2.16323  -2.16323  -2.15161  -1.07249  -1.00378
 Alpha  occ. eigenvalues --   -1.00378  -0.67313  -0.56972  -0.55853  -0.55853
 Alpha  occ. eigenvalues --   -0.54013  -0.54013  -0.52854  -0.42471  -0.38871
 Alpha  occ. eigenvalues --   -0.38871
 Alpha virt. eigenvalues --    0.03093   0.05354   0.05354   0.05935   0.06716
 Alpha virt. eigenvalues --    0.06716   0.06718   0.07268   0.07268   0.08589
 Alpha virt. eigenvalues --    0.09546   0.09546   0.12025   0.14001   0.15776

 Mulliken charges:
               1
     1  Si   6.545644
     2  C   -5.169130
     3  H    1.237527
     4  H    1.272218
     5  H    1.237508
     6  C   -5.169144
     7  H    1.272170
     8  H    1.237516
     9  H    1.237534
    10  C   -5.169128
    11  H   -2.279958
    12  H    1.272198
    13  H    1.237515
    14  H    1.237531
 Sum of Mulliken charges =  -0.00000

 Dipole moment (field-independent basis, Debye):
    X=             -0.0000    Y=             -0.0000    Z=             -0.6355  Tot=              0.6355

 Test job not archived.
 1\1\GINC-SE072\SP\RHF\Aug-CC-pVDZ\C3H10Si1\OHZDE\08-Apr-2025\0\\#t hf
 aug-cc-pvdz iop(5/13=1,5/36=2,99/5=2) pseudo=read geom=check guess=(re
 ad,tcheck) scf=(maxcycle=1)\\title\\0,1\Si,0,-0.000001,-0.000004,0.376
 076\C,0,-1.498524,-0.971142,-0.222114\H,0,-1.469111,-2.00448,0.135926\
 H,0,-1.54053,-0.99846,-1.315642\H,0,-2.429726,-0.522153,0.135822\C,0,-
 0.09178,1.783313,-0.222122\H,0,-0.094451,1.83339,-1.315644\H,0,0.76265
 2,2.365269,0.135818\H,0,-1.001384,2.274495,0.135946\C,0,1.590305,-0.81
 2176,-0.222121\H,0,0.000003,0.000014,1.864759\H,0,1.634909,-0.835,-1.3

 Normal termination of Gaussian 16 at Tue Apr  8 22:45:42 2025.
