 Gaussian 16, Revision C.01,

 ----------------------------------------------------------------------
 #t hf aug-cc-pvdz symm=none int=(grid=ultrafine) guess=(read,tcheck) s
 table=(opt,rrhf)
 ----------------------------------------------------------------------
 -----
 title
 -----
 Symbolic Z-matrix:
 Charge =  0 Multiplicity = 1

 SCF Done:  E(RHF) =  -411.538625127     A.U. after   13 cycles
 Normal termination of Gaussian 16 at Tue Apr  8 23:19:50 2025.
 Gaussian 16:  ES64L-G16RevC.01  3-Jul-2019

 ----------------------------------------------------------------------
 #t hf aug-cc-pvdz iop(5/13=1,5/36=2,99/5=2) pseudo=read geom=check gue
 ss=(read,tcheck) scf=(maxcycle=1)
 ----------------------------------------------------------------------
 -----
 title
 -----
 Structure from the checkpoint file:  "BDE49_nonexpt_1109_mol1.chk"
 Charge =  0 Multiplicity = 1

                         Standard orientation:
 ---------------------------------------------------------------------
 Center     Atomic      Atomic             Coordinates (Angstroms)
 Number     Number       Type             X           Y           Z
 ---------------------------------------------------------------------
      1          9           0        0.368973   -1.566445    0.000000
      2          8           0       -0.805350   -0.739233    0.000000
      3          6           0       -0.368969    0.569744   -0.000000
      4          9           0        0.368973    0.858687    1.086694
      5          9           0        0.368973    0.858687   -1.086694
      6          1           0       -1.305648    1.137044   -0.000000
 ---------------------------------------------------------------------

 SCF Done:  E(RHF) =  -413.013557609     A.U. after    2 cycles

 The electronic state is 1-A'.
 Alpha  occ. eigenvalues --  -29.32952 -29.32107 -29.32065 -21.19769 -11.57536
 Alpha  occ. eigenvalues --   -1.89197  -1.25970  -0.87668  -0.86817  -0.74653
 Alpha  occ. eigenvalues --   -0.62193  -0.52490  -0.47075  -0.41664  -0.39493
 Alpha  occ. eigenvalues --   -0.36546  -0.31380  -0.31304  -0.28699  -0.25765
 Alpha  occ. eigenvalues --   -0.23283
 Alpha virt. eigenvalues --    0.03894   0.10009   0.10978   0.11574   0.16743
 Alpha virt. eigenvalues --    0.19532   0.20434   0.21877   0.23128   0.23546
 Alpha virt. eigenvalues --    0.24814   0.30052   0.31068   0.31205   0.32944

 Mulliken charges:
               1
     1  F    0.026186
     2  O   -1.483327
     3  C   -0.906463
     4  F    0.546451
     5  F    0.546451
     6  H    1.270702
 Sum of Mulliken charges =  -0.00000

 Dipole moment (field-independent basis, Debye):
    X=              2.6315    Y=              0.6685    Z=             -0.0000  Tot=              2.7151

 Test job not archived.
 1\1\GINC-SE080\SP\RHF\Aug-CC-pVDZ\C1H1F3O1\OHZDE\08-Apr-2025\0\\#t hf
 aug-cc-pvdz iop(5/13=1,5/36=2,99/5=2) pseudo=read geom=check guess=(re
 ad,tcheck) scf=(maxcycle=1)\\title\\0,1\F,0,0.368973,-1.566445,0.\O,0,
 -0.80535,-0.739233,0.\C,0,-0.368969,0.569744,0.\F,0,0.368973,0.858687,
 1.086694\F,0,0.368973,0.858687,-1.086694\H,0,-1.305648,1.137044,0.\\Ve
 rsion=ES64L-G16RevC.01\State=1-A'\HF=-413.0135576\RMSD=4.866e-02\Dipol
 e=1.0353026,0.2629952,0.\Quadrupole=-1.0363885,0.497757,0.5386315,-0.6
 164221,0.,0.\PG=CS [SG(C1H1F1O1),X(F2)]\\@

 Normal termination of Gaussian 16 at Tue Apr  8 23:19:52 2025.
