 Gaussian 16, Revision C.01,

 ----------------------------------------------------------------------
 #t hf aug-cc-pvdz symm=none int=(grid=ultrafine) guess=(read,tcheck) s
 table=opt
 ----------------------------------------------------------------------
 -----
 title
 -----
 Symbolic Z-matrix:
 Charge =  0 Multiplicity = 2

 SCF Done:  E(UHF) =  -587.429722399     A.U. after   13 cycles
 Normal termination of Gaussian 16 at Tue Apr  8 22:46:27 2025.
 Gaussian 16:  ES64L-G16RevC.01  3-Jul-2019

 ----------------------------------------------------------------------
 #t hf aug-cc-pvdz iop(5/13=1,5/36=2,99/5=2) pseudo=read geom=check gue
 ss=(read,tcheck) scf=(maxcycle=1)
 ----------------------------------------------------------------------
 -----
 title
 -----
 Structure from the checkpoint file:  "BDE49_expt_1540_mol2.chk"
 Charge =  0 Multiplicity = 2

                         Standard orientation:
 ---------------------------------------------------------------------
 Center     Atomic      Atomic             Coordinates (Angstroms)
 Number     Number       Type             X           Y           Z
 ---------------------------------------------------------------------
      1         14           0       -0.000009   -0.000057    0.378584
      2          9           0       -1.328940   -0.662749   -0.196301
      3          9           0        1.238524   -0.819354   -0.196303
      4          9           0        0.090431    1.482191   -0.196305
 ---------------------------------------------------------------------

 SCF Done:  E(UHF) =  -588.581391926     A.U. after    2 cycles

 The electronic state is 2-A.
 Alpha  occ. eigenvalues --  -76.34969 -29.31000 -29.30994 -29.30993  -5.71334
 Alpha  occ. eigenvalues --   -2.35094  -2.35091  -2.29688  -1.02432  -0.73321
 Alpha  occ. eigenvalues --   -0.73319  -0.51962  -0.43576  -0.43575  -0.43443
 Alpha  occ. eigenvalues --   -0.37799  -0.37797  -0.31898  -0.31896  -0.29875
 Alpha  occ. eigenvalues --   -0.22322
 Alpha virt. eigenvalues --    0.05779   0.07241   0.07241   0.12505   0.18390
 Alpha virt. eigenvalues --    0.18391   0.23394   0.23394   0.23856   0.27358
 Alpha virt. eigenvalues --    0.27529   0.27529   0.27998   0.32047   0.32047

  Beta  occ. eigenvalues --  -76.34287 -29.30641 -29.30636 -29.30635  -5.70136
  Beta  occ. eigenvalues --   -2.34337  -2.34335  -2.26433  -0.98360  -0.72741
  Beta  occ. eigenvalues --   -0.72738  -0.45931  -0.43363  -0.43362  -0.42473
  Beta  occ. eigenvalues --   -0.36319  -0.36317  -0.31398  -0.31396  -0.29747
  Beta virt. eigenvalues --    0.04268   0.07380   0.07380   0.11255   0.13568
  Beta virt. eigenvalues --    0.20104   0.20104   0.24460   0.24460   0.25429
  Beta virt. eigenvalues --    0.27807   0.28268   0.28269   0.29644   0.32650

 Mulliken charges and spin densities:
               1          2
     1  Si   2.487151   1.068271
     2  F   -0.829087  -0.022760
     3  F   -0.829076  -0.022760
     4  F   -0.828988  -0.022751
 Sum of Mulliken charges =   0.00000   1.00000

 Dipole moment (field-independent basis, Debye):
    X=              0.0000    Y=             -0.0000    Z=             -1.8456  Tot=              1.8456
                          Isotropic Fermi Contact Couplings
        Atom                 a.u.       MegaHertz       Gauss      10(-4) cm-1
     1  Si(29)             0.57433    -510.42326    -182.13171    -170.25887
     2  F(19)              0.06069     255.33489      91.10984      85.17055
     3  F(19)              0.06069     255.32937      91.10787      85.16871
     4  F(19)              0.06067     255.28125      91.09070      85.15266
 --------------------------------------------------------
       Center         ----  Spin Dipole Couplings  ----
                      3XX-RR        3YY-RR        3ZZ-RR
 --------------------------------------------------------

 Normal termination of Gaussian 16 at Tue Apr  8 22:46:29 2025.
