 Gaussian 16, Revision C.01,

 ----------------------------------------------------------------------
 #t hf aug-cc-pvdz symm=none int=(grid=ultrafine) guess=(read,tcheck) s
 table=(opt,rrhf)
 ----------------------------------------------------------------------
 -----
 title
 -----
 Symbolic Z-matrix:
 Charge =  0 Multiplicity = 1

 SCF Done:  E(RHF) =  -1535.00394900     A.U. after   11 cycles
 Normal termination of Gaussian 16 at Wed Apr  9 00:09:37 2025.
 Gaussian 16:  ES64L-G16RevC.01  3-Jul-2019

 ----------------------------------------------------------------------
 #t hf aug-cc-pvdz iop(5/13=1,5/36=2,99/5=2) pseudo=read geom=check gue
 ss=(read,tcheck) scf=(maxcycle=1)
 ----------------------------------------------------------------------
 -----
 title
 -----
 Structure from the checkpoint file:  "BDE49_nonexpt_2327_mol1.chk"
 Charge =  0 Multiplicity = 1

                         Standard orientation:
 ---------------------------------------------------------------------
 Center     Atomic      Atomic             Coordinates (Angstroms)
 Number     Number       Type             X           Y           Z
 ---------------------------------------------------------------------
      1         14           0        1.363824   -0.125405    0.000002
      2         14           0       -0.904780    0.433200    0.000003
      3          9           0       -1.237864    1.309388   -1.282323
      4          9           0       -1.237871    1.309352    1.282352
      5          9           0        2.270805    1.172543    0.000032
      6          9           0        1.723486   -0.980738    1.283040
      7         17           0       -2.094418   -1.222227   -0.000023
      8          9           0        1.723497   -0.980686   -1.283067
 ---------------------------------------------------------------------

 SCF Done:  E(RHF) =  -1537.22787421     A.U. after    2 cycles

 The electronic state is 1-A.
 Alpha  occ. eigenvalues --  -99.92967 -76.35764 -76.34737 -29.32031 -29.32025
 Alpha  occ. eigenvalues --  -29.32023 -29.31991 -29.31991 -10.50480  -9.70318
 Alpha  occ. eigenvalues --   -9.69707  -9.69654  -5.71482  -5.71408  -2.36238
 Alpha  occ. eigenvalues --   -2.35759  -2.35590  -2.33909  -2.30841  -2.30290
 Alpha  occ. eigenvalues --   -1.34193  -1.04206  -0.96429  -0.75116  -0.74675
 Alpha  occ. eigenvalues --   -0.73901  -0.65944  -0.61344  -0.57763  -0.55236
 Alpha  occ. eigenvalues --   -0.45415  -0.45019  -0.45002  -0.44469  -0.43266
 Alpha  occ. eigenvalues --   -0.40590  -0.40576  -0.38522  -0.37500  -0.37165
 Alpha  occ. eigenvalues --   -0.32925  -0.32885  -0.32027  -0.31099  -0.27609
 Alpha virt. eigenvalues --    0.05309   0.06344   0.07538   0.08175   0.09062
 Alpha virt. eigenvalues --    0.09164   0.10182   0.11875   0.14045   0.14463
 Alpha virt. eigenvalues --    0.15903   0.16253   0.18842   0.19697   0.20592

 Mulliken charges:
               1
     1  Si   2.320120
     2  Si   1.454147
     3  F   -0.488273
     4  F   -0.488271
     5  F   -0.695395
     6  F   -0.629656
     7  Cl  -0.843016
     8  F   -0.629656
 Sum of Mulliken charges =  -0.00000

 Dipole moment (field-independent basis, Debye):
    X=              2.3394    Y=              3.0722    Z=              0.0000  Tot=              3.8615

 Test job not archived.
 1\1\GINC-SE368\SP\RHF\Aug-CC-pVDZ\Cl1F5Si2\OHZDE\09-Apr-2025\0\\#t hf
 aug-cc-pvdz iop(5/13=1,5/36=2,99/5=2) pseudo=read geom=check guess=(re
 ad,tcheck) scf=(maxcycle=1)\\title\\0,1\Si,0,-1.363824,-0.125405,-0.00
 0002\Si,0,0.90478,0.4332,-0.000003\F,0,1.237864,1.309388,1.282323\F,0,
 1.237871,1.309352,-1.282352\F,0,-2.270805,1.172543,-0.000032\F,0,-1.72
 3486,-0.980738,-1.28304\Cl,0,2.094418,-1.222227,0.000023\F,0,-1.723497
 ,-0.980686,1.283067\\Version=ES64L-G16RevC.01\State=1-A\HF=-1537.22787
 42\RMSD=4.137e-02\Dipole=-0.9203814,1.2087119,-0.000019\Quadrupole=-0.

 Normal termination of Gaussian 16 at Wed Apr  9 00:09:40 2025.
