 Gaussian 16, Revision C.01,

 ----------------------------------------------------------------------
 #t hf aug-cc-pvdz symm=none int=(grid=ultrafine) guess=(read,tcheck) s
 table=(opt,rrhf)
 ----------------------------------------------------------------------
 -----
 title
 -----
 Symbolic Z-matrix:
 Charge =  0 Multiplicity = 1

 SCF Done:  E(RHF) =  -918.036156706     A.U. after   13 cycles
 Normal termination of Gaussian 16 at Tue Apr  8 23:47:17 2025.
 Gaussian 16:  ES64L-G16RevC.01  3-Jul-2019

 ----------------------------------------------------------------------
 #t hf aug-cc-pvdz iop(5/13=1,5/36=2,99/5=2) pseudo=read geom=check gue
 ss=(read,tcheck) scf=(maxcycle=1)
 ----------------------------------------------------------------------
 -----
 title
 -----
 Structure from the checkpoint file:  "BDE49_nonexpt_1781_mol1.chk"
 Charge =  0 Multiplicity = 1

                         Standard orientation:
 ---------------------------------------------------------------------
 Center     Atomic      Atomic             Coordinates (Angstroms)
 Number     Number       Type             X           Y           Z
 ---------------------------------------------------------------------
      1         14           0       -0.315194   -0.886356   -0.000002
      2          6           0        1.331517    0.078797   -0.000032
      3         17           0       -1.985261    0.385059    0.000004
      4          7           0        1.366497    1.432986   -0.000005
      5          1           0        0.520643    1.979786    0.000006
      6          1           0        2.260591    1.904787    0.000012
      7          8           0        2.321638   -0.638785    0.000019
      8          1           0       -0.373369   -1.707495    1.219490
      9          1           0       -0.373392   -1.707506   -1.219484
 ---------------------------------------------------------------------

 SCF Done:  E(RHF) =  -919.159568749     A.U. after    2 cycles

 The electronic state is 1-A.
 Alpha  occ. eigenvalues --  -99.89820 -76.27857 -21.04591 -15.79720 -11.47813
 Alpha  occ. eigenvalues --  -10.47186  -9.67079  -9.66490  -9.66395  -5.61400
 Alpha  occ. eigenvalues --   -2.24877  -2.23565  -2.23149  -1.71285  -1.35662
 Alpha  occ. eigenvalues --   -1.29983  -0.88475  -0.78262  -0.71900  -0.60773
 Alpha  occ. eigenvalues --   -0.57454  -0.56230  -0.54445  -0.53629  -0.48269
 Alpha  occ. eigenvalues --   -0.48097  -0.33821  -0.28913
 Alpha virt. eigenvalues --    0.03403   0.05089   0.05366   0.05810   0.06556
 Alpha virt. eigenvalues --    0.07619   0.09367   0.11199   0.11755   0.12365
 Alpha virt. eigenvalues --    0.13475   0.13911   0.14116   0.15929   0.16029

 Mulliken charges:
               1
     1  Si   5.539199
     2  C    2.690167
     3  Cl  -0.872209
     4  N   -2.675754
     5  H    0.804260
     6  H    0.721906
     7  O   -2.513786
     8  H   -1.846892
     9  H   -1.846891
 Sum of Mulliken charges =  -0.00000

 Dipole moment (field-independent basis, Debye):
    X=              0.6292    Y=              1.3829    Z=              0.0001  Tot=              1.5194

 Test job not archived.
 1\1\GINC-SE453\SP\RHF\Aug-CC-pVDZ\C1H4Cl1N1O1Si1\OHZDE\08-Apr-2025\0\\
 #t hf aug-cc-pvdz iop(5/13=1,5/36=2,99/5=2) pseudo=read geom=check gue
 ss=(read,tcheck) scf=(maxcycle=1)\\title\\0,1\Si,0,0.315194,-0.886356,
 0.000002\C,0,-1.331517,0.078797,0.000032\Cl,0,1.985261,0.385059,-0.000
 004\N,0,-1.366497,1.432986,0.000005\H,0,-0.520643,1.979786,-0.000006\H
 ,0,-2.260591,1.904787,-0.000012\O,0,-2.321638,-0.638785,-0.000019\H,0,
 0.373369,-1.707495,-1.21949\H,0,0.373392,-1.707506,1.219484\\Version=E
 S64L-G16RevC.01\State=1-A\HF=-919.1595687\RMSD=6.557e-02\Dipole=-0.247

 Normal termination of Gaussian 16 at Tue Apr  8 23:47:20 2025.
