 Gaussian 16, Revision C.01,

 ----------------------------------------------------------------------
 #t hf aug-cc-pvdz symm=none int=(grid=ultrafine) guess=(read,tcheck) s
 table=(opt,rrhf)
 ----------------------------------------------------------------------
 -----
 title
 -----
 Symbolic Z-matrix:
 Charge =  0 Multiplicity = 1

 SCF Done:  E(RHF) =  -463.452710851     A.U. after   12 cycles
 Normal termination of Gaussian 16 at Wed Apr  9 00:00:42 2025.
 Gaussian 16:  ES64L-G16RevC.01  3-Jul-2019

 ----------------------------------------------------------------------
 #t hf aug-cc-pvdz iop(5/13=1,5/36=2,99/5=2) pseudo=read geom=check gue
 ss=(read,tcheck) scf=(maxcycle=1)
 ----------------------------------------------------------------------
 -----
 title
 -----
 Structure from the checkpoint file:  "BDE49_nonexpt_2101_mol1.chk"
 Charge =  0 Multiplicity = 1

                         Standard orientation:
 ---------------------------------------------------------------------
 Center     Atomic      Atomic             Coordinates (Angstroms)
 Number     Number       Type             X           Y           Z
 ---------------------------------------------------------------------
      1          7           0       -0.706068    1.667389   -0.218949
      2         14           0       -0.464615    0.047896    0.343499
      3          1           0       -0.182205    2.429377    0.185999
      4          1           0       -0.918212    1.854578   -1.188656
      5          6           0        1.104409   -0.798011   -0.286872
      6          6           0        2.407776   -0.040729    0.019748
      7          1           0        1.007486   -0.950590   -1.369913
      8          1           0        1.144691   -1.804063    0.151084
      9          1           0        2.398858    0.959108   -0.424910
     10          1           0        3.286107   -0.564340   -0.369525
     11          6           0       -1.958103   -0.981138   -0.140680
     12          1           0       -2.870791   -0.576505    0.303798
     13          1           0       -1.847295   -2.018093    0.190336
     14          1           0       -2.092755   -0.997092   -1.227441
     15          1           0        2.552470    0.082977    1.097585
     16          1           0       -0.355758    0.161641    1.822128
 ---------------------------------------------------------------------

 SCF Done:  E(RHF) =  -464.513245229     A.U. after    2 cycles

 The electronic state is 1-A.
 Alpha  occ. eigenvalues --  -76.19383 -15.71652 -11.38641 -11.33714 -11.33395
 Alpha  occ. eigenvalues --   -5.53511  -2.18685  -2.17141  -2.15850  -1.24383
 Alpha  occ. eigenvalues --   -1.13778  -1.02374  -0.88074  -0.69935  -0.63814
 Alpha  occ. eigenvalues --   -0.60253  -0.56745  -0.55226  -0.54924  -0.48976
 Alpha  occ. eigenvalues --   -0.48379  -0.46661  -0.42054  -0.40563  -0.33941
 Alpha virt. eigenvalues --    0.03557   0.04747   0.05536   0.05840   0.06531
 Alpha virt. eigenvalues --    0.06763   0.06852   0.07029   0.07432   0.08316
 Alpha virt. eigenvalues --    0.08858   0.09755   0.10005   0.12404   0.13504

 Mulliken charges:
               1
     1  N   -2.473581
     2  Si   6.094849
     3  H    0.655168
     4  H    0.658294
     5  C   -4.047419
     6  C   -3.734008
     7  H    1.405755
     8  H    1.357841
     9  H    1.305857
    10  H    1.120230
    11  C   -5.294976
    12  H    1.269068
    13  H    1.302080
    14  H    1.310680
    15  H    1.304975
    16  H   -2.234814
 Sum of Mulliken charges =   0.00000

 Dipole moment (field-independent basis, Debye):
    X=              0.3069    Y=              0.2951    Z=             -1.0645  Tot=              1.1465

 Test job not archived.
 1\1\GINC-SE343\SP\RHF\Aug-CC-pVDZ\C3H11N1Si1\OHZDE\09-Apr-2025\0\\#t h
 f aug-cc-pvdz iop(5/13=1,5/36=2,99/5=2) pseudo=read geom=check guess=(
 read,tcheck) scf=(maxcycle=1)\\title\\0,1\N,0,-0.706068,1.667389,-0.21
 8949\Si,0,-0.464615,0.047896,0.343499\H,0,-0.182205,2.429377,0.185999\
 H,0,-0.918212,1.854578,-1.188656\C,0,1.104409,-0.798011,-0.286872\C,0,
 2.407776,-0.040729,0.019748\H,0,1.007486,-0.95059,-1.369913\H,0,1.1446
 91,-1.804063,0.151084\H,0,2.398858,0.959108,-0.42491\H,0,3.286107,-0.5
 6434,-0.369525\C,0,-1.958103,-0.981138,-0.14068\H,0,-2.870791,-0.57650

 Normal termination of Gaussian 16 at Wed Apr  9 00:00:46 2025.
