 Gaussian 16, Revision C.01,

 ----------------------------------------------------------------------
 #t hf aug-cc-pvdz symm=none int=(grid=ultrafine) guess=(read,tcheck) s
 table=(opt,rrhf)
 ----------------------------------------------------------------------
 -----
 title
 -----
 Symbolic Z-matrix:
 Charge =  0 Multiplicity = 1

 SCF Done:  E(RHF) =  -802.322140592     A.U. after   12 cycles
 Normal termination of Gaussian 16 at Tue Apr  8 23:12:07 2025.
 Gaussian 16:  ES64L-G16RevC.01  3-Jul-2019

 ----------------------------------------------------------------------
 #t hf aug-cc-pvdz iop(5/13=1,5/36=2,99/5=2) pseudo=read geom=check gue
 ss=(read,tcheck) scf=(maxcycle=1)
 ----------------------------------------------------------------------
 -----
 title
 -----
 Structure from the checkpoint file:  "BDE49_expt_685_mol1.chk"
 Charge =  0 Multiplicity = 1

                         Standard orientation:
 ---------------------------------------------------------------------
 Center     Atomic      Atomic             Coordinates (Angstroms)
 Number     Number       Type             X           Y           Z
 ---------------------------------------------------------------------
      1          6           0        1.241681   -0.145319   -0.038791
      2          7           0        0.000000    0.473904   -0.442939
      3          6           0       -1.241681   -0.145319   -0.038791
      4          8           0        0.000001    1.806163    0.038588
      5          1           0        0.000001    2.333256   -0.769963
      6          9           0        1.295723   -1.394140   -0.502959
      7          9           0        1.419584   -0.185012    1.290982
      8          9           0        2.246899    0.559371   -0.564282
      9          9           0       -1.295724   -1.394140   -0.502960
     10          9           0       -1.419584   -0.185013    1.290982
     11          9           0       -2.246899    0.559372   -0.564282
 ---------------------------------------------------------------------

 SCF Done:  E(RHF) =  -805.210937627     A.U. after    2 cycles

 The electronic state is 1-A.
 Alpha  occ. eigenvalues --  -29.33779 -29.33764 -29.33576 -29.33575 -29.32937
 Alpha  occ. eigenvalues --  -29.32935 -21.15557 -15.83518 -11.63594 -11.62348
 Alpha  occ. eigenvalues --   -1.87112  -1.53514  -1.44951  -1.17587  -0.96694
 Alpha  occ. eigenvalues --   -0.96060  -0.93521  -0.90492  -0.82873  -0.67846
 Alpha  occ. eigenvalues --   -0.64574  -0.52191  -0.50441  -0.48847  -0.47447
 Alpha  occ. eigenvalues --   -0.45366  -0.45104  -0.45009  -0.42034  -0.41445
 Alpha  occ. eigenvalues --   -0.37980  -0.37556  -0.35787  -0.34542  -0.30456
 Alpha  occ. eigenvalues --   -0.30062  -0.27756  -0.26293  -0.24512  -0.24410
 Alpha  occ. eigenvalues --   -0.22019
 Alpha virt. eigenvalues --    0.04325   0.10192   0.10400   0.11350   0.12006
 Alpha virt. eigenvalues --    0.12451   0.12456   0.14430   0.16518   0.17759
 Alpha virt. eigenvalues --    0.19102   0.21185   0.21757   0.22380   0.22930

 Mulliken charges:
               1
     1  C   -0.380466
     2  N   -0.615985
     3  C   -0.380465
     4  O   -2.101778
     5  H    0.608394
     6  F    0.465747
     7  F    0.414611
     8  F    0.554792
     9  F    0.465746
    10  F    0.414611
    11  F    0.554793
 Sum of Mulliken charges =  -0.00000

 Dipole moment (field-independent basis, Debye):
    X=             -0.0000    Y=             -0.8776    Z=              0.7884  Tot=              1.1797

 Test job not archived.
 1\1\GINC-SE226\SP\RHF\Aug-CC-pVDZ\C2H1F6N1O1\OHZDE\08-Apr-2025\0\\#t h
 f aug-cc-pvdz iop(5/13=1,5/36=2,99/5=2) pseudo=read geom=check guess=(
 read,tcheck) scf=(maxcycle=1)\\title\\0,1\C,0,1.241681,-0.145319,-0.03
 8791\N,0,0.,0.473904,-0.442939\C,0,-1.241681,-0.145319,-0.038791\O,0,0
 .,1.806163,0.038588\H,0,0.,2.333256,-0.769963\F,0,1.295723,-1.39414,-0
 .502959\F,0,1.419584,-0.185012,1.290982\F,0,2.246899,0.559371,-0.56428
 2\F,0,-1.295724,-1.39414,-0.50296\F,0,-1.419584,-0.185013,1.290982\F,0
 ,-2.246899,0.559371,-0.564282\\Version=ES64L-G16RevC.01\State=1-A\HF=-

 Normal termination of Gaussian 16 at Tue Apr  8 23:12:13 2025.
