 Gaussian 16, Revision C.01,

 ----------------------------------------------------------------------
 #t hf aug-cc-pvdz symm=none int=(grid=ultrafine) guess=(read,tcheck) s
 table=(opt,rrhf)
 ----------------------------------------------------------------------
 -----
 title
 -----
 Symbolic Z-matrix:
 Charge =  0 Multiplicity = 1

 SCF Done:  E(RHF) =  -383.664027240     A.U. after   15 cycles

 1\1\GINC-SE051\Stability\RHF\Aug-CC-pVDZ\C8H10O1\OHZDE\08-Apr-2025\0\\
 #t hf aug-cc-pvdz symm=none int=(grid=ultrafine) guess=(read,tcheck) s
 table=(opt,rrhf)\\title\\0,1\C,0,-2.286609,-0.675232,0.\C,0,-1.844579,
 0.649638,0.\C,0,-0.490714,0.971134,0.\C,0,-1.353918,-1.702806,0.\C,0,0
 .012465,-1.414438,0.\C,0,0.440909,-0.086606,0.\H,0,-1.677618,-2.737638
 ,0.\H,0,0.727451,-2.226203,0.\O,0,1.753685,0.296325,0.\C,0,2.755899,-0
 .70763,0.000001\H,0,3.707951,-0.178829,0.000001\H,0,2.693877,-1.339219
 ,-0.8936\H,0,2.693876,-1.339219,0.893601\H,0,-3.347758,-0.895003,-0.00

 Normal termination of Gaussian 16 at Tue Apr  8 22:44:45 2025.
 Gaussian 16:  ES64L-G16RevC.01  3-Jul-2019

 ----------------------------------------------------------------------
 #t hf aug-cc-pvdz iop(5/13=1,5/36=2,99/5=2) pseudo=read geom=check gue
 ss=(read,tcheck) scf=(maxcycle=1)
 ----------------------------------------------------------------------
 -----
 title
 -----
 Structure from the checkpoint file:  "BDE49_expt_1409_mol1.chk"
 Charge =  0 Multiplicity = 1

                         Standard orientation:
 ---------------------------------------------------------------------
 Center     Atomic      Atomic             Coordinates (Angstroms)
 Number     Number       Type             X           Y           Z
 ---------------------------------------------------------------------
      1          6           0       -2.286609   -0.675232   -0.000000
      2          6           0       -1.844579    0.649638   -0.000000
      3          6           0       -0.490714    0.971134   -0.000000
      4          6           0       -1.353918   -1.702806   -0.000000
      5          6           0        0.012465   -1.414438   -0.000000
      6          6           0        0.440909   -0.086606   -0.000000
      7          1           0       -1.677618   -2.737638   -0.000000
      8          1           0        0.727451   -2.226203   -0.000000
      9          8           0        1.753685    0.296325   -0.000000
     10          6           0        2.755899   -0.707630    0.000001
     11          1           0        3.707951   -0.178829    0.000001
     12          1           0        2.693877   -1.339219   -0.893600
     13          1           0        2.693876   -1.339219    0.893601
     14          1           0       -3.347758   -0.895003   -0.000001
     15          6           0       -0.006538    2.397151   -0.000000
     16          1           0       -0.848042    3.092373   -0.000001
     17          1           0        0.614571    2.604358   -0.876455
     18          1           0        0.614570    2.604358    0.876455
     19          1           0       -2.569845    1.457158   -0.000001
 ---------------------------------------------------------------------

 SCF Done:  E(RHF) =  -385.486636655     A.U. after    2 cycles

 The electronic state is 1-A.
 Alpha  occ. eigenvalues --  -21.06990 -11.52071 -11.45749 -11.42618 -11.41625
 Alpha  occ. eigenvalues --  -11.40768 -11.40074 -11.37852 -11.35720  -1.78567
 Alpha  occ. eigenvalues --   -1.32324  -1.14198  -1.07953  -1.00460  -0.97230
 Alpha  occ. eigenvalues --   -0.84762  -0.81777  -0.69270  -0.64285  -0.62880
 Alpha  occ. eigenvalues --   -0.62418  -0.60530  -0.56815  -0.54766  -0.54355
 Alpha  occ. eigenvalues --   -0.51243  -0.49731  -0.45855  -0.43527  -0.40418
 Alpha  occ. eigenvalues --   -0.38303  -0.31982  -0.25620
 Alpha virt. eigenvalues --    0.03461   0.04590   0.05248   0.05977   0.05980
 Alpha virt. eigenvalues --    0.06179   0.06712   0.07196   0.07733   0.07984
 Alpha virt. eigenvalues --    0.10776   0.11736   0.11853   0.13252   0.13345

 Mulliken charges:
               1
     1  C   -2.889439
     2  C   -0.361777
     3  C    0.881306
     4  C   -1.524159
     5  C   -4.017232
     6  C    7.637397
     7  H    1.528335
     8  H    1.934000
     9  O   -5.108256
    10  C   -3.663624
    11  H    1.441874
    12  H    1.333678
    13  H    1.333679
    14  H    1.515546
    15  C   -5.197476
    16  H    1.226085
    17  H    1.090258
    18  H    1.090259
    19  H    1.749548
 Sum of Mulliken charges =  -0.00000

 Dipole moment (field-independent basis, Debye):
    X=              1.1103    Y=             -0.0821    Z=              0.0000  Tot=              1.1134

 Test job not archived.
 1\1\GINC-SE051\SP\RHF\Aug-CC-pVDZ\C8H10O1\OHZDE\08-Apr-2025\0\\#t hf a
 ug-cc-pvdz iop(5/13=1,5/36=2,99/5=2) pseudo=read geom=check guess=(rea
 d,tcheck) scf=(maxcycle=1)\\title\\0,1\C,0,-2.286609,-0.675232,0.\C,0,
 -1.844579,0.649638,0.\C,0,-0.490714,0.971134,0.\C,0,-1.353918,-1.70280
 6,0.\C,0,0.012465,-1.414438,0.\C,0,0.440909,-0.086606,0.\H,0,-1.677618
 ,-2.737638,0.\H,0,0.727451,-2.226203,0.\O,0,1.753685,0.296325,0.\C,0,2
 .755899,-0.70763,0.000001\H,0,3.707951,-0.178829,0.000001\H,0,2.693877
 ,-1.339219,-0.8936\H,0,2.693876,-1.339219,0.893601\H,0,-3.347758,-0.89

 Normal termination of Gaussian 16 at Tue Apr  8 22:44:54 2025.
