 Gaussian 16, Revision C.01,

 ----------------------------------------------------------------------
 #t hf aug-cc-pvdz symm=none int=(grid=ultrafine) guess=(read,tcheck) s
 table=(opt,rrhf)
 ----------------------------------------------------------------------
 -----
 title
 -----
 Symbolic Z-matrix:
 Charge =  0 Multiplicity = 1

 SCF Done:  E(RHF) =  -315.531845204     A.U. after   14 cycles
 Normal termination of Gaussian 16 at Wed Apr  9 00:43:42 2025.
 Gaussian 16:  ES64L-G16RevC.01  3-Jul-2019

 ----------------------------------------------------------------------
 #t hf aug-cc-pvdz iop(5/13=1,5/36=2,99/5=2) pseudo=read geom=check gue
 ss=(read,tcheck) scf=(maxcycle=1)
 ----------------------------------------------------------------------
 -----
 title
 -----
 Structure from the checkpoint file:  "BDE49_nonexpt_71_mol1.chk"
 Charge =  0 Multiplicity = 1

                         Standard orientation:
 ---------------------------------------------------------------------
 Center     Atomic      Atomic             Coordinates (Angstroms)
 Number     Number       Type             X           Y           Z
 ---------------------------------------------------------------------
      1          5           0        0.702561   -1.030457   -0.427029
      2          5           0       -0.702559   -1.030452    0.427039
      3          6           0       -1.839470    0.031026    0.223642
      4          7           0       -1.666858    1.209217    0.701764
      5          1           0       -0.733203    1.333754    1.108172
      6          6           0        1.839472    0.031024   -0.223646
      7          7           0        1.666851    1.209214   -0.701766
      8          1           0        0.733193    1.333747   -1.108167
      9          6           0       -3.147254   -0.303368   -0.441598
     10          1           0       -3.644052   -1.128565    0.079619
     11          1           0       -2.986541   -0.628631   -1.475142
     12          1           0       -3.795513    0.575060   -0.435251
     13          6           0        3.147258   -0.303363    0.441595
     14          1           0        3.644058   -1.128559   -0.079619
     15          1           0        2.986548   -0.628621    1.475140
     16          1           0        3.795513    0.575068    0.435243
     17          1           0       -0.871350   -1.829813    1.305141
     18          1           0        0.871347   -1.829822   -1.305129
 ---------------------------------------------------------------------

 SCF Done:  E(RHF) =  -317.018295823     A.U. after    2 cycles

 The electronic state is 1-A.
 Alpha  occ. eigenvalues --  -15.73775 -15.73738 -11.43736 -11.43452 -11.37535
 Alpha  occ. eigenvalues --  -11.37495  -7.62630  -7.61492  -1.36342  -1.35192
 Alpha  occ. eigenvalues --   -1.08246  -1.07667  -0.97675  -0.84839  -0.75635
 Alpha  occ. eigenvalues --   -0.71682  -0.61912  -0.59925  -0.59010  -0.57525
 Alpha  occ. eigenvalues --   -0.54310  -0.52305  -0.51792  -0.50886  -0.46959
 Alpha  occ. eigenvalues --   -0.40793  -0.37766  -0.36143  -0.32952
 Alpha virt. eigenvalues --    0.02303   0.02325   0.02886   0.03985   0.05986
 Alpha virt. eigenvalues --    0.06319   0.07183   0.07378   0.07889   0.07932
 Alpha virt. eigenvalues --    0.08291   0.08602   0.08732   0.09331   0.09545

 Mulliken charges:
               1
     1  B    4.633967
     2  B    4.633996
     3  C    0.800266
     4  N   -3.005101
     5  H    0.904938
     6  C    0.800278
     7  N   -3.005103
     8  H    0.904942
     9  C   -3.834112
    10  H    1.254437
    11  H    1.303148
    12  H    1.249905
    13  C   -3.834122
    14  H    1.254440
    15  H    1.303147
    16  H    1.249904
    17  H   -3.307469
    18  H   -3.307462
 Sum of Mulliken charges =   0.00000

 Dipole moment (field-independent basis, Debye):
    X=              0.0000    Y=             -2.4799    Z=              0.0000  Tot=              2.4799

 Test job not archived.
 1\1\GINC-SE070\SP\RHF\Aug-CC-pVDZ\C4H10B2N2\OHZDE\09-Apr-2025\0\\#t hf
  aug-cc-pvdz iop(5/13=1,5/36=2,99/5=2) pseudo=read geom=check guess=(r
 ead,tcheck) scf=(maxcycle=1)\\title\\0,1\B,0,0.702561,-1.030457,-0.427
 029\B,0,-0.702559,-1.030452,0.427039\C,0,-1.83947,0.031026,0.223642\N,
 0,-1.666858,1.209217,0.701764\H,0,-0.733203,1.333754,1.108172\C,0,1.83
 9472,0.031024,-0.223646\N,0,1.666851,1.209214,-0.701766\H,0,0.733193,1
 .333747,-1.108167\C,0,-3.147254,-0.303368,-0.441598\H,0,-3.644052,-1.1
 28565,0.079619\H,0,-2.986541,-0.628631,-1.475142\H,0,-3.795513,0.57506

 Normal termination of Gaussian 16 at Wed Apr  9 00:43:49 2025.
