 Gaussian 16, Revision C.01,

 ----------------------------------------------------------------------
 #t hf aug-cc-pvdz symm=none int=(grid=ultrafine) guess=(read,tcheck) s
 table=(opt,rrhf)
 ----------------------------------------------------------------------
 -----
 title
 -----
 Symbolic Z-matrix:
 Charge =  0 Multiplicity = 1

 SCF Done:  E(RHF) =  -482.691587546     A.U. after   16 cycles
 Normal termination of Gaussian 16 at Wed Apr  9 00:32:07 2025.
 Gaussian 16:  ES64L-G16RevC.01  3-Jul-2019

 ----------------------------------------------------------------------
 #t hf aug-cc-pvdz iop(5/13=1,5/36=2,99/5=2) pseudo=read geom=check gue
 ss=(read,tcheck) scf=(maxcycle=1)
 ----------------------------------------------------------------------
 -----
 title
 -----
 Structure from the checkpoint file:  "BDE49_nonexpt_345_mol1.chk"
 Charge =  0 Multiplicity = 1

                         Standard orientation:
 ---------------------------------------------------------------------
 Center     Atomic      Atomic             Coordinates (Angstroms)
 Number     Number       Type             X           Y           Z
 ---------------------------------------------------------------------
      1          6           0       -3.032706   -0.185525    0.107497
      2          6           0       -1.699792   -0.480512   -0.518943
      3          8           0       -3.460529   -0.690137    1.115050
      4          8           0       -3.722514    0.761995   -0.577727
      5          5           0       -0.586283    0.582293   -0.156205
      6          1           0       -1.802227   -0.408115   -1.611911
      7          1           0       -1.421392   -1.505472   -0.270345
      8          6           0        0.919614    0.254752   -0.065208
      9          1           0       -4.537414    0.917730   -0.077740
     10          6           0        1.838384    1.299041    0.169427
     11          6           0        1.441523   -1.047127   -0.212351
     12          6           0        2.806478   -1.293599   -0.132530
     13          6           0        3.690032   -0.238095    0.098849
     14          6           0        3.205960    1.060534    0.250375
     15          1           0        3.893857    1.878686    0.431926
     16          1           0        1.462117    2.309495    0.288700
     17          1           0        0.767480   -1.878329   -0.388552
     18          1           0        3.186451   -2.302596   -0.247136
     19          1           0        4.755695   -0.429723    0.163022
     20          1           0       -0.925761    1.715181    0.011783
 ---------------------------------------------------------------------

 SCF Done:  E(RHF) =  -484.876995412     A.U. after    2 cycles

 The electronic state is 1-A.
 Alpha  occ. eigenvalues --  -21.11734 -21.04717 -11.52717 -11.52428 -11.44403
 Alpha  occ. eigenvalues --  -11.43650 -11.41561 -11.41233 -11.37583 -11.36537
 Alpha  occ. eigenvalues --   -7.64288  -1.82193  -1.64594  -1.35294  -1.16102
 Alpha  occ. eigenvalues --   -1.09948  -1.09305  -0.89816  -0.87013  -0.81293
 Alpha  occ. eigenvalues --   -0.75810  -0.70773  -0.64413  -0.63779  -0.61330
 Alpha  occ. eigenvalues --   -0.59291  -0.58345  -0.56953  -0.53670  -0.51108
 Alpha  occ. eigenvalues --   -0.50556  -0.46475  -0.45687  -0.42338  -0.39975
 Alpha  occ. eigenvalues --   -0.34836  -0.33726  -0.33334  -0.28955
 Alpha virt. eigenvalues --    0.03040   0.04351   0.04714   0.05116   0.05419
 Alpha virt. eigenvalues --    0.05531   0.06079   0.06590   0.07301   0.08104
 Alpha virt. eigenvalues --    0.08883   0.09451   0.10614   0.11301   0.11838

 Mulliken charges:
               1
     1  C    5.796837
     2  C   -5.999603
     3  O   -3.194670
     4  O   -3.078825
     5  B    6.662341
     6  H    1.298634
     7  H    1.391565
     8  C   -1.295004
     9  H    0.952682
    10  C   -1.500852
    11  C    1.248446
    12  C   -2.273178
    13  C   -2.340862
    14  C   -1.752072
    15  H    1.576951
    16  H    1.900791
    17  H    1.839597
    18  H    1.561208
    19  H    1.527679
    20  H   -4.321665
 Sum of Mulliken charges =  -0.00000

 Dipole moment (field-independent basis, Debye):
    X=              2.0788    Y=              0.1785    Z=             -1.1215  Tot=              2.3688

 Test job not archived.
 1\1\GINC-SE247\SP\RHF\Aug-CC-pVDZ\C8H9B1O2\OHZDE\09-Apr-2025\0\\#t hf
 aug-cc-pvdz iop(5/13=1,5/36=2,99/5=2) pseudo=read geom=check guess=(re
 ad,tcheck) scf=(maxcycle=1)\\title\\0,1\C,0,-3.032706,-0.185525,0.1074
 97\C,0,-1.699792,-0.480512,-0.518943\O,0,-3.460529,-0.690137,1.11505\O
 ,0,-3.722514,0.761995,-0.577727\B,0,-0.586283,0.582293,-0.156205\H,0,-
 1.802227,-0.408115,-1.611911\H,0,-1.421392,-1.505472,-0.270345\C,0,0.9
 19614,0.254752,-0.065208\H,0,-4.537414,0.91773,-0.07774\C,0,1.838384,1
 .299041,0.169427\C,0,1.441523,-1.047127,-0.212351\C,0,2.806478,-1.2935

 Normal termination of Gaussian 16 at Wed Apr  9 00:32:19 2025.
