 Gaussian 16, Revision C.01,

 ----------------------------------------------------------------------
 #t hf aug-cc-pvdz symm=none int=(grid=ultrafine) guess=(read,tcheck) s
 table=(opt,rrhf)
 ----------------------------------------------------------------------
 -----
 title
 -----
 Symbolic Z-matrix:
 Charge =  0 Multiplicity = 1

 SCF Done:  E(RHF) =  -303.456640840     A.U. after   12 cycles
 Normal termination of Gaussian 16 at Tue Apr  8 22:54:34 2025.
 Gaussian 16:  ES64L-G16RevC.01  3-Jul-2019

 ----------------------------------------------------------------------
 #t hf aug-cc-pvdz iop(5/13=1,5/36=2,99/5=2) pseudo=read geom=check gue
 ss=(read,tcheck) scf=(maxcycle=1)
 ----------------------------------------------------------------------
 -----
 title
 -----
 Structure from the checkpoint file:  "BDE49_expt_1810_mol1.chk"
 Charge =  0 Multiplicity = 1

                         Standard orientation:
 ---------------------------------------------------------------------
 Center     Atomic      Atomic             Coordinates (Angstroms)
 Number     Number       Type             X           Y           Z
 ---------------------------------------------------------------------
      1          7           0        0.193564    0.000001    0.000034
      2          8           0        0.637059   -1.091328   -0.000011
      3          9           0       -1.283097   -0.000001   -0.000006
      4          8           0        0.637057    1.091328   -0.000011
 ---------------------------------------------------------------------

 SCF Done:  E(RHF) =  -304.632519392     A.U. after    2 cycles

 The electronic state is 1-A.
 Alpha  occ. eigenvalues --  -29.33561 -21.19261 -21.19053 -16.13752  -2.10928
 Alpha  occ. eigenvalues --   -1.81268  -1.13336  -0.83037  -0.77228  -0.70473
 Alpha  occ. eigenvalues --   -0.50320  -0.45182  -0.39559  -0.34663  -0.33605
 Alpha  occ. eigenvalues --   -0.27155
 Alpha virt. eigenvalues --    0.10821   0.11170   0.12669   0.16591   0.17971
 Alpha virt. eigenvalues --    0.18217   0.20737   0.21911   0.23475   0.27131
 Alpha virt. eigenvalues --    0.27234   0.29623   0.33733   0.37073   0.37162

 Mulliken charges:
               1
     1  N    5.110101
     2  O   -2.647473
     3  F    0.184849
     4  O   -2.647478
 Sum of Mulliken charges =  -0.00000

 Dipole moment (field-independent basis, Debye):
    X=             -2.5789    Y=             -0.0000    Z=             -0.0001  Tot=              2.5789

 Test job not archived.
 1\1\GINC-SE339\SP\RHF\Aug-CC-pVDZ\F1N1O2\OHZDE\08-Apr-2025\0\\#t hf au
 g-cc-pvdz iop(5/13=1,5/36=2,99/5=2) pseudo=read geom=check guess=(read
 ,tcheck) scf=(maxcycle=1)\\title\\0,1\N,0,0.193564,0.,0.000034\O,0,0.6
 37057,-1.091329,-0.000011\F,0,-1.283097,0.000001,-0.000006\O,0,0.63705
 9,1.091327,-0.000011\\Version=ES64L-G16RevC.01\State=1-A\HF=-304.63251
 94\RMSD=1.093e-01\Dipole=-1.0146065,0.0000013,-0.0000265\Quadrupole=0.
 536968,-1.3799438,0.8429757,-0.0000002,0.0000303,0.\PG=C01 [X(F1N1O2)]
 \\@

 Normal termination of Gaussian 16 at Tue Apr  8 22:54:35 2025.
