 Gaussian 16, Revision C.01,

 ----------------------------------------------------------------------
 #t hf aug-cc-pvdz symm=none int=(grid=ultrafine) guess=(read,tcheck) s
 table=(opt,rrhf)
 ----------------------------------------------------------------------
 -----
 title
 -----
 Symbolic Z-matrix:
 Charge =  0 Multiplicity = 1

 SCF Done:  E(RHF) =  -809.219245025     A.U. after   12 cycles
 Normal termination of Gaussian 16 at Wed Apr  9 00:11:11 2025.
 Gaussian 16:  ES64L-G16RevC.01  3-Jul-2019

 ----------------------------------------------------------------------
 #t hf aug-cc-pvdz iop(5/13=1,5/36=2,99/5=2) pseudo=read geom=check gue
 ss=(read,tcheck) scf=(maxcycle=1)
 ----------------------------------------------------------------------
 -----
 title
 -----
 Structure from the checkpoint file:  "BDE49_nonexpt_2358_mol1.chk"
 Charge =  0 Multiplicity = 1

                         Standard orientation:
 ---------------------------------------------------------------------
 Center     Atomic      Atomic             Coordinates (Angstroms)
 Number     Number       Type             X           Y           Z
 ---------------------------------------------------------------------
      1         14           0       -0.955140   -0.949042   -0.255561
      2         14           0        1.348164   -0.922821    0.275269
      3          8           0       -1.561413    0.515999    0.238921
      4          1           0       -1.660915   -2.065346    0.437857
      5          1           0       -1.201523   -1.133247   -1.713434
      6          6           0       -2.921029    0.912480    0.095151
      7          1           0       -3.023821    1.920057    0.501232
      8          1           0       -3.590897    0.241891    0.646310
      9          1           0       -3.222646    0.925226   -0.959038
     10          8           0        2.125118    0.379279   -0.380999
     11          1           0        2.010072   -2.117791   -0.294597
     12          1           0        1.502144   -0.945405    1.756168
     13          6           0        1.874031    1.739935   -0.037102
     14          1           0        2.434490    2.366956   -0.732145
     15          1           0        2.214191    1.954611    0.982594
     16          1           0        0.808920    1.982414   -0.112534
 ---------------------------------------------------------------------

 SCF Done:  E(RHF) =  -810.564763449     A.U. after    2 cycles

 The electronic state is 1-A.
 Alpha  occ. eigenvalues --  -76.22891 -76.22888 -21.04481 -21.03967 -11.41047
 Alpha  occ. eigenvalues --  -11.40416  -5.56586  -5.56567  -2.23176  -2.22974
 Alpha  occ. eigenvalues --   -2.18240  -2.18017  -2.17888  -2.17056  -1.69440
 Alpha  occ. eigenvalues --   -1.68744  -0.98654  -0.97994  -0.76888  -0.69506
 Alpha  occ. eigenvalues --   -0.61273  -0.60777  -0.60438  -0.59859  -0.53083
 Alpha  occ. eigenvalues --   -0.51964  -0.48316  -0.46985  -0.40926  -0.36997
 Alpha  occ. eigenvalues --   -0.35369  -0.34811  -0.30636
 Alpha virt. eigenvalues --    0.03604   0.04525   0.05433   0.05744   0.06237
 Alpha virt. eigenvalues --    0.06354   0.06486   0.07477   0.07854   0.08135
 Alpha virt. eigenvalues --    0.09128   0.09518   0.09808   0.10109   0.11452

 Mulliken charges:
               1
     1  Si   4.793165
     2  Si   5.133841
     3  O   -2.772752
     4  H   -1.893649
     5  H   -1.867551
     6  C   -2.542480
     7  H    1.351147
     8  H    1.408507
     9  H    1.389529
    10  O   -2.929119
    11  H   -1.775544
    12  H   -1.660363
    13  C   -2.715847
    14  H    1.244656
    15  H    1.390649
    16  H    1.445812
 Sum of Mulliken charges =  -0.00000

 Dipole moment (field-independent basis, Debye):
    X=             -0.2665    Y=              1.8248    Z=             -0.0076  Tot=              1.8441

 Test job not archived.
 1\1\GINC-SE460\SP\RHF\Aug-CC-pVDZ\C2H10O2Si2\OHZDE\09-Apr-2025\0\\#t h
 f aug-cc-pvdz iop(5/13=1,5/36=2,99/5=2) pseudo=read geom=check guess=(
 read,tcheck) scf=(maxcycle=1)\\title\\0,1\Si,0,-0.95514,-0.949042,-0.2
 55561\Si,0,1.348164,-0.922821,0.275269\O,0,-1.561413,0.515999,0.238921
 \H,0,-1.660915,-2.065346,0.437857\H,0,-1.201523,-1.133247,-1.713434\C,
 0,-2.921029,0.91248,0.095151\H,0,-3.023821,1.920057,0.501232\H,0,-3.59
 0897,0.241891,0.64631\H,0,-3.222646,0.925226,-0.959038\O,0,2.125118,0.
 379279,-0.380999\H,0,2.010072,-2.117791,-0.294597\H,0,1.502144,-0.9454

 Normal termination of Gaussian 16 at Wed Apr  9 00:11:17 2025.
