 Gaussian 16, Revision C.01,

 ----------------------------------------------------------------------
 #t hf aug-cc-pvdz symm=none int=(grid=ultrafine) guess=(read,tcheck) s
 table=(opt,rrhf)
 ----------------------------------------------------------------------
 -----
 title
 -----
 Symbolic Z-matrix:
 Charge =  0 Multiplicity = 1

 SCF Done:  E(RHF) =  -1074.17037192     A.U. after   14 cycles
 Normal termination of Gaussian 16 at Tue Apr  8 23:48:59 2025.
 Gaussian 16:  ES64L-G16RevC.01  3-Jul-2019

 ----------------------------------------------------------------------
 #t hf aug-cc-pvdz iop(5/13=1,5/36=2,99/5=2) pseudo=read geom=check gue
 ss=(read,tcheck) scf=(maxcycle=1)
 ----------------------------------------------------------------------
 -----
 title
 -----
 Structure from the checkpoint file:  "BDE49_nonexpt_1786_mol1.chk"
 Charge =  0 Multiplicity = 1

                         Standard orientation:
 ---------------------------------------------------------------------
 Center     Atomic      Atomic             Coordinates (Angstroms)
 Number     Number       Type             X           Y           Z
 ---------------------------------------------------------------------
      1         14           0       -1.592998   -1.121568   -0.115723
      2          6           0        0.289042   -0.884291   -0.266437
      3         17           0       -2.845460    0.492717    0.408784
      4          7           0        1.098424    0.179675   -0.072421
      5          6           0        0.621634    1.489852    0.379851
      6          8           0        0.693410   -1.996444   -0.623405
      7          6           0        2.540950    0.007570   -0.311635
      8          6           0        0.431584    2.496387   -0.756859
      9          1           0        1.344264    1.871022    1.107691
     10          1           0       -0.316601    1.353356    0.915888
     11          1           0        1.355916    2.648512   -1.319885
     12          1           0        0.120619    3.463737   -0.353402
     13          1           0       -0.339445    2.155314   -1.451250
     14          6           0        3.293575   -0.475809    0.929732
     15          1           0        2.936035    0.966126   -0.656423
     16          1           0        2.654944   -0.715251   -1.119839
     17          1           0        3.175401    0.216743    1.767580
     18          1           0        4.361758   -0.562006    0.712442
     19          1           0        2.927121   -1.457244    1.235204
     20          1           0       -1.795915   -2.143026    0.921959
     21          1           0       -2.046277   -1.559971   -1.442898
 ---------------------------------------------------------------------

 SCF Done:  E(RHF) =  -1076.12130640     A.U. after    2 cycles

 The electronic state is 1-A.
 Alpha  occ. eigenvalues --  -99.88543 -76.27075 -21.03409 -15.75645 -11.47221
 Alpha  occ. eigenvalues --  -11.45031 -11.43052 -11.38005 -11.36976 -10.45887
 Alpha  occ. eigenvalues --   -9.65819  -9.65385  -9.65161  -5.60498  -2.24691
 Alpha  occ. eigenvalues --   -2.22435  -2.22307  -1.71185  -1.44485  -1.28756
 Alpha  occ. eigenvalues --   -1.16210  -1.10210  -0.93245  -0.92268  -0.82791
 Alpha  occ. eigenvalues --   -0.73283  -0.67398  -0.65682  -0.62682  -0.59054
 Alpha  occ. eigenvalues --   -0.58214  -0.55613  -0.55538  -0.54521  -0.52752
 Alpha  occ. eigenvalues --   -0.52272  -0.50912  -0.49940  -0.49091  -0.48536
 Alpha  occ. eigenvalues --   -0.45361  -0.44178  -0.29871  -0.28757
 Alpha virt. eigenvalues --    0.03558   0.04671   0.05045   0.05342   0.05501
 Alpha virt. eigenvalues --    0.05601   0.06272   0.06670   0.06972   0.08053
 Alpha virt. eigenvalues --    0.08396   0.08781   0.09010   0.09340   0.10162

 Mulliken charges:
               1
     1  Si   6.003616
     2  C    3.671259
     3  Cl  -0.919300
     4  N   -3.485478
     5  C   -3.094808
     6  O   -2.498940
     7  C   -3.264402
     8  C   -3.645482
     9  H    1.673540
    10  H    1.756092
    11  H    1.461412
    12  H    1.121333
    13  H    1.507188
    14  C   -3.583100
    15  H    1.680404
    16  H    1.732583
    17  H    1.475616
    18  H    1.128133
    19  H    1.435567
    20  H   -2.079858
    21  H   -2.075375
 Sum of Mulliken charges =  -0.00000

 Dipole moment (field-independent basis, Debye):
    X=              2.6581    Y=              1.2908    Z=              0.0886  Tot=              2.9562

 Test job not archived.
 1\1\GINC-SE458\SP\RHF\Aug-CC-pVDZ\C5H12Cl1N1O1Si1\OHZDE\08-Apr-2025\0\
 \#t hf aug-cc-pvdz iop(5/13=1,5/36=2,99/5=2) pseudo=read geom=check gu
 ess=(read,tcheck) scf=(maxcycle=1)\\title\\0,1\Si,0,-1.592998,-1.12156
 8,-0.115723\C,0,0.289042,-0.884291,-0.266437\Cl,0,-2.84546,0.492717,0.
 408784\N,0,1.098424,0.179675,-0.072421\C,0,0.621634,1.489852,0.379851\
 O,0,0.69341,-1.996444,-0.623405\C,0,2.54095,0.00757,-0.311635\C,0,0.43
 1584,2.496387,-0.756859\H,0,1.344264,1.871022,1.107691\H,0,-0.316601,1
 .353356,0.915888\H,0,1.355916,2.648512,-1.319885\H,0,0.120619,3.463737

 Normal termination of Gaussian 16 at Tue Apr  8 23:49:11 2025.
