 Gaussian 16, Revision C.01,

 ----------------------------------------------------------------------
 #t hf aug-cc-pvdz symm=none int=(grid=ultrafine) guess=(read,tcheck) s
 table=(opt,rrhf)
 ----------------------------------------------------------------------
 -----
 title
 -----
 Symbolic Z-matrix:
 Charge =  0 Multiplicity = 1

 SCF Done:  E(RHF) =  -794.109453697     A.U. after   14 cycles
 Normal termination of Gaussian 16 at Tue Apr  8 23:25:18 2025.
 Gaussian 16:  ES64L-G16RevC.01  3-Jul-2019

 ----------------------------------------------------------------------
 #t hf aug-cc-pvdz iop(5/13=1,5/36=2,99/5=2) pseudo=read geom=check gue
 ss=(read,tcheck) scf=(maxcycle=1)
 ----------------------------------------------------------------------
 -----
 title
 -----
 Structure from the checkpoint file:  "BDE49_expt_810_mol1.chk"
 Charge =  0 Multiplicity = 1

                         Standard orientation:
 ---------------------------------------------------------------------
 Center     Atomic      Atomic             Coordinates (Angstroms)
 Number     Number       Type             X           Y           Z
 ---------------------------------------------------------------------
      1         14           0       -0.645512    1.420973    0.018914
      2          6           0       -1.922166    0.267279   -0.783625
      3          6           0        1.015595    0.580207    0.317540
      4          6           0        1.704010   -0.067707   -0.722371
      5          6           0        2.948070   -0.672567   -0.533495
      6          6           0        3.519314   -0.624526    0.744332
      7          6           0        2.862665    0.010646    1.792024
      8          6           0        1.620726    0.609207    1.581168
      9          1           0        1.120001    1.100179    2.409604
     10          1           0        1.263404   -0.106991   -1.715787
     11          1           0        3.318139    0.039558    2.776248
     12          6           0       -0.411984    2.900804   -1.125528
     13          1           0       -1.111527    1.912218    1.342035
     14          1           0       -0.063141    2.586347   -2.114023
     15          1           0        0.327938    3.594909   -0.718001
     16          1           0       -1.350843    3.446419   -1.260205
     17          6           0       -2.683647   -0.804526    0.046025
     18          1           0       -1.401829   -0.234094   -1.612017
     19          1           0       -2.662512    0.919598   -1.266663
     20          6           0       -3.561834   -1.631473   -0.915115
     21          1           0       -4.274393   -0.992532   -1.446117
     22          1           0       -4.132862   -2.390771   -0.370993
     23          1           0       -2.950044   -2.144872   -1.663478
     24          6           0       -1.703123   -1.752183    0.760553
     25          1           0       -1.025537   -2.232859    0.048733
     26          1           0       -2.247928   -2.540389    1.289819
     27          1           0       -1.088298   -1.223959    1.493952
     28          6           0       -3.595812   -0.128193    1.086809
     29          1           0       -4.309846    0.546883    0.604058
     30          1           0       -3.021122    0.454582    1.810621
     31          1           0       -4.169208   -0.877380    1.641566
     32          1           0        4.485469   -1.089387    0.916300
     33          6           0        3.667023   -1.359924   -1.670117
     34          1           0        3.077479   -1.332492   -2.588692
     35          1           0        3.870992   -2.408918   -1.434228
     36          1           0        4.629800   -0.881938   -1.876734
 ---------------------------------------------------------------------

 SCF Done:  E(RHF) =  -796.843646843     A.U. after    2 cycles

 The electronic state is 1-A.
 Alpha  occ. eigenvalues --  -76.19013 -11.50338 -11.43292 -11.42548 -11.41657
 Alpha  occ. eigenvalues --  -11.41144 -11.40395 -11.38727 -11.38302 -11.38090
 Alpha  occ. eigenvalues --  -11.37873 -11.35294 -11.34338 -11.33554  -5.52944
 Alpha  occ. eigenvalues --   -2.18450  -2.17058  -2.16717  -1.34256  -1.27978
 Alpha  occ. eigenvalues --   -1.13807  -1.08511  -1.03497  -0.99566  -0.99504
 Alpha  occ. eigenvalues --   -0.98992  -0.98661  -0.85570  -0.82538  -0.76619
 Alpha  occ. eigenvalues --   -0.71174  -0.67684  -0.61844  -0.61678  -0.61338
 Alpha  occ. eigenvalues --   -0.59567  -0.58612  -0.57426  -0.56375  -0.54967
 Alpha  occ. eigenvalues --   -0.54732  -0.54537  -0.53382  -0.51556  -0.51021
 Alpha  occ. eigenvalues --   -0.50402  -0.49866  -0.48564  -0.45389  -0.43813
 Alpha  occ. eigenvalues --   -0.42835  -0.41502  -0.40315  -0.37403  -0.35773
 Alpha  occ. eigenvalues --   -0.32193  -0.31319
 Alpha virt. eigenvalues --    0.03538   0.04309   0.04636   0.05172   0.05336
 Alpha virt. eigenvalues --    0.05544   0.05681   0.06004   0.06186   0.06359
 Alpha virt. eigenvalues --    0.06474   0.06668   0.06929   0.07718   0.07960

 Mulliken charges:
               1
     1  Si   8.113418
     2  C   -5.923206
     3  C    0.025513
     4  C   -1.513092
     5  C    2.850505
     6  C   -2.714550
     7  C   -1.175898
     8  C   -4.151682
     9  H    1.903241
    10  H    2.285644
    11  H    1.661523
    12  C   -5.821112
    13  H   -2.671449
    14  H    1.392726
    15  H    1.092705
    16  H    1.162408
    17  C    6.718853
    18  H    1.537969
    19  H    1.460350
    20  C   -5.283801
    21  H    1.175640
    22  H    1.254608
    23  H    1.235916
    24  C   -5.915555
    25  H    1.398257
    26  H    1.039890
    27  H    1.597086
    28  C   -5.508151
    29  H    1.203451
    30  H    1.442434
    31  H    1.183334
    32  H    1.933302
    33  C   -6.628270
    34  H    1.357341
    35  H    1.129762
    36  H    1.150892
 Sum of Mulliken charges =  -0.00000

 Dipole moment (field-independent basis, Debye):
    X=              0.7420    Y=             -0.6146    Z=             -0.5806  Tot=              1.1249

 Test job not archived.
 1\1\GINC-SE059\SP\RHF\Aug-CC-pVDZ\C13H22Si1\OHZDE\08-Apr-2025\0\\#t hf
  aug-cc-pvdz iop(5/13=1,5/36=2,99/5=2) pseudo=read geom=check guess=(r
 ead,tcheck) scf=(maxcycle=1)\\title\\0,1\Si,0,-0.645512,1.420973,0.018
 914\C,0,-1.922166,0.267279,-0.783625\C,0,1.015595,0.580207,0.31754\C,0
 ,1.70401,-0.067707,-0.722371\C,0,2.94807,-0.672567,-0.533495\C,0,3.519
 314,-0.624526,0.744332\C,0,2.862665,0.010646,1.792024\C,0,1.620726,0.6
 09207,1.581168\H,0,1.120001,1.100179,2.409604\H,0,1.263404,-0.106991,-
 1.715787\H,0,3.318139,0.039558,2.776248\C,0,-0.411984,2.900804,-1.1255

 Normal termination of Gaussian 16 at Tue Apr  8 23:26:08 2025.
