 Gaussian 16, Revision C.01,

 ----------------------------------------------------------------------
 #t hf aug-cc-pvdz symm=none int=(grid=ultrafine) guess=(read,tcheck) s
 table=(opt,rrhf)
 ----------------------------------------------------------------------
 -----
 title
 -----
 Symbolic Z-matrix:
 Charge =  0 Multiplicity = 1

 SCF Done:  E(RHF) =  -268.955835154     A.U. after   14 cycles
 Normal termination of Gaussian 16 at Wed Apr  9 00:35:50 2025.
 Gaussian 16:  ES64L-G16RevC.01  3-Jul-2019

 ----------------------------------------------------------------------
 #t hf aug-cc-pvdz iop(5/13=1,5/36=2,99/5=2) pseudo=read geom=check gue
 ss=(read,tcheck) scf=(maxcycle=1)
 ----------------------------------------------------------------------
 -----
 title
 -----
 Structure from the checkpoint file:  "BDE49_nonexpt_465_mol1.chk"
 Charge =  0 Multiplicity = 1

                         Standard orientation:
 ---------------------------------------------------------------------
 Center     Atomic      Atomic             Coordinates (Angstroms)
 Number     Number       Type             X           Y           Z
 ---------------------------------------------------------------------
      1          1           0        1.662334    0.000073   -1.641172
      2          1           0        3.065345   -0.000047   -0.122177
      3          5           0        1.933119    0.000023   -0.485814
      4          6           0        0.826522   -0.000038    0.618510
      5          7           0       -0.568374   -0.000000    0.067719
      6          1           0        0.924321    0.886884    1.251700
      7          1           0        0.924311   -0.887025    1.251610
      8          8           0       -1.076381    1.087652   -0.155973
      9          8           0       -1.076422   -1.087623   -0.156025
 ---------------------------------------------------------------------

 SCF Done:  E(RHF) =  -270.121001356     A.U. after    2 cycles

 The electronic state is 1-A.
 Alpha  occ. eigenvalues --  -21.09693 -21.09491 -15.99485 -11.42322  -7.65303
 Alpha  occ. eigenvalues --   -1.99582  -1.69068  -1.22102  -0.93168  -0.81100
 Alpha  occ. eigenvalues --   -0.70295  -0.67135  -0.65316  -0.56681  -0.51423
 Alpha  occ. eigenvalues --   -0.48230  -0.35282  -0.31770  -0.31151
 Alpha virt. eigenvalues --    0.02581   0.02801   0.03556   0.04712   0.06192
 Alpha virt. eigenvalues --    0.09465   0.10524   0.10685   0.11661   0.12980
 Alpha virt. eigenvalues --    0.14390   0.15087   0.15213   0.17248   0.18081

 Mulliken charges:
               1
     1  H   -2.912129
     2  H   -3.207228
     3  B    7.395173
     4  C   -3.393481
     5  N    4.218133
     6  H    1.659778
     7  H    1.659772
     8  O   -2.710019
     9  O   -2.710000
 Sum of Mulliken charges =  -0.00000

 Dipole moment (field-independent basis, Debye):
    X=              2.1729    Y=             -0.0000    Z=              1.0673  Tot=              2.4209

 Test job not archived.
 1\1\GINC-SE186\SP\RHF\Aug-CC-pVDZ\C1H4B1N1O2\OHZDE\09-Apr-2025\0\\#t h
 f aug-cc-pvdz iop(5/13=1,5/36=2,99/5=2) pseudo=read geom=check guess=(
 read,tcheck) scf=(maxcycle=1)\\title\\0,1\H,0,1.662334,0.000073,-1.641
 172\H,0,3.065345,-0.000047,-0.122177\B,0,1.933119,0.000023,-0.485814\C
 ,0,0.826522,-0.000038,0.61851\N,0,-0.568374,0.,0.067719\H,0,0.924321,0
 .886884,1.2517\H,0,0.924311,-0.887025,1.25161\O,0,-1.076381,1.087652,-
 0.155973\O,0,-1.076422,-1.087623,-0.156025\\Version=ES64L-G16RevC.01\S
 tate=1-A\HF=-270.1210014\RMSD=1.545e-01\Dipole=0.8548741,-0.0000073,0.

 Normal termination of Gaussian 16 at Wed Apr  9 00:35:53 2025.
