 Gaussian 16, Revision C.01,

 ----------------------------------------------------------------------
 #t hf aug-cc-pvdz symm=none int=(grid=ultrafine) guess=(read,tcheck) s
 table=(opt,rrhf)
 ----------------------------------------------------------------------
 -----
 title
 -----
 Symbolic Z-matrix:
 Charge =  0 Multiplicity = 1

 SCF Done:  E(RHF) =  -583.524837307     A.U. after   12 cycles
 Normal termination of Gaussian 16 at Wed Apr  9 00:46:08 2025.
 Gaussian 16:  ES64L-G16RevC.01  3-Jul-2019

 ----------------------------------------------------------------------
 #t hf aug-cc-pvdz iop(5/13=1,5/36=2,99/5=2) pseudo=read geom=check gue
 ss=(read,tcheck) scf=(maxcycle=1)
 ----------------------------------------------------------------------
 -----
 title
 -----
 Structure from the checkpoint file:  "BDE49_nonexpt_779_mol1.chk"
 Charge =  0 Multiplicity = 1

                         Standard orientation:
 ---------------------------------------------------------------------
 Center     Atomic      Atomic             Coordinates (Angstroms)
 Number     Number       Type             X           Y           Z
 ---------------------------------------------------------------------
      1         14           0        0.651366   -0.005857   -0.000019
      2          5           0       -1.390568    0.000481   -0.000082
      3          8           0       -2.034778   -1.202867    0.000062
      4          8           0       -2.177855    1.127407    0.000016
      5          6           0        1.291406   -0.895881   -1.539497
      6          1           0        0.975882   -0.388738   -2.456270
      7          1           0        0.908102   -1.919434   -1.580110
      8          6           0        1.291340   -0.895853    1.539506
      9          1           0        2.385062   -0.944743    1.544195
     10          1           0        0.908035   -1.919407    1.580120
     11          1           0        0.975771   -0.388693    2.456254
     12          6           0        1.303923    1.774560   -0.000024
     13          1           0        0.973288    2.327834   -0.885665
     14          1           0        2.398425    1.791533    0.000003
     15          1           0        0.973242    2.327853    0.885589
     16          1           0        2.385128   -0.944770   -1.544129
     17          1           0       -2.995742   -1.099108    0.000105
     18          1           0       -1.672427    1.943991    0.000042
 ---------------------------------------------------------------------

 SCF Done:  E(RHF) =  -585.039023224     A.U. after    2 cycles

 The electronic state is 1-A.
 Alpha  occ. eigenvalues --  -76.17546 -21.06238 -21.05152 -11.34617 -11.33877
 Alpha  occ. eigenvalues --  -11.33808  -7.62527  -5.51681  -2.15250  -2.15224
 Alpha  occ. eigenvalues --   -2.14668  -1.80479  -1.64805  -1.07441  -1.00369
 Alpha  occ. eigenvalues --   -0.99869  -0.76231  -0.66527  -0.61249  -0.56956
 Alpha  occ. eigenvalues --   -0.56051  -0.55417  -0.54216  -0.53847  -0.52748
 Alpha  occ. eigenvalues --   -0.51609  -0.47662  -0.42380  -0.38571  -0.38417
 Alpha  occ. eigenvalues --   -0.36103  -0.32035
 Alpha virt. eigenvalues --    0.02967   0.04296   0.04460   0.04642   0.06586
 Alpha virt. eigenvalues --    0.06742   0.06800   0.07325   0.07477   0.08502
 Alpha virt. eigenvalues --    0.08529   0.08657   0.09132   0.10379   0.10828

 Mulliken charges:
               1
     1  Si   7.538402
     2  B    6.344242
     3  O   -4.157266
     4  O   -4.215741
     5  C   -5.991878
     6  H    1.091228
     7  H    1.164250
     8  C   -5.991940
     9  H    1.129613
    10  H    1.164278
    11  H    1.091220
    12  C   -6.088568
    13  H    1.021100
    14  H    1.098871
    15  H    1.021098
    16  H    1.129602
    17  H    1.228566
    18  H    1.422923
 Sum of Mulliken charges =   0.00000

 Dipole moment (field-independent basis, Debye):
    X=              0.2402    Y=              0.7908    Z=              0.0001  Tot=              0.8265

 Test job not archived.
 1\1\GINC-SE165\SP\RHF\Aug-CC-pVDZ\C3H11B1O2Si1\OHZDE\09-Apr-2025\0\\#t
  hf aug-cc-pvdz iop(5/13=1,5/36=2,99/5=2) pseudo=read geom=check guess
 =(read,tcheck) scf=(maxcycle=1)\\title\\0,1\Si,0,0.651366,-0.005857,-0
 .000019\B,0,-1.390568,0.000481,-0.000082\O,0,-2.034778,-1.202867,0.000
 062\O,0,-2.177855,1.127407,0.000016\C,0,1.291406,-0.895881,-1.539497\H
 ,0,0.975882,-0.388738,-2.45627\H,0,0.908102,-1.919434,-1.58011\C,0,1.2
 9134,-0.895853,1.539506\H,0,2.385062,-0.944743,1.544195\H,0,0.908035,-
 1.919407,1.58012\H,0,0.975771,-0.388693,2.456254\C,0,1.303923,1.77456,

 Normal termination of Gaussian 16 at Wed Apr  9 00:46:17 2025.
