 Gaussian 16, Revision C.01,

 ----------------------------------------------------------------------
 #t hf aug-cc-pvdz symm=none int=(grid=ultrafine) guess=(read,tcheck) s
 table=(opt,rrhf)
 ----------------------------------------------------------------------
 -----
 title
 -----
 Symbolic Z-matrix:
 Charge =  0 Multiplicity = 1

 SCF Done:  E(RHF) =  -815.753354467     A.U. after   16 cycles
 Normal termination of Gaussian 16 at Tue Apr  8 23:40:36 2025.
 Gaussian 16:  ES64L-G16RevC.01  3-Jul-2019

 ----------------------------------------------------------------------
 #t hf aug-cc-pvdz iop(5/13=1,5/36=2,99/5=2) pseudo=read geom=check gue
 ss=(read,tcheck) scf=(maxcycle=1)
 ----------------------------------------------------------------------
 -----
 title
 -----
 Structure from the checkpoint file:  "BDE49_nonexpt_1559_mol1.chk"
 Charge =  0 Multiplicity = 1

                         Standard orientation:
 ---------------------------------------------------------------------
 Center     Atomic      Atomic             Coordinates (Angstroms)
 Number     Number       Type             X           Y           Z
 ---------------------------------------------------------------------
      1          6           0        2.381068   -1.484661   -0.083624
      2          6           0        1.081612   -1.398824    0.409108
      3          6           0        3.029205   -0.326543   -0.499282
      4          6           0        2.377773    0.902235   -0.419806
      5          6           0        1.075381    1.011628    0.074951
      6          6           0        0.415833   -0.165878    0.501321
      7          1           0        2.877943   -2.446255   -0.142583
      8          1           0        0.574578   -2.300835    0.732567
      9          7           0       -2.342825   -0.402457   -0.191234
     10          8           0       -2.409377    0.823037   -0.939309
     11          8           0       -1.883737   -1.409718   -1.057971
     12          1           0        2.891812    1.800222   -0.746341
     13          1           0        4.041570   -0.375814   -0.884822
     14          6           0        0.409823    2.366667    0.136279
     15          1           0        1.091058    3.147342   -0.206602
     16          1           0        0.098713    2.610957    1.156209
     17          1           0       -0.487230    2.392626   -0.486769
     18          1           0       -0.982082   -1.155084   -1.325219
     19          1           0       -3.314962    0.821588   -1.272760
     20         15           0       -1.288918   -0.066925    1.208715
     21          1           0       -1.337121   -1.407976    1.648793
 ---------------------------------------------------------------------

 SCF Done:  E(RHF) =  -818.119454952     A.U. after    2 cycles

 The electronic state is 1-A.
 Alpha  occ. eigenvalues -- -105.20456 -21.09858 -21.09431 -15.79565 -11.52500
 Alpha  occ. eigenvalues --  -11.45503 -11.44099 -11.42132 -11.41745 -11.38802
 Alpha  occ. eigenvalues --  -11.36859  -2.78085  -1.85541  -1.67483  -1.54262
 Alpha  occ. eigenvalues --   -1.50184  -1.48470  -1.34529  -1.15182  -1.09157
 Alpha  occ. eigenvalues --   -1.02536  -0.99423  -0.86317  -0.83868  -0.74232
 Alpha  occ. eigenvalues --   -0.68765  -0.66010  -0.62566  -0.61263  -0.58167
 Alpha  occ. eigenvalues --   -0.56584  -0.55443  -0.52886  -0.52628  -0.50331
 Alpha  occ. eigenvalues --   -0.49103  -0.45790  -0.44422  -0.34980  -0.34308
 Alpha  occ. eigenvalues --   -0.32851  -0.31271  -0.26321  -0.23407  -0.01838
 Alpha virt. eigenvalues --    0.03607   0.04762   0.05167   0.06052   0.06157
 Alpha virt. eigenvalues --    0.06471   0.07125   0.07888   0.08060   0.08790
 Alpha virt. eigenvalues --    0.09508   0.10211   0.10981   0.11459   0.12166

 Mulliken charges:
               1
     1  C   -1.376183
     2  C   -4.946200
     3  C   -2.158901
     4  C   -0.676572
     5  C    1.566583
     6  C    2.658698
     7  H    1.505716
     8  H    1.986771
     9  N    1.975989
    10  O   -2.571498
    11  O   -2.490263
    12  H    1.803212
    13  H    1.467339
    14  C   -5.842633
    15  H    1.074066
    16  H    1.318182
    17  H    1.536421
    18  H    0.978891
    19  H    0.943056
    20  P    2.883711
    21  H   -1.636386
 Sum of Mulliken charges =   0.00000

 Dipole moment (field-independent basis, Debye):
    X=              0.7968    Y=              1.4145    Z=             -1.2351  Tot=              2.0399

 Test job not archived.
 1\1\GINC-SE070\SP\RHF\Aug-CC-pVDZ\C7H10N1O2P1\OHZDE\08-Apr-2025\0\\#t
 hf aug-cc-pvdz iop(5/13=1,5/36=2,99/5=2) pseudo=read geom=check guess=
 (read,tcheck) scf=(maxcycle=1)\\title\\0,1\C,0,2.381068,-1.484661,-0.0
 83624\C,0,1.081612,-1.398824,0.409108\C,0,3.029205,-0.326543,-0.499282
 \C,0,2.377773,0.902235,-0.419806\C,0,1.075381,1.011628,0.074951\C,0,0.
 415833,-0.165878,0.501321\H,0,2.877943,-2.446255,-0.142583\H,0,0.57457
 8,-2.300835,0.732567\N,0,-2.342825,-0.402457,-0.191234\O,0,-2.409377,0
 .823037,-0.939309\O,0,-1.883737,-1.409718,-1.057971\H,0,2.891812,1.800

 Normal termination of Gaussian 16 at Tue Apr  8 23:40:50 2025.
