 Gaussian 16, Revision C.01,

 ----------------------------------------------------------------------
 #t hf aug-cc-pvdz symm=none int=(grid=ultrafine) guess=(read,tcheck) s
 table=opt
 ----------------------------------------------------------------------
 -----
 title
 -----
 Symbolic Z-matrix:
 Charge =  0 Multiplicity = 2

 SCF Done:  E(UHF) =  -306.428281671     A.U. after   17 cycles
 Normal termination of Gaussian 16 at Tue Apr  8 22:50:11 2025.
 Gaussian 16:  ES64L-G16RevC.01  3-Jul-2019

 ----------------------------------------------------------------------
 #t hf aug-cc-pvdz iop(5/13=1,5/36=2,99/5=2) pseudo=read geom=check gue
 ss=(read,tcheck) scf=(maxcycle=1)
 ----------------------------------------------------------------------
 -----
 title
 -----
 Structure from the checkpoint file:  "BDE49_expt_168_mol2.chk"
 Charge =  0 Multiplicity = 2

                         Standard orientation:
 ---------------------------------------------------------------------
 Center     Atomic      Atomic             Coordinates (Angstroms)
 Number     Number       Type             X           Y           Z
 ---------------------------------------------------------------------
      1          6           0       -1.662675    0.153501    0.193386
      2          6           0       -0.652941    1.143114   -0.368300
      3          8           0       -1.248189   -1.189755   -0.116310
      4          1           0       -2.647281    0.338466   -0.252075
      5          1           0       -1.745796    0.281712    1.280890
      6          1           0       -1.834007   -1.809874    0.328124
      7          6           0        0.745717    1.140145    0.298872
      8          1           0       -0.550722    0.977687   -1.445761
      9          1           0       -1.094809    2.137765   -0.240675
     10          6           0        1.722172    0.103030   -0.164245
     11          1           0        0.597935    1.081209    1.394882
     12          1           0        1.208891    2.113977    0.113193
     13          8           0        1.479985   -1.224943    0.017953
     14          1           0        2.782238    0.330492   -0.136909
     15          1           0        0.515552   -1.372588   -0.013088
 ---------------------------------------------------------------------

 SCF Done:  E(UHF) =  -307.816523237     A.U. after    2 cycles

 The electronic state is 2-A.
 Alpha  occ. eigenvalues --  -21.08875 -21.05504 -11.45274 -11.42274 -11.39274
 Alpha  occ. eigenvalues --  -11.35924  -1.73760  -1.70383  -1.20663  -1.03498
 Alpha  occ. eigenvalues --   -0.89624  -0.80606  -0.68712  -0.64992  -0.61420
 Alpha  occ. eigenvalues --   -0.60188  -0.57418  -0.52179  -0.49464  -0.45844
 Alpha  occ. eigenvalues --   -0.44919  -0.41821  -0.37777  -0.33317  -0.21814
 Alpha virt. eigenvalues --    0.03540   0.04951   0.05078   0.05281   0.05821
 Alpha virt. eigenvalues --    0.06324   0.07054   0.07520   0.09388   0.11582
 Alpha virt. eigenvalues --    0.13073   0.13173   0.14304   0.14832   0.14993

  Beta  occ. eigenvalues --  -21.08879 -21.04931 -11.45248 -11.42004 -11.38194
  Beta  occ. eigenvalues --  -11.35155  -1.73542  -1.68839  -1.19991  -1.01870
  Beta  occ. eigenvalues --   -0.87410  -0.77881  -0.68511  -0.64848  -0.60161
  Beta  occ. eigenvalues --   -0.58895  -0.56686  -0.50701  -0.47809  -0.45147
  Beta  occ. eigenvalues --   -0.43285  -0.38317  -0.35560  -0.32814
  Beta virt. eigenvalues --    0.03414   0.04919   0.05040   0.05195   0.05797
  Beta virt. eigenvalues --    0.06325   0.07081   0.07533   0.09397   0.11678
  Beta virt. eigenvalues --    0.12336   0.13142   0.13219   0.14499   0.14931

 Mulliken charges and spin densities:
               1          2
     1  C   -0.943414  -0.017679
     2  C   -2.907130  -0.035606
     3  O   -2.702029   0.004816
     4  H    1.322470  -0.000686
     5  H    1.451849  -0.005220
     6  H    0.830225   0.001435
     7  C   -3.398948  -0.317270
     8  H    1.545688  -0.023253
     9  H    1.313663  -0.003359
    10  C    0.771187   1.300419
    11  H    1.399102   0.031768
    12  H    1.362470  -0.012156
    13  O   -3.199644   0.103491
    14  H    1.637886  -0.014295
    15  H    1.516624  -0.012407
 Sum of Mulliken charges =   0.00000   1.00000

 Dipole moment (field-independent basis, Debye):
    X=             -2.0459    Y=              0.4004    Z=              0.6969  Tot=              2.1981
                          Isotropic Fermi Contact Couplings
        Atom                 a.u.       MegaHertz       Gauss      10(-4) cm-1
     1  C(13)             -0.00076      -0.85047      -0.30347      -0.28369
     2  C(13)              0.02491      28.00492       9.99285       9.34144
     3  O(17)             -0.00109       0.66199       0.23622       0.22082
     4  H(1)               0.00005       0.23013       0.08212       0.07676
     5  H(1)               0.00001       0.04387       0.01565       0.01463
     6  H(1)              -0.00004      -0.17166      -0.06125      -0.05726
     7  C(13)             -0.01795     -20.18375      -7.20206      -6.73257
     8  H(1)              -0.00064      -2.87952      -1.02749      -0.96051

 Normal termination of Gaussian 16 at Tue Apr  8 22:50:16 2025.
