 Gaussian 16, Revision C.01,

 ----------------------------------------------------------------------
 #t hf aug-cc-pvdz symm=none int=(grid=ultrafine) guess=(read,tcheck) s
 table=opt
 ----------------------------------------------------------------------
 -----
 title
 -----
 Symbolic Z-matrix:
 Charge =  0 Multiplicity = 2

 SCF Done:  E(UHF) =  -178.792670977     A.U. after   15 cycles
 Normal termination of Gaussian 16 at Wed Apr  9 00:40:54 2025.
 Gaussian 16:  ES64L-G16RevC.01  3-Jul-2019

 ----------------------------------------------------------------------
 #t hf aug-cc-pvdz iop(5/13=1,5/36=2,99/5=2) pseudo=read geom=check gue
 ss=(read,tcheck) scf=(maxcycle=1)
 ----------------------------------------------------------------------
 -----
 title
 -----
 Structure from the checkpoint file:  "BDE49_nonexpt_642_mol2.chk"
 Charge =  0 Multiplicity = 2

                         Standard orientation:
 ---------------------------------------------------------------------
 Center     Atomic      Atomic             Coordinates (Angstroms)
 Number     Number       Type             X           Y           Z
 ---------------------------------------------------------------------
      1          5           0       -0.893108    0.708882   -0.000001
      2          6           0        0.678999    0.754990    0.000000
      3          6           0        1.391610   -0.613208    0.000002
      4          1           0        1.130858   -1.203655   -0.884557
      5          1           0        1.130857   -1.203653    0.884562
      6          1           0        2.478663   -0.499718    0.000002
      7          8           0       -1.683040   -0.370225   -0.000002
      8          1           0       -1.223571   -1.226182   -0.000001
      9          1           0        0.994697    1.349956    0.866303
     10          1           0        0.994698    1.349954   -0.866304
 ---------------------------------------------------------------------

 SCF Done:  E(UHF) =  -179.603947909     A.U. after    2 cycles

 The electronic state is 2-A.
 Alpha  occ. eigenvalues --  -21.06746 -11.39523 -11.34386  -7.63318  -1.74279
 Alpha  occ. eigenvalues --   -1.16642  -0.92147  -0.71737  -0.62844  -0.61426
 Alpha  occ. eigenvalues --   -0.53605  -0.51145  -0.49661  -0.42812  -0.40675
 Alpha  occ. eigenvalues --   -0.27896
 Alpha virt. eigenvalues --    0.02921   0.04369   0.04652   0.05230   0.06633
 Alpha virt. eigenvalues --    0.07136   0.07752   0.08393   0.08760   0.12006
 Alpha virt. eigenvalues --    0.13983   0.15056   0.15317   0.15777   0.16510

  Beta  occ. eigenvalues --  -21.06704 -11.39396 -11.34196  -7.61484  -1.73768
  Beta  occ. eigenvalues --   -1.15990  -0.91166  -0.68621  -0.61907  -0.61279
  Beta  occ. eigenvalues --   -0.51803  -0.50256  -0.49496  -0.42895  -0.38790
  Beta virt. eigenvalues --    0.02846   0.04122   0.04733   0.04889   0.06682
  Beta virt. eigenvalues --    0.07203   0.07811   0.08467   0.08786   0.09198
  Beta virt. eigenvalues --    0.13883   0.14038   0.15299   0.16584   0.16635

 Mulliken charges and spin densities:
               1          2
     1  B    3.108366   1.207206
     2  C   -4.483577   0.022204
     3  C   -3.568248   0.029316
     4  H    1.186947  -0.003589
     5  H    1.186947  -0.003589
     6  H    1.162620  -0.003922
     7  O   -3.374283  -0.257630
     8  H    1.334772   0.044613
     9  H    1.723229  -0.017304
    10  H    1.723227  -0.017304
 Sum of Mulliken charges =  -0.00000   1.00000

 Dipole moment (field-independent basis, Debye):
    X=              1.2711    Y=             -1.3793    Z=              0.0000  Tot=              1.8757
                          Isotropic Fermi Contact Couplings
        Atom                 a.u.       MegaHertz       Gauss      10(-4) cm-1
     1  B(11)              0.23134     331.82854     118.40467     110.68609
     2  C(13)              0.05143      57.82224      20.63241      19.28742
     3  C(13)              0.01602      18.01290       6.42745       6.00846
     4  H(1)              -0.00054      -2.43506      -0.86889      -0.81225
     5  H(1)              -0.00054      -2.43506      -0.86889      -0.81225
     6  H(1)               0.00080       3.58510       1.27925       1.19586
     7  O(17)              0.13418     -81.33772     -29.02332     -27.13134
     8  H(1)               0.01733      77.45136      27.63657      25.83499

 Normal termination of Gaussian 16 at Wed Apr  9 00:40:57 2025.
