 Gaussian 16, Revision C.01,

 ----------------------------------------------------------------------
 #t hf aug-cc-pvdz symm=none int=(grid=ultrafine) guess=(read,tcheck) s
 table=opt
 ----------------------------------------------------------------------
 -----
 title
 -----
 Symbolic Z-matrix:
 Charge =  0 Multiplicity = 2

 SCF Done:  E(UHF) =  -361.413529526     A.U. after   14 cycles
 Normal termination of Gaussian 16 at Wed Apr  9 00:36:50 2025.
 Gaussian 16:  ES64L-G16RevC.01  3-Jul-2019

 ----------------------------------------------------------------------
 #t hf aug-cc-pvdz iop(5/13=1,5/36=2,99/5=2) pseudo=read geom=check gue
 ss=(read,tcheck) scf=(maxcycle=1)
 ----------------------------------------------------------------------
 -----
 title
 -----
 Structure from the checkpoint file:  "BDE49_nonexpt_545_mol2.chk"
 Charge =  0 Multiplicity = 2

                         Standard orientation:
 ---------------------------------------------------------------------
 Center     Atomic      Atomic             Coordinates (Angstroms)
 Number     Number       Type             X           Y           Z
 ---------------------------------------------------------------------
      1          1           0        2.451185    0.000689    0.600028
      2          9           0        0.044994    1.099998   -0.712835
      3          9           0        0.045623   -1.099419   -0.713641
      4          9           0       -1.134848   -0.000550    0.745432
      5          6           0        0.042670    0.000006    0.086812
      6          5           0        1.338175   -0.000197    1.001700
 ---------------------------------------------------------------------

 SCF Done:  E(UHF) =  -362.671245524     A.U. after    2 cycles

 The electronic state is 2-A.
 Alpha  occ. eigenvalues --  -29.31279 -29.31239 -29.30899 -11.55617  -7.68987
 Alpha  occ. eigenvalues --   -1.40945  -0.91358  -0.87413  -0.86350  -0.63579
 Alpha  occ. eigenvalues --   -0.48420  -0.43722  -0.43504  -0.40784  -0.37272
 Alpha  occ. eigenvalues --   -0.34202  -0.26861  -0.26476  -0.24676  -0.21705
 Alpha virt. eigenvalues --    0.02829   0.04457   0.04544   0.07174   0.08727
 Alpha virt. eigenvalues --    0.11190   0.12785   0.16104   0.16612   0.21395
 Alpha virt. eigenvalues --    0.22137   0.23421   0.24415   0.24688   0.25020

  Beta  occ. eigenvalues --  -29.31208 -29.31168 -29.30897 -11.55594  -7.67063
  Beta  occ. eigenvalues --   -1.40478  -0.88515  -0.87391  -0.84769  -0.61624
  Beta  occ. eigenvalues --   -0.48296  -0.43669  -0.43275  -0.37012  -0.36308
  Beta  occ. eigenvalues --   -0.27856  -0.26792  -0.25842  -0.21636
  Beta virt. eigenvalues --    0.02738   0.03544   0.04555   0.07202   0.07477
  Beta virt. eigenvalues --    0.10946   0.11626   0.14974   0.16159   0.17911
  Beta virt. eigenvalues --    0.21830   0.22352   0.23712   0.25351   0.25434

 Mulliken charges and spin densities:
               1          2
     1  H   -1.382212   0.013608
     2  F    0.205653   0.015447
     3  F    0.205645   0.015404
     4  F    0.324318  -0.014793
     5  C   -1.535600  -0.022078
     6  B    2.182196   0.992412
 Sum of Mulliken charges =  -0.00000   1.00000

 Dipole moment (field-independent basis, Debye):
    X=             -1.1792    Y=              0.0005    Z=             -1.6343  Tot=              2.0154
                          Isotropic Fermi Contact Couplings
        Atom                 a.u.       MegaHertz       Gauss      10(-4) cm-1
     1  H(1)               0.00812      36.28489      12.94735      12.10334
     2  F(19)              0.00770      32.38347      11.55523      10.80196
     3  F(19)              0.00767      32.28605      11.52047      10.76947
     4  F(19)             -0.00091      -3.83467      -1.36831      -1.27911
     5  C(13)              0.01029      11.56606       4.12706       3.85802
     6  B(11)              0.18232     261.51903      93.31649      87.23336
 --------------------------------------------------------
       Center         ----  Spin Dipole Couplings  ----

 Normal termination of Gaussian 16 at Wed Apr  9 00:36:51 2025.
