 Gaussian 16, Revision C.01,

 ----------------------------------------------------------------------
 #t hf aug-cc-pvdz symm=none int=(grid=ultrafine) guess=(read,tcheck) s
 table=(opt,rrhf)
 ----------------------------------------------------------------------
 -----
 title
 -----
 Symbolic Z-matrix:
 Charge =  0 Multiplicity = 1

 SCF Done:  E(RHF) =  -884.843990345     A.U. after   16 cycles
 Normal termination of Gaussian 16 at Tue Apr  8 22:56:01 2025.
 Gaussian 16:  ES64L-G16RevC.01  3-Jul-2019

 ----------------------------------------------------------------------
 #t hf aug-cc-pvdz iop(5/13=1,5/36=2,99/5=2) pseudo=read geom=check gue
 ss=(read,tcheck) scf=(maxcycle=1)
 ----------------------------------------------------------------------
 -----
 title
 -----
 Structure from the checkpoint file:  "BDE49_expt_1694_mol1.chk"
 Charge =  0 Multiplicity = 1

                         Standard orientation:
 ---------------------------------------------------------------------
 Center     Atomic      Atomic             Coordinates (Angstroms)
 Number     Number       Type             X           Y           Z
 ---------------------------------------------------------------------
      1          6           0       -0.927677    1.233012   -0.408482
      2          6           0        0.447453    1.231102   -0.184138
      3          6           0        1.170257    0.036651   -0.095650
      4          6           0        0.450112   -1.159458   -0.244176
      5          6           0       -0.919661   -1.161807   -0.468042
      6          6           0       -1.631913    0.038618   -0.554466
      7          1           0       -1.456946    2.178677   -0.467357
      8          1           0        0.951595    2.182479   -0.079373
      9          6           0       -3.105667    0.040431   -0.801565
     10          1           0       -1.444405   -2.105856   -0.573785
     11          1           0       -3.440779    0.953226   -1.288504
     12         17           0       -4.078264   -0.045588    0.761804
     13          1           0       -3.429157   -0.823719   -1.377315
     14          1           0        0.966094   -2.110806   -0.185752
     15          6           0        2.688077   -0.006757    0.152029
     16          6           0        3.299476    1.399484    0.289073
     17          1           0        3.159751    1.994659   -0.617442
     18          1           0        4.375122    1.315182    0.464804
     19          1           0        2.870500    1.949655    1.130883
     20          6           0        3.381813   -0.720544   -1.031647
     21          1           0        3.199140   -0.188821   -1.969414
     22          1           0        3.025266   -1.745771   -1.153765
     23          1           0        4.463076   -0.760810   -0.868429
     24          6           0        2.971959   -0.784971    1.458051
     25          1           0        2.493979   -0.299601    2.313129
     26          1           0        4.048857   -0.826224    1.647749
     27          1           0        2.603011   -1.811840    1.407984
 ---------------------------------------------------------------------

 SCF Done:  E(RHF) =  -887.229923084     A.U. after    2 cycles

 The electronic state is 1-A.
 Alpha  occ. eigenvalues --  -99.86969 -11.52801 -11.46211 -11.45502 -11.44557
 Alpha  occ. eigenvalues --  -11.43842 -11.42702 -11.41382 -11.39827 -11.38921
 Alpha  occ. eigenvalues --  -11.38514 -11.36209 -10.44136  -9.64111  -9.63426
 Alpha  occ. eigenvalues --   -9.63341  -1.39215  -1.30976  -1.24335  -1.11146
 Alpha  occ. eigenvalues --   -1.09852  -1.00812  -1.00767  -0.98501  -0.87082
 Alpha  occ. eigenvalues --   -0.86192  -0.78270  -0.69798  -0.65554  -0.65123
 Alpha  occ. eigenvalues --   -0.61880  -0.60945  -0.60541  -0.59913  -0.58189
 Alpha  occ. eigenvalues --   -0.55680  -0.54954  -0.52528  -0.51867  -0.51546
 Alpha  occ. eigenvalues --   -0.49526  -0.47498  -0.45949  -0.45569  -0.43737
 Alpha  occ. eigenvalues --   -0.41442  -0.40290  -0.33371  -0.31892
 Alpha virt. eigenvalues --    0.03310   0.04416   0.04882   0.04931   0.05211
 Alpha virt. eigenvalues --    0.05359   0.06065   0.06595   0.06653   0.06788
 Alpha virt. eigenvalues --    0.07210   0.08104   0.08779   0.08891   0.09552

 Mulliken charges:
               1
     1  C   -1.944516
     2  C   -2.494873
     3  C    4.833900
     4  C   -2.093685
     5  C   -3.393403
     6  C    1.236196
     7  H    1.874392
     8  H    1.937378
     9  C   -5.307403
    10  H    1.828195
    11  H    1.311990
    12  Cl   0.120545
    13  H    1.296228
    14  H    2.178251
    15  C    3.018782
    16  C   -5.435686
    17  H    1.309676
    18  H    0.948029
    19  H    1.312093
    20  C   -5.115489
    21  H    1.230699
    22  H    1.322371
    23  H    1.279080
    24  C   -5.089363
    25  H    1.226253
    26  H    1.268940
    27  H    1.341420
 Sum of Mulliken charges =   0.00000

 Dipole moment (field-independent basis, Debye):
    X=              2.4659    Y=              0.1113    Z=             -1.7416  Tot=              3.0210

 Test job not archived.
 1\1\GINC-SE128\SP\RHF\Aug-CC-pVDZ\C11H15Cl1\OHZDE\08-Apr-2025\0\\#t hf
  aug-cc-pvdz iop(5/13=1,5/36=2,99/5=2) pseudo=read geom=check guess=(r
 ead,tcheck) scf=(maxcycle=1)\\title\\0,1\C,0,-0.927677,1.233012,-0.408
 482\C,0,0.447453,1.231102,-0.184138\C,0,1.170257,0.036651,-0.09565\C,0
 ,0.450112,-1.159458,-0.244176\C,0,-0.919661,-1.161807,-0.468042\C,0,-1
 .631913,0.038618,-0.554466\H,0,-1.456946,2.178677,-0.467357\H,0,0.9515
 95,2.182479,-0.079373\C,0,-3.105667,0.040431,-0.801565\H,0,-1.444405,-
 2.105856,-0.573785\H,0,-3.440779,0.953226,-1.288504\Cl,0,-4.078264,-0.

 Normal termination of Gaussian 16 at Tue Apr  8 22:56:26 2025.
