 Gaussian 16, Revision C.01,

 ----------------------------------------------------------------------
 #t hf aug-cc-pvdz symm=none int=(grid=ultrafine) guess=(read,tcheck) s
 table=(opt,rrhf)
 ----------------------------------------------------------------------
 -----
 title
 -----
 Symbolic Z-matrix:
 Charge =  0 Multiplicity = 1

 SCF Done:  E(RHF) =  -1199.65496890     A.U. after   16 cycles
 Normal termination of Gaussian 16 at Tue Apr  8 23:27:43 2025.
 Gaussian 16:  ES64L-G16RevC.01  3-Jul-2019

 ----------------------------------------------------------------------
 #t hf aug-cc-pvdz iop(5/13=1,5/36=2,99/5=2) pseudo=read geom=check gue
 ss=(read,tcheck) scf=(maxcycle=1)
 ----------------------------------------------------------------------
 -----
 title
 -----
 Structure from the checkpoint file:  "BDE49_nonexpt_1239_mol1.chk"
 Charge =  0 Multiplicity = 1

                         Standard orientation:
 ---------------------------------------------------------------------
 Center     Atomic      Atomic             Coordinates (Angstroms)
 Number     Number       Type             X           Y           Z
 ---------------------------------------------------------------------
      1         17           0        3.932200    0.459108    0.129998
      2          7           0       -0.097830   -1.014645   -0.042431
      3         15           0        2.493424   -1.066091   -0.178602
      4          6           0        0.888527   -0.144763   -0.068946
      5          6           0        0.706881    1.258969   -0.086842
      6          1           0        1.562421    1.920487   -0.111551
      7          6           0       -0.577270    1.742679   -0.061702
      8          1           0       -0.765670    2.811548   -0.071400
      9          6           0       -3.025953    1.265778    0.014067
     10          1           0       -3.246823    2.328017    0.006389
     11          6           0       -4.040254    0.340580    0.055434
     12          1           0       -5.073345    0.667566    0.080507
     13          6           0       -3.746611   -1.044464    0.065546
     14          1           0       -4.559815   -1.760625    0.097766
     15          6           0       -2.446141   -1.484872    0.034148
     16          1           0       -2.196882   -2.538869    0.039874
     17          6           0       -1.378560   -0.553468   -0.008028
     18          6           0       -1.672250    0.845328   -0.018236
     19          1           0        2.465948   -1.493664    1.171856
 ---------------------------------------------------------------------

 SCF Done:  E(RHF) =  -1201.96146429     A.U. after    2 cycles

 The electronic state is 1-A.
 Alpha  occ. eigenvalues -- -105.23756 -99.88667 -15.75099 -11.53366 -11.49767
 Alpha  occ. eigenvalues --  -11.47519 -11.46508 -11.44555 -11.43184 -11.42530
 Alpha  occ. eigenvalues --  -11.41590 -11.38366 -10.45912  -9.65813  -9.65284
 Alpha  occ. eigenvalues --   -9.65040  -2.80836  -1.55949  -1.49462  -1.48517
 Alpha  occ. eigenvalues --   -1.46499  -1.29778  -1.22365  -1.21110  -1.09872
 Alpha  occ. eigenvalues --   -1.08766  -0.92200  -0.89754  -0.86872  -0.76908
 Alpha  occ. eigenvalues --   -0.72720  -0.71164  -0.64059  -0.62277  -0.60689
 Alpha  occ. eigenvalues --   -0.57834  -0.56533  -0.56405  -0.52655  -0.52048
 Alpha  occ. eigenvalues --   -0.48343  -0.47807  -0.47176  -0.41756  -0.40989
 Alpha  occ. eigenvalues --   -0.37591  -0.33749  -0.30655  -0.24351  -0.04874
 Alpha virt. eigenvalues --    0.03180   0.04635   0.04872   0.06028   0.06547
 Alpha virt. eigenvalues --    0.06849   0.07050   0.07390   0.08239   0.09534
 Alpha virt. eigenvalues --    0.09986   0.10311   0.10628   0.11158   0.11811

 Mulliken charges:
               1
     1  Cl  -1.339018
     2  N   -4.018845
     3  P    3.329119
     4  C   -1.364280
     5  C   -5.500060
     6  H    1.655792
     7  C   -0.098472
     8  H    1.817786
     9  C   -1.756299
    10  H    1.709391
    11  C   -2.141998
    12  H    1.481328
    13  C   -1.553181
    14  H    1.493115
    15  C   -2.714978
    16  H    1.820693
    17  C    2.222780
    18  C    5.447938
    19  H   -0.490813
 Sum of Mulliken charges =   0.00000

 Dipole moment (field-independent basis, Debye):
    X=             -2.5861    Y=             -1.4218    Z=             -2.8070  Tot=              4.0729

 Test job not archived.
 1\1\GINC-SE219\SP\RHF\Aug-CC-pVDZ\C9H7Cl1N1P1\OHZDE\08-Apr-2025\0\\#t
 hf aug-cc-pvdz iop(5/13=1,5/36=2,99/5=2) pseudo=read geom=check guess=
 (read,tcheck) scf=(maxcycle=1)\\title\\0,1\Cl,0,3.9322,0.459108,0.1299
 98\N,0,-0.09783,-1.014645,-0.042431\P,0,2.493424,-1.066091,-0.178602\C
 ,0,0.888527,-0.144763,-0.068946\C,0,0.706881,1.258969,-0.086842\H,0,1.
 562421,1.920487,-0.111551\C,0,-0.57727,1.742679,-0.061702\H,0,-0.76567
 ,2.811548,-0.0714\C,0,-3.025953,1.265778,0.014067\H,0,-3.246823,2.3280
 17,0.006389\C,0,-4.040254,0.34058,0.055434\H,0,-5.073345,0.667566,0.08

 Normal termination of Gaussian 16 at Tue Apr  8 23:27:57 2025.
