 Gaussian 16, Revision C.01,

 ----------------------------------------------------------------------
 #t hf aug-cc-pvdz symm=none int=(grid=ultrafine) guess=(read,tcheck) s
 table=(opt,rrhf)
 ----------------------------------------------------------------------
 -----
 title
 -----
 Symbolic Z-matrix:
 Charge =  0 Multiplicity = 1

 SCF Done:  E(RHF) =  -396.608658766     A.U. after   15 cycles
 Normal termination of Gaussian 16 at Tue Apr  8 22:44:52 2025.
 Gaussian 16:  ES64L-G16RevC.01  3-Jul-2019

 ----------------------------------------------------------------------
 #t hf aug-cc-pvdz iop(5/13=1,5/36=2,99/5=2) pseudo=read geom=check gue
 ss=(read,tcheck) scf=(maxcycle=1)
 ----------------------------------------------------------------------
 -----
 title
 -----
 Structure from the checkpoint file:  "BDE49_expt_1489_mol1.chk"
 Charge =  0 Multiplicity = 1

                         Standard orientation:
 ---------------------------------------------------------------------
 Center     Atomic      Atomic             Coordinates (Angstroms)
 Number     Number       Type             X           Y           Z
 ---------------------------------------------------------------------
      1          8           0        0.115700   -0.625566   -0.286518
      2          7           0        1.374969   -0.063217    0.040582
      3          8           0        1.395224    0.895010    0.777828
      4          8           0        2.286366   -0.646308   -0.474836
      5          6           0       -1.053897    0.062907    0.269817
      6          6           0       -1.389012    1.289724   -0.567031
      7          1           0       -0.575421    2.015453   -0.543927
      8          1           0       -2.284756    1.774888   -0.170274
      9          1           0       -1.582068    1.002804   -1.603640
     10          6           0       -2.140860   -1.002115    0.265541
     11          1           0       -0.806801    0.352517    1.292167
     12          1           0       -3.057251   -0.589308    0.694097
     13          1           0       -1.838512   -1.866920    0.858164
     14          1           0       -2.355676   -1.335103   -0.752419
 ---------------------------------------------------------------------

 SCF Done:  E(RHF) =  -398.362699053     A.U. after    2 cycles

 The electronic state is 1-A.
 Alpha  occ. eigenvalues --  -21.13006 -21.11966 -21.11669 -16.05348 -11.47710
 Alpha  occ. eigenvalues --  -11.41336 -11.38044  -2.07906  -1.75946  -1.73291
 Alpha  occ. eigenvalues --   -1.20943  -1.03534  -0.94746  -0.83420  -0.74440
 Alpha  occ. eigenvalues --   -0.72095  -0.66627  -0.63874  -0.59967  -0.58316
 Alpha  occ. eigenvalues --   -0.56160  -0.51144  -0.50041  -0.45636  -0.37288
 Alpha  occ. eigenvalues --   -0.36262  -0.33691  -0.32212
 Alpha virt. eigenvalues --    0.03433   0.05206   0.05366   0.05746   0.05853
 Alpha virt. eigenvalues --    0.06605   0.07206   0.11216   0.11994   0.13357
 Alpha virt. eigenvalues --    0.13934   0.14662   0.14939   0.15393   0.16075

 Mulliken charges:
               1
     1  O   -3.059533
     2  N    6.510715
     3  O   -2.676600
     4  O   -2.791751
     5  C   -0.432817
     6  C   -3.547409
     7  H    1.296996
     8  H    1.229359
     9  H    1.303841
    10  C   -3.628448
    11  H    2.026753
    12  H    1.190019
    13  H    1.332032
    14  H    1.246844
 Sum of Mulliken charges =   0.00000

 Dipole moment (field-independent basis, Debye):
    X=             -2.7347    Y=             -0.0421    Z=              0.1730  Tot=              2.7405

 Test job not archived.
 1\1\GINC-SE403\SP\RHF\Aug-CC-pVDZ\C3H7N1O3\OHZDE\08-Apr-2025\0\\#t hf
 aug-cc-pvdz iop(5/13=1,5/36=2,99/5=2) pseudo=read geom=check guess=(re
 ad,tcheck) scf=(maxcycle=1)\\title\\0,1\O,0,0.1157,-0.625566,-0.286518
 \N,0,1.374969,-0.063217,0.040582\O,0,1.395224,0.89501,0.777828\O,0,2.2
 86366,-0.646308,-0.474836\C,0,-1.053897,0.062907,0.269817\C,0,-1.38901
 2,1.289724,-0.567031\H,0,-0.575421,2.015453,-0.543927\H,0,-2.284756,1.
 774888,-0.170274\H,0,-1.582068,1.002804,-1.60364\C,0,-2.14086,-1.00211
 5,0.265541\H,0,-0.806801,0.352517,1.292167\H,0,-3.057251,-0.589308,0.6

 Normal termination of Gaussian 16 at Tue Apr  8 22:44:57 2025.
