 Gaussian 16, Revision C.01,

 ----------------------------------------------------------------------
 #t hf aug-cc-pvdz symm=none int=(grid=ultrafine) guess=(read,tcheck) s
 table=(opt,rrhf)
 ----------------------------------------------------------------------
 -----
 title
 -----
 Symbolic Z-matrix:
 Charge =  0 Multiplicity = 1

 SCF Done:  E(RHF) =  -546.373874697     A.U. after   14 cycles
 Normal termination of Gaussian 16 at Wed Apr  9 00:45:40 2025.
 Gaussian 16:  ES64L-G16RevC.01  3-Jul-2019

 ----------------------------------------------------------------------
 #t hf aug-cc-pvdz iop(5/13=1,5/36=2,99/5=2) pseudo=read geom=check gue
 ss=(read,tcheck) scf=(maxcycle=1)
 ----------------------------------------------------------------------
 -----
 title
 -----
 Structure from the checkpoint file:  "BDE49_nonexpt_776_mol1.chk"
 Charge =  0 Multiplicity = 1

                         Standard orientation:
 ---------------------------------------------------------------------
 Center     Atomic      Atomic             Coordinates (Angstroms)
 Number     Number       Type             X           Y           Z
 ---------------------------------------------------------------------
      1          6           0       -1.621694    0.202223   -0.044854
      2          5           0        1.643121    0.017348   -0.026540
      3          6           0        1.830514    1.569588   -0.002883
      4          1           0        0.901610    2.134320   -0.118616
      5          1           0        2.589175    1.939568   -0.700789
      6          1           0        2.195418    1.812752    1.009779
      7          8           0       -1.609906    1.416654   -0.000102
      8          6           0       -2.782014   -0.554286   -0.662120
      9          6           0        2.740534   -0.936498   -0.611290
     10          1           0        2.797769   -1.924210   -0.145351
     11          1           0        3.740573   -0.492955   -0.654634
     12          1           0        2.440944   -1.123889   -1.657154
     13          1           0       -3.230286   -1.219605    0.083572
     14          1           0       -2.420937   -1.193716   -1.474973
     15          1           0       -3.531011    0.144974   -1.038233
     16         14           0       -0.096782   -0.749011    0.718097
     17          1           0       -0.268185   -2.215453    0.525196
     18          1           0       -0.200526   -0.481764    2.178239
 ---------------------------------------------------------------------

 SCF Done:  E(RHF) =  -547.747877978     A.U. after    2 cycles

 The electronic state is 1-A.
 Alpha  occ. eigenvalues --  -76.20145 -21.05487 -11.46415 -11.38188 -11.34194
 Alpha  occ. eigenvalues --  -11.33039  -7.60405  -5.53906  -2.17781  -2.16800
 Alpha  occ. eigenvalues --   -2.16004  -1.69941  -1.13348  -1.10177  -1.00918
 Alpha  occ. eigenvalues --   -0.83501  -0.71874  -0.64671  -0.59600  -0.58907
 Alpha  occ. eigenvalues --   -0.57430  -0.55834  -0.55267  -0.53517  -0.52928
 Alpha  occ. eigenvalues --   -0.47144  -0.45855  -0.42225  -0.41400  -0.34085
 Alpha  occ. eigenvalues --   -0.25737
 Alpha virt. eigenvalues --    0.02960   0.03892   0.04318   0.04629   0.05940
 Alpha virt. eigenvalues --    0.06306   0.07107   0.07179   0.07654   0.07821
 Alpha virt. eigenvalues --    0.08545   0.08640   0.09077   0.09420   0.09712

 Mulliken charges:
               1
     1  C    1.625607
     2  B    3.281586
     3  C   -5.847298
     4  H    1.257958
     5  H    1.128541
     6  H    1.012852
     7  O   -2.678573
     8  C   -3.780121
     9  C   -5.738420
    10  H    1.186298
    11  H    1.374770
    12  H    0.929307
    13  H    1.325883
    14  H    1.334589
    15  H    1.263095
    16  Si   6.183552
    17  H   -1.776894
    18  H   -2.082734
 Sum of Mulliken charges =   0.00000

 Dipole moment (field-independent basis, Debye):
    X=              0.8528    Y=             -0.2285    Z=             -0.7911  Tot=              1.1854

 Test job not archived.
 1\1\GINC-SE419\SP\RHF\Aug-CC-pVDZ\C4H11B1O1Si1\OHZDE\09-Apr-2025\0\\#t
  hf aug-cc-pvdz iop(5/13=1,5/36=2,99/5=2) pseudo=read geom=check guess
 =(read,tcheck) scf=(maxcycle=1)\\title\\0,1\C,0,-1.621694,0.202223,-0.
 044854\B,0,1.643121,0.017348,-0.02654\C,0,1.830514,1.569588,-0.002883\
 H,0,0.90161,2.13432,-0.118616\H,0,2.589175,1.939568,-0.700789\H,0,2.19
 5418,1.812752,1.009779\O,0,-1.609906,1.416654,-0.000102\C,0,-2.782014,
 -0.554286,-0.66212\C,0,2.740534,-0.936498,-0.61129\H,0,2.797769,-1.924
 21,-0.145351\H,0,3.740573,-0.492955,-0.654634\H,0,2.440944,-1.123889,-

 Normal termination of Gaussian 16 at Wed Apr  9 00:45:46 2025.
