 Gaussian 16, Revision C.01,

 ----------------------------------------------------------------------
 #t hf aug-cc-pvdz symm=none int=(grid=ultrafine) guess=(read,tcheck) s
 table=(opt,rrhf)
 ----------------------------------------------------------------------
 -----
 title
 -----
 Symbolic Z-matrix:
 Charge =  0 Multiplicity = 1

 SCF Done:  E(RHF) =  -641.262875766     A.U. after   15 cycles
 Normal termination of Gaussian 16 at Tue Apr  8 23:12:56 2025.
 Gaussian 16:  ES64L-G16RevC.01  3-Jul-2019

 ----------------------------------------------------------------------
 #t hf aug-cc-pvdz iop(5/13=1,5/36=2,99/5=2) pseudo=read geom=check gue
 ss=(read,tcheck) scf=(maxcycle=1)
 ----------------------------------------------------------------------
 -----
 title
 -----
 Structure from the checkpoint file:  "BDE49_expt_741_mol1.chk"
 Charge =  0 Multiplicity = 1

                         Standard orientation:
 ---------------------------------------------------------------------
 Center     Atomic      Atomic             Coordinates (Angstroms)
 Number     Number       Type             X           Y           Z
 ---------------------------------------------------------------------
      1          6           0        0.369704    0.004495   -0.035002
      2          6           0       -0.326654   -1.207530   -0.024600
      3          6           0       -1.712266   -1.221763   -0.006478
      4          6           0       -0.337922    1.204665   -0.024853
      5          6           0       -1.727893    1.198083   -0.007121
      6          6           0       -2.419625   -0.015580    0.003997
      7          1           0        0.196289    2.146032   -0.039649
      8          1           0       -2.274515    2.136125   -0.004690
      9          8           0       -3.778094   -0.089377    0.020613
     10          1           0       -4.149801    0.799003    0.025678
     11          1           0        0.220583   -2.141834   -0.040439
     12          1           0       -2.265752   -2.152305   -0.003295
     13          6           0        1.868347    0.006088   -0.000341
     14          9           0        2.394022   -1.026419   -0.698695
     15          9           0        2.390769    1.143287   -0.512393
     16          9           0        2.350298   -0.103841    1.262630
 ---------------------------------------------------------------------

 SCF Done:  E(RHF) =  -643.832371152     A.U. after    2 cycles

 The electronic state is 1-A.
 Alpha  occ. eigenvalues --  -29.30275 -29.30125 -29.29668 -21.12367 -11.61298
 Alpha  occ. eigenvalues --  -11.54342 -11.47993 -11.46038 -11.44651 -11.42492
 Alpha  occ. eigenvalues --  -11.38962  -1.77906  -1.44710  -1.30480  -1.12430
 Alpha  occ. eigenvalues --   -1.09021  -0.92964  -0.89214  -0.86887  -0.84740
 Alpha  occ. eigenvalues --   -0.76986  -0.70901  -0.64547  -0.61694  -0.60654
 Alpha  occ. eigenvalues --   -0.56062  -0.54218  -0.49063  -0.46847  -0.46059
 Alpha  occ. eigenvalues --   -0.44279  -0.42850  -0.42512  -0.36346  -0.35720
 Alpha  occ. eigenvalues --   -0.34716  -0.29754  -0.28908  -0.24754  -0.23174
 Alpha  occ. eigenvalues --   -0.20587
 Alpha virt. eigenvalues --    0.03048   0.04752   0.05871   0.06624   0.06962
 Alpha virt. eigenvalues --    0.09255   0.09953   0.10502   0.11657   0.11883
 Alpha virt. eigenvalues --    0.12369   0.13000   0.13136   0.13870   0.14384

 Mulliken charges:
               1
     1  C    1.491672
     2  C   -1.648788
     3  C   -2.664205
     4  C   -1.316492
     5  C   -3.834830
     6  C    4.387043
     7  H    1.781346
     8  H    1.642069
     9  O   -4.501838
    10  H    1.024677
    11  H    1.813802
    12  H    1.745705
    13  C   -0.676802
    14  F    0.249691
    15  F    0.340382
    16  F    0.166568
 Sum of Mulliken charges =   0.00000

 Dipole moment (field-independent basis, Debye):
    X=              0.0706    Y=              0.5604    Z=              0.0860  Tot=              0.5714

 Test job not archived.
 1\1\GINC-SE435\SP\RHF\Aug-CC-pVDZ\C7H5F3O1\OHZDE\08-Apr-2025\0\\#t hf
 aug-cc-pvdz iop(5/13=1,5/36=2,99/5=2) pseudo=read geom=check guess=(re
 ad,tcheck) scf=(maxcycle=1)\\title\\0,1\C,0,0.369704,0.004495,-0.03500
 2\C,0,-0.326654,-1.20753,-0.0246\C,0,-1.712266,-1.221763,-0.006478\C,0
 ,-0.337922,1.204665,-0.024853\C,0,-1.727893,1.198083,-0.007121\C,0,-2.
 419625,-0.01558,0.003997\H,0,0.196289,2.146032,-0.039649\H,0,-2.274515
 ,2.136125,-0.00469\O,0,-3.778094,-0.089377,0.020613\H,0,-4.149801,0.79
 9003,0.025678\H,0,0.220583,-2.141834,-0.040439\H,0,-2.265752,-2.152305

 Normal termination of Gaussian 16 at Tue Apr  8 23:13:04 2025.
