 Gaussian 16, Revision C.01,

 ----------------------------------------------------------------------
 #t hf aug-cc-pvdz symm=none int=(grid=ultrafine) guess=(read,tcheck) s
 table=(opt,rrhf)
 ----------------------------------------------------------------------
 -----
 title
 -----
 Symbolic Z-matrix:
 Charge =  0 Multiplicity = 1

 SCF Done:  E(RHF) =  -1566.57853909     A.U. after   14 cycles
 Normal termination of Gaussian 16 at Tue Apr  8 23:10:49 2025.
 Gaussian 16:  ES64L-G16RevC.01  3-Jul-2019

 ----------------------------------------------------------------------
 #t hf aug-cc-pvdz iop(5/13=1,5/36=2,99/5=2) pseudo=read geom=check gue
 ss=(read,tcheck) scf=(maxcycle=1)
 ----------------------------------------------------------------------
 -----
 title
 -----
 Structure from the checkpoint file:  "BDE49_expt_619_mol1.chk"
 Charge =  0 Multiplicity = 1

                         Standard orientation:
 ---------------------------------------------------------------------
 Center     Atomic      Atomic             Coordinates (Angstroms)
 Number     Number       Type             X           Y           Z
 ---------------------------------------------------------------------
      1          6           0       -0.110705    0.009287    0.089546
      2          8           0        0.543338   -0.007389    1.301454
      3          8           0        1.967305    0.136924    1.094635
      4          1           0        2.246772   -0.791910    1.139082
      5         17           0       -1.822624   -0.134198    0.546527
      6         17           0        0.172657    1.520128   -0.830464
      7         17           0        0.375398   -1.403582   -0.942243
 ---------------------------------------------------------------------

 SCF Done:  E(RHF) =  -1568.09039519     A.U. after    2 cycles

 The electronic state is 1-A.
 Alpha  occ. eigenvalues --  -99.92833 -99.92472 -99.92118 -21.16626 -21.16122
 Alpha  occ. eigenvalues --  -11.59405 -10.50287 -10.49795 -10.49472  -9.70143
 Alpha  occ. eigenvalues --   -9.69655  -9.69319  -9.69232  -9.69195  -9.68883
 Alpha  occ. eigenvalues --   -9.68830  -9.68511  -9.68474  -2.01234  -1.54480
 Alpha  occ. eigenvalues --   -1.38783  -1.32005  -1.31522  -0.94842  -0.75411
 Alpha  occ. eigenvalues --   -0.74562  -0.70456  -0.64360  -0.58695  -0.56262
 Alpha  occ. eigenvalues --   -0.52879  -0.52210  -0.51527  -0.50901  -0.48395
 Alpha  occ. eigenvalues --   -0.38930  -0.38522
 Alpha virt. eigenvalues --   -0.00243   0.04208   0.05871   0.06708   0.07426
 Alpha virt. eigenvalues --    0.09802   0.09886   0.12846   0.13388   0.13678
 Alpha virt. eigenvalues --    0.14801   0.16931   0.17359   0.17828   0.18272

 Mulliken charges:
               1
     1  C   -0.460897
     2  O   -1.296997
     3  O   -0.637110
     4  H    0.877707
     5  Cl   0.488520
     6  Cl   0.539303
     7  Cl   0.489474
 Sum of Mulliken charges =  -0.00000

 Dipole moment (field-independent basis, Debye):
    X=              1.8662    Y=             -0.4514    Z=              1.6098  Tot=              2.5056

 Test job not archived.
 1\1\GINC-SE177\SP\RHF\Aug-CC-pVDZ\C1H1Cl3O2\OHZDE\08-Apr-2025\0\\#t hf
  aug-cc-pvdz iop(5/13=1,5/36=2,99/5=2) pseudo=read geom=check guess=(r
 ead,tcheck) scf=(maxcycle=1)\\title\\0,1\C,0,-0.110705,0.009287,0.0895
 46\O,0,0.543338,-0.007389,1.301454\O,0,1.967305,0.136925,1.094635\H,0,
 2.246773,-0.791909,1.139082\Cl,0,-1.822624,-0.134199,0.546527\Cl,0,0.1
 72656,1.520128,-0.830464\Cl,0,0.375399,-1.403582,-0.942243\\Version=ES
 64L-G16RevC.01\State=1-A\HF=-1568.0903952\RMSD=4.650e-02\Dipole=0.7342
 323,-0.1776057,0.633351\Quadrupole=2.5046125,-0.8912898,-1.6133227,-1.

 Normal termination of Gaussian 16 at Tue Apr  8 23:10:52 2025.
