 Gaussian 16, Revision C.01,

 ----------------------------------------------------------------------
 #t hf aug-cc-pvdz symm=none int=(grid=ultrafine) guess=(read,tcheck) s
 table=(opt,rrhf)
 ----------------------------------------------------------------------
 -----
 title
 -----
 Symbolic Z-matrix:
 Charge =  0 Multiplicity = 1

 SCF Done:  E(RHF) =  -623.011646753     A.U. after   16 cycles
 Normal termination of Gaussian 16 at Tue Apr  8 23:29:06 2025.
 Gaussian 16:  ES64L-G16RevC.01  3-Jul-2019

 ----------------------------------------------------------------------
 #t hf aug-cc-pvdz iop(5/13=1,5/36=2,99/5=2) pseudo=read geom=check gue
 ss=(read,tcheck) scf=(maxcycle=1)
 ----------------------------------------------------------------------
 -----
 title
 -----
 Structure from the checkpoint file:  "BDE49_nonexpt_1335_mol1.chk"
 Charge =  0 Multiplicity = 1

                         Standard orientation:
 ---------------------------------------------------------------------
 Center     Atomic      Atomic             Coordinates (Angstroms)
 Number     Number       Type             X           Y           Z
 ---------------------------------------------------------------------
      1          6           0        1.753092   -0.189771    0.267197
      2         15           0        0.242411   -1.089955   -0.326179
      3          6           0       -1.163333    0.136993    0.023801
      4          7           0       -0.863788    1.434051   -0.216159
      5          8           0        1.966405    0.989178    0.086572
      6          1           0        2.521504   -0.835525    0.743267
      7          8           0       -2.246618   -0.302473    0.338559
      8          1           0        0.105420    1.725113   -0.281790
      9          1           0       -1.582457    2.120937   -0.035226
     10          1           0        0.069027   -1.876528    0.832520
 ---------------------------------------------------------------------

 SCF Done:  E(RHF) =  -624.387600965     A.U. after    2 cycles

 The electronic state is 1-A.
 Alpha  occ. eigenvalues -- -105.20836 -21.09920 -21.04689 -15.78664 -11.50271
 Alpha  occ. eigenvalues --  -11.50118  -2.79178  -1.74678  -1.72335  -1.51249
 Alpha  occ. eigenvalues --   -1.49884  -1.46882  -1.34918  -0.91958  -0.81978
 Alpha  occ. eigenvalues --   -0.76227  -0.68612  -0.58983  -0.55520  -0.54130
 Alpha  occ. eigenvalues --   -0.48683  -0.46775  -0.38537  -0.34022  -0.23990
 Alpha  occ. eigenvalues --   -0.17678  -0.04710
 Alpha virt. eigenvalues --    0.03608   0.05234   0.06865   0.07149   0.08173
 Alpha virt. eigenvalues --    0.09437   0.10085   0.11342   0.12099   0.13015
 Alpha virt. eigenvalues --    0.14105   0.14203   0.14976   0.15246   0.17069

 Mulliken charges:
               1
     1  C   -0.772766
     2  P    3.924819
     3  C    2.451820
     4  N   -2.786905
     5  O   -2.600028
     6  H    1.467593
     7  O   -2.801524
     8  H    0.831849
     9  H    0.708519
    10  H   -0.423377
 Sum of Mulliken charges =   0.00000

 Dipole moment (field-independent basis, Debye):
    X=             -0.2697    Y=             -0.3589    Z=             -2.9168  Tot=              2.9512

 Test job not archived.
 1\1\GINC-SE070\SP\RHF\Aug-CC-pVDZ\C2H4N1O2P1\OHZDE\08-Apr-2025\0\\#t h
 f aug-cc-pvdz iop(5/13=1,5/36=2,99/5=2) pseudo=read geom=check guess=(
 read,tcheck) scf=(maxcycle=1)\\title\\0,1\C,0,1.753092,-0.189771,0.267
 197\P,0,0.242411,-1.089955,-0.326179\C,0,-1.163333,0.136992,0.023801\N
 ,0,-0.863788,1.434051,-0.216159\O,0,1.966405,0.989178,0.086572\H,0,2.5
 21504,-0.835525,0.743267\O,0,-2.246618,-0.302474,0.338559\H,0,0.105419
 ,1.725113,-0.28179\H,0,-1.582458,2.120936,-0.035226\H,0,0.069027,-1.87
 6528,0.83252\\Version=ES64L-G16RevC.01\State=1-A\HF=-624.387601\RMSD=2

 Normal termination of Gaussian 16 at Tue Apr  8 23:29:09 2025.
