 Gaussian 16, Revision C.01,

 ----------------------------------------------------------------------
 #t hf aug-cc-pvdz symm=none int=(grid=ultrafine) guess=(read,tcheck) s
 table=(opt,rrhf)
 ----------------------------------------------------------------------
 -----
 title
 -----
 Symbolic Z-matrix:
 Charge =  0 Multiplicity = 1

 SCF Done:  E(RHF) =  -896.863792543     A.U. after   16 cycles
 Normal termination of Gaussian 16 at Tue Apr  8 22:46:25 2025.
 Gaussian 16:  ES64L-G16RevC.01  3-Jul-2019

 ----------------------------------------------------------------------
 #t hf aug-cc-pvdz iop(5/13=1,5/36=2,99/5=2) pseudo=read geom=check gue
 ss=(read,tcheck) scf=(maxcycle=1)
 ----------------------------------------------------------------------
 -----
 title
 -----
 Structure from the checkpoint file:  "BDE49_expt_1226_mol1.chk"
 Charge =  0 Multiplicity = 1

                         Standard orientation:
 ---------------------------------------------------------------------
 Center     Atomic      Atomic             Coordinates (Angstroms)
 Number     Number       Type             X           Y           Z
 ---------------------------------------------------------------------
      1          6           0       -1.658016    0.579407    0.482207
      2          6           0       -0.727998    1.718147    0.796099
      3         16           0        0.596537    2.025801   -0.470510
      4          1           0       -0.241832    1.580190    1.762461
      5          1           0       -1.264316    2.669624    0.822553
      6          6           0        1.616044    0.563130   -0.291256
      7          6           0        1.405189   -0.549179   -1.112012
      8          6           0        2.659305    0.544609    0.641210
      9          6           0        3.474412   -0.578593    0.757418
     10          6           0        3.258610   -1.686898   -0.060286
     11          6           0        2.225361   -1.669547   -0.994631
     12          1           0        2.055780   -2.528284   -1.634471
     13          1           0        0.600543   -0.529639   -1.836191
     14          1           0        4.282471   -0.584700    1.480478
     15          1           0        3.897246   -2.558688    0.027403
     16          1           0        2.832032    1.414894    1.263343
     17          6           0       -2.679575    0.727571   -0.464029
     18          6           0       -1.518114   -0.652372    1.128130
     19          6           0       -2.378336   -1.710752    0.839703
     20          6           0       -3.391837   -1.550599   -0.100766
     21          6           0       -3.540176   -0.325910   -0.752554
     22          1           0       -2.795954    1.675753   -0.978864
     23          1           0       -4.329557   -0.192321   -1.483981
     24          1           0       -2.255673   -2.658780    1.351563
     25          1           0       -4.063727   -2.371592   -0.324392
     26          1           0       -0.730818   -0.783355    1.862845
 ---------------------------------------------------------------------

 SCF Done:  E(RHF) =  -899.511138921     A.U. after    2 cycles

 The electronic state is 1-A.
 Alpha  occ. eigenvalues --  -75.67931 -13.18653 -13.11498 -13.07395 -11.52094
 Alpha  occ. eigenvalues --  -11.51644 -11.44371 -11.44154 -11.43542 -11.42928
 Alpha  occ. eigenvalues --  -11.41837 -11.41499 -11.40855 -11.40689 -11.40436
 Alpha  occ. eigenvalues --  -11.36700 -11.36036  -8.01906  -1.36751  -1.34104
 Alpha  occ. eigenvalues --   -1.20020  -1.11900  -1.09396  -1.08915  -1.04523
 Alpha  occ. eigenvalues --   -0.94645  -0.86712  -0.86229  -0.84146  -0.81770
 Alpha  occ. eigenvalues --   -0.70947  -0.70509  -0.64977  -0.64163  -0.62422
 Alpha  occ. eigenvalues --   -0.58569  -0.57787  -0.57670  -0.56520  -0.54512
 Alpha  occ. eigenvalues --   -0.53519  -0.51426  -0.50485  -0.45861  -0.45158
 Alpha  occ. eigenvalues --   -0.44040  -0.42967  -0.37643  -0.33666  -0.33426
 Alpha  occ. eigenvalues --   -0.32330  -0.29735  -0.22508
 Alpha virt. eigenvalues --    0.03298   0.04387   0.04543   0.04991   0.05515
 Alpha virt. eigenvalues --    0.05781   0.06009   0.06402   0.06733   0.07227
 Alpha virt. eigenvalues --    0.07844   0.08267   0.09755   0.10077   0.10691

 Mulliken charges:
               1
     1  C    6.355260
     2  C   -5.324714
     3  S    0.346221
     4  H    1.400791
     5  H    1.156312
     6  C    3.706696
     7  C   -3.714365
     8  C   -4.050161
     9  C   -1.226882
    10  C   -2.317318
    11  C   -1.177707
    12  H    1.574996
    13  H    1.991461
    14  H    1.575239
    15  H    1.557614
    16  H    1.868702
    17  C   -3.682103
    18  C   -2.499039
    19  C   -1.485476
    20  C   -3.043484
    21  C   -1.530285
    22  H    1.841743
    23  H    1.556961
    24  H    1.540301
    25  H    1.558011
    26  H    2.021226
 Sum of Mulliken charges =  -0.00000

 Dipole moment (field-independent basis, Debye):
    X=              0.3614    Y=             -0.2357    Z=             -0.1916  Tot=              0.4721

 Test job not archived.
 1\1\GINC-SE336\SP\RHF\Aug-CC-pVDZ\C13H12S1\OHZDE\08-Apr-2025\0\\#t hf
 aug-cc-pvdz iop(5/13=1,5/36=2,99/5=2) pseudo=read geom=check guess=(re
 ad,tcheck) scf=(maxcycle=1)\\title\\0,1\C,0,-1.658016,0.579407,0.48220
 7\C,0,-0.727998,1.718147,0.796099\S,0,0.596537,2.025801,-0.47051\H,0,-
 0.241832,1.58019,1.762461\H,0,-1.264316,2.669624,0.822553\C,0,1.616044
 ,0.56313,-0.291256\C,0,1.405189,-0.549179,-1.112012\C,0,2.659305,0.544
 609,0.64121\C,0,3.474412,-0.578593,0.757418\C,0,3.25861,-1.686898,-0.0
 60286\C,0,2.225361,-1.669547,-0.994631\H,0,2.05578,-2.528284,-1.634471

 Normal termination of Gaussian 16 at Tue Apr  8 22:46:52 2025.
