 Gaussian 16, Revision C.01,

 ----------------------------------------------------------------------
 #t hf aug-cc-pvdz symm=none int=(grid=ultrafine) guess=(read,tcheck) s
 table=(opt,rrhf)
 ----------------------------------------------------------------------
 -----
 title
 -----
 Symbolic Z-matrix:
 Charge =  0 Multiplicity = 1

 SCF Done:  E(RHF) =  -434.212595700     A.U. after   13 cycles
 Normal termination of Gaussian 16 at Tue Apr  8 23:27:47 2025.
 Gaussian 16:  ES64L-G16RevC.01  3-Jul-2019

 ----------------------------------------------------------------------
 #t hf aug-cc-pvdz iop(5/13=1,5/36=2,99/5=2) pseudo=read geom=check gue
 ss=(read,tcheck) scf=(maxcycle=1)
 ----------------------------------------------------------------------
 -----
 title
 -----
 Structure from the checkpoint file:  "BDE49_nonexpt_1291_mol1.chk"
 Charge =  0 Multiplicity = 1

                         Standard orientation:
 ---------------------------------------------------------------------
 Center     Atomic      Atomic             Coordinates (Angstroms)
 Number     Number       Type             X           Y           Z
 ---------------------------------------------------------------------
      1         15           0       -1.030769    0.000116   -0.121684
      2          6           0        0.756835   -0.000889    0.027373
      3          7           0        1.912293    0.000386    0.001905
      4          1           0       -1.231905    1.036268    0.823659
      5          1           0       -1.233619   -1.035371    0.824032
 ---------------------------------------------------------------------

 SCF Done:  E(RHF) =  -434.801821873     A.U. after    2 cycles

 The electronic state is 1-A.
 Alpha  occ. eigenvalues -- -105.24292 -15.77537 -11.42449  -2.81346  -1.53656
 Alpha  occ. eigenvalues --   -1.49754  -1.48628  -1.29695  -0.83694  -0.57236
 Alpha  occ. eigenvalues --   -0.47013  -0.46942  -0.35409  -0.28736  -0.06962
 Alpha virt. eigenvalues --    0.03747   0.06433   0.07431   0.08878   0.11062
 Alpha virt. eigenvalues --    0.11598   0.12969   0.13871   0.16296   0.16787
 Alpha virt. eigenvalues --    0.17097   0.20123   0.21161   0.22484   0.26737

 Mulliken charges:
               1
     1  P    2.412574
     2  C    0.135295
     3  N   -1.792449
     4  H   -0.378202
     5  H   -0.377217
 Sum of Mulliken charges =  -0.00000

 Dipole moment (field-independent basis, Debye):
    X=             -3.7315    Y=              0.0006    Z=             -3.8816  Tot=              5.3843

 Test job not archived.
 1\1\GINC-SE102\SP\RHF\Aug-CC-pVDZ\C1H2N1P1\OHZDE\08-Apr-2025\0\\#t hf
 aug-cc-pvdz iop(5/13=1,5/36=2,99/5=2) pseudo=read geom=check guess=(re
 ad,tcheck) scf=(maxcycle=1)\\title\\0,1\P,0,1.030769,-0.000116,-0.1216
 84\C,0,-0.756835,0.000889,0.027373\N,0,-1.912293,-0.000386,0.001905\H,
 0,1.231905,-1.036268,0.823659\H,0,1.233619,1.035371,0.824032\\Version=
 ES64L-G16RevC.01\State=1-A\HF=-434.8018219\RMSD=5.092e-01\Dipole=1.468
 0705,-0.0002281,-1.5271561\Quadrupole=0.1250645,2.1710194,-2.2960839,-
 0.0021327,-0.9593093,-0.0008381\PG=C01 [X(C1H2N1P1)]\\@

 Normal termination of Gaussian 16 at Tue Apr  8 23:27:49 2025.
