 Gaussian 16, Revision C.01,

 ----------------------------------------------------------------------
 #t hf aug-cc-pvdz symm=none int=(grid=ultrafine) guess=(read,tcheck) s
 table=(opt,rrhf)
 ----------------------------------------------------------------------
 -----
 title
 -----
 Symbolic Z-matrix:
 Charge =  0 Multiplicity = 1

 SCF Done:  E(RHF) =  -970.772473847     A.U. after   16 cycles
 Normal termination of Gaussian 16 at Wed Apr  9 00:55:47 2025.
 Gaussian 16:  ES64L-G16RevC.01  3-Jul-2019

 ----------------------------------------------------------------------
 #t hf aug-cc-pvdz iop(5/13=1,5/36=2,99/5=2) pseudo=read geom=check gue
 ss=(read,tcheck) scf=(maxcycle=1)
 ----------------------------------------------------------------------
 -----
 title
 -----
 Structure from the checkpoint file:  "BDE49_nonexpt_957_mol1.chk"
 Charge =  0 Multiplicity = 1

                         Standard orientation:
 ---------------------------------------------------------------------
 Center     Atomic      Atomic             Coordinates (Angstroms)
 Number     Number       Type             X           Y           Z
 ---------------------------------------------------------------------
      1          9           0        1.563216   -1.613705    0.921709
      2         16           0        1.089976    0.262017   -0.719571
      3          8           0        1.439497    1.658214   -0.803158
      4          8           0        1.402960   -0.689221   -1.746289
      5          7           0        1.974518   -0.265959    0.682622
      6          6           0       -0.637406    0.113416   -0.310088
      7          6           0       -1.254286   -1.135111   -0.406734
      8          1           0       -0.685876   -1.993242   -0.738340
      9          6           0       -2.602859   -1.243462   -0.083309
     10          1           0       -3.095843   -2.205700   -0.154963
     11          6           0       -3.319737   -0.117524    0.321944
     12          1           0       -4.371828   -0.208214    0.566678
     13          6           0       -2.693575    1.124901    0.405545
     14          1           0       -3.256488    1.999823    0.708572
     15          6           0       -1.342660    1.248088    0.091051
     16          1           0       -0.841187    2.206329    0.130337
     17          6           0        1.711025    0.461492    1.922594
     18          1           0        1.985443    1.500519    1.744617
     19          1           0        2.365323    0.042963    2.687255
     20          1           0        0.667587    0.387558    2.244807
 ---------------------------------------------------------------------

 SCF Done:  E(RHF) =  -973.549121165     A.U. after    2 cycles

 The electronic state is 1-A.
 Alpha  occ. eigenvalues --  -75.91353 -29.28674 -21.06459 -21.06055 -15.82952
 Alpha  occ. eigenvalues --  -13.55103 -13.44386 -13.39559 -11.55305 -11.47037
 Alpha  occ. eigenvalues --  -11.46906 -11.44792 -11.43748 -11.42390 -11.39949
 Alpha  occ. eigenvalues --   -8.26685  -1.85690  -1.67290  -1.47106  -1.37537
 Alpha  occ. eigenvalues --   -1.15579  -1.12583  -1.05445  -0.96968  -0.90042
 Alpha  occ. eigenvalues --   -0.86440  -0.77386  -0.73013  -0.68573  -0.66981
 Alpha  occ. eigenvalues --   -0.65049  -0.61695  -0.61295  -0.60637  -0.56417
 Alpha  occ. eigenvalues --   -0.53840  -0.51199  -0.48803  -0.48033  -0.45909
 Alpha  occ. eigenvalues --   -0.43600  -0.41199  -0.38957  -0.37941  -0.37174
 Alpha  occ. eigenvalues --   -0.36347  -0.35650  -0.26681  -0.23677
 Alpha virt. eigenvalues --    0.02634   0.04436   0.04633   0.04763   0.06011
 Alpha virt. eigenvalues --    0.06678   0.07252   0.07304   0.07989   0.09893
 Alpha virt. eigenvalues --    0.10359   0.10822   0.11924   0.12147   0.12796

 Mulliken charges:
               1
     1  F   -0.308722
     2  S    6.845373
     3  O   -2.923263
     4  O   -2.808043
     5  N   -1.441052
     6  C    1.887232
     7  C   -3.010866
     8  H    1.833229
     9  C   -0.387014
    10  H    1.508515
    11  C   -2.650860
    12  H    1.572254
    13  C   -0.455866
    14  H    1.519773
    15  C   -3.854270
    16  H    2.003123
    17  C   -3.765938
    18  H    1.417854
    19  H    1.260079
    20  H    1.758461
 Sum of Mulliken charges =  -0.00000

 Dipole moment (field-independent basis, Debye):
    X=             -3.3145    Y=             -1.9279    Z=              2.5888  Tot=              4.6265

 Test job not archived.
 1\1\GINC-SE177\SP\RHF\Aug-CC-pVDZ\C7H8F1N1O2S1\OHZDE\09-Apr-2025\0\\#t
  hf aug-cc-pvdz iop(5/13=1,5/36=2,99/5=2) pseudo=read geom=check guess
 =(read,tcheck) scf=(maxcycle=1)\\title\\0,1\F,0,1.563216,-1.613705,0.9
 21709\S,0,1.089976,0.262017,-0.719571\O,0,1.439497,1.658214,-0.803158\
 O,0,1.40296,-0.689221,-1.746289\N,0,1.974518,-0.265959,0.682622\C,0,-0
 .637406,0.113416,-0.310088\C,0,-1.254286,-1.135111,-0.406734\H,0,-0.68
 5876,-1.993242,-0.73834\C,0,-2.602859,-1.243462,-0.083309\H,0,-3.09584
 3,-2.2057,-0.154963\C,0,-3.319737,-0.117524,0.321944\H,0,-4.371828,-0.

 Normal termination of Gaussian 16 at Wed Apr  9 00:56:02 2025.
