 Gaussian 16, Revision C.01,

 ----------------------------------------------------------------------
 #t hf aug-cc-pvdz symm=none int=(grid=ultrafine) guess=(read,tcheck) s
 table=(opt,rrhf)
 ----------------------------------------------------------------------
 -----
 title
 -----
 Symbolic Z-matrix:
 Charge =  0 Multiplicity = 1

 SCF Done:  E(RHF) =  -667.292198961     A.U. after   15 cycles
 Normal termination of Gaussian 16 at Tue Apr  8 22:48:17 2025.
 Gaussian 16:  ES64L-G16RevC.01  3-Jul-2019

 ----------------------------------------------------------------------
 #t hf aug-cc-pvdz iop(5/13=1,5/36=2,99/5=2) pseudo=read geom=check gue
 ss=(read,tcheck) scf=(maxcycle=1)
 ----------------------------------------------------------------------
 -----
 title
 -----
 Structure from the checkpoint file:  "BDE49_expt_1578_mol1.chk"
 Charge =  0 Multiplicity = 1

                         Standard orientation:
 ---------------------------------------------------------------------
 Center     Atomic      Atomic             Coordinates (Angstroms)
 Number     Number       Type             X           Y           Z
 ---------------------------------------------------------------------
      1          6           0        2.721496    0.858812    0.000007
      2         16           0        1.821948   -0.718051   -0.000009
      3          1           0        2.506462    1.442835   -0.895933
      4          1           0        2.506447    1.442823    0.895952
      5          6           0        0.111366   -0.228577   -0.000002
      6          6           0       -0.333971    1.096512   -0.000003
      7          6           0       -1.700943    1.374373    0.000001
      8          6           0       -0.833449   -1.265789    0.000003
      9          6           0       -2.191911   -0.978254    0.000006
     10          6           0       -2.635916    0.344865    0.000005
     11          1           0       -3.696525    0.566865    0.000008
     12          1           0       -2.029890    2.407815   -0.000000
     13          1           0        0.370368    1.917646   -0.000007
     14          1           0       -0.498402   -2.297404    0.000005
     15          1           0       -2.907965   -1.792571    0.000010
     16          1           0        3.778308    0.589160    0.000014
 ---------------------------------------------------------------------

 SCF Done:  E(RHF) =  -668.837614413     A.U. after    2 cycles

 The electronic state is 1-A.
 Alpha  occ. eigenvalues --  -75.68679 -13.15501 -13.11445 -13.01550 -11.51148
 Alpha  occ. eigenvalues --  -11.44047 -11.43183 -11.41003 -11.40769 -11.40264
 Alpha  occ. eigenvalues --  -11.36510  -8.02831  -1.35952  -1.20143  -1.09481
 Alpha  occ. eigenvalues --   -1.07622  -0.95145  -0.86608  -0.82800  -0.71070
 Alpha  occ. eigenvalues --   -0.64029  -0.60804  -0.59428  -0.58002  -0.57727
 Alpha  occ. eigenvalues --   -0.52351  -0.51148  -0.45861  -0.42273  -0.36645
 Alpha  occ. eigenvalues --   -0.36602  -0.33280  -0.21082
 Alpha virt. eigenvalues --    0.03032   0.03812   0.05056   0.05624   0.05937
 Alpha virt. eigenvalues --    0.06237   0.07176   0.09003   0.10000   0.10672
 Alpha virt. eigenvalues --    0.10894   0.11858   0.12891   0.13545   0.13916

 Mulliken charges:
               1
     1  C   -5.376561
     2  S    1.142863
     3  H    1.553078
     4  H    1.553077
     5  C    2.216667
     6  C   -1.080557
     7  C   -1.599401
     8  C   -3.789740
     9  C   -1.190060
    10  C   -2.809091
    11  H    1.534807
    12  H    1.488340
    13  H    1.927118
    14  H    1.749756
    15  H    1.516876
    16  H    1.162828
 Sum of Mulliken charges =  -0.00000

 Dipole moment (field-independent basis, Debye):
    X=              0.8618    Y=             -0.3502    Z=             -0.0000  Tot=              0.9303

 Test job not archived.
 1\1\GINC-SE105\SP\RHF\Aug-CC-pVDZ\C7H8S1\OHZDE\08-Apr-2025\0\\#t hf au
 g-cc-pvdz iop(5/13=1,5/36=2,99/5=2) pseudo=read geom=check guess=(read
 ,tcheck) scf=(maxcycle=1)\\title\\0,1\C,0,2.721496,0.858812,0.000007\S
 ,0,1.821948,-0.718051,-0.000009\H,0,2.506462,1.442835,-0.895933\H,0,2.
 506447,1.442823,0.895952\C,0,0.111366,-0.228577,-0.000002\C,0,-0.33397
 1,1.096512,-0.000003\C,0,-1.700943,1.374373,0.000001\C,0,-0.833449,-1.
 265789,0.000003\C,0,-2.191911,-0.978254,0.000006\C,0,-2.635916,0.34486
 5,0.000005\H,0,-3.696525,0.566865,0.000008\H,0,-2.02989,2.407815,0.\H,

 Normal termination of Gaussian 16 at Tue Apr  8 22:48:24 2025.
