 Gaussian 16, Revision C.01,

 ----------------------------------------------------------------------
 #t hf aug-cc-pvdz symm=none int=(grid=ultrafine) guess=(read,tcheck) s
 table=(opt,rrhf)
 ----------------------------------------------------------------------
 -----
 title
 -----
 Symbolic Z-matrix:
 Charge =  0 Multiplicity = 1

 SCF Done:  E(RHF) =  -323.222612882     A.U. after   10 cycles
 Normal termination of Gaussian 16 at Wed Apr  9 00:33:44 2025.
 Gaussian 16:  ES64L-G16RevC.01  3-Jul-2019

 ----------------------------------------------------------------------
 #t hf aug-cc-pvdz iop(5/13=1,5/36=2,99/5=2) pseudo=read geom=check gue
 ss=(read,tcheck) scf=(maxcycle=1)
 ----------------------------------------------------------------------
 -----
 title
 -----
 Structure from the checkpoint file:  "BDE49_nonexpt_421_mol1.chk"
 Charge =  0 Multiplicity = 1

                         Standard orientation:
 ---------------------------------------------------------------------
 Center     Atomic      Atomic             Coordinates (Angstroms)
 Number     Number       Type             X           Y           Z
 ---------------------------------------------------------------------
      1          9           0       -0.152371   -1.307183    0.000000
      2          5           0       -0.000000    0.000002    0.000000
      3          9           0       -1.055874    0.785550    0.000000
      4          9           0        1.208245    0.521632   -0.000000
 ---------------------------------------------------------------------

 SCF Done:  E(RHF) =  -324.345418579     A.U. after    2 cycles

 The electronic state is 1-A'.
 Alpha  occ. eigenvalues --  -29.28345 -29.28345 -29.28199  -7.76462  -1.25830
 Alpha  occ. eigenvalues --   -0.81672  -0.81672  -0.60867  -0.59448  -0.51916
 Alpha  occ. eigenvalues --   -0.44666  -0.44666  -0.37011  -0.37011  -0.25808
 Alpha  occ. eigenvalues --   -0.25807
 Alpha virt. eigenvalues --   -0.04676   0.03114   0.05656   0.05656   0.11320
 Alpha virt. eigenvalues --    0.19859   0.20480   0.20480   0.21490   0.21622
 Alpha virt. eigenvalues --    0.22499   0.22499   0.27076   0.29169   0.29169

 Mulliken charges:
               1
     1  F    0.129373
     2  B   -0.388129
     3  F    0.129377
     4  F    0.129378
 Sum of Mulliken charges =  -0.00000

 Dipole moment (field-independent basis, Debye):
    X=              0.0000    Y=             -0.0001    Z=             -0.0000  Tot=              0.0001

 Test job not archived.
 1\1\GINC-SE367\SP\RHF\Aug-CC-pVDZ\B1F3\OHZDE\09-Apr-2025\0\\#t hf aug-
 cc-pvdz iop(5/13=1,5/36=2,99/5=2) pseudo=read geom=check guess=(read,t
 check) scf=(maxcycle=1)\\title\\0,1\F,0,0.152371,1.307183,0.\B,0,0.,-0
 .000002,0.\F,0,1.055874,-0.78555,0.\F,0,-1.208245,-0.521632,0.\\Versio
 n=ES64L-G16RevC.01\State=1-A'\HF=-324.3454186\RMSD=4.161e-01\Dipole=-0
 .0000015,0.0000248,0.\Quadrupole=1.3843495,1.3843234,-2.7686729,-0.000
 0036,0.,0.\PG=CS [SG(B1F3)]\\@

 Normal termination of Gaussian 16 at Wed Apr  9 00:33:45 2025.
