 Gaussian 16, Revision C.01,

 ----------------------------------------------------------------------
 #t hf aug-cc-pvdz symm=none int=(grid=ultrafine) guess=(read,tcheck) s
 table=(opt,rrhf)
 ----------------------------------------------------------------------
 -----
 title
 -----
 Symbolic Z-matrix:
 Charge =  0 Multiplicity = 1

 SCF Done:  E(RHF) =  -1585.34007347     A.U. after   12 cycles
 Normal termination of Gaussian 16 at Tue Apr  8 23:53:35 2025.
 Gaussian 16:  ES64L-G16RevC.01  3-Jul-2019

 ----------------------------------------------------------------------
 #t hf aug-cc-pvdz iop(5/13=1,5/36=2,99/5=2) pseudo=read geom=check gue
 ss=(read,tcheck) scf=(maxcycle=1)
 ----------------------------------------------------------------------
 -----
 title
 -----
 Structure from the checkpoint file:  "BDE49_nonexpt_191_mol1.chk"
 Charge =  0 Multiplicity = 1

                         Standard orientation:
 ---------------------------------------------------------------------
 Center     Atomic      Atomic             Coordinates (Angstroms)
 Number     Number       Type             X           Y           Z
 ---------------------------------------------------------------------
      1         17           0        2.613832   -1.151598   -0.000955
      2         17           0        1.418865    1.646658    0.004940
      3          5           0        1.199125   -0.110217    0.008051
      4         15           0       -1.528545   -0.115250    0.113480
      5          8           0       -1.892433    0.468482    1.398574
      6          8           0       -1.680218    0.844783   -1.150195
      7          1           0       -1.583540    1.774803   -0.909179
      8          8           0       -2.263384   -1.434433   -0.357477
      9          1           0       -3.189048   -1.456502   -0.087357
     10          8           0       -0.020302   -0.685641    0.007390
 ---------------------------------------------------------------------

 SCF Done:  E(RHF) =  -1587.34656825     A.U. after    2 cycles

 The electronic state is 1-A.
 Alpha  occ. eigenvalues -- -105.35730 -99.91705 -99.91039 -21.14201 -21.13880
 Alpha  occ. eigenvalues --  -21.09597 -21.04844 -10.49035 -10.48322  -9.69010
 Alpha  occ. eigenvalues --   -9.68531  -9.68304  -9.68277  -9.67823  -9.67665
 Alpha  occ. eigenvalues --   -7.76570  -2.98964  -2.04548  -1.95901  -1.94875
 Alpha  occ. eigenvalues --   -1.78616  -1.50392  -1.42972  -1.36952  -1.31412
 Alpha  occ. eigenvalues --   -1.27519  -0.81834  -0.72815  -0.68117  -0.62883
 Alpha  occ. eigenvalues --   -0.62078  -0.61498  -0.56563  -0.54094  -0.52529
 Alpha  occ. eigenvalues --   -0.51069  -0.49637  -0.46521  -0.42385  -0.38259
 Alpha  occ. eigenvalues --   -0.36596  -0.32696  -0.30950  -0.18741
 Alpha virt. eigenvalues --    0.02993   0.04284   0.04655   0.05013   0.05859
 Alpha virt. eigenvalues --    0.07284   0.08711   0.09998   0.10824   0.11908
 Alpha virt. eigenvalues --    0.13427   0.13865   0.15226   0.15607   0.16835

 Mulliken charges:
               1
     1  Cl  -1.264833
     2  Cl  -1.099282
     3  B    3.880375
     4  P    8.824813
     5  O   -2.720471
     6  O   -2.677157
     7  H    0.861519
     8  O   -2.639104
     9  H    0.902854
    10  O   -4.068714
 Sum of Mulliken charges =   0.00000

 Dipole moment (field-independent basis, Debye):
    X=             -1.4646    Y=             -0.8943    Z=             -2.3625  Tot=              2.9200

 Test job not archived.
 1\1\GINC-SE092\SP\RHF\Aug-CC-pVDZ\B1Cl2H2O4P1\OHZDE\08-Apr-2025\0\\#t
 hf aug-cc-pvdz iop(5/13=1,5/36=2,99/5=2) pseudo=read geom=check guess=
 (read,tcheck) scf=(maxcycle=1)\\title\\0,1\Cl,0,2.613832,-1.151598,-0.
 000955\Cl,0,1.418865,1.646658,0.00494\B,0,1.199125,-0.110217,0.008051\
 P,0,-1.528545,-0.11525,0.11348\O,0,-1.892433,0.468482,1.398574\O,0,-1.
 680218,0.844783,-1.150195\H,0,-1.58354,1.774803,-0.909179\O,0,-2.26338
 4,-1.434433,-0.357477\H,0,-3.189048,-1.456502,-0.087357\O,0,-0.020302,
 -0.685641,0.00739\\Version=ES64L-G16RevC.01\State=1-A\HF=-1587.3465683

 Normal termination of Gaussian 16 at Tue Apr  8 23:53:40 2025.
