 Gaussian 16, Revision C.01,

 ----------------------------------------------------------------------
 #t hf aug-cc-pvdz symm=none int=(grid=ultrafine) guess=(read,tcheck) s
 table=(opt,rrhf)
 ----------------------------------------------------------------------
 -----
 title
 -----
 Symbolic Z-matrix:
 Charge =  0 Multiplicity = 1

 SCF Done:  E(RHF) =  -621.430754490     A.U. after   15 cycles
 Normal termination of Gaussian 16 at Tue Apr  8 23:10:05 2025.
 Gaussian 16:  ES64L-G16RevC.01  3-Jul-2019

 ----------------------------------------------------------------------
 #t hf aug-cc-pvdz iop(5/13=1,5/36=2,99/5=2) pseudo=read geom=check gue
 ss=(read,tcheck) scf=(maxcycle=1)
 ----------------------------------------------------------------------
 -----
 title
 -----
 Structure from the checkpoint file:  "BDE49_expt_463_mol1.chk"
 Charge =  0 Multiplicity = 1

                         Standard orientation:
 ---------------------------------------------------------------------
 Center     Atomic      Atomic             Coordinates (Angstroms)
 Number     Number       Type             X           Y           Z
 ---------------------------------------------------------------------
      1          6           0        1.427493    1.866655   -0.001432
      2          6           0        2.402226    0.877248    0.015502
      3          6           0        2.043323   -0.480312    0.004957
      4          6           0        0.074549    1.538903   -0.026052
      5          6           0       -0.284361    0.191427   -0.034769
      6          6           0        0.680641   -0.810507   -0.018493
      7          1           0        1.727855    2.908221    0.000984
      8          1           0        3.452176    1.150742    0.037952
      9          7           0        3.012434   -1.475175    0.074364
     10          1           0        3.933155   -1.216241   -0.246294
     11          1           0        2.731413   -2.387901   -0.250753
     12          1           0       -0.685238    2.308308   -0.048527
     13          6           0       -1.739181   -0.188745   -0.003063
     14          9           0       -2.514132    0.704283   -0.656992
     15          9           0       -1.967324   -1.398782   -0.563293
     16          9           0       -2.213126   -0.255995    1.264396
     17          1           0        0.376700   -1.850476   -0.030816
 ---------------------------------------------------------------------

 SCF Done:  E(RHF) =  -623.962590581     A.U. after    2 cycles

 The electronic state is 1-A.
 Alpha  occ. eigenvalues --  -29.30111 -29.30021 -29.29649 -15.77178 -11.61215
 Alpha  occ. eigenvalues --  -11.53401 -11.47485 -11.45202 -11.42826 -11.42563
 Alpha  occ. eigenvalues --  -11.37942  -1.46263  -1.39198  -1.26319  -1.10909
 Alpha  occ. eigenvalues --   -1.07397  -0.91327  -0.90177  -0.86836  -0.83419
 Alpha  occ. eigenvalues --   -0.75722  -0.70572  -0.68681  -0.62963  -0.59844
 Alpha  occ. eigenvalues --   -0.55964  -0.54759  -0.50485  -0.47781  -0.45972
 Alpha  occ. eigenvalues --   -0.45110  -0.42761  -0.42456  -0.37768  -0.35272
 Alpha  occ. eigenvalues --   -0.32608  -0.29558  -0.28656  -0.24523  -0.23577
 Alpha  occ. eigenvalues --   -0.20440
 Alpha virt. eigenvalues --    0.03241   0.04648   0.04762   0.06511   0.06785
 Alpha virt. eigenvalues --    0.08790   0.09499   0.10500   0.10879   0.11758
 Alpha virt. eigenvalues --    0.12301   0.12722   0.13538   0.13834   0.14075

 Mulliken charges:
               1
     1  C    0.286454
     2  C   -3.614614
     3  C    2.887163
     4  C   -3.930287
     5  C    3.331903
     6  C   -2.900678
     7  H    1.472703
     8  H    1.672050
     9  N   -4.104482
    10  H    0.630953
    11  H    0.649062
    12  H    1.779549
    13  C   -0.705073
    14  F    0.229082
    15  F    0.287835
    16  F    0.143271
    17  H    1.885111
 Sum of Mulliken charges =   0.00000

 Dipole moment (field-independent basis, Debye):
    X=              0.3671    Y=             -1.0321    Z=             -0.6261  Tot=              1.2618

 Test job not archived.
 1\1\GINC-SE331\SP\RHF\Aug-CC-pVDZ\C7H6F3N1\OHZDE\08-Apr-2025\0\\#t hf
 aug-cc-pvdz iop(5/13=1,5/36=2,99/5=2) pseudo=read geom=check guess=(re
 ad,tcheck) scf=(maxcycle=1)\\title\\0,1\C,0,1.427493,1.866655,-0.00143
 2\C,0,2.402226,0.877248,0.015502\C,0,2.043323,-0.480312,0.004957\C,0,0
 .074549,1.538903,-0.026052\C,0,-0.284361,0.191427,-0.034769\C,0,0.6806
 41,-0.810507,-0.018493\H,0,1.727855,2.908221,0.000984\H,0,3.452176,1.1
 50742,0.037952\N,0,3.012434,-1.475175,0.074364\H,0,3.933155,-1.216241,
 -0.246294\H,0,2.731413,-2.387901,-0.250753\H,0,-0.685238,2.308308,-0.0

 Normal termination of Gaussian 16 at Tue Apr  8 23:10:14 2025.
