 Gaussian 16, Revision C.01,

 ----------------------------------------------------------------------
 #t hf aug-cc-pvdz symm=none int=(grid=ultrafine) guess=(read,tcheck) s
 table=(opt,rrhf)
 ----------------------------------------------------------------------
 -----
 title
 -----
 Symbolic Z-matrix:
 Charge =  0 Multiplicity = 1

 SCF Done:  E(RHF) =  -1153.01622231     A.U. after   14 cycles
 Normal termination of Gaussian 16 at Wed Apr  9 00:10:34 2025.
 Gaussian 16:  ES64L-G16RevC.01  3-Jul-2019

 ----------------------------------------------------------------------
 #t hf aug-cc-pvdz iop(5/13=1,5/36=2,99/5=2) pseudo=read geom=check gue
 ss=(read,tcheck) scf=(maxcycle=1)
 ----------------------------------------------------------------------
 -----
 title
 -----
 Structure from the checkpoint file:  "BDE49_nonexpt_2347_mol1.chk"
 Charge =  0 Multiplicity = 1

                         Standard orientation:
 ---------------------------------------------------------------------
 Center     Atomic      Atomic             Coordinates (Angstroms)
 Number     Number       Type             X           Y           Z
 ---------------------------------------------------------------------
      1         14           0        0.636165    0.856443    0.675283
      2         14           0        2.232569   -0.534054   -0.369355
      3          6           0       -1.062844    0.604060   -0.192215
      4          8           0       -1.667846    1.319357   -0.901611
      5          1           0        3.561638   -0.184720    0.185124
      6          1           0        2.225948   -0.281846   -1.827687
      7          1           0        0.959619    2.292866    0.528242
      8          1           0        0.434283    0.507846    2.096155
      9          1           0        1.931115   -1.954070   -0.093175
     10         17           0       -1.738533   -1.121927    0.187914
 ---------------------------------------------------------------------

 SCF Done:  E(RHF) =  -1154.04681507     A.U. after    2 cycles

 The electronic state is 1-A.
 Alpha  occ. eigenvalues --  -99.88645 -76.25698 -76.24137 -21.12492 -11.53218
 Alpha  occ. eigenvalues --  -10.45824  -9.65649  -9.65126  -9.65022  -5.59293
 Alpha  occ. eigenvalues --   -5.57552  -2.22599  -2.21574  -2.20563  -2.19662
 Alpha  occ. eigenvalues --   -2.19618  -2.18513  -1.77005  -1.29334  -0.91017
 Alpha  occ. eigenvalues --   -0.80194  -0.72838  -0.62046  -0.58271  -0.57182
 Alpha  occ. eigenvalues --   -0.51450  -0.49424  -0.48777  -0.48313  -0.46613
 Alpha  occ. eigenvalues --   -0.38711  -0.33507
 Alpha virt. eigenvalues --    0.03651   0.04105   0.05065   0.05854   0.06662
 Alpha virt. eigenvalues --    0.06964   0.07622   0.07864   0.07993   0.08489
 Alpha virt. eigenvalues --    0.08912   0.09638   0.10370   0.11805   0.12469

 Mulliken charges:
               1
     1  Si   4.577281
     2  Si   4.518200
     3  C    0.837818
     4  O   -1.999685
     5  H   -1.494472
     6  H   -1.462509
     7  H   -1.723748
     8  H   -1.724071
     9  H   -1.415170
    10  Cl  -0.113645
 Sum of Mulliken charges =   0.00000

 Dipole moment (field-independent basis, Debye):
    X=              2.4354    Y=              2.6110    Z=             -0.5197  Tot=              3.6081

 Test job not archived.
 1\1\GINC-SE329\SP\RHF\Aug-CC-pVDZ\C1H5Cl1O1Si2\OHZDE\09-Apr-2025\0\\#t
  hf aug-cc-pvdz iop(5/13=1,5/36=2,99/5=2) pseudo=read geom=check guess
 =(read,tcheck) scf=(maxcycle=1)\\title\\0,1\Si,0,0.636165,0.856443,0.6
 75283\Si,0,2.232569,-0.534054,-0.369355\C,0,-1.062844,0.60406,-0.19221
 5\O,0,-1.667846,1.319357,-0.901611\H,0,3.561638,-0.18472,0.185124\H,0,
 2.225948,-0.281846,-1.827687\H,0,0.959619,2.292866,0.528242\H,0,0.4342
 83,0.507846,2.096155\H,0,1.931115,-1.95407,-0.093175\Cl,0,-1.738533,-1
 .121927,0.187914\\Version=ES64L-G16RevC.01\State=1-A\HF=-1154.0468151\

 Normal termination of Gaussian 16 at Wed Apr  9 00:10:45 2025.
