 Gaussian 16, Revision C.01,

 ----------------------------------------------------------------------
 #t hf aug-cc-pvdz symm=none int=(grid=ultrafine) guess=(read,tcheck) s
 table=(opt,rrhf)
 ----------------------------------------------------------------------
 -----
 title
 -----
 Symbolic Z-matrix:
 Charge =  0 Multiplicity = 1

 SCF Done:  E(RHF) =  -562.054518981     A.U. after   15 cycles
 Normal termination of Gaussian 16 at Wed Apr  9 00:46:42 2025.
 Gaussian 16:  ES64L-G16RevC.01  3-Jul-2019

 ----------------------------------------------------------------------
 #t hf aug-cc-pvdz iop(5/13=1,5/36=2,99/5=2) pseudo=read geom=check gue
 ss=(read,tcheck) scf=(maxcycle=1)
 ----------------------------------------------------------------------
 -----
 title
 -----
 Structure from the checkpoint file:  "BDE49_nonexpt_789_mol1.chk"
 Charge =  0 Multiplicity = 1

                         Standard orientation:
 ---------------------------------------------------------------------
 Center     Atomic      Atomic             Coordinates (Angstroms)
 Number     Number       Type             X           Y           Z
 ---------------------------------------------------------------------
      1          6           0       -0.471376    1.121968    0.273351
      2          6           0       -1.845050    1.275119    0.130509
      3          6           0       -2.612792    0.146875   -0.152718
      4          7           0       -2.097664   -1.076801   -0.294127
      5          6           0       -0.774668   -1.204377   -0.149275
      6          6           0        0.105113   -0.149329    0.137194
      7          1           0       -2.315989    2.245939    0.232878
      8          1           0       -3.689725    0.229175   -0.273248
      9          1           0        0.146248    1.988808    0.488345
     10          5           0        3.115088    0.814081   -0.740557
     11          1           0       -0.390765   -2.214434   -0.270505
     12         14           0        1.956993   -0.446498    0.320178
     13          1           0        2.751331    1.914599   -1.020836
     14          1           0        4.219413    0.503555   -1.063999
     15          1           0        2.363287   -0.216419    1.738779
     16          1           0        2.219149   -1.874590    0.013404
 ---------------------------------------------------------------------

 SCF Done:  E(RHF) =  -563.491415643     A.U. after    2 cycles

 The electronic state is 1-A.
 Alpha  occ. eigenvalues --  -76.20707 -15.73840 -11.47795 -11.44836 -11.43857
 Alpha  occ. eigenvalues --  -11.41020 -11.37638  -7.62749  -5.54463  -2.19365
 Alpha  occ. eigenvalues --   -2.17773  -2.16441  -1.44488  -1.18853  -1.11255
 Alpha  occ. eigenvalues --   -0.90186  -0.89065  -0.85873  -0.74317  -0.70214
 Alpha  occ. eigenvalues --   -0.62478  -0.60562  -0.55435  -0.54353  -0.53884
 Alpha  occ. eigenvalues --   -0.49598  -0.47234  -0.42538  -0.39385  -0.36580
 Alpha  occ. eigenvalues --   -0.34740  -0.33492
 Alpha virt. eigenvalues --    0.02128   0.03233   0.03652   0.03852   0.05630
 Alpha virt. eigenvalues --    0.05751   0.06579   0.07590   0.08497   0.08608
 Alpha virt. eigenvalues --    0.08924   0.09339   0.10001   0.10647   0.11031

 Mulliken charges:
               1
     1  C   -0.243645
     2  C   -0.942248
     3  C   -1.062020
     4  N   -3.499606
     5  C   -1.853884
     6  C    0.669986
     7  H    1.398173
     8  H    1.543544
     9  H    1.902512
    10  B    2.970872
    11  H    1.636357
    12  Si   5.562999
    13  H   -2.092523
    14  H   -2.364128
    15  H   -1.880126
    16  H   -1.746263
 Sum of Mulliken charges =  -0.00000

 Dipole moment (field-independent basis, Debye):
    X=              0.3315    Y=              1.8971    Z=             -0.1898  Tot=              1.9352

 Test job not archived.
 1\1\GINC-SE162\SP\RHF\Aug-CC-pVDZ\C5H8B1N1Si1\OHZDE\09-Apr-2025\0\\#t
 hf aug-cc-pvdz iop(5/13=1,5/36=2,99/5=2) pseudo=read geom=check guess=
 (read,tcheck) scf=(maxcycle=1)\\title\\0,1\C,0,-0.471376,1.121968,0.27
 3351\C,0,-1.84505,1.275119,0.130509\C,0,-2.612792,0.146875,-0.152718\N
 ,0,-2.097664,-1.076801,-0.294127\C,0,-0.774668,-1.204377,-0.149275\C,0
 ,0.105113,-0.149329,0.137194\H,0,-2.315989,2.245939,0.232878\H,0,-3.68
 9725,0.229175,-0.273248\H,0,0.146248,1.988808,0.488345\B,0,3.115088,0.
 814081,-0.740557\H,0,-0.390765,-2.214434,-0.270505\Si,0,1.956993,-0.44

 Normal termination of Gaussian 16 at Wed Apr  9 00:46:49 2025.
