 Gaussian 16, Revision C.01,

 ----------------------------------------------------------------------
 #t hf aug-cc-pvdz symm=none int=(grid=ultrafine) guess=(read,tcheck) s
 table=(opt,rrhf)
 ----------------------------------------------------------------------
 -----
 title
 -----
 Symbolic Z-matrix:
 Charge =  0 Multiplicity = 1

 SCF Done:  E(RHF) =  -1347.72865416     A.U. after   15 cycles
 Normal termination of Gaussian 16 at Wed Apr  9 00:50:40 2025.
 Gaussian 16:  ES64L-G16RevC.01  3-Jul-2019

 ----------------------------------------------------------------------
 #t hf aug-cc-pvdz iop(5/13=1,5/36=2,99/5=2) pseudo=read geom=check gue
 ss=(read,tcheck) scf=(maxcycle=1)
 ----------------------------------------------------------------------
 -----
 title
 -----
 Structure from the checkpoint file:  "BDE49_nonexpt_872_mol1.chk"
 Charge =  0 Multiplicity = 1

                         Standard orientation:
 ---------------------------------------------------------------------
 Center     Atomic      Atomic             Coordinates (Angstroms)
 Number     Number       Type             X           Y           Z
 ---------------------------------------------------------------------
      1          9           0       -0.048149    2.350313    0.000071
      2          9           0       -0.048140   -2.350307   -0.000072
      3          9           0       -4.111260   -0.000005    0.000000
      4         16           0        2.569016   -0.000078    1.534079
      5         16           0        2.569016    0.000076   -1.534079
      6          6           0        0.035417    0.000003    0.000000
      7          6           0       -0.714033    1.176345    0.000029
      8          6           0       -2.766428   -0.000003    0.000000
      9          6           0       -0.714028   -1.176342   -0.000029
     10          6           0       -2.099773    1.216100    0.000037
     11          1           0       -2.635072    2.155252    0.000058
     12          6           0       -2.099768   -1.216103   -0.000037
     13          1           0       -2.635064   -2.155257   -0.000058
     14          5           0        1.606336    0.000006    0.000000
     15          1           0        1.524779    0.000092   -2.379128
     16          1           0        1.524778   -0.000100    2.379129
 ---------------------------------------------------------------------

 SCF Done:  E(RHF) =  -1350.36361913     A.U. after    2 cycles

 The electronic state is 1-A.
 Alpha  occ. eigenvalues --  -75.70432 -75.70328 -29.31319 -29.31194 -29.31172
 Alpha  occ. eigenvalues --  -13.18331 -13.17435 -13.11854 -13.11008 -13.06527
 Alpha  occ. eigenvalues --  -13.04680 -11.58098 -11.53374 -11.53047 -11.44910
 Alpha  occ. eigenvalues --  -11.44151 -11.42369  -8.04566  -8.04064  -7.71288
 Alpha  occ. eigenvalues --   -1.44541  -1.25101  -1.21912  -1.19191  -1.10882
 Alpha  occ. eigenvalues --   -0.99546  -0.99126  -0.88780  -0.76037  -0.70501
 Alpha  occ. eigenvalues --   -0.69728  -0.68764  -0.63406  -0.62205  -0.55714
 Alpha  occ. eigenvalues --   -0.54979  -0.50837  -0.49392  -0.47916  -0.43721
 Alpha  occ. eigenvalues --   -0.41299  -0.40630  -0.38881  -0.37201  -0.34794
 Alpha  occ. eigenvalues --   -0.31183  -0.31102  -0.30015  -0.26478  -0.26046
 Alpha  occ. eigenvalues --   -0.24711  -0.24290
 Alpha virt. eigenvalues --    0.02796   0.03538   0.03679   0.04867   0.05632
 Alpha virt. eigenvalues --    0.05748   0.09229   0.10021   0.10381   0.10939
 Alpha virt. eigenvalues --    0.11124   0.11271   0.11495   0.11959   0.12728

 Mulliken charges:
               1
     1  F    0.595060
     2  F    0.595060
     3  F    0.752382
     4  S   -3.344666
     5  S   -3.344670
     6  C   -7.136077
     7  C    6.092003
     8  C    4.754454
     9  C    6.092032
    10  C   -7.293421
    11  H    1.810420
    12  C   -7.293412
    13  H    1.810419
    14  B    4.516465
    15  H    0.696978
    16  H    0.696973
 Sum of Mulliken charges =  -0.00000

 Dipole moment (field-independent basis, Debye):
    X=              2.3689    Y=             -0.0000    Z=             -0.0000  Tot=              2.3689

 Test job not archived.
 1\1\GINC-SE073\SP\RHF\Aug-CC-pVDZ\C6H4B1F3S2\OHZDE\09-Apr-2025\0\\#t h
 f aug-cc-pvdz iop(5/13=1,5/36=2,99/5=2) pseudo=read geom=check guess=(
 read,tcheck) scf=(maxcycle=1)\\title\\0,1\F,0,-0.048149,2.350313,0.000
 071\F,0,-0.04814,-2.350307,-0.000072\F,0,-4.11126,-0.000006,0.\S,0,2.5
 69016,-0.000077,1.534079\S,0,2.569016,0.000077,-1.534079\C,0,0.035417,
 0.000003,0.\C,0,-0.714033,1.176345,0.000029\C,0,-2.766428,-0.000003,0.
 \C,0,-0.714028,-1.176342,-0.000029\C,0,-2.099773,1.2161,0.000037\H,0,-
 2.635072,2.155252,0.000058\C,0,-2.099768,-1.216103,-0.000037\H,0,-2.63

 Normal termination of Gaussian 16 at Wed Apr  9 00:50:50 2025.
