 Gaussian 16, Revision C.01,

 ----------------------------------------------------------------------
 #t hf aug-cc-pvdz symm=none int=(grid=ultrafine) guess=(read,tcheck) s
 table=(opt,rrhf)
 ----------------------------------------------------------------------
 -----
 title
 -----
 Symbolic Z-matrix:
 Charge =  0 Multiplicity = 1

 SCF Done:  E(RHF) =  -573.179485675     A.U. after   14 cycles
 Normal termination of Gaussian 16 at Tue Apr  8 23:33:28 2025.
 Gaussian 16:  ES64L-G16RevC.01  3-Jul-2019

 ----------------------------------------------------------------------
 #t hf aug-cc-pvdz iop(5/13=1,5/36=2,99/5=2) pseudo=read geom=check gue
 ss=(read,tcheck) scf=(maxcycle=1)
 ----------------------------------------------------------------------
 -----
 title
 -----
 Structure from the checkpoint file:  "BDE49_nonexpt_1403_mol1.chk"
 Charge =  0 Multiplicity = 1

                         Standard orientation:
 ---------------------------------------------------------------------
 Center     Atomic      Atomic             Coordinates (Angstroms)
 Number     Number       Type             X           Y           Z
 ---------------------------------------------------------------------
      1         15           0        0.000000   -1.138744   -0.136137
      2          6           0        1.307882    0.127036    0.025752
      3          6           0        0.728153    1.349412   -0.007600
      4          6           0       -0.728153    1.349412   -0.007600
      5          6           0       -1.307882    0.127036    0.025752
      6          1           0       -1.299188    2.273513   -0.032027
      7          1           0        1.299188    2.273513   -0.032027
      8          6           0       -2.778022   -0.169055    0.037808
      9          1           0       -3.359049    0.755752    0.084128
     10          1           0       -3.060047   -0.783662    0.899748
     11          1           0       -3.088273   -0.717490   -0.857680
     12          6           0        2.778022   -0.169055    0.037808
     13          1           0        3.088273   -0.717490   -0.857681
     14          1           0        3.060047   -0.783662    0.899747
     15          1           0        3.359049    0.755752    0.084128
     16          1           0        0.000000   -1.663788    1.182200
 ---------------------------------------------------------------------

 SCF Done:  E(RHF) =  -574.523426535     A.U. after    2 cycles

 The electronic state is 1-A.
 Alpha  occ. eigenvalues -- -105.16659 -11.46228 -11.42079 -11.40744 -11.39165
 Alpha  occ. eigenvalues --  -11.38349 -11.35860  -2.75043  -1.51635  -1.49134
 Alpha  occ. eigenvalues --   -1.42972  -1.24843  -1.12493  -1.05233  -0.92760
 Alpha  occ. eigenvalues --   -0.83138  -0.67493  -0.66823  -0.63165  -0.57265
 Alpha  occ. eigenvalues --   -0.56573  -0.56344  -0.55246  -0.50841  -0.45918
 Alpha  occ. eigenvalues --   -0.43321  -0.29268  -0.23162  -0.19477  -0.02140
 Alpha virt. eigenvalues --    0.03682   0.04993   0.05547   0.05678   0.06853
 Alpha virt. eigenvalues --    0.06969   0.07113   0.07882   0.08131   0.08892
 Alpha virt. eigenvalues --    0.10528   0.11449   0.12290   0.12643   0.12761

 Mulliken charges:
               1
     1  P    3.900183
     2  C    2.479221
     3  C   -4.325992
     4  C   -4.325993
     5  C    2.479221
     6  H    1.718079
     7  H    1.718079
     8  C   -5.464740
     9  H    1.305171
    10  H    1.179505
    11  H    1.142115
    12  C   -5.464741
    13  H    1.142115
    14  H    1.179506
    15  H    1.305171
    16  H    0.033101
 Sum of Mulliken charges =   0.00000

 Dipole moment (field-independent basis, Debye):
    X=              0.0000    Y=             -2.1758    Z=             -1.5950  Tot=              2.6978

 Test job not archived.
 1\1\GINC-SE051\SP\RHF\Aug-CC-pVDZ\C6H9P1\OHZDE\08-Apr-2025\0\\#t hf au
 g-cc-pvdz iop(5/13=1,5/36=2,99/5=2) pseudo=read geom=check guess=(read
 ,tcheck) scf=(maxcycle=1)\\title\\0,1\P,0,0.,-1.138744,-0.136137\C,0,1
 .307882,0.127036,0.025752\C,0,0.728153,1.349412,-0.0076\C,0,-0.728153,
 1.349412,-0.0076\C,0,-1.307882,0.127036,0.025752\H,0,-1.299188,2.27351
 3,-0.032027\H,0,1.299188,2.273513,-0.032027\C,0,-2.778022,-0.169055,0.
 037808\H,0,-3.359049,0.755752,0.084128\H,0,-3.060047,-0.783662,0.89974
 8\H,0,-3.088273,-0.71749,-0.85768\C,0,2.778022,-0.169055,0.037808\H,0,

 Normal termination of Gaussian 16 at Tue Apr  8 23:33:35 2025.
