 Gaussian 16, Revision C.01,

 ----------------------------------------------------------------------
 #t hf aug-cc-pvdz symm=none int=(grid=ultrafine) guess=(read,tcheck) s
 table=(opt,rrhf)
 ----------------------------------------------------------------------
 -----
 title
 -----
 Symbolic Z-matrix:
 Charge =  0 Multiplicity = 1

 SCF Done:  E(RHF) =  -877.166893496     A.U. after   13 cycles
 Normal termination of Gaussian 16 at Wed Apr  9 00:12:51 2025.
 Gaussian 16:  ES64L-G16RevC.01  3-Jul-2019

 ----------------------------------------------------------------------
 #t hf aug-cc-pvdz iop(5/13=1,5/36=2,99/5=2) pseudo=read geom=check gue
 ss=(read,tcheck) scf=(maxcycle=1)
 ----------------------------------------------------------------------
 -----
 title
 -----
 Structure from the checkpoint file:  "BDE49_nonexpt_2395_mol1.chk"
 Charge =  0 Multiplicity = 1

                         Standard orientation:
 ---------------------------------------------------------------------
 Center     Atomic      Atomic             Coordinates (Angstroms)
 Number     Number       Type             X           Y           Z
 ---------------------------------------------------------------------
      1         14           0       -0.441392    1.097817    0.000078
      2         14           0        0.441392   -1.097817    0.000047
      3          7           0        2.246084   -0.935547   -0.000107
      4          1           0        0.117460   -1.893709   -1.206083
      5          1           0        0.117612   -1.893687    1.206234
      6          7           0        2.609848    0.253809   -0.000198
      7          7           0       -2.246084    0.935547    0.000038
      8          1           0       -0.117516    1.893723   -1.206059
      9          1           0       -0.117557    1.893673    1.206258
     10          7           0       -2.609848   -0.253809   -0.000011
     11          6           0        4.067808    0.439908   -0.000007
     12          1           0        4.327310    1.033869    0.881109
     13          1           0        4.327546    1.033617   -0.881222
     14          1           0        4.593856   -0.518552    0.000201
     15          6           0       -4.067808   -0.439908   -0.000019
     16          1           0       -4.327429   -1.033781    0.881120
     17          1           0       -4.327427   -1.033705   -0.881211
     18          1           0       -4.593856    0.518552    0.000022
 ---------------------------------------------------------------------

 SCF Done:  E(RHF) =  -878.859378082     A.U. after    2 cycles

 The electronic state is 1-A.
 Alpha  occ. eigenvalues --  -76.22682 -76.22643 -15.79917 -15.79898 -15.76118
 Alpha  occ. eigenvalues --  -15.76110 -11.38874 -11.38787  -5.56337  -5.56292
 Alpha  occ. eigenvalues --   -2.20991  -2.20185  -2.18379  -2.18222  -2.18019
 Alpha  occ. eigenvalues --   -2.17172  -1.51902  -1.51696  -1.10612  -1.10594
 Alpha  occ. eigenvalues --   -0.85875  -0.85006  -0.76259  -0.69715  -0.63179
 Alpha  occ. eigenvalues --   -0.61685  -0.61203  -0.60949  -0.58174  -0.56390
 Alpha  occ. eigenvalues --   -0.50856  -0.50042  -0.48891  -0.48073  -0.44674
 Alpha  occ. eigenvalues --   -0.43989  -0.37412  -0.30702  -0.29926
 Alpha virt. eigenvalues --    0.04125   0.04194   0.05237   0.06086   0.06384
 Alpha virt. eigenvalues --    0.06649   0.06882   0.07143   0.07764   0.08049
 Alpha virt. eigenvalues --    0.08331   0.09562   0.09608   0.09773   0.09778

 Mulliken charges:
               1
     1  Si   4.313857
     2  Si   4.313856
     3  N   -1.787183
     4  H   -1.766919
     5  H   -1.766948
     6  N   -0.002932
     7  N   -1.787183
     8  H   -1.766902
     9  H   -1.766966
    10  N   -0.002932
    11  C   -3.129634
    12  H    1.394404
    13  H    1.394418
    14  H    1.350939
    15  C   -3.129634
    16  H    1.394412
    17  H    1.394410
    18  H    1.350939
 Sum of Mulliken charges =  -0.00000

 Dipole moment (field-independent basis, Debye):
    X=              0.0000    Y=             -0.0000    Z=              0.0002  Tot=              0.0002

 Test job not archived.
 1\1\GINC-SE227\SP\RHF\Aug-CC-pVDZ\C2H10N4Si2\OHZDE\09-Apr-2025\0\\#t h
 f aug-cc-pvdz iop(5/13=1,5/36=2,99/5=2) pseudo=read geom=check guess=(
 read,tcheck) scf=(maxcycle=1)\\title\\0,1\Si,0,0.441392,-1.097817,0.00
 0078\Si,0,-0.441392,1.097817,0.000047\N,0,-2.246084,0.935547,-0.000107
 \H,0,-0.11746,1.893709,-1.206083\H,0,-0.117612,1.893687,1.206234\N,0,-
 2.609848,-0.253809,-0.000198\N,0,2.246084,-0.935547,0.000038\H,0,0.117
 516,-1.893723,-1.206059\H,0,0.117557,-1.893673,1.206258\N,0,2.609848,0
 .253809,-0.000011\C,0,-4.067808,-0.439908,-0.000007\H,0,-4.32731,-1.03

 Normal termination of Gaussian 16 at Wed Apr  9 00:13:00 2025.
