 Gaussian 16, Revision C.01,

 ----------------------------------------------------------------------
 #t hf aug-cc-pvdz symm=none int=(grid=ultrafine) guess=(read,tcheck) s
 table=opt
 ----------------------------------------------------------------------
 -----
 title
 -----
 Symbolic Z-matrix:
 Charge =  0 Multiplicity = 2

 SCF Done:  E(UHF) =  -626.275758508     A.U. after   14 cycles
 Normal termination of Gaussian 16 at Tue Apr  8 23:55:57 2025.
 Gaussian 16:  ES64L-G16RevC.01  3-Jul-2019

 ----------------------------------------------------------------------
 #t hf aug-cc-pvdz iop(5/13=1,5/36=2,99/5=2) pseudo=read geom=check gue
 ss=(read,tcheck) scf=(maxcycle=1)
 ----------------------------------------------------------------------
 -----
 title
 -----
 Structure from the checkpoint file:  "BDE49_nonexpt_1978_mol2.chk"
 Charge =  0 Multiplicity = 2

                         Standard orientation:
 ---------------------------------------------------------------------
 Center     Atomic      Atomic             Coordinates (Angstroms)
 Number     Number       Type             X           Y           Z
 ---------------------------------------------------------------------
      1         14           0        1.561348   -0.033798   -0.000000
      2          6           0       -0.370251   -0.027300    0.000000
      3          9           0       -0.877113    1.232861    0.000000
      4          9           0       -0.877113   -0.652815    1.090371
      5          9           0       -0.877113   -0.652815   -1.090371
      6          1           0        2.022348    0.645945    1.231446
      7          1           0        2.022348    0.645945   -1.231446
 ---------------------------------------------------------------------

 SCF Done:  E(UHF) =  -627.589266813     A.U. after    2 cycles

 The electronic state is 2-A'.
 Alpha  occ. eigenvalues --  -76.26726 -29.30694 -29.30661 -29.30574 -11.55206
 Alpha  occ. eigenvalues --   -5.60222  -2.23759  -2.22313  -2.21335  -1.37791
 Alpha  occ. eigenvalues --   -0.86559  -0.86503  -0.84398  -0.64303  -0.51281
 Alpha  occ. eigenvalues --   -0.48037  -0.43253  -0.43214  -0.37571  -0.36346
 Alpha  occ. eigenvalues --   -0.32818  -0.25812  -0.25398  -0.23037  -0.21279
 Alpha virt. eigenvalues --    0.04016   0.06006   0.06395   0.06975   0.09035
 Alpha virt. eigenvalues --    0.09624   0.13534   0.14460   0.14547   0.16796
 Alpha virt. eigenvalues --    0.17063   0.17777   0.22970   0.23268   0.23401

  Beta  occ. eigenvalues --  -76.26136 -29.30708 -29.30666 -29.30463 -11.55171
  Beta  occ. eigenvalues --   -5.59289  -2.23021  -2.21636  -2.17618  -1.37597
  Beta  occ. eigenvalues --   -0.86494  -0.86221  -0.80958  -0.62578  -0.50442
  Beta  occ. eigenvalues --   -0.47985  -0.43188  -0.43164  -0.36341  -0.36242
  Beta  occ. eigenvalues --   -0.26061  -0.25785  -0.24890  -0.21231
  Beta virt. eigenvalues --    0.02213   0.04558   0.06157   0.06783   0.08742
  Beta virt. eigenvalues --    0.09277   0.10145   0.14652   0.14728   0.15217
  Beta virt. eigenvalues --    0.17871   0.19382   0.20147   0.23321   0.23618

 Mulliken charges and spin densities:
               1          2
     1  Si   3.548412   0.998315
     2  C   -1.586232  -0.000146
     3  F    0.272232   0.018596
     4  F    0.326630  -0.017977
     5  F    0.326630  -0.017977
     6  H   -1.443836   0.009594
     7  H   -1.443836   0.009594
 Sum of Mulliken charges =  -0.00000   1.00000

 Dipole moment (field-independent basis, Debye):
    X=             -1.5777    Y=             -0.2380    Z=              0.0000  Tot=              1.5956
                          Isotropic Fermi Contact Couplings
        Atom                 a.u.       MegaHertz       Gauss      10(-4) cm-1
     1  Si(29)             0.48630    -432.18426    -154.21409    -144.16115
     2  C(13)              0.00893      10.04435       3.58407       3.35043
     3  F(19)              0.01249      52.55284      18.75216      17.52974
     4  F(19)             -0.00304     -12.79011      -4.56383      -4.26632
     5  F(19)             -0.00304     -12.79011      -4.56383      -4.26632
     6  H(1)               0.00597      26.68600       9.52223       8.90149
     7  H(1)               0.00597      26.68600       9.52223       8.90149
 --------------------------------------------------------

 Normal termination of Gaussian 16 at Tue Apr  8 23:55:59 2025.
