 Gaussian 16, Revision C.01,

 ----------------------------------------------------------------------
 #t hf aug-cc-pvdz symm=none int=(grid=ultrafine) guess=(read,tcheck) s
 table=(opt,rrhf)
 ----------------------------------------------------------------------
 -----
 title
 -----
 Symbolic Z-matrix:
 Charge =  0 Multiplicity = 1

 SCF Done:  E(RHF) =  -810.511146792     A.U. after   13 cycles
 Normal termination of Gaussian 16 at Wed Apr  9 00:32:52 2025.
 Gaussian 16:  ES64L-G16RevC.01  3-Jul-2019

 ----------------------------------------------------------------------
 #t hf aug-cc-pvdz iop(5/13=1,5/36=2,99/5=2) pseudo=read geom=check gue
 ss=(read,tcheck) scf=(maxcycle=1)
 ----------------------------------------------------------------------
 -----
 title
 -----
 Structure from the checkpoint file:  "BDE49_nonexpt_404_mol1.chk"
 Charge =  0 Multiplicity = 1

                         Standard orientation:
 ---------------------------------------------------------------------
 Center     Atomic      Atomic             Coordinates (Angstroms)
 Number     Number       Type             X           Y           Z
 ---------------------------------------------------------------------
      1          9           0        1.679295    1.317415   -0.000114
      2          9           0        2.021864   -0.938771   -0.000149
      3          5           0        1.214852    0.087415    0.000174
      4         16           0       -0.658956   -0.224582    0.000053
      5          8           0       -0.980365   -0.863348    1.265990
      6          6           0       -1.408310    1.407946    0.000006
      7          8           0       -0.980227   -0.863365   -1.265911
      8          1           0       -1.111040    1.942323    0.901529
      9          1           0       -2.484834    1.229839   -0.000054
     10          1           0       -1.110939    1.942316   -0.901487
 ---------------------------------------------------------------------

 SCF Done:  E(RHF) =  -812.367432475     A.U. after    2 cycles

 The electronic state is 1-A.
 Alpha  occ. eigenvalues --  -75.89305 -29.31545 -29.30569 -21.05787 -21.05772
 Alpha  occ. eigenvalues --  -13.51346 -13.40744 -13.33498 -11.43789  -8.24401
 Alpha  occ. eigenvalues --   -7.77353  -1.84101  -1.65851  -1.22377  -1.13847
 Alpha  occ. eigenvalues --   -0.92877  -0.82807  -0.69413  -0.64567  -0.61145
 Alpha  occ. eigenvalues --   -0.57505  -0.57259  -0.52000  -0.49876  -0.45341
 Alpha  occ. eigenvalues --   -0.45331  -0.41026  -0.39240  -0.38535  -0.37435
 Alpha  occ. eigenvalues --   -0.36466  -0.24845
 Alpha virt. eigenvalues --    0.02417   0.03200   0.04067   0.05878   0.06902
 Alpha virt. eigenvalues --    0.07233   0.07388   0.09916   0.11065   0.13188
 Alpha virt. eigenvalues --    0.13428   0.14826   0.15135   0.15642   0.16818

 Mulliken charges:
               1
     1  F   -0.790930
     2  F    0.233885
     3  B    1.553648
     4  S    4.552783
     5  O   -2.535919
     6  C   -4.562076
     7  O   -2.535869
     8  H    1.368393
     9  H    1.347734
    10  H    1.368351
 Sum of Mulliken charges =   0.00000

 Dipole moment (field-independent basis, Debye):
    X=              2.6817    Y=              2.2186    Z=             -0.0011  Tot=              3.4805

 Test job not archived.
 1\1\GINC-SE461\SP\RHF\Aug-CC-pVDZ\C1H3B1F2O2S1\OHZDE\09-Apr-2025\0\\#t
  hf aug-cc-pvdz iop(5/13=1,5/36=2,99/5=2) pseudo=read geom=check guess
 =(read,tcheck) scf=(maxcycle=1)\\title\\0,1\F,0,1.679295,1.317415,-0.0
 00114\F,0,2.021864,-0.938771,-0.000149\B,0,1.214852,0.087415,0.000174\
 S,0,-0.658956,-0.224582,0.000053\O,0,-0.980365,-0.863348,1.26599\C,0,-
 1.40831,1.407946,0.000006\O,0,-0.980227,-0.863365,-1.265911\H,0,-1.111
 04,1.942323,0.901529\H,0,-2.484834,1.229839,-0.000054\H,0,-1.110939,1.
 942316,-0.901487\\Version=ES64L-G16RevC.01\State=1-A\HF=-812.3674325\R

 Normal termination of Gaussian 16 at Wed Apr  9 00:32:55 2025.
