 Gaussian 16, Revision C.01,

 ----------------------------------------------------------------------
 #t hf aug-cc-pvdz symm=none int=(grid=ultrafine) guess=(read,tcheck) s
 table=(opt,rrhf)
 ----------------------------------------------------------------------
 -----
 title
 -----
 Symbolic Z-matrix:
 Charge =  0 Multiplicity = 1

 SCF Done:  E(RHF) =  -1183.92226467     A.U. after   15 cycles

 1\1\GINC-SE080\Stability\RHF\Aug-CC-pVDZ\C6Cl1F5\OHZDE\08-Apr-2025\0\\
 #t hf aug-cc-pvdz symm=none int=(grid=ultrafine) guess=(read,tcheck) s
 table=(opt,rrhf)\\title\\0,1\C,0,0.,0.,-1.679817\C,0,0.,1.203595,-0.98
 4396\C,0,0.,1.201519,0.405312\C,0,0.,-1.203595,-0.984396\C,0,0.,-1.201
 519,0.405312\C,0,0.,0.,1.111646\F,0,0.,0.,-3.012396\F,0,0.,2.358475,-1
 .652796\F,0,0.,2.366421,1.052625\Cl,0,0.,0.,2.839569\F,0,0.,-2.358475,
 -1.652796\F,0,0.,-2.366421,1.052625\\Version=ES64L-G16RevC.01\HF=-1183
 .9222647\RMSD=3.010e-09\Dipole=0.,0.,0.1692007\Quadrupole=4.0463121,-3

 Normal termination of Gaussian 16 at Tue Apr  8 22:50:13 2025.
 Gaussian 16:  ES64L-G16RevC.01  3-Jul-2019

 ----------------------------------------------------------------------
 #t hf aug-cc-pvdz iop(5/13=1,5/36=2,99/5=2) pseudo=read geom=check gue
 ss=(read,tcheck) scf=(maxcycle=1)
 ----------------------------------------------------------------------
 -----
 title
 -----
 Structure from the checkpoint file:  "BDE49_expt_1684_mol1.chk"
 Charge =  0 Multiplicity = 1

                         Standard orientation:
 ---------------------------------------------------------------------
 Center     Atomic      Atomic             Coordinates (Angstroms)
 Number     Number       Type             X           Y           Z
 ---------------------------------------------------------------------
      1          6           0        0.000000   -0.000000   -1.679817
      2          6           0        0.000000    1.203595   -0.984396
      3          6           0        0.000000    1.201519    0.405312
      4          6           0       -0.000000   -1.203595   -0.984396
      5          6           0       -0.000000   -1.201519    0.405312
      6          6           0        0.000000    0.000000    1.111646
      7          9           0        0.000000   -0.000000   -3.012396
      8          9           0        0.000000    2.358475   -1.652796
      9          9           0        0.000000    2.366421    1.052625
     10         17           0        0.000000    0.000000    2.839569
     11          9           0       -0.000000   -2.358475   -1.652796
     12          9           0       -0.000000   -2.366421    1.052625
 ---------------------------------------------------------------------

 SCF Done:  E(RHF) =  -1186.86494048     A.U. after    2 cycles

 The electronic state is 1-A1.
 Alpha  occ. eigenvalues --  -99.93571 -29.33818 -29.33549 -29.33515 -29.33426
 Alpha  occ. eigenvalues --  -29.33411 -11.62060 -11.56462 -11.54813 -11.53192
 Alpha  occ. eigenvalues --  -11.51912 -11.47856 -10.50957  -9.70948  -9.70036
 Alpha  occ. eigenvalues --   -9.69834  -1.50925  -1.37691  -1.30193  -1.24150
 Alpha  occ. eigenvalues --   -1.10550  -1.05857  -0.93245  -0.87424  -0.78850
 Alpha  occ. eigenvalues --   -0.77816  -0.73833  -0.69401  -0.66314  -0.63384
 Alpha  occ. eigenvalues --   -0.60277  -0.57537  -0.55053  -0.51072  -0.45359
 Alpha  occ. eigenvalues --   -0.44625  -0.43478  -0.43447  -0.42343  -0.40958
 Alpha  occ. eigenvalues --   -0.39254  -0.33794  -0.32620  -0.32273  -0.31731
 Alpha  occ. eigenvalues --   -0.31322  -0.28845  -0.23901  -0.20076
 Alpha virt. eigenvalues --    0.05878   0.07071   0.10080   0.10391   0.10699
 Alpha virt. eigenvalues --    0.10994   0.11083   0.11497   0.11861   0.12164
 Alpha virt. eigenvalues --    0.12267   0.13172   0.13230   0.14141   0.14314

 Mulliken charges:
               1
     1  C   -1.082449
     2  C   -0.812490
     3  C    1.868011
     4  C   -0.812490
     5  C    1.868011
     6  C   -6.450138
     7  F    1.174764
     8  F    1.195053
     9  F    1.281757
    10  Cl  -0.706837
    11  F    1.195053
    12  F    1.281757
 Sum of Mulliken charges =  -0.00000

 Dipole moment (field-independent basis, Debye):
    X=             -0.0000    Y=              0.0000    Z=             -4.0809  Tot=              4.0809

 Test job not archived.
 1\1\GINC-SE080\SP\RHF\Aug-CC-pVDZ\C6Cl1F5\OHZDE\08-Apr-2025\0\\#t hf a
 ug-cc-pvdz iop(5/13=1,5/36=2,99/5=2) pseudo=read geom=check guess=(rea
 d,tcheck) scf=(maxcycle=1)\\title\\0,1\C,0,0.,0.,-1.679817\C,0,0.,1.20
 3595,-0.984396\C,0,0.,1.201519,0.405312\C,0,0.,-1.203595,-0.984396\C,0
 ,0.,-1.201519,0.405312\C,0,0.,0.,1.111646\F,0,0.,0.,-3.012396\F,0,0.,2
 .358475,-1.652796\F,0,0.,2.366421,1.052625\Cl,0,0.,0.,2.839569\F,0,0.,
 -2.358475,-1.652796\F,0,0.,-2.366421,1.052625\\Version=ES64L-G16RevC.0
 1\State=1-A1\HF=-1186.8649405\RMSD=1.583e+00\Dipole=0.,0.,-1.6055525\Q

 Normal termination of Gaussian 16 at Tue Apr  8 22:50:21 2025.
