 Gaussian 16, Revision C.01,

 ----------------------------------------------------------------------
 #t hf aug-cc-pvdz symm=none int=(grid=ultrafine) guess=(read,tcheck) s
 table=opt
 ----------------------------------------------------------------------
 -----
 title
 -----
 Symbolic Z-matrix:
 Charge =  0 Multiplicity = 2

 SCF Done:  E(UHF) =  -251.894413219     A.U. after   16 cycles
 Normal termination of Gaussian 16 at Wed Apr  9 00:17:37 2025.
 Gaussian 16:  ES64L-G16RevC.01  3-Jul-2019

 ----------------------------------------------------------------------
 #t hf aug-cc-pvdz iop(5/13=1,5/36=2,99/5=2) pseudo=read geom=check gue
 ss=(read,tcheck) scf=(maxcycle=1)
 ----------------------------------------------------------------------
 -----
 title
 -----
 Structure from the checkpoint file:  "BDE49_nonexpt_254_mol2.chk"
 Charge =  0 Multiplicity = 2

                         Standard orientation:
 ---------------------------------------------------------------------
 Center     Atomic      Atomic             Coordinates (Angstroms)
 Number     Number       Type             X           Y           Z
 ---------------------------------------------------------------------
      1          7           0       -1.224748   -0.843617   -0.024809
      2          7           0        1.224747   -0.843618   -0.024809
      3          6           0       -1.274525    0.604675    0.210344
      4          6           0       -0.000000    1.265702   -0.329176
      5          6           0        1.274526    0.604674    0.210342
      6          5           0       -0.000001   -1.527159   -0.116611
      7          1           0       -2.109404   -1.321324   -0.051043
      8          1           0        2.109402   -1.321326   -0.051039
      9          1           0        2.146545    1.033368   -0.294759
     10          1           0        1.382737    0.826401    1.281949
     11          1           0        0.000001    2.328672   -0.069627
     12          1           0       -0.000000    1.190573   -1.421358
     13          1           0       -1.382734    0.826401    1.281951
     14          1           0       -2.146544    1.033371   -0.294756
 ---------------------------------------------------------------------

 SCF Done:  E(UHF) =  -253.072156181     A.U. after    2 cycles

 The electronic state is 2-A.
 Alpha  occ. eigenvalues --  -15.68981 -15.68920 -11.42826 -11.41899 -11.36031
 Alpha  occ. eigenvalues --   -7.61189  -1.43746  -1.28586  -1.14198  -0.94188
 Alpha  occ. eigenvalues --   -0.86558  -0.75330  -0.66632  -0.61517  -0.59945
 Alpha  occ. eigenvalues --   -0.58390  -0.54322  -0.49947  -0.49052  -0.42491
 Alpha  occ. eigenvalues --   -0.40041  -0.30564  -0.29492
 Alpha virt. eigenvalues --    0.03621   0.04263   0.05102   0.05295   0.06266
 Alpha virt. eigenvalues --    0.06502   0.06833   0.07052   0.07475   0.09417
 Alpha virt. eigenvalues --    0.09422   0.12397   0.12934   0.13425   0.14309

  Beta  occ. eigenvalues --  -15.69022 -15.68961 -11.42763 -11.41777 -11.35988
  Beta  occ. eigenvalues --   -7.59271  -1.43041  -1.28427  -1.13584  -0.93857
  Beta  occ. eigenvalues --   -0.85439  -0.74877  -0.65727  -0.60273  -0.59695
  Beta  occ. eigenvalues --   -0.58412  -0.53511  -0.49696  -0.47541  -0.42154
  Beta  occ. eigenvalues --   -0.39528  -0.31358
  Beta virt. eigenvalues --    0.03657   0.04297   0.04447   0.05173   0.06109
  Beta virt. eigenvalues --    0.06541   0.06842   0.07064   0.07539   0.09284
  Beta virt. eigenvalues --    0.09451   0.10213   0.12948   0.13071   0.13917

 Mulliken charges and spin densities:
               1          2
     1  N   -3.044129  -0.080730
     2  N   -3.044132  -0.080729
     3  C   -1.579609  -0.012476
     4  C   -2.322488   0.002867
     5  C   -1.579607  -0.012477
     6  B    1.170943   1.121297
     7  H    1.137646   0.037299
     8  H    1.137647   0.037299
     9  H    1.366638   0.000536
    10  H    1.384556  -0.003684
    11  H    1.369095   0.001411
    12  H    1.252247  -0.007464
    13  H    1.384556  -0.003684
    14  H    1.366637   0.000536
 Sum of Mulliken charges =  -0.00000   1.00000

 Dipole moment (field-independent basis, Debye):
    X=             -0.0000    Y=              1.5391    Z=              0.2449  Tot=              1.5584
                          Isotropic Fermi Contact Couplings
        Atom                 a.u.       MegaHertz       Gauss      10(-4) cm-1
     1  N(14)              0.04686      15.14172       5.40294       5.05073
     2  N(14)              0.04686      15.14174       5.40295       5.05074
     3  C(13)              0.02312      25.99025       9.27397       8.66941
     4  C(13)             -0.00257      -2.89475      -1.03292      -0.96559
     5  C(13)              0.02312      25.99025       9.27397       8.66941
     6  B(11)              0.30875     442.86203     158.02419     147.72287
     7  H(1)               0.00367      16.40736       5.85455       5.47290
     8  H(1)               0.00367      16.40731       5.85454       5.47289

 Normal termination of Gaussian 16 at Wed Apr  9 00:17:42 2025.
