 Gaussian 16, Revision C.01,

 ----------------------------------------------------------------------
 #t hf aug-cc-pvdz symm=none int=(grid=ultrafine) guess=(read,tcheck) s
 table=(opt,rrhf)
 ----------------------------------------------------------------------
 -----
 title
 -----
 Symbolic Z-matrix:
 Charge =  0 Multiplicity = 1

 SCF Done:  E(RHF) =  -498.624273753     A.U. after   12 cycles

 1\1\GINC-SE045\Stability\RHF\Aug-CC-pVDZ\C4H11P1\OHZDE\08-Apr-2025\0\\
 #t hf aug-cc-pvdz symm=none int=(grid=ultrafine) guess=(read,tcheck) s
 table=(opt,rrhf)\\title\\0,1\P,0,1.535773,0.,-0.131093\C,0,-0.356542,0
 .,0.007204\C,0,-0.842422,0.,1.464955\H,0,-0.491356,0.883747,2.004086\H
 ,0,-0.491356,-0.883747,2.004086\C,0,-0.870102,-1.259052,-0.716726\H,0,
 -1.938848,0.,1.499948\H,0,-1.965475,-1.275965,-0.709296\H,0,-0.542011,
 -1.286683,-1.759494\H,0,-0.521658,-2.174115,-0.228651\C,0,-0.870102,1.
 259052,-0.716726\H,0,-0.521658,2.174115,-0.228651\H,0,-1.965475,1.2759

 Normal termination of Gaussian 16 at Tue Apr  8 23:27:21 2025.
 Gaussian 16:  ES64L-G16RevC.01  3-Jul-2019

 ----------------------------------------------------------------------
 #t hf aug-cc-pvdz iop(5/13=1,5/36=2,99/5=2) pseudo=read geom=check gue
 ss=(read,tcheck) scf=(maxcycle=1)
 ----------------------------------------------------------------------
 -----
 title
 -----
 Structure from the checkpoint file:  "BDE49_nonexpt_1272_mol1.chk"
 Charge =  0 Multiplicity = 1

                         Standard orientation:
 ---------------------------------------------------------------------
 Center     Atomic      Atomic             Coordinates (Angstroms)
 Number     Number       Type             X           Y           Z
 ---------------------------------------------------------------------
      1         15           0       -1.535773   -0.000000   -0.131093
      2          6           0        0.356542    0.000000    0.007204
      3          6           0        0.842422    0.000000    1.464955
      4          1           0        0.491356   -0.883747    2.004086
      5          1           0        0.491356    0.883747    2.004086
      6          6           0        0.870102    1.259052   -0.716726
      7          1           0        1.938848    0.000000    1.499948
      8          1           0        1.965475    1.275965   -0.709296
      9          1           0        0.542011    1.286683   -1.759494
     10          1           0        0.521658    2.174115   -0.228651
     11          6           0        0.870102   -1.259052   -0.716726
     12          1           0        0.521658   -2.174115   -0.228651
     13          1           0        1.965475   -1.275965   -0.709296
     14          1           0        0.542011   -1.286683   -1.759494
     15          1           0       -1.789129    1.033480    0.810461
     16          1           0       -1.789128   -1.033480    0.810461
 ---------------------------------------------------------------------

 SCF Done:  E(RHF) =  -499.661719934     A.U. after    2 cycles

 The electronic state is 1-A.
 Alpha  occ. eigenvalues -- -105.17096 -11.41408 -11.38978 -11.38722 -11.35065
 Alpha  occ. eigenvalues --   -2.73685  -1.47320  -1.43849  -1.43117  -1.22819
 Alpha  occ. eigenvalues --   -1.00732  -1.00621  -0.79382  -0.70324  -0.60234
 Alpha  occ. eigenvalues --   -0.60214  -0.57229  -0.54192  -0.54049  -0.51478
 Alpha  occ. eigenvalues --   -0.43983  -0.43939  -0.25425  -0.19545  -0.01934
 Alpha virt. eigenvalues --    0.03940   0.05868   0.06032   0.06073   0.06315
 Alpha virt. eigenvalues --    0.06550   0.06632   0.06755   0.07793   0.08761
 Alpha virt. eigenvalues --    0.09976   0.10779   0.12179   0.12269   0.13141

 Mulliken charges:
               1
     1  P    2.162191
     2  C    2.285688
     3  C   -4.636375
     4  H    1.198040
     5  H    1.198040
     6  C   -4.515736
     7  H    1.299609
     8  H    1.243263
     9  H    1.219832
    10  H    1.200235
    11  C   -4.515736
    12  H    1.200235
    13  H    1.243263
    14  H    1.219832
    15  H   -0.901190
    16  H   -0.901192
 Sum of Mulliken charges =  -0.00000

 Dipole moment (field-independent basis, Debye):
    X=              0.5032    Y=              0.0000    Z=             -1.9835  Tot=              2.0464

 Test job not archived.
 1\1\GINC-SE045\SP\RHF\Aug-CC-pVDZ\C4H11P1\OHZDE\08-Apr-2025\0\\#t hf a
 ug-cc-pvdz iop(5/13=1,5/36=2,99/5=2) pseudo=read geom=check guess=(rea
 d,tcheck) scf=(maxcycle=1)\\title\\0,1\P,0,1.535773,0.,-0.131093\C,0,-
 0.356542,0.,0.007204\C,0,-0.842422,0.,1.464955\H,0,-0.491356,0.883747,
 2.004086\H,0,-0.491356,-0.883747,2.004086\C,0,-0.870102,-1.259052,-0.7
 16726\H,0,-1.938848,0.,1.499948\H,0,-1.965475,-1.275965,-0.709296\H,0,
 -0.542011,-1.286683,-1.759494\H,0,-0.521658,-2.174115,-0.228651\C,0,-0
 .870102,1.259052,-0.716726\H,0,-0.521658,2.174115,-0.228651\H,0,-1.965

 Normal termination of Gaussian 16 at Tue Apr  8 23:27:27 2025.
