 Gaussian 16, Revision C.01,

 ----------------------------------------------------------------------
 #t hf aug-cc-pvdz symm=none int=(grid=ultrafine) guess=(read,tcheck) s
 table=(opt,rrhf)
 ----------------------------------------------------------------------
 -----
 title
 -----
 Symbolic Z-matrix:
 Charge =  0 Multiplicity = 1

 SCF Done:  E(RHF) =  -665.738662760     A.U. after   14 cycles
 Normal termination of Gaussian 16 at Tue Apr  8 23:54:00 2025.
 Gaussian 16:  ES64L-G16RevC.01  3-Jul-2019

 ----------------------------------------------------------------------
 #t hf aug-cc-pvdz iop(5/13=1,5/36=2,99/5=2) pseudo=read geom=check gue
 ss=(read,tcheck) scf=(maxcycle=1)
 ----------------------------------------------------------------------
 -----
 title
 -----
 Structure from the checkpoint file:  "BDE49_nonexpt_1925_mol1.chk"
 Charge =  0 Multiplicity = 1

                         Standard orientation:
 ---------------------------------------------------------------------
 Center     Atomic      Atomic             Coordinates (Angstroms)
 Number     Number       Type             X           Y           Z
 ---------------------------------------------------------------------
      1          6           0       -0.452728    1.297889    0.727256
      2         14           0        0.687592    1.036004   -0.762675
      3          6           0        1.355533   -0.730552   -0.875937
      4          1           0        1.824049    1.976666   -0.630796
      5          1           0       -0.015904    1.324137   -2.031307
      6          7           0        2.100179   -1.313478   -0.019913
      7          8           0        2.372663   -0.472416    1.078852
      8          1           0        2.950239   -1.014058    1.626548
      9          1           0        1.120955   -1.365928   -1.728215
     10          6           0       -1.698885    0.467827    0.730255
     11          7           0       -1.906035   -0.368589   -0.204277
     12          1           0       -2.428403    0.576573    1.536768
     13          8           0       -3.114096   -1.058644   -0.032962
     14          1           0       -3.133769   -1.643969   -0.796572
     15          1           0       -0.721708    2.361062    0.779172
     16          1           0        0.127207    1.093433    1.634618
 ---------------------------------------------------------------------

 SCF Done:  E(RHF) =  -667.550604008     A.U. after    2 cycles

 The electronic state is 1-A.
 Alpha  occ. eigenvalues --  -76.21727 -21.09971 -21.09919 -15.79177 -15.78159
 Alpha  occ. eigenvalues --  -11.44640 -11.39034 -11.37590  -5.55440  -2.20004
 Alpha  occ. eigenvalues --   -2.18538  -2.17852  -1.78761  -1.78693  -1.28671
 Alpha  occ. eigenvalues --   -1.24805  -1.05779  -0.85434  -0.79837  -0.72520
 Alpha  occ. eigenvalues --   -0.68153  -0.64832  -0.60156  -0.58093  -0.55939
 Alpha  occ. eigenvalues --   -0.53071  -0.52284  -0.50619  -0.48481  -0.46102
 Alpha  occ. eigenvalues --   -0.42163  -0.37055  -0.33831  -0.31214  -0.29914
 Alpha virt. eigenvalues --    0.03841   0.05083   0.05515   0.05601   0.05903
 Alpha virt. eigenvalues --    0.06646   0.07083   0.07325   0.08436   0.09705
 Alpha virt. eigenvalues --    0.11176   0.11584   0.11893   0.12255   0.14048

 Mulliken charges:
               1
     1  C   -3.626570
     2  Si   6.570937
     3  C   -1.285485
     4  H   -1.983351
     5  H   -2.112662
     6  N   -0.189428
     7  O   -2.442066
     8  H    1.015836
     9  H    1.440296
    10  C    0.368769
    11  N   -0.723087
    12  H    1.630683
    13  O   -2.347000
    14  H    0.887051
    15  H    1.344253
    16  H    1.451824
 Sum of Mulliken charges =   0.00000

 Dipole moment (field-independent basis, Debye):
    X=             -0.7574    Y=              0.2473    Z=              1.4713  Tot=              1.6732

 Test job not archived.
 1\1\GINC-SE396\SP\RHF\Aug-CC-pVDZ\C3H8N2O2Si1\OHZDE\08-Apr-2025\0\\#t
 hf aug-cc-pvdz iop(5/13=1,5/36=2,99/5=2) pseudo=read geom=check guess=
 (read,tcheck) scf=(maxcycle=1)\\title\\0,1\C,0,-0.452728,1.297889,0.72
 7256\Si,0,0.687592,1.036004,-0.762675\C,0,1.355533,-0.730552,-0.875937
 \H,0,1.824049,1.976666,-0.630796\H,0,-0.015904,1.324137,-2.031307\N,0,
 2.100179,-1.313478,-0.019913\O,0,2.372663,-0.472416,1.078852\H,0,2.950
 239,-1.014058,1.626548\H,0,1.120955,-1.365928,-1.728215\C,0,-1.698885,
 0.467827,0.730255\N,0,-1.906035,-0.368589,-0.204277\H,0,-2.428403,0.57

 Normal termination of Gaussian 16 at Tue Apr  8 23:54:06 2025.
