 Gaussian 16, Revision C.01,

 ----------------------------------------------------------------------
 #t hf aug-cc-pvdz symm=none int=(grid=ultrafine) guess=(read,tcheck) s
 table=(opt,rrhf)
 ----------------------------------------------------------------------
 -----
 title
 -----
 Symbolic Z-matrix:
 Charge =  0 Multiplicity = 1

 SCF Done:  E(RHF) =  -645.403259244     A.U. after   15 cycles
 Normal termination of Gaussian 16 at Wed Apr  9 00:23:40 2025.
 Gaussian 16:  ES64L-G16RevC.01  3-Jul-2019

 ----------------------------------------------------------------------
 #t hf aug-cc-pvdz iop(5/13=1,5/36=2,99/5=2) pseudo=read geom=check gue
 ss=(read,tcheck) scf=(maxcycle=1)
 ----------------------------------------------------------------------
 -----
 title
 -----
 Structure from the checkpoint file:  "BDE49_nonexpt_2688_mol1.chk"
 Charge =  0 Multiplicity = 1

                         Standard orientation:
 ---------------------------------------------------------------------
 Center     Atomic      Atomic             Coordinates (Angstroms)
 Number     Number       Type             X           Y           Z
 ---------------------------------------------------------------------
      1          9           0       -1.997723    0.886937    0.000014
      2         16           0       -1.144446   -0.581204   -0.000019
      3          7           0        0.429601   -0.427555   -0.000003
      4          7           0        1.222671    0.521741    0.000008
      5          6           0        2.627723    0.097776    0.000016
      6          1           0        3.108279    0.530273   -0.881605
      7          1           0        2.741858   -0.989668    0.000015
      8          1           0        3.108266    0.530270    0.881646
 ---------------------------------------------------------------------

 SCF Done:  E(RHF) =  -646.660290027     A.U. after    2 cycles

 The electronic state is 1-A.
 Alpha  occ. eigenvalues --  -75.79792 -29.26691 -15.84803 -15.81754 -13.33207
 Alpha  occ. eigenvalues --  -13.19621 -13.10464 -11.40917  -8.14037  -1.59339
 Alpha  occ. eigenvalues --   -1.28843  -1.06704  -0.88877  -0.69892  -0.66010
 Alpha  occ. eigenvalues --   -0.64103  -0.55582  -0.53795  -0.51591  -0.39590
 Alpha  occ. eigenvalues --   -0.39284  -0.30639  -0.29910  -0.19990
 Alpha virt. eigenvalues --    0.03224   0.05666   0.06102   0.08285   0.09692
 Alpha virt. eigenvalues --    0.09726   0.11671   0.13437   0.14158   0.15398
 Alpha virt. eigenvalues --    0.15573   0.17359   0.18242   0.20824   0.20904

 Mulliken charges:
               1
     1  F   -0.068100
     2  S    1.506356
     3  N   -1.277792
     4  N   -1.075544
     5  C   -3.056781
     6  H    1.317183
     7  H    1.337496
     8  H    1.317183
 Sum of Mulliken charges =   0.00000

 Dipole moment (field-independent basis, Debye):
    X=             -2.4370    Y=              1.1139    Z=              0.0000  Tot=              2.6795

 Test job not archived.
 1\1\GINC-SE455\SP\RHF\Aug-CC-pVDZ\C1H3F1N2S1\OHZDE\09-Apr-2025\0\\#t h
 f aug-cc-pvdz iop(5/13=1,5/36=2,99/5=2) pseudo=read geom=check guess=(
 read,tcheck) scf=(maxcycle=1)\\title\\0,1\F,0,-1.997723,0.886937,0.000
 014\S,0,-1.144446,-0.581204,-0.000019\N,0,0.429601,-0.427555,-0.000003
 \N,0,1.222671,0.521741,0.000008\C,0,2.627723,0.097776,0.000016\H,0,3.1
 08279,0.530273,-0.881605\H,0,2.741858,-0.989668,0.000015\H,0,3.108266,
 0.53027,0.881646\\Version=ES64L-G16RevC.01\State=1-A\HF=-646.66029\RMS
 D=1.221e-01\Dipole=-0.9587707,0.4382503,0.0000065\Quadrupole=5.2994653

 Normal termination of Gaussian 16 at Wed Apr  9 00:23:42 2025.
