 Gaussian 16, Revision C.01,

 ----------------------------------------------------------------------
 #t hf aug-cc-pvdz symm=none int=(grid=ultrafine) guess=(read,tcheck) s
 table=(opt,rrhf)
 ----------------------------------------------------------------------
 -----
 title
 -----
 Symbolic Z-matrix:
 Charge =  0 Multiplicity = 1

 SCF Done:  E(RHF) =  -436.562643229     A.U. after   12 cycles
 Normal termination of Gaussian 16 at Tue Apr  8 23:35:04 2025.
 Gaussian 16:  ES64L-G16RevC.01  3-Jul-2019

 ----------------------------------------------------------------------
 #t hf aug-cc-pvdz iop(5/13=1,5/36=2,99/5=2) pseudo=read geom=check gue
 ss=(read,tcheck) scf=(maxcycle=1)
 ----------------------------------------------------------------------
 -----
 title
 -----
 Structure from the checkpoint file:  "BDE49_nonexpt_1467_mol1.chk"
 Charge =  0 Multiplicity = 1

                         Standard orientation:
 ---------------------------------------------------------------------
 Center     Atomic      Atomic             Coordinates (Angstroms)
 Number     Number       Type             X           Y           Z
 ---------------------------------------------------------------------
      1          6           0        1.434322    0.465643   -0.015557
      2         15           0       -0.070325   -0.610931   -0.083610
      3          1           0        1.385272    1.216691    0.777009
      4          1           0        1.555217    0.971725   -0.975224
      5          1           0        2.310775   -0.166330    0.155312
      6          7           0       -1.311108    0.571224   -0.037946
      7          1           0       -2.196314    0.264008   -0.413719
      8          1           0       -1.440182    1.131256    0.795046
      9          1           0        0.011926   -1.045802    1.274691
 ---------------------------------------------------------------------

 SCF Done:  E(RHF) =  -437.240921229     A.U. after    2 cycles

 The electronic state is 1-A.
 Alpha  occ. eigenvalues -- -105.17695 -15.73827 -11.36085  -2.75873  -1.54144
 Alpha  occ. eigenvalues --   -1.46122  -1.42801  -1.17296  -0.99095  -0.68719
 Alpha  occ. eigenvalues --   -0.64431  -0.55691  -0.55668  -0.40788  -0.27735
 Alpha  occ. eigenvalues --   -0.22307  -0.01207
 Alpha virt. eigenvalues --    0.04744   0.05312   0.06470   0.06647   0.07638
 Alpha virt. eigenvalues --    0.07788   0.10636   0.11171   0.13224   0.15670
 Alpha virt. eigenvalues --    0.16524   0.17781   0.18696   0.20286   0.21259

 Mulliken charges:
               1
     1  C   -5.416393
     2  P    4.255449
     3  H    1.014718
     4  H    1.037666
     5  H    1.240768
     6  N   -2.400565
     7  H    0.527832
     8  H    0.435290
     9  H   -0.694764
 Sum of Mulliken charges =  -0.00000

 Dipole moment (field-independent basis, Debye):
    X=             -1.1935    Y=             -0.2607    Z=              1.0790  Tot=              1.6299

 Test job not archived.
 1\1\GINC-SE195\SP\RHF\Aug-CC-pVDZ\C1H6N1P1\OHZDE\08-Apr-2025\0\\#t hf
 aug-cc-pvdz iop(5/13=1,5/36=2,99/5=2) pseudo=read geom=check guess=(re
 ad,tcheck) scf=(maxcycle=1)\\title\\0,1\C,0,1.434322,0.465643,-0.01555
 7\P,0,-0.070325,-0.610931,-0.08361\H,0,1.385272,1.216691,0.777009\H,0,
 1.555217,0.971725,-0.975224\H,0,2.310775,-0.16633,0.155312\N,0,-1.3111
 08,0.571224,-0.037946\H,0,-2.196314,0.264008,-0.413719\H,0,-1.440182,1
 .131256,0.795046\H,0,0.011926,-1.045802,1.274691\\Version=ES64L-G16Rev
 C.01\State=1-A\HF=-437.2409212\RMSD=2.471e-01\Dipole=-0.4695496,-0.102

 Normal termination of Gaussian 16 at Tue Apr  8 23:35:07 2025.
