 Gaussian 16, Revision C.01,

 ----------------------------------------------------------------------
 #t hf aug-cc-pvdz symm=none int=(grid=ultrafine) guess=(read,tcheck) s
 table=(opt,rrhf)
 ----------------------------------------------------------------------
 -----
 title
 -----
 Symbolic Z-matrix:
 Charge =  0 Multiplicity = 1

 SCF Done:  E(RHF) =  -703.324663852     A.U. after   14 cycles
 Normal termination of Gaussian 16 at Tue Apr  8 22:48:01 2025.
 Gaussian 16:  ES64L-G16RevC.01  3-Jul-2019

 ----------------------------------------------------------------------
 #t hf aug-cc-pvdz iop(5/13=1,5/36=2,99/5=2) pseudo=read geom=check gue
 ss=(read,tcheck) scf=(maxcycle=1)
 ----------------------------------------------------------------------
 -----
 title
 -----
 Structure from the checkpoint file:  "BDE49_expt_1600_mol1.chk"
 Charge =  0 Multiplicity = 1

                         Standard orientation:
 ---------------------------------------------------------------------
 Center     Atomic      Atomic             Coordinates (Angstroms)
 Number     Number       Type             X           Y           Z
 ---------------------------------------------------------------------
      1         16           0        0.870603   -0.102754    0.030733
      2          6           0       -0.711841   -0.682949   -0.668247
      3          6           0        0.704833    1.685562    0.073773
      4          8           0        1.905369   -0.434066   -0.928798
      5          8           0        0.948863   -0.574796    1.399939
      6          1           0        0.620585    2.062612   -0.944690
      7          1           0        1.619661    2.052815    0.539469
      8          1           0       -0.162801    1.952702    0.674835
      9          6           0       -1.880475   -0.434997    0.230314
     10          1           0       -0.517876   -1.751204   -0.808824
     11          6           0       -2.930745    0.311551   -0.100896
     12          1           0       -1.831121   -0.909791    1.205456
     13          1           0       -3.007879    0.795644   -1.069855
     14          1           0       -3.759111    0.454184    0.583089
     15          1           0       -0.815599   -0.217011   -1.650012
 ---------------------------------------------------------------------

 SCF Done:  E(RHF) =  -705.008270622     A.U. after    2 cycles

 The electronic state is 1-A.
 Alpha  occ. eigenvalues --  -75.87776 -21.03862 -21.03826 -13.50300 -13.40125
 Alpha  occ. eigenvalues --  -13.33801 -11.46202 -11.43313 -11.42275 -11.39965
 Alpha  occ. eigenvalues --   -8.22937  -1.82362  -1.64268  -1.25546  -1.14497
 Alpha  occ. eigenvalues --   -1.05023  -0.88444  -0.81698  -0.69054  -0.64940
 Alpha  occ. eigenvalues --   -0.63641  -0.61773  -0.59000  -0.56061  -0.52634
 Alpha  occ. eigenvalues --   -0.51856  -0.42746  -0.40754  -0.38767  -0.37672
 Alpha  occ. eigenvalues --   -0.34772  -0.33144
 Alpha virt. eigenvalues --    0.02524   0.04408   0.04789   0.05213   0.06076
 Alpha virt. eigenvalues --    0.06487   0.06725   0.07007   0.10172   0.10445
 Alpha virt. eigenvalues --    0.11652   0.13178   0.13682   0.13942   0.14083

 Mulliken charges:
               1
     1  S    6.641074
     2  C   -4.708140
     3  C   -4.744422
     4  O   -2.591912
     5  O   -2.621209
     6  H    1.301611
     7  H    1.381056
     8  H    1.469988
     9  C   -0.364872
    10  H    1.524744
    11  C   -3.097562
    12  H    1.507933
    13  H    1.412776
    14  H    1.379534
    15  H    1.509403
 Sum of Mulliken charges =  -0.00000

 Dipole moment (field-independent basis, Debye):
    X=             -1.9835    Y=              1.2401    Z=             -0.5172  Tot=              2.3957

 Test job not archived.
 1\1\GINC-SE460\SP\RHF\Aug-CC-pVDZ\C4H8O2S1\OHZDE\08-Apr-2025\0\\#t hf
 aug-cc-pvdz iop(5/13=1,5/36=2,99/5=2) pseudo=read geom=check guess=(re
 ad,tcheck) scf=(maxcycle=1)\\title\\0,1\S,0,0.870603,-0.102754,0.03073
 3\C,0,-0.711841,-0.682949,-0.668247\C,0,0.704833,1.685562,0.073773\O,0
 ,1.905369,-0.434066,-0.928798\O,0,0.948863,-0.574796,1.399939\H,0,0.62
 0585,2.062612,-0.94469\H,0,1.619661,2.052815,0.539469\H,0,-0.162801,1.
 952702,0.674835\C,0,-1.880475,-0.434997,0.230314\H,0,-0.517876,-1.7512
 04,-0.808824\C,0,-2.930745,0.311551,-0.100896\H,0,-1.831121,-0.909791,

 Normal termination of Gaussian 16 at Tue Apr  8 22:48:07 2025.
