 Gaussian 16, Revision C.01,

 ----------------------------------------------------------------------
 #t hf aug-cc-pvdz symm=none int=(grid=ultrafine) guess=(read,tcheck) s
 table=(opt,rrhf)
 ----------------------------------------------------------------------
 -----
 title
 -----
 Symbolic Z-matrix:
 Charge =  0 Multiplicity = 1

 SCF Done:  E(RHF) =  -1325.09037177     A.U. after   13 cycles
 Normal termination of Gaussian 16 at Tue Apr  8 23:46:25 2025.
 Gaussian 16:  ES64L-G16RevC.01  3-Jul-2019

 ----------------------------------------------------------------------
 #t hf aug-cc-pvdz iop(5/13=1,5/36=2,99/5=2) pseudo=read geom=check gue
 ss=(read,tcheck) scf=(maxcycle=1)
 ----------------------------------------------------------------------
 -----
 title
 -----
 Structure from the checkpoint file:  "BDE49_nonexpt_1760_mol1.chk"
 Charge =  0 Multiplicity = 1

                         Standard orientation:
 ---------------------------------------------------------------------
 Center     Atomic      Atomic             Coordinates (Angstroms)
 Number     Number       Type             X           Y           Z
 ---------------------------------------------------------------------
      1         14           0        1.706037    1.003653    0.000003
      2          6           0       -0.099023    0.581978   -0.000001
      3          6           0       -0.600983   -0.652742    0.000004
      4         17           0        2.855685   -0.739567    0.000003
      5          6           0       -2.043059   -1.060533    0.000002
      6          1           0       -2.269779   -1.660714   -0.883152
      7         17           0       -3.227280    0.305048   -0.000008
      8          1           0       -2.269783   -1.660706    0.883160
      9          1           0       -0.796356    1.419613   -0.000007
     10          1           0        0.068828   -1.512520    0.000010
     11          1           0        2.079039    1.768887    1.206261
     12          1           0        2.079042    1.768889   -1.206253
 ---------------------------------------------------------------------

 SCF Done:  E(RHF) =  -1326.30801356     A.U. after    2 cycles

 The electronic state is 1-A.
 Alpha  occ. eigenvalues --  -99.88697 -99.88369 -76.26279 -11.47430 -11.44178
 Alpha  occ. eigenvalues --  -11.38724 -10.45965 -10.45772  -9.65821  -9.65689
 Alpha  occ. eigenvalues --   -9.65266  -9.65115  -9.65041  -9.64975  -5.59847
 Alpha  occ. eigenvalues --   -2.23895  -2.22311  -2.21478  -1.35050  -1.28796
 Alpha  occ. eigenvalues --   -1.18215  -1.01102  -0.83146  -0.76316  -0.65740
 Alpha  occ. eigenvalues --   -0.65469  -0.61696  -0.55522  -0.55430  -0.55128
 Alpha  occ. eigenvalues --   -0.51445  -0.49056  -0.48527  -0.47568  -0.43613
 Alpha  occ. eigenvalues --   -0.38357
 Alpha virt. eigenvalues --    0.02920   0.04573   0.05421   0.05788   0.06209
 Alpha virt. eigenvalues --    0.06534   0.06981   0.07766   0.09345   0.09675
 Alpha virt. eigenvalues --    0.10373   0.11496   0.12359   0.12585   0.13437

 Mulliken charges:
               1
     1  Si   5.613678
     2  C   -3.463258
     3  C    1.029840
     4  Cl  -0.914835
     5  C   -4.253609
     6  H    1.475935
     7  Cl   0.052270
     8  H    1.475935
     9  H    1.309224
    10  H    1.442527
    11  H   -1.883855
    12  H   -1.883853
 Sum of Mulliken charges =  -0.00000

 Dipole moment (field-independent basis, Debye):
    X=             -0.5539    Y=             -1.0042    Z=              0.0000  Tot=              1.1469

 Test job not archived.
 1\1\GINC-SE334\SP\RHF\Aug-CC-pVDZ\C3H6Cl2Si1\OHZDE\08-Apr-2025\0\\#t h
 f aug-cc-pvdz iop(5/13=1,5/36=2,99/5=2) pseudo=read geom=check guess=(
 read,tcheck) scf=(maxcycle=1)\\title\\0,1\Si,0,1.706037,1.003653,0.000
 003\C,0,-0.099023,0.581978,-0.000001\C,0,-0.600983,-0.652742,0.000004\
 Cl,0,2.855685,-0.739567,0.000003\C,0,-2.043059,-1.060533,0.000002\H,0,
 -2.269779,-1.660714,-0.883152\Cl,0,-3.22728,0.305048,-0.000008\H,0,-2.
 269783,-1.660706,0.88316\H,0,-0.796356,1.419613,-0.000007\H,0,0.068828
 ,-1.51252,0.00001\H,0,2.079039,1.768887,1.206261\H,0,2.079042,1.768889

 Normal termination of Gaussian 16 at Tue Apr  8 23:46:30 2025.
