 Gaussian 16, Revision C.01,

 ----------------------------------------------------------------------
 #t hf aug-cc-pvdz symm=none int=(grid=ultrafine) guess=(read,tcheck) s
 table=(opt,rrhf)
 ----------------------------------------------------------------------
 -----
 title
 -----
 Symbolic Z-matrix:
 Charge =  0 Multiplicity = 1

 SCF Done:  E(RHF) =  -429.231450484     A.U. after   11 cycles
 Normal termination of Gaussian 16 at Tue Apr  8 23:50:17 2025.
 Gaussian 16:  ES64L-G16RevC.01  3-Jul-2019

 ----------------------------------------------------------------------
 #t hf aug-cc-pvdz iop(5/13=1,5/36=2,99/5=2) pseudo=read geom=check gue
 ss=(read,tcheck) scf=(maxcycle=1)
 ----------------------------------------------------------------------
 -----
 title
 -----
 Structure from the checkpoint file:  "BDE49_nonexpt_1842_mol1.chk"
 Charge =  0 Multiplicity = 1

                         Standard orientation:
 ---------------------------------------------------------------------
 Center     Atomic      Atomic             Coordinates (Angstroms)
 Number     Number       Type             X           Y           Z
 ---------------------------------------------------------------------
      1          6           0        1.509474   -0.359401    0.000001
      2         14           0       -0.149785    0.484602    0.000001
      3          1           0       -0.332645    1.313905    1.210777
      4          9           0       -1.319368   -0.629827   -0.000003
      5          1           0       -0.332643    1.313910   -1.210772
      6          1           0        1.634898   -0.987640    0.886067
      7          1           0        2.309947    0.387874    0.000007
      8          1           0        1.634903   -0.987631   -0.886072
 ---------------------------------------------------------------------

 SCF Done:  E(RHF) =  -429.951007493     A.U. after    2 cycles

 The electronic state is 1-A.
 Alpha  occ. eigenvalues --  -76.24499 -29.25634 -11.35827  -5.58924  -2.23946
 Alpha  occ. eigenvalues --   -2.21144  -2.19946  -1.05889  -0.83970  -0.60174
 Alpha  occ. eigenvalues --   -0.57724  -0.55310  -0.49563  -0.46002  -0.32661
 Alpha  occ. eigenvalues --   -0.31829  -0.31182
 Alpha virt. eigenvalues --    0.03490   0.05283   0.05996   0.06076   0.08224
 Alpha virt. eigenvalues --    0.08276   0.08690   0.10390   0.14642   0.15469
 Alpha virt. eigenvalues --    0.16540   0.17145   0.17626   0.18352   0.22209

 Mulliken charges:
               1
     1  C   -4.828896
     2  Si   5.734600
     3  H   -1.803426
     4  F   -1.042845
     5  H   -1.803426
     6  H    1.228642
     7  H    1.286710
     8  H    1.228641
 Sum of Mulliken charges =  -0.00000

 Dipole moment (field-independent basis, Debye):
    X=             -0.6682    Y=             -1.6566    Z=             -0.0000  Tot=              1.7863

 Test job not archived.
 1\1\GINC-SE273\SP\RHF\Aug-CC-pVDZ\C1H5F1Si1\OHZDE\08-Apr-2025\0\\#t hf
  aug-cc-pvdz iop(5/13=1,5/36=2,99/5=2) pseudo=read geom=check guess=(r
 ead,tcheck) scf=(maxcycle=1)\\title\\0,1\C,0,1.509474,-0.3594,0.000001
 \Si,0,-0.149785,0.484602,0.000001\H,0,-0.332646,1.313905,1.210777\F,0,
 -1.319368,-0.629828,-0.000003\H,0,-0.332644,1.31391,-1.210772\H,0,1.63
 4898,-0.987639,0.886067\H,0,2.309947,0.387875,0.000007\H,0,1.634903,-0
 .98763,-0.886072\\Version=ES64L-G16RevC.01\State=1-A\HF=-429.9510075\R
 MSD=1.010e-01\Dipole=-0.2629018,-0.6517673,-0.0000013\Quadrupole=1.265

 Normal termination of Gaussian 16 at Tue Apr  8 23:50:19 2025.
