 Gaussian 16, Revision C.01,

 ----------------------------------------------------------------------
 #t hf aug-cc-pvdz symm=none int=(grid=ultrafine) guess=(read,tcheck) s
 table=opt
 ----------------------------------------------------------------------
 -----
 title
 -----
 Symbolic Z-matrix:
 Charge =  0 Multiplicity = 2

 SCF Done:  E(UHF) =  -440.471863611     A.U. after   14 cycles

 1\1\GINC-SE331\Stability\UHF\Aug-CC-pVDZ\H3O2Si1\OHZDE\08-Apr-2025\0\\
 #t hf aug-cc-pvdz symm=none int=(grid=ultrafine) guess=(read,tcheck) s
 table=opt\\title\\0,2\Si,0,-0.001116,0.490808,-0.142004\O,0,1.375505,-
 0.387241,0.133887\H,0,1.583634,-1.112588,-0.461112\O,0,-1.37798,-0.414
 93,-0.041306\H,0,-1.595445,-0.867848,0.780029\H,0,0.047231,1.526491,0.
 928494\\Version=ES64L-G16RevC.01\HF=-440.4718636\S2=0.753542\S2-1=0.\S
 2A=0.750006\RMSD=7.141e-09\Dipole=-0.0092172,-0.4387579,0.0868839\Quad
 rupole=-1.802579,1.3882444,0.4143346,-0.7008039,-3.4811972,-0.0980543\

 Normal termination of Gaussian 16 at Tue Apr  8 23:50:16 2025.
 Gaussian 16:  ES64L-G16RevC.01  3-Jul-2019

 ----------------------------------------------------------------------
 #t hf aug-cc-pvdz iop(5/13=1,5/36=2,99/5=2) pseudo=read geom=check gue
 ss=(read,tcheck) scf=(maxcycle=1)
 ----------------------------------------------------------------------
 -----
 title
 -----
 Structure from the checkpoint file:  "BDE49_nonexpt_1862_mol2.chk"
 Charge =  0 Multiplicity = 2

                         Standard orientation:
 ---------------------------------------------------------------------
 Center     Atomic      Atomic             Coordinates (Angstroms)
 Number     Number       Type             X           Y           Z
 ---------------------------------------------------------------------
      1         14           0       -0.001116    0.490808   -0.142004
      2          8           0        1.375505   -0.387241    0.133887
      3          1           0        1.583634   -1.112588   -0.461112
      4          8           0       -1.377980   -0.414930   -0.041306
      5          1           0       -1.595445   -0.867848    0.780029
      6          1           0        0.047232    1.526491    0.928494
 ---------------------------------------------------------------------

 SCF Done:  E(UHF) =  -441.230852867     A.U. after    2 cycles

 The electronic state is 2-A.
 Alpha  occ. eigenvalues --  -76.26184 -21.08535 -21.08250  -5.60054  -2.27525
 Alpha  occ. eigenvalues --   -2.23092  -2.20120  -1.68828  -1.64344  -0.74664
 Alpha  occ. eigenvalues --   -0.62365  -0.54048  -0.48152  -0.45140  -0.39682
 Alpha  occ. eigenvalues --   -0.36210  -0.27301
 Alpha virt. eigenvalues --    0.03857   0.05794   0.06176   0.07243   0.07632
 Alpha virt. eigenvalues --    0.08685   0.13289   0.16578   0.18617   0.19964
 Alpha virt. eigenvalues --    0.21424   0.22619   0.23167   0.23443   0.24490

  Beta  occ. eigenvalues --  -76.25633 -21.08161 -21.08073  -5.59138  -2.26919
  Beta  occ. eigenvalues --   -2.22425  -2.16962  -1.68056  -1.63727  -0.71331
  Beta  occ. eigenvalues --   -0.61398  -0.52322  -0.47347  -0.42300  -0.38815
  Beta  occ. eigenvalues --   -0.36021
  Beta virt. eigenvalues --    0.03149   0.05578   0.06032   0.06802   0.07465
  Beta virt. eigenvalues --    0.08246   0.09857   0.15370   0.18560   0.19829
  Beta virt. eigenvalues --    0.20661   0.21968   0.22967   0.23582   0.24445

 Mulliken charges and spin densities:
               1          2
     1  Si   4.398012   0.971390
     2  O   -2.467124   0.017554
     3  H    1.014628  -0.007283
     4  O   -2.361795  -0.058094
     5  H    0.970897   0.006644
     6  H   -1.554618   0.069790
 Sum of Mulliken charges =  -0.00000   1.00000

 Dipole moment (field-independent basis, Debye):
    X=              0.0463    Y=             -1.1184    Z=             -0.0736  Tot=              1.1217
                          Isotropic Fermi Contact Couplings
        Atom                 a.u.       MegaHertz       Gauss      10(-4) cm-1
     1  Si(29)             0.65136    -578.87814    -206.55811    -193.09296
     2  O(17)              0.03253     -19.71993      -7.03656      -6.57786
     3  H(1)              -0.00059      -2.63608      -0.94062      -0.87930
     4  O(17)              0.09581     -58.08086     -20.72470     -19.37369
     5  H(1)               0.00912      40.74517      14.53889      13.59113
     6  H(1)               0.02512     112.29157      40.06843      37.45644
 --------------------------------------------------------
       Center         ----  Spin Dipole Couplings  ----

 Normal termination of Gaussian 16 at Tue Apr  8 23:50:18 2025.
