 Gaussian 16, Revision C.01,

 ----------------------------------------------------------------------
 #t hf aug-cc-pvdz symm=none int=(grid=ultrafine) guess=(read,tcheck) s
 table=(opt,rrhf)
 ----------------------------------------------------------------------
 -----
 title
 -----
 Symbolic Z-matrix:
 Charge =  0 Multiplicity = 1

 SCF Done:  E(RHF) =  -963.918113258     A.U. after   15 cycles
 Normal termination of Gaussian 16 at Tue Apr  8 23:17:02 2025.
 Gaussian 16:  ES64L-G16RevC.01  3-Jul-2019

 ----------------------------------------------------------------------
 #t hf aug-cc-pvdz iop(5/13=1,5/36=2,99/5=2) pseudo=read geom=check gue
 ss=(read,tcheck) scf=(maxcycle=1)
 ----------------------------------------------------------------------
 -----
 title
 -----
 Structure from the checkpoint file:  "BDE49_expt_857_mol1.chk"
 Charge =  0 Multiplicity = 1

                         Standard orientation:
 ---------------------------------------------------------------------
 Center     Atomic      Atomic             Coordinates (Angstroms)
 Number     Number       Type             X           Y           Z
 ---------------------------------------------------------------------
      1          6           0       -0.784105    0.002333   -0.036230
      2          6           0       -0.082749    1.207052   -0.027924
      3          6           0        1.306308    1.209426   -0.012547
      4          6           0       -0.083613   -1.204125   -0.027399
      5          6           0        1.304139   -1.206518   -0.011582
      6          6           0        2.011586    0.001630   -0.002536
      7          6           0       -2.284600    0.001175    0.001008
      8          1           0        1.837200    2.153836   -0.011168
      9          1           0       -0.623634   -2.142459   -0.042084
     10          1           0        1.838987   -2.149132   -0.008948
     11         16           0        3.787825   -0.082295    0.015228
     12          1           0        4.011522    1.241127    0.024112
     13          9           0       -2.808395    1.105819   -0.574859
     14          9           0       -2.758946   -0.034939    1.270104
     15          9           0       -2.807010   -1.070695   -0.635199
     16          1           0       -0.621909    2.145834   -0.042720
 ---------------------------------------------------------------------

 SCF Done:  E(RHF) =  -966.410792483     A.U. after    2 cycles

 The electronic state is 1-A.
 Alpha  occ. eigenvalues --  -75.71735 -29.30676 -29.30601 -29.30140 -13.19390
 Alpha  occ. eigenvalues --  -13.16628 -13.03536 -11.61777 -11.53867 -11.46881
 Alpha  occ. eigenvalues --  -11.46504 -11.45681 -11.43581 -11.39362  -8.05734
 Alpha  occ. eigenvalues --   -1.45891  -1.34550  -1.18500  -1.12587  -1.05772
 Alpha  occ. eigenvalues --   -0.92924  -0.88654  -0.87411  -0.84841  -0.77437
 Alpha  occ. eigenvalues --   -0.67849  -0.62466  -0.61150  -0.60556  -0.54197
 Alpha  occ. eigenvalues --   -0.51329  -0.48125  -0.47167  -0.43407  -0.43302
 Alpha  occ. eigenvalues --   -0.41695  -0.40525  -0.36546  -0.34980  -0.34312
 Alpha  occ. eigenvalues --   -0.30100  -0.25701  -0.25193  -0.22711  -0.21006
 Alpha virt. eigenvalues --    0.02881   0.04057   0.04848   0.06648   0.07023
 Alpha virt. eigenvalues --    0.08986   0.09293   0.09780   0.10283   0.10381
 Alpha virt. eigenvalues --    0.11520   0.12252   0.12689   0.13268   0.13448

 Mulliken charges:
               1
     1  C    2.104274
     2  C   -2.518464
     3  C   -2.198689
     4  C   -2.915744
     5  C   -3.305454
     6  C    1.356250
     7  C   -0.706003
     8  H    1.842343
     9  H    1.881057
    10  H    1.810477
    11  S   -1.003182
    12  H    1.046251
    13  F    0.307350
    14  F    0.169654
    15  F    0.273115
    16  H    1.856765
 Sum of Mulliken charges =  -0.00000

 Dipole moment (field-independent basis, Debye):
    X=             -0.1049    Y=             -0.8962    Z=              0.0938  Tot=              0.9072

 Test job not archived.
 1\1\GINC-SE253\SP\RHF\Aug-CC-pVDZ\C7H5F3S1\OHZDE\08-Apr-2025\0\\#t hf
 aug-cc-pvdz iop(5/13=1,5/36=2,99/5=2) pseudo=read geom=check guess=(re
 ad,tcheck) scf=(maxcycle=1)\\title\\0,1\C,0,-0.784105,0.002333,-0.0362
 3\C,0,-0.082749,1.207052,-0.027924\C,0,1.306308,1.209426,-0.012547\C,0
 ,-0.083613,-1.204125,-0.027399\C,0,1.304139,-1.206518,-0.011582\C,0,2.
 011586,0.00163,-0.002536\C,0,-2.2846,0.001175,0.001008\H,0,1.8372,2.15
 3836,-0.011168\H,0,-0.623634,-2.142459,-0.042084\H,0,1.838987,-2.14913
 2,-0.008948\S,0,3.787825,-0.082295,0.015228\H,0,4.011522,1.241127,0.02

 Normal termination of Gaussian 16 at Tue Apr  8 23:17:11 2025.
