 Gaussian 16, Revision C.01,

 ----------------------------------------------------------------------
 #t hf aug-cc-pvdz symm=none int=(grid=ultrafine) guess=(read,tcheck) s
 table=(opt,rrhf)
 ----------------------------------------------------------------------
 -----
 title
 -----
 Symbolic Z-matrix:
 Charge =  0 Multiplicity = 1

 SCF Done:  E(RHF) =  -1640.07802069     A.U. after   13 cycles
 Normal termination of Gaussian 16 at Wed Apr  9 00:32:19 2025.
 Gaussian 16:  ES64L-G16RevC.01  3-Jul-2019

 ----------------------------------------------------------------------
 #t hf aug-cc-pvdz iop(5/13=1,5/36=2,99/5=2) pseudo=read geom=check gue
 ss=(read,tcheck) scf=(maxcycle=1)
 ----------------------------------------------------------------------
 -----
 title
 -----
 Structure from the checkpoint file:  "BDE49_nonexpt_365_mol1.chk"
 Charge =  0 Multiplicity = 1

                         Standard orientation:
 ---------------------------------------------------------------------
 Center     Atomic      Atomic             Coordinates (Angstroms)
 Number     Number       Type             X           Y           Z
 ---------------------------------------------------------------------
      1          9           0       -2.004215    1.132660   -0.256201
      2          9           0       -2.004246   -1.132594   -0.256188
      3          5           0       -1.343100    0.000025   -0.199186
      4          6           0        0.240626    0.000000   -0.021706
      5         17           0        0.989355   -1.464166   -0.721787
      6         17           0        0.453471   -0.000063    1.780986
      7         17           0        0.989403    1.464186   -0.721689
 ---------------------------------------------------------------------

 SCF Done:  E(RHF) =  -1641.76935556     A.U. after    2 cycles

 The electronic state is 1-A.
 Alpha  occ. eigenvalues --  -99.93353 -99.92964 -99.92946 -29.28778 -29.28682
 Alpha  occ. eigenvalues --  -11.54144 -10.50649 -10.50369 -10.50136  -9.70512
 Alpha  occ. eigenvalues --   -9.70215  -9.70053  -9.69726  -9.69701  -9.69419
 Alpha  occ. eigenvalues --   -9.69303  -9.69287  -9.69220  -7.74789  -1.47938
 Alpha  occ. eigenvalues --   -1.32072  -1.31788  -1.19569  -0.97113  -0.81413
 Alpha  occ. eigenvalues --   -0.73830  -0.71974  -0.69454  -0.59357  -0.57041
 Alpha  occ. eigenvalues --   -0.53313  -0.52808  -0.52323  -0.51487  -0.51452
 Alpha  occ. eigenvalues --   -0.49601  -0.46956  -0.37109  -0.36417  -0.30917
 Alpha virt. eigenvalues --   -0.01869   0.04025   0.04259   0.04438   0.04968
 Alpha virt. eigenvalues --    0.06433   0.06622   0.09383   0.11815   0.12224
 Alpha virt. eigenvalues --    0.13326   0.14885   0.14984   0.16185   0.16413

 Mulliken charges:
               1
     1  F   -0.446521
     2  F   -0.446507
     3  B    2.940588
     4  C   -2.820710
     5  Cl   0.269951
     6  Cl   0.233226
     7  Cl   0.269973
 Sum of Mulliken charges =  -0.00000

 Dipole moment (field-independent basis, Debye):
    X=             -4.2720    Y=              0.0001    Z=             -0.3981  Tot=              4.2905

 Test job not archived.
 1\1\GINC-SE227\SP\RHF\Aug-CC-pVDZ\C1B1Cl3F2\OHZDE\09-Apr-2025\0\\#t hf
  aug-cc-pvdz iop(5/13=1,5/36=2,99/5=2) pseudo=read geom=check guess=(r
 ead,tcheck) scf=(maxcycle=1)\\title\\0,1\F,0,-2.004215,1.13266,-0.2562
 01\F,0,-2.004246,-1.132594,-0.256188\B,0,-1.3431,0.000025,-0.199186\C,
 0,0.240626,0.,-0.021706\Cl,0,0.989355,-1.464166,-0.721787\Cl,0,0.45347
 1,-0.000063,1.780986\Cl,0,0.989403,1.464186,-0.721689\\Version=ES64L-G
 16RevC.01\State=1-A\HF=-1641.7693556\RMSD=2.280e-01\Dipole=-1.6807473,
 0.0000312,-0.156605\Quadrupole=1.3912864,2.180313,-3.5715994,-0.000030

 Normal termination of Gaussian 16 at Wed Apr  9 00:32:22 2025.
