 Gaussian 16, Revision C.01,

 ----------------------------------------------------------------------
 #t hf aug-cc-pvdz symm=none int=(grid=ultrafine) guess=(read,tcheck) s
 table=(opt,rrhf)
 ----------------------------------------------------------------------
 -----
 title
 -----
 Symbolic Z-matrix:
 Charge =  0 Multiplicity = 1

 SCF Done:  E(RHF) =  -508.950321531     A.U. after   15 cycles
 Normal termination of Gaussian 16 at Wed Apr  9 00:39:54 2025.
 Gaussian 16:  ES64L-G16RevC.01  3-Jul-2019

 ----------------------------------------------------------------------
 #t hf aug-cc-pvdz iop(5/13=1,5/36=2,99/5=2) pseudo=read geom=check gue
 ss=(read,tcheck) scf=(maxcycle=1)
 ----------------------------------------------------------------------
 -----
 title
 -----
 Structure from the checkpoint file:  "BDE49_nonexpt_589_mol1.chk"
 Charge =  0 Multiplicity = 1

                         Standard orientation:
 ---------------------------------------------------------------------
 Center     Atomic      Atomic             Coordinates (Angstroms)
 Number     Number       Type             X           Y           Z
 ---------------------------------------------------------------------
      1          6           0       -0.307712   -0.341863    0.000002
      2          5           0        2.238875   -0.001052    0.000010
      3          9           0        2.281407    1.331447   -0.000003
      4          9           0        3.405682   -0.651193   -0.000017
      5          6           0       -1.298272   -1.331768    0.000010
      6          6           0       -0.694121    1.004359   -0.000006
      7          6           0       -2.645267   -0.987303    0.000011
      8          6           0       -3.029233    0.351217    0.000004
      9          6           0       -2.045261    1.337204   -0.000004
     10          1           0       -2.327580    2.384092   -0.000010
     11          1           0        0.054543    1.783499   -0.000012
     12          1           0       -3.394755   -1.770659    0.000018
     13          1           0       -4.078325    0.621738    0.000005
     14          1           0       -1.008155   -2.378179    0.000016
     15          7           0        1.046530   -0.743185    0.000001
     16          1           0        1.169575   -1.746306   -0.000004
 ---------------------------------------------------------------------

 SCF Done:  E(RHF) =  -511.073472564     A.U. after    2 cycles

 The electronic state is 1-A.
 Alpha  occ. eigenvalues --  -29.25586 -29.25287 -15.74709 -11.53308 -11.46102
 Alpha  occ. eigenvalues --  -11.43661 -11.41197 -11.40936 -11.36820  -7.71810
 Alpha  occ. eigenvalues --   -1.47256  -1.31211  -1.13519  -1.09913  -1.02379
 Alpha  occ. eigenvalues --   -0.88269  -0.85842  -0.77612  -0.72007  -0.68437
 Alpha  occ. eigenvalues --   -0.68012  -0.59616  -0.58717  -0.58401  -0.55928
 Alpha  occ. eigenvalues --   -0.50364  -0.48572  -0.45854  -0.45040  -0.44009
 Alpha  occ. eigenvalues --   -0.41015  -0.33960  -0.33563  -0.32531  -0.28530
 Alpha  occ. eigenvalues --   -0.27358
 Alpha virt. eigenvalues --    0.01962   0.03224   0.04499   0.04532   0.05208
 Alpha virt. eigenvalues --    0.05640   0.06303   0.07328   0.08146   0.10370
 Alpha virt. eigenvalues --    0.10871   0.11855   0.12259   0.13087   0.13828

 Mulliken charges:
               1
     1  C    3.614927
     2  B    1.690843
     3  F   -1.339945
     4  F   -0.733454
     5  C   -3.826336
     6  C   -0.395205
     7  C   -0.584087
     8  C   -2.795254
     9  C   -0.126982
    10  H    1.507236
    11  H    2.079789
    12  H    1.497451
    13  H    1.561405
    14  H    1.763238
    15  N   -5.278505
    16  H    1.364879
 Sum of Mulliken charges =  -0.00000

 Dipole moment (field-independent basis, Debye):
    X=              2.0400    Y=              0.7462    Z=             -0.0000  Tot=              2.1722

 Test job not archived.
 1\1\GINC-SE186\SP\RHF\Aug-CC-pVDZ\C6H6B1F2N1\OHZDE\09-Apr-2025\0\\#t h
 f aug-cc-pvdz iop(5/13=1,5/36=2,99/5=2) pseudo=read geom=check guess=(
 read,tcheck) scf=(maxcycle=1)\\title\\0,1\C,0,0.307712,-0.341863,-0.00
 0002\B,0,-2.238875,-0.001052,-0.00001\F,0,-2.281407,1.331447,0.000003\
 F,0,-3.405682,-0.651193,0.000017\C,0,1.298272,-1.331768,-0.00001\C,0,0
 .694121,1.004359,0.000006\C,0,2.645267,-0.987303,-0.000011\C,0,3.02923
 3,0.351217,-0.000004\C,0,2.045261,1.337204,0.000004\H,0,2.32758,2.3840
 92,0.00001\H,0,-0.054543,1.783499,0.000012\H,0,3.394755,-1.770659,-0.0

 Normal termination of Gaussian 16 at Wed Apr  9 00:40:02 2025.
