 Gaussian 16, Revision C.01,

 ----------------------------------------------------------------------
 #t hf aug-cc-pvdz symm=none int=(grid=ultrafine) guess=(read,tcheck) s
 table=(opt,rrhf)
 ----------------------------------------------------------------------
 -----
 title
 -----
 Symbolic Z-matrix:
 Charge =  0 Multiplicity = 1

 SCF Done:  E(RHF) =  -635.099901455     A.U. after   13 cycles
 Normal termination of Gaussian 16 at Wed Apr  9 00:06:32 2025.
 Gaussian 16:  ES64L-G16RevC.01  3-Jul-2019

 ----------------------------------------------------------------------
 #t hf aug-cc-pvdz iop(5/13=1,5/36=2,99/5=2) pseudo=read geom=check gue
 ss=(read,tcheck) scf=(maxcycle=1)
 ----------------------------------------------------------------------
 -----
 title
 -----
 Structure from the checkpoint file:  "BDE49_nonexpt_2214_mol1.chk"
 Charge =  0 Multiplicity = 1

                         Standard orientation:
 ---------------------------------------------------------------------
 Center     Atomic      Atomic             Coordinates (Angstroms)
 Number     Number       Type             X           Y           Z
 ---------------------------------------------------------------------
      1          8           0        1.208276    0.435311   -0.653910
      2          6           0        1.886102   -0.390535    0.176441
      3         14           0       -0.043803    1.445733   -0.088481
      4          8           0        1.620593   -0.491304    1.349056
      5          6           0        2.981382   -1.139777   -0.535934
      6          6           0       -1.529358    0.478711    0.510027
      7          1           0        2.559136   -1.709772   -1.366530
      8          1           0        3.486758   -1.805607    0.160222
      9          1           0        3.693682   -0.428773   -0.960989
     10          6           0       -2.168744   -0.460797   -0.530064
     11          1           0       -2.269340    1.217441    0.849193
     12          1           0       -1.230295   -0.084471    1.400451
     13          6           0       -3.396585   -1.202685    0.008191
     14          1           0       -1.426127   -1.191741   -0.868340
     15          1           0       -2.453455    0.113526   -1.419236
     16          1           0       -3.136117   -1.813674    0.877629
     17          1           0       -3.826004   -1.864253   -0.749565
     18          1           0       -4.176011   -0.500076    0.318884
     19          1           0       -0.367715    2.229660   -1.298646
     20          1           0        0.491001    2.335936    0.962530
 ---------------------------------------------------------------------

 SCF Done:  E(RHF) =  -636.856311248     A.U. after    2 cycles

 The electronic state is 1-A.
 Alpha  occ. eigenvalues --  -76.23385 -21.07704 -21.05131 -11.52557 -11.41520
 Alpha  occ. eigenvalues --  -11.39582 -11.37399 -11.34427  -5.57066  -2.23527
 Alpha  occ. eigenvalues --   -2.20379  -2.19125  -1.80957  -1.64364  -1.20632
 Alpha  occ. eigenvalues --   -1.10976  -0.99882  -0.85301  -0.80668  -0.69162
 Alpha  occ. eigenvalues --   -0.63833  -0.63028  -0.62038  -0.59819  -0.57390
 Alpha  occ. eigenvalues --   -0.54194  -0.53745  -0.51073  -0.49967  -0.47583
 Alpha  occ. eigenvalues --   -0.46712  -0.45552  -0.41127  -0.37715  -0.34069
 Alpha  occ. eigenvalues --   -0.29866
 Alpha virt. eigenvalues --    0.03537   0.04847   0.05156   0.05345   0.05715
 Alpha virt. eigenvalues --    0.05965   0.06549   0.07014   0.07053   0.07535
 Alpha virt. eigenvalues --    0.07730   0.08621   0.10076   0.11045   0.11468

 Mulliken charges:
               1
     1  O   -3.553773
     2  C    5.788225
     3  Si   6.094073
     4  O   -2.988078
     5  C   -4.416988
     6  C   -4.147804
     7  H    1.305916
     8  H    1.286875
     9  H    1.280747
    10  C   -2.715182
    11  H    1.440507
    12  H    1.631064
    13  C   -3.887162
    14  H    1.572021
    15  H    1.469611
    16  H    1.253578
    17  H    1.146919
    18  H    1.278945
    19  H   -1.877387
    20  H   -1.962105
 Sum of Mulliken charges =   0.00000

 Dipole moment (field-independent basis, Debye):
    X=             -0.2759    Y=             -0.6218    Z=             -0.9653  Tot=              1.1809

 Test job not archived.
 1\1\GINC-SE361\SP\RHF\Aug-CC-pVDZ\C5H12O2Si1\OHZDE\09-Apr-2025\0\\#t h
 f aug-cc-pvdz iop(5/13=1,5/36=2,99/5=2) pseudo=read geom=check guess=(
 read,tcheck) scf=(maxcycle=1)\\title\\0,1\O,0,1.208276,0.435311,-0.653
 91\C,0,1.886102,-0.390535,0.176441\Si,0,-0.043803,1.445733,-0.088481\O
 ,0,1.620593,-0.491304,1.349056\C,0,2.981382,-1.139777,-0.535934\C,0,-1
 .529358,0.478711,0.510027\H,0,2.559136,-1.709772,-1.36653\H,0,3.486758
 ,-1.805607,0.160222\H,0,3.693682,-0.428773,-0.960989\C,0,-2.168744,-0.
 460797,-0.530064\H,0,-2.26934,1.217441,0.849193\H,0,-1.230295,-0.08447

 Normal termination of Gaussian 16 at Wed Apr  9 00:06:40 2025.
