 Gaussian 16, Revision C.01,

 ----------------------------------------------------------------------
 #t hf aug-cc-pvdz symm=none int=(grid=ultrafine) guess=(read,tcheck) s
 table=(opt,rrhf)
 ----------------------------------------------------------------------
 -----
 title
 -----
 Symbolic Z-matrix:
 Charge =  0 Multiplicity = 1

 SCF Done:  E(RHF) =  -655.280186265     A.U. after   12 cycles
 Normal termination of Gaussian 16 at Tue Apr  8 22:33:52 2025.
 Gaussian 16:  ES64L-G16RevC.01  3-Jul-2019

 ----------------------------------------------------------------------
 #t hf aug-cc-pvdz iop(5/13=1,5/36=2,99/5=2) pseudo=read geom=check gue
 ss=(read,tcheck) scf=(maxcycle=1)
 ----------------------------------------------------------------------
 -----
 title
 -----
 Structure from the checkpoint file:  "BDE49_expt_1039_mol1.chk"
 Charge =  0 Multiplicity = 1

                         Standard orientation:
 ---------------------------------------------------------------------
 Center     Atomic      Atomic             Coordinates (Angstroms)
 Number     Number       Type             X           Y           Z
 ---------------------------------------------------------------------
      1          6           0       -1.131935    0.122837    0.947535
      2          6           0        0.217403   -0.566053    0.810961
      3         17           0       -2.171147   -0.073837   -0.540906
      4          1           0       -1.044362    1.196530    1.102165
      5          1           0       -1.713519   -0.306372    1.761362
      6          6           0        1.158657   -0.027456   -0.281929
      7          1           0        0.047870   -1.635402    0.649332
      8          1           0        0.714323   -0.473862    1.787694
      9          6           0        2.419885   -0.898713   -0.359684
     10          1           0        2.986495   -0.856219    0.577179
     11          1           0        3.081400   -0.560966   -1.162107
     12          1           0        2.169920   -1.946161   -0.551595
     13          6           0        1.526884    1.446821   -0.065282
     14          1           0        0.633378   -0.109123   -1.240120
     15          1           0        2.023283    1.590239    0.901228
     16          1           0        0.651786    2.100979   -0.095922
     17          1           0        2.213565    1.790978   -0.843423
 ---------------------------------------------------------------------

 SCF Done:  E(RHF) =  -656.557147511     A.U. after    2 cycles

 The electronic state is 1-A.
 Alpha  occ. eigenvalues --  -99.86966 -11.45696 -11.41964 -11.39721 -11.38445
 Alpha  occ. eigenvalues --  -11.35004 -10.44200  -9.64126  -9.63510  -9.63386
 Alpha  occ. eigenvalues --   -1.33914  -1.24186  -1.07991  -1.00255  -0.91438
 Alpha  occ. eigenvalues --   -0.80493  -0.67019  -0.64925  -0.60748  -0.59618
 Alpha  occ. eigenvalues --   -0.57197  -0.53827  -0.52778  -0.51274  -0.47819
 Alpha  occ. eigenvalues --   -0.47100  -0.44811  -0.43131  -0.41928
 Alpha virt. eigenvalues --    0.03783   0.04871   0.05516   0.05750   0.05864
 Alpha virt. eigenvalues --    0.06094   0.06320   0.06423   0.07202   0.08917
 Alpha virt. eigenvalues --    0.09282   0.09727   0.12274   0.13530   0.13926

 Mulliken charges:
               1
     1  C   -3.903476
     2  C   -2.479043
     3  Cl   0.075255
     4  H    1.770118
     5  H    1.363489
     6  C   -1.211077
     7  H    1.484800
     8  H    1.377010
     9  C   -3.945268
    10  H    1.336230
    11  H    1.228800
    12  H    1.285142
    13  C   -4.096576
    14  H    1.744421
    15  H    1.289733
    16  H    1.420382
    17  H    1.260057
 Sum of Mulliken charges =  -0.00000

 Dipole moment (field-independent basis, Debye):
    X=              1.6911    Y=              0.1316    Z=              1.6392  Tot=              2.3588

 Test job not archived.
 1\1\GINC-SE073\SP\RHF\Aug-CC-pVDZ\C5H11Cl1\OHZDE\08-Apr-2025\0\\#t hf
 aug-cc-pvdz iop(5/13=1,5/36=2,99/5=2) pseudo=read geom=check guess=(re
 ad,tcheck) scf=(maxcycle=1)\\title\\0,1\C,0,-1.131935,0.122837,0.94753
 5\C,0,0.217403,-0.566053,0.810961\Cl,0,-2.171147,-0.073837,-0.540906\H
 ,0,-1.044362,1.19653,1.102165\H,0,-1.713519,-0.306372,1.761362\C,0,1.1
 58657,-0.027456,-0.281929\H,0,0.04787,-1.635402,0.649332\H,0,0.714323,
 -0.473862,1.787694\C,0,2.419885,-0.898713,-0.359684\H,0,2.986495,-0.85
 6219,0.577179\H,0,3.0814,-0.560966,-1.162107\H,0,2.16992,-1.946161,-0.

 Normal termination of Gaussian 16 at Tue Apr  8 22:33:58 2025.
