 Gaussian 16, Revision C.01,

 ----------------------------------------------------------------------
 #t hf aug-cc-pvdz symm=none int=(grid=ultrafine) guess=(read,tcheck) s
 table=opt
 ----------------------------------------------------------------------
 -----
 title
 -----
 Symbolic Z-matrix:
 Charge =  0 Multiplicity = 2

 SCF Done:  E(UHF) =  -950.587580741     A.U. after   19 cycles
 Normal termination of Gaussian 16 at Tue Apr  8 23:06:23 2025.
 Gaussian 16:  ES64L-G16RevC.01  3-Jul-2019

 ----------------------------------------------------------------------
 #t hf aug-cc-pvdz iop(5/13=1,5/36=2,99/5=2) pseudo=read geom=check gue
 ss=(read,tcheck) scf=(maxcycle=1)
 ----------------------------------------------------------------------
 -----
 title
 -----
 Structure from the checkpoint file:  "BDE49_expt_380_mol2.chk"
 Charge =  0 Multiplicity = 2

                         Standard orientation:
 ---------------------------------------------------------------------
 Center     Atomic      Atomic             Coordinates (Angstroms)
 Number     Number       Type             X           Y           Z
 ---------------------------------------------------------------------
      1          6           0       -0.000466   -1.233382    0.608291
      2         16           0        1.550417   -0.776449   -0.311409
      3          6           0        1.332854    0.990155    0.059486
      4         16           0       -0.476619    1.384527    0.044556
      5          1           0        1.822847    1.579454   -0.714628
      6          1           0        1.743195    1.245539    1.036145
      7          6           0       -1.051734   -0.246435    0.243021
      8          6           0       -2.371727   -0.644719   -0.336960
      9          1           0       -2.249839   -1.090210   -1.336756
     10          1           0       -3.042631    0.210050   -0.442614
     11          1           0       -2.873712   -1.387124    0.292158
     12          1           0        0.236157   -1.230713    1.677680
     13          1           0       -0.270352   -2.249960    0.314639
 ---------------------------------------------------------------------

 SCF Done:  E(UHF) =  -951.809787733     A.U. after    2 cycles

 The electronic state is 2-A.
 Alpha  occ. eigenvalues --  -75.68860 -75.68543 -13.14519 -13.12634 -13.10348
 Alpha  occ. eigenvalues --  -13.09283 -13.02793 -13.01984 -11.43725 -11.42152
 Alpha  occ. eigenvalues --  -11.40752 -11.37638  -8.03119  -8.02490  -1.34814
 Alpha  occ. eigenvalues --   -1.15064  -1.10554  -1.00563  -0.87691  -0.78414
 Alpha  occ. eigenvalues --   -0.65144  -0.62620  -0.61067  -0.58981  -0.54650
 Alpha  occ. eigenvalues --   -0.48107  -0.45566  -0.42762  -0.37200  -0.32361
 Alpha  occ. eigenvalues --   -0.22677  -0.18723
 Alpha virt. eigenvalues --    0.02922   0.03682   0.04945   0.05605   0.06537
 Alpha virt. eigenvalues --    0.07021   0.07400   0.07962   0.09883   0.10726
 Alpha virt. eigenvalues --    0.12259   0.13414   0.13455   0.14429   0.15076

  Beta  occ. eigenvalues --  -75.68830 -75.68465 -13.14829 -13.12351 -13.10260
  Beta  occ. eigenvalues --  -13.09210 -13.02636 -13.01539 -11.43199 -11.42123
  Beta  occ. eigenvalues --  -11.40488 -11.36624  -8.03078  -8.02401  -1.32803
  Beta  occ. eigenvalues --   -1.12798  -1.10234  -1.00168  -0.87336  -0.73935
  Beta  occ. eigenvalues --   -0.64181  -0.60620  -0.60317  -0.56617  -0.54053
  Beta  occ. eigenvalues --   -0.47553  -0.44275  -0.40708  -0.34231  -0.26381
  Beta  occ. eigenvalues --   -0.22365
  Beta virt. eigenvalues --    0.02857   0.03496   0.04837   0.05618   0.06533
  Beta virt. eigenvalues --    0.06968   0.07413   0.07661   0.09703   0.10264
  Beta virt. eigenvalues --    0.11407   0.13436   0.13570   0.13723   0.14478

 Mulliken charges and spin densities:
               1          2
     1  C   -4.212233  -0.390313
     2  S    1.168504   0.073865
     3  C   -4.283684  -0.016279
     4  S    1.239754   0.044167
     5  H    1.574505  -0.001720
     6  H    1.556534  -0.001553
     7  C    0.636622   1.563314
     8  C   -4.337457  -0.339229
     9  H    1.198285   0.029454
    10  H    1.360720   0.000551
    11  H    1.175060   0.016994
    12  H    1.402928   0.017631
    13  H    1.520462   0.003119
 Sum of Mulliken charges =   0.00000   1.00000

 Dipole moment (field-independent basis, Debye):
    X=              0.1364    Y=              0.1167    Z=             -0.4417  Tot=              0.4768
                          Isotropic Fermi Contact Couplings
        Atom                 a.u.       MegaHertz       Gauss      10(-4) cm-1
     1  C(13)             -0.03809     -42.81780     -15.27846     -14.28248
     2  S(33)              0.02750       9.44641       3.37071       3.15098
     3  C(13)              0.00836       9.39608       3.35276       3.13420
     4  S(33)              0.08948      30.73440      10.96680      10.25189
     5  H(1)               0.00006       0.27366       0.09765       0.09128
     6  H(1)               0.00098       4.37426       1.56084       1.45910
     7  C(13)              0.15670     176.15846      62.85772      58.76014
     8  C(13)             -0.02247     -25.25892      -9.01301      -8.42547

 Normal termination of Gaussian 16 at Tue Apr  8 23:06:28 2025.
