 Gaussian 16, Revision C.01,

 ----------------------------------------------------------------------
 #t hf aug-cc-pvdz symm=none int=(grid=ultrafine) guess=(read,tcheck) s
 table=(opt,rrhf)
 ----------------------------------------------------------------------
 -----
 title
 -----
 Symbolic Z-matrix:
 Charge =  0 Multiplicity = 1

 SCF Done:  E(RHF) =  -590.420803032     A.U. after   14 cycles
 Normal termination of Gaussian 16 at Wed Apr  9 00:22:56 2025.
 Gaussian 16:  ES64L-G16RevC.01  3-Jul-2019

 ----------------------------------------------------------------------
 #t hf aug-cc-pvdz iop(5/13=1,5/36=2,99/5=2) pseudo=read geom=check gue
 ss=(read,tcheck) scf=(maxcycle=1)
 ----------------------------------------------------------------------
 -----
 title
 -----
 Structure from the checkpoint file:  "BDE49_nonexpt_2672_mol1.chk"
 Charge =  0 Multiplicity = 1

                         Standard orientation:
 ---------------------------------------------------------------------
 Center     Atomic      Atomic             Coordinates (Angstroms)
 Number     Number       Type             X           Y           Z
 ---------------------------------------------------------------------
      1          9           0       -1.051857    1.029467    0.000037
      2         16           0       -0.737081   -0.603565   -0.000035
      3          6           0        1.037353   -0.511633    0.000032
      4          7           0        1.766513    0.515479    0.000008
      5          1           0        1.208565    1.373051   -0.000024
      6          1           0        1.461731   -1.519775    0.000009
 ---------------------------------------------------------------------

 SCF Done:  E(RHF) =  -591.402222076     A.U. after    2 cycles

 The electronic state is 1-A.
 Alpha  occ. eigenvalues --  -75.78663 -29.29722 -15.76675 -13.22579 -13.18581
 Alpha  occ. eigenvalues --  -13.08988 -11.46762  -8.12754  -1.38683  -1.21357
 Alpha  occ. eigenvalues --   -0.90286  -0.69322  -0.62045  -0.60758  -0.50967
 Alpha  occ. eigenvalues --   -0.40643  -0.39113  -0.35641  -0.31075  -0.20820
 Alpha virt. eigenvalues --    0.03191   0.06162   0.06796   0.10452   0.10937
 Alpha virt. eigenvalues --    0.12011   0.12261   0.13209   0.15964   0.16884
 Alpha virt. eigenvalues --    0.20192   0.20603   0.21703   0.23985   0.24719

 Mulliken charges:
               1
     1  F   -0.125462
     2  S    1.252399
     3  C   -0.931069
     4  N   -2.448074
     5  H    0.636211
     6  H    1.615995
 Sum of Mulliken charges =  -0.00000

 Dipole moment (field-independent basis, Debye):
    X=             -3.6523    Y=              1.3363    Z=             -0.0001  Tot=              3.8891

 Test job not archived.
 1\1\GINC-SE143\SP\RHF\Aug-CC-pVDZ\C1H2F1N1S1\OHZDE\09-Apr-2025\0\\#t h
 f aug-cc-pvdz iop(5/13=1,5/36=2,99/5=2) pseudo=read geom=check guess=(
 read,tcheck) scf=(maxcycle=1)\\title\\0,1\F,0,1.051857,1.029467,-0.000
 037\S,0,0.737081,-0.603565,0.000035\C,0,-1.037353,-0.511633,-0.000032\
 N,0,-1.766513,0.515479,-0.000008\H,0,-1.208564,1.373051,0.000024\H,0,-
 1.461731,-1.519775,-0.000009\\Version=ES64L-G16RevC.01\State=1-A\HF=-5
 91.4022221\RMSD=7.788e-02\Dipole=1.4369189,0.5257601,0.0000218\Quadrup
 ole=-1.9560459,3.5808367,-1.6247908,2.278677,0.0000107,-0.0000851\PG=C

 Normal termination of Gaussian 16 at Wed Apr  9 00:22:58 2025.
