 Gaussian 16, Revision C.01,

 ----------------------------------------------------------------------
 #t hf aug-cc-pvdz symm=none int=(grid=ultrafine) guess=(read,tcheck) s
 table=(opt,rrhf)
 ----------------------------------------------------------------------
 -----
 title
 -----
 Symbolic Z-matrix:
 Charge =  0 Multiplicity = 1

 SCF Done:  E(RHF) =  -676.431447716     A.U. after   15 cycles
 Normal termination of Gaussian 16 at Tue Apr  8 23:10:40 2025.
 Gaussian 16:  ES64L-G16RevC.01  3-Jul-2019

 ----------------------------------------------------------------------
 #t hf aug-cc-pvdz iop(5/13=1,5/36=2,99/5=2) pseudo=read geom=check gue
 ss=(read,tcheck) scf=(maxcycle=1)
 ----------------------------------------------------------------------
 -----
 title
 -----
 Structure from the checkpoint file:  "BDE49_expt_451_mol1.chk"
 Charge =  0 Multiplicity = 1

                         Standard orientation:
 ---------------------------------------------------------------------
 Center     Atomic      Atomic             Coordinates (Angstroms)
 Number     Number       Type             X           Y           Z
 ---------------------------------------------------------------------
      1          6           0       -0.205548    1.294089   -0.015030
      2          6           0        1.174524    1.411732   -0.021869
      3          6           0       -0.807813    0.034442   -0.052265
      4          6           0       -0.001243   -1.103813   -0.093299
      5          6           0        1.381976   -0.997013   -0.101768
      6          6           0        1.989738    0.267000   -0.066002
      7          1           0        1.631060    2.396301   -0.000334
      8          1           0       -0.820878    2.184864    0.012605
      9          1           0       -0.460519   -2.084121   -0.127224
     10          1           0        2.010066   -1.875694   -0.136137
     11          7           0        3.370916    0.422073   -0.126103
     12          7           0        4.183167   -0.691255    0.148246
     13          1           0        4.971927   -0.696902   -0.486871
     14          1           0        4.519197   -0.686486    1.108367
     15          1           0        3.710004    1.322800    0.189068
     16          6           0       -2.296766   -0.090564    0.017134
     17          9           0       -2.926966    0.954691   -0.569911
     18          9           0       -2.753515   -0.135291    1.296397
     19          9           0       -2.747147   -1.216258   -0.583806
 ---------------------------------------------------------------------

 SCF Done:  E(RHF) =  -679.217907115     A.U. after    2 cycles

 The electronic state is 1-A.
 Alpha  occ. eigenvalues --  -29.29283 -29.29209 -29.28658 -15.78057 -15.77451
 Alpha  occ. eigenvalues --  -11.60404 -11.52924 -11.46499 -11.45083 -11.43415
 Alpha  occ. eigenvalues --  -11.41375 -11.37443  -1.51913  -1.43157  -1.30341
 Alpha  occ. eigenvalues --   -1.17213  -1.10930  -1.03881  -0.91519  -0.87373
 Alpha  occ. eigenvalues --   -0.85765  -0.83481  -0.75703  -0.71600  -0.69687
 Alpha  occ. eigenvalues --   -0.67122  -0.62032  -0.59149  -0.55871  -0.53753
 Alpha  occ. eigenvalues --   -0.51563  -0.45929  -0.45768  -0.44256  -0.41976
 Alpha  occ. eigenvalues --   -0.41689  -0.40191  -0.35178  -0.34945  -0.33672
 Alpha  occ. eigenvalues --   -0.28846  -0.27885  -0.23800  -0.22136  -0.19651
 Alpha virt. eigenvalues --    0.03173   0.04269   0.04777   0.05377   0.06842
 Alpha virt. eigenvalues --    0.07308   0.08253   0.09606   0.10844   0.10964
 Alpha virt. eigenvalues --    0.12227   0.12491   0.12802   0.13580   0.13768

 Mulliken charges:
               1
     1  C   -2.204070
     2  C   -3.253427
     3  C    2.037751
     4  C   -1.148400
     5  C   -1.468457
     6  C    2.006731
     7  H    1.699462
     8  H    1.864546
     9  H    1.876120
    10  H    1.853149
    11  N   -3.368916
    12  N   -2.143274
    13  H    0.771278
    14  H    0.675256
    15  H    0.820759
    16  C   -0.716250
    17  F    0.255750
    18  F    0.147908
    19  F    0.294085
 Sum of Mulliken charges =  -0.00000

 Dipole moment (field-independent basis, Debye):
    X=              2.0074    Y=              0.5752    Z=              0.8285  Tot=              2.2465

 Test job not archived.
 1\1\GINC-SE051\SP\RHF\Aug-CC-pVDZ\C7H7F3N2\OHZDE\08-Apr-2025\0\\#t hf
 aug-cc-pvdz iop(5/13=1,5/36=2,99/5=2) pseudo=read geom=check guess=(re
 ad,tcheck) scf=(maxcycle=1)\\title\\0,1\C,0,-0.205548,1.294089,-0.0150
 3\C,0,1.174524,1.411732,-0.021869\C,0,-0.807813,0.034442,-0.052265\C,0
 ,-0.001243,-1.103813,-0.093299\C,0,1.381976,-0.997013,-0.101768\C,0,1.
 989738,0.267,-0.066002\H,0,1.63106,2.396301,-0.000334\H,0,-0.820878,2.
 184864,0.012605\H,0,-0.460519,-2.084121,-0.127224\H,0,2.010066,-1.8756
 94,-0.136137\N,0,3.370916,0.422073,-0.126103\N,0,4.183167,-0.691255,0.

 Normal termination of Gaussian 16 at Tue Apr  8 23:10:52 2025.
