 Gaussian 16, Revision C.01,

 ----------------------------------------------------------------------
 #t hf aug-cc-pvdz symm=none int=(grid=ultrafine) guess=(read,tcheck) s
 table=(opt,rrhf)
 ----------------------------------------------------------------------
 -----
 title
 -----
 Symbolic Z-matrix:
 Charge =  0 Multiplicity = 1

 SCF Done:  E(RHF) =  -733.711351742     A.U. after   16 cycles
 Normal termination of Gaussian 16 at Wed Apr  9 00:50:31 2025.
 Gaussian 16:  ES64L-G16RevC.01  3-Jul-2019

 ----------------------------------------------------------------------
 #t hf aug-cc-pvdz iop(5/13=1,5/36=2,99/5=2) pseudo=read geom=check gue
 ss=(read,tcheck) scf=(maxcycle=1)
 ----------------------------------------------------------------------
 -----
 title
 -----
 Structure from the checkpoint file:  "BDE49_nonexpt_859_mol1.chk"
 Charge =  0 Multiplicity = 1

                         Standard orientation:
 ---------------------------------------------------------------------
 Center     Atomic      Atomic             Coordinates (Angstroms)
 Number     Number       Type             X           Y           Z
 ---------------------------------------------------------------------
      1          6           0        2.608298   -0.621406   -0.043532
      2         14           0        1.971981    1.166295    0.358204
      3          8           0        2.073330   -1.612925    0.381450
      4          8           0        3.720344   -0.748312   -0.824551
      5          5           0        0.020344    1.586052    0.027655
      6          6           0       -1.193974    0.657213   -0.002794
      7          1           0        4.033843    0.128553   -1.078685
      8          6           0       -2.474768    1.208880   -0.250092
      9          6           0       -1.113461   -0.739395    0.212196
     10          6           0       -2.252080   -1.535242    0.180635
     11          6           0       -3.498682   -0.960544   -0.069401
     12          6           0       -3.611946    0.414105   -0.285932
     13          1           0       -4.583296    0.855463   -0.478451
     14          1           0       -2.561093    2.277412   -0.414820
     15          1           0       -0.150573   -1.197542    0.406784
     16          1           0       -2.171314   -2.603001    0.349339
     17          1           0       -4.385485   -1.584876   -0.094736
     18          1           0       -0.173045    2.757894   -0.126922
     19          1           0        2.851864    2.092472   -0.411608
     20          1           0        2.299927    1.363469    1.794313
 ---------------------------------------------------------------------

 SCF Done:  E(RHF) =  -735.846165945     A.U. after    2 cycles

 The electronic state is 1-A.
 Alpha  occ. eigenvalues --  -76.22618 -21.12276 -21.05578 -11.52358 -11.48599
 Alpha  occ. eigenvalues --  -11.44095 -11.43775 -11.41427 -11.41135 -11.36613
 Alpha  occ. eigenvalues --   -7.65277  -5.56306  -2.20153  -2.18995  -2.18390
 Alpha  occ. eigenvalues --   -1.81257  -1.65119  -1.34832  -1.11594  -1.09763
 Alpha  occ. eigenvalues --   -0.92219  -0.86854  -0.85863  -0.79383  -0.74212
 Alpha  occ. eigenvalues --   -0.70212  -0.64113  -0.61706  -0.59337  -0.57711
 Alpha  occ. eigenvalues --   -0.54677  -0.53517  -0.52966  -0.50796  -0.48653
 Alpha  occ. eigenvalues --   -0.45926  -0.45012  -0.42484  -0.36620  -0.34946
 Alpha  occ. eigenvalues --   -0.33708  -0.33346  -0.27605
 Alpha virt. eigenvalues --    0.02588   0.03178   0.03885   0.04320   0.05271
 Alpha virt. eigenvalues --    0.05407   0.05669   0.06509   0.07402   0.07593
 Alpha virt. eigenvalues --    0.08494   0.09122   0.09408   0.09922   0.10316

 Mulliken charges:
               1
     1  C    3.009015
     2  Si   6.208272
     3  O   -2.509556
     4  O   -2.721172
     5  B    1.383183
     6  C   -2.219262
     7  H    1.089376
     8  C   -0.308872
     9  C    0.012233
    10  C   -2.706354
    11  C   -1.911683
    12  C   -0.943983
    13  H    1.564370
    14  H    2.065330
    15  H    2.117574
    16  H    1.537725
    17  H    1.515171
    18  H   -3.356257
    19  H   -1.791692
    20  H   -2.033418
 Sum of Mulliken charges =   0.00000

 Dipole moment (field-independent basis, Debye):
    X=             -2.2474    Y=              0.2833    Z=             -0.7086  Tot=              2.3734

 Test job not archived.
 1\1\GINC-SE159\SP\RHF\Aug-CC-pVDZ\C7H9B1O2Si1\OHZDE\09-Apr-2025\0\\#t
 hf aug-cc-pvdz iop(5/13=1,5/36=2,99/5=2) pseudo=read geom=check guess=
 (read,tcheck) scf=(maxcycle=1)\\title\\0,1\C,0,2.608298,-0.621406,-0.0
 43532\Si,0,1.971981,1.166295,0.358204\O,0,2.07333,-1.612925,0.38145\O,
 0,3.720344,-0.748312,-0.824551\B,0,0.020344,1.586052,0.027655\C,0,-1.1
 93974,0.657213,-0.002794\H,0,4.033843,0.128553,-1.078685\C,0,-2.474768
 ,1.20888,-0.250092\C,0,-1.113461,-0.739395,0.212196\C,0,-2.25208,-1.53
 5242,0.180635\C,0,-3.498682,-0.960544,-0.069401\C,0,-3.611946,0.414105

 Normal termination of Gaussian 16 at Wed Apr  9 00:50:43 2025.
