 Gaussian 16, Revision C.01,

 ----------------------------------------------------------------------
 #t hf aug-cc-pvdz symm=none int=(grid=ultrafine) guess=(read,tcheck) s
 table=(opt,rrhf)
 ----------------------------------------------------------------------
 -----
 title
 -----
 Symbolic Z-matrix:
 Charge =  0 Multiplicity = 1

 SCF Done:  E(RHF) =  -1846.59657993     A.U. after   13 cycles
 Normal termination of Gaussian 16 at Tue Apr  8 23:26:01 2025.
 Gaussian 16:  ES64L-G16RevC.01  3-Jul-2019

 ----------------------------------------------------------------------
 #t hf aug-cc-pvdz iop(5/13=1,5/36=2,99/5=2) pseudo=read geom=check gue
 ss=(read,tcheck) scf=(maxcycle=1)
 ----------------------------------------------------------------------
 -----
 title
 -----
 Structure from the checkpoint file:  "BDE49_nonexpt_1252_mol1.chk"
 Charge =  0 Multiplicity = 1

                         Standard orientation:
 ---------------------------------------------------------------------
 Center     Atomic      Atomic             Coordinates (Angstroms)
 Number     Number       Type             X           Y           Z
 ---------------------------------------------------------------------
      1         17           0        1.525102   -1.620771    0.232187
      2         16           0       -1.345950    0.000004   -0.116267
      3          8           0       -1.885350   -1.265064   -0.577842
      4         15           0        0.797988    0.000001   -0.861205
      5          6           0       -1.339457   -0.000020    1.682348
      6          1           0       -2.394090   -0.000017    1.963335
      7          1           0       -0.845998   -0.902918    2.035817
      8         17           0        1.525112    1.620763    0.232193
      9          8           0       -1.885332    1.265094   -0.577808
     10          1           0       -0.845988    0.902863    2.035842
 ---------------------------------------------------------------------

 SCF Done:  E(RHF) =  -1848.35868066     A.U. after    2 cycles

 The electronic state is 1-A.
 Alpha  occ. eigenvalues -- -105.31631 -99.93463 -99.93462 -75.90219 -21.06585
 Alpha  occ. eigenvalues --  -21.06560 -13.52490 -13.39556 -13.33491 -11.43993
 Alpha  occ. eigenvalues --  -10.50767 -10.50741  -9.70623  -9.70525  -9.70001
 Alpha  occ. eigenvalues --   -9.69963  -9.69859  -9.69833  -8.25259  -2.89592
 Alpha  occ. eigenvalues --   -1.84333  -1.66580  -1.58638  -1.57132  -1.54295
 Alpha  occ. eigenvalues --   -1.29047  -1.25138  -1.16150  -0.91417  -0.77739
 Alpha  occ. eigenvalues --   -0.65005  -0.64991  -0.59821  -0.59085  -0.56901
 Alpha  occ. eigenvalues --   -0.56860  -0.54751  -0.52727  -0.48283  -0.45820
 Alpha  occ. eigenvalues --   -0.41496  -0.39682  -0.36987  -0.29928  -0.11224
 Alpha virt. eigenvalues --    0.03337   0.05742   0.05748   0.06264   0.08456
 Alpha virt. eigenvalues --    0.08547   0.09753   0.12312   0.12438   0.12732
 Alpha virt. eigenvalues --    0.13179   0.13208   0.14117   0.14926   0.15487

 Mulliken charges:
               1
     1  Cl  -1.300823
     2  S    4.486758
     3  O   -2.467114
     4  P    3.923289
     5  C   -4.780253
     6  H    1.389783
     7  H    1.258147
     8  Cl  -1.300822
     9  O   -2.467111
    10  H    1.258146
 Sum of Mulliken charges =  -0.00000

 Dipole moment (field-independent basis, Debye):
    X=              1.8642    Y=             -0.0000    Z=             -5.9731  Tot=              6.2572

 Test job not archived.
 1\1\GINC-SE099\SP\RHF\Aug-CC-pVDZ\C1H3Cl2O2P1S1\OHZDE\08-Apr-2025\0\\#
 t hf aug-cc-pvdz iop(5/13=1,5/36=2,99/5=2) pseudo=read geom=check gues
 s=(read,tcheck) scf=(maxcycle=1)\\title\\0,1\Cl,0,-1.525103,1.62077,0.
 232187\S,0,1.34595,-0.000004,-0.116267\O,0,1.885349,1.265065,-0.577842
 \P,0,-0.797988,-0.000001,-0.861205\C,0,1.339457,0.00002,1.682348\H,0,2
 .39409,0.000018,1.963335\H,0,0.845998,0.902918,2.035817\Cl,0,-1.525112
 ,-1.620764,0.232193\O,0,1.885332,-1.265093,-0.577808\H,0,0.845988,-0.9
 02863,2.035842\\Version=ES64L-G16RevC.01\State=1-A\HF=-1848.3586807\RM

 Normal termination of Gaussian 16 at Tue Apr  8 23:26:07 2025.
