 Gaussian 16, Revision C.01,

 ----------------------------------------------------------------------
 #t hf aug-cc-pvdz symm=none int=(grid=ultrafine) guess=(read,tcheck) s
 table=opt
 ----------------------------------------------------------------------
 -----
 title
 -----
 Symbolic Z-matrix:
 Charge =  0 Multiplicity = 2

 SCF Done:  E(UHF) =  -321.284334297     A.U. after   22 cycles
 Normal termination of Gaussian 16 at Tue Apr  8 23:08:02 2025.
 Gaussian 16:  ES64L-G16RevC.01  3-Jul-2019

 ----------------------------------------------------------------------
 #t hf aug-cc-pvdz iop(5/13=1,5/36=2,99/5=2) pseudo=read geom=check gue
 ss=(read,tcheck) scf=(maxcycle=1)
 ----------------------------------------------------------------------
 -----
 title
 -----
 Structure from the checkpoint file:  "BDE49_expt_428_mol2.chk"
 Charge =  0 Multiplicity = 2

                         Standard orientation:
 ---------------------------------------------------------------------
 Center     Atomic      Atomic             Coordinates (Angstroms)
 Number     Number       Type             X           Y           Z
 ---------------------------------------------------------------------
      1          6           0       -0.012361    0.114204   -0.148212
      2          7           0       -1.184714   -0.580157   -0.417603
      3          8           0        1.022864   -0.731254   -0.033264
      4          8           0        0.073157    1.324305   -0.109734
      5          6           0        2.303542   -0.110773    0.181132
      6          1           0        2.284478    0.517311    1.073318
      7          1           0        2.578063    0.500681   -0.679817
      8          1           0        3.004282   -0.932930    0.305578
      9          6           0       -2.351894   -0.119292    0.285098
     10          1           0       -2.278711    0.937040    0.565158
     11          1           0       -2.455306   -0.707580    1.211271
     12          1           0       -3.243709   -0.302660   -0.316418
 ---------------------------------------------------------------------

 SCF Done:  E(UHF) =  -322.663631749     A.U. after    2 cycles

 The electronic state is 2-A.
 Alpha  occ. eigenvalues --  -21.10080 -21.05907 -15.78256 -11.51772 -11.42141
 Alpha  occ. eigenvalues --  -11.40349  -1.85737  -1.67929  -1.39317  -1.05699
 Alpha  occ. eigenvalues --   -0.96895  -0.75133  -0.69343  -0.66550  -0.63885
 Alpha  occ. eigenvalues --   -0.61526  -0.57714  -0.55636  -0.51567  -0.46258
 Alpha  occ. eigenvalues --   -0.41215  -0.38518  -0.33783  -0.31234
 Alpha virt. eigenvalues --    0.03292   0.04983   0.05795   0.06136   0.06837
 Alpha virt. eigenvalues --    0.07062   0.09423   0.11600   0.13154   0.13356
 Alpha virt. eigenvalues --    0.13961   0.14526   0.15162   0.15700   0.16455

  Beta  occ. eigenvalues --  -21.10057 -21.05291 -15.75211 -11.52160 -11.42135
  Beta  occ. eigenvalues --  -11.40614  -1.85416  -1.66892  -1.31234  -1.05372
  Beta  occ. eigenvalues --   -0.95273  -0.73816  -0.67892  -0.64742  -0.61401
  Beta  occ. eigenvalues --   -0.58934  -0.57239  -0.54592  -0.51159  -0.44143
  Beta  occ. eigenvalues --   -0.38615  -0.32392  -0.30353
  Beta virt. eigenvalues --    0.03309   0.04952   0.05741   0.06047   0.06840
  Beta virt. eigenvalues --    0.07031   0.08196   0.09476   0.11673   0.13178
  Beta virt. eigenvalues --    0.13416   0.14069   0.14575   0.15661   0.15964

 Mulliken charges and spin densities:
               1          2
     1  C    6.605765  -0.242864
     2  N   -2.310624   1.139178
     3  O   -2.939224   0.016161
     4  O   -2.551816   0.157597
     5  C   -3.089794   0.000099
     6  H    1.258626   0.004222
     7  H    1.241901   0.000778
     8  H    1.330486   0.000349
     9  C   -3.495372  -0.172378
    10  H    1.280182   0.024759
    11  H    1.344306   0.061705
    12  H    1.325563   0.010393
 Sum of Mulliken charges =   0.00000   1.00000

 Dipole moment (field-independent basis, Debye):
    X=              0.3481    Y=             -0.3786    Z=              1.0400  Tot=              1.1602
                          Isotropic Fermi Contact Couplings
        Atom                 a.u.       MegaHertz       Gauss      10(-4) cm-1
     1  C(13)             -0.03552     -39.93138     -14.24851     -13.31968
     2  N(14)              0.22060      71.27694      25.43339      23.77543
     3  O(17)              0.00457      -2.77126      -0.98886      -0.92439
     4  O(17)              0.03786     -22.95177      -8.18976      -7.65589
     5  C(13)              0.00303       3.40539       1.21513       1.13592
     6  H(1)               0.00022       0.97388       0.34751       0.32485
     7  H(1)               0.00009       0.39164       0.13975       0.13064
     8  H(1)               0.00011       0.48626       0.17351       0.16220

 Normal termination of Gaussian 16 at Tue Apr  8 23:08:06 2025.
