 Gaussian 16, Revision C.01,

 ----------------------------------------------------------------------
 #t hf aug-cc-pvdz symm=none int=(grid=ultrafine) guess=(read,tcheck) s
 table=(opt,rrhf)
 ----------------------------------------------------------------------
 -----
 title
 -----
 Symbolic Z-matrix:
 Charge =  0 Multiplicity = 1

 SCF Done:  E(RHF) =  -694.584592044     A.U. after   16 cycles
 Normal termination of Gaussian 16 at Wed Apr  9 00:04:57 2025.
 Gaussian 16:  ES64L-G16RevC.01  3-Jul-2019

 ----------------------------------------------------------------------
 #t hf aug-cc-pvdz iop(5/13=1,5/36=2,99/5=2) pseudo=read geom=check gue
 ss=(read,tcheck) scf=(maxcycle=1)
 ----------------------------------------------------------------------
 -----
 title
 -----
 Structure from the checkpoint file:  "BDE49_nonexpt_2184_mol1.chk"
 Charge =  0 Multiplicity = 1

                         Standard orientation:
 ---------------------------------------------------------------------
 Center     Atomic      Atomic             Coordinates (Angstroms)
 Number     Number       Type             X           Y           Z
 ---------------------------------------------------------------------
      1          6           0       -2.780510    0.257238    0.000010
      2          6           0       -1.779065    1.226167   -0.000003
      3          6           0       -0.455747    0.825196   -0.000001
      4          6           0       -2.433540   -1.092481    0.000007
      5          6           0       -1.096218   -1.478255    0.000005
      6          6           0       -0.081409   -0.519972   -0.000010
      7          1           0       -3.820691    0.558623   -0.000017
      8          1           0       -2.003302    2.285719   -0.000002
      9          9           0        0.529519    1.763457   -0.000002
     10          1           0       -3.206337   -1.851955    0.000038
     11          1           0       -0.807128   -2.521995    0.000010
     12          8           0        1.212304   -0.929855   -0.000046
     13         14           0        2.694209   -0.160548    0.000011
     14          1           0        3.653217   -1.281528    0.000002
     15          1           0        2.880039    0.659505    1.214178
     16          1           0        2.880105    0.659675   -1.214025
 ---------------------------------------------------------------------

 SCF Done:  E(RHF) =  -696.476473302     A.U. after    2 cycles

 The electronic state is 1-A.
 Alpha  occ. eigenvalues --  -76.24628 -29.29271 -21.07515 -11.54896 -11.47151
 Alpha  occ. eigenvalues --  -11.46520 -11.42898 -11.41724 -11.38088  -5.58033
 Alpha  occ. eigenvalues --   -2.24602  -2.19972  -2.19596  -1.74975  -1.35203
 Alpha  occ. eigenvalues --   -1.15531  -1.09476  -0.93063  -0.88556  -0.78209
 Alpha  occ. eigenvalues --   -0.75211  -0.67026  -0.63311  -0.62051  -0.58880
 Alpha  occ. eigenvalues --   -0.58181  -0.50004  -0.49742  -0.48986  -0.48038
 Alpha  occ. eigenvalues --   -0.44169  -0.41866  -0.40325  -0.37583  -0.30998
 Alpha  occ. eigenvalues --   -0.29007  -0.22874
 Alpha virt. eigenvalues --    0.03447   0.04873   0.05126   0.05549   0.06467
 Alpha virt. eigenvalues --    0.06744   0.07439   0.07931   0.09139   0.10651
 Alpha virt. eigenvalues --    0.11060   0.12148   0.12819   0.13326   0.13577

 Mulliken charges:
               1
     1  C   -0.556572
     2  C   -4.198818
     3  C    2.531588
     4  C   -0.993036
     5  C   -1.742767
     6  C    1.336725
     7  H    1.503018
     8  H    1.756073
     9  F    0.854748
    10  H    1.502976
    11  H    1.752491
    12  O   -4.796951
    13  Si   6.177699
    14  H   -1.818584
    15  H   -1.654317
    16  H   -1.654274
 Sum of Mulliken charges =   0.00000

 Dipole moment (field-independent basis, Debye):
    X=              0.6346    Y=              1.6874    Z=             -0.0001  Tot=              1.8028

 Test job not archived.
 1\1\GINC-SE103\SP\RHF\Aug-CC-pVDZ\C6H7F1O1Si1\OHZDE\09-Apr-2025\0\\#t
 hf aug-cc-pvdz iop(5/13=1,5/36=2,99/5=2) pseudo=read geom=check guess=
 (read,tcheck) scf=(maxcycle=1)\\title\\0,1\C,0,2.78051,0.257238,-0.000
 01\C,0,1.779065,1.226167,0.000003\C,0,0.455747,0.825196,0.000001\C,0,2
 .43354,-1.092481,-0.000007\C,0,1.096218,-1.478255,-0.000005\C,0,0.0814
 09,-0.519972,0.00001\H,0,3.820691,0.558623,0.000017\H,0,2.003302,2.285
 719,0.000002\F,0,-0.529519,1.763457,0.000002\H,0,3.206337,-1.851955,-0
 .000038\H,0,0.807128,-2.521995,-0.00001\O,0,-1.212304,-0.929855,0.0000

 Normal termination of Gaussian 16 at Wed Apr  9 00:05:05 2025.
