 Gaussian 16, Revision C.01,

 ----------------------------------------------------------------------
 #t hf aug-cc-pvdz symm=none int=(grid=ultrafine) guess=(read,tcheck) s
 table=(opt,rrhf)
 ----------------------------------------------------------------------
 -----
 title
 -----
 Symbolic Z-matrix:
 Charge =  0 Multiplicity = 1

 SCF Done:  E(RHF) =  -842.314103199     A.U. after   18 cycles
 Normal termination of Gaussian 16 at Tue Apr  8 22:52:27 2025.
 Gaussian 16:  ES64L-G16RevC.01  3-Jul-2019

 ----------------------------------------------------------------------
 #t hf aug-cc-pvdz iop(5/13=1,5/36=2,99/5=2) pseudo=read geom=check gue
 ss=(read,tcheck) scf=(maxcycle=1)
 ----------------------------------------------------------------------
 -----
 title
 -----
 Structure from the checkpoint file:  "BDE49_expt_1703_mol1.chk"
 Charge =  0 Multiplicity = 1

                         Standard orientation:
 ---------------------------------------------------------------------
 Center     Atomic      Atomic             Coordinates (Angstroms)
 Number     Number       Type             X           Y           Z
 ---------------------------------------------------------------------
      1          6           0       -2.339256    1.858358    0.000000
      2          6           0       -1.064769    2.468149    0.000000
      3          6           0        0.076388    1.703430    0.000000
      4          6           0       -2.446631    0.490125    0.000000
      5          6           0       -1.292182   -0.335455    0.000000
      6          6           0        0.000000    0.287204    0.000000
      7          1           0       -3.230616    2.475231    0.000000
      8          1           0       -0.987940    3.549407    0.000000
      9          1           0        1.049315    2.176210    0.000000
     10          1           0       -3.421822    0.014961    0.000000
     11          6           0        1.135767   -0.571261    0.000000
     12          6           0        1.017465   -1.938228    0.000000
     13          6           0       -0.263729   -2.531650    0.000000
     14          6           0       -1.391307   -1.750332    0.000000
     15          1           0        1.906755   -2.554948    0.000000
     16          1           0       -0.342913   -3.612445    0.000000
     17          1           0       -2.376078   -2.204395    0.000000
     18         17           0        2.753696    0.121997    0.000000
 ---------------------------------------------------------------------

 SCF Done:  E(RHF) =  -844.388718797     A.U. after    2 cycles

 The electronic state is 1-A'.
 Alpha  occ. eigenvalues --  -99.89404 -11.53337 -11.50783 -11.46732 -11.45979
 Alpha  occ. eigenvalues --  -11.44073 -11.43376 -11.42541 -11.42100 -11.40360
 Alpha  occ. eigenvalues --  -11.37876 -10.46753  -9.66771  -9.66075  -9.65728
 Alpha  occ. eigenvalues --   -1.43079  -1.31640  -1.23753  -1.13527  -1.09345
 Alpha  occ. eigenvalues --   -1.04747  -0.90505  -0.88866  -0.84851  -0.73981
 Alpha  occ. eigenvalues --   -0.71443  -0.68615  -0.64245  -0.60868  -0.58736
 Alpha  occ. eigenvalues --   -0.58005  -0.56109  -0.54830  -0.52093  -0.50778
 Alpha  occ. eigenvalues --   -0.49076  -0.45073  -0.44028  -0.43173  -0.38587
 Alpha  occ. eigenvalues --   -0.32524  -0.28517
 Alpha virt. eigenvalues --    0.03111   0.04529   0.04899   0.05721   0.06488
 Alpha virt. eigenvalues --    0.06735   0.07417   0.07549   0.08662   0.09852
 Alpha virt. eigenvalues --    0.10920   0.11328   0.11349   0.12124   0.13280

 Mulliken charges:
               1
     1  C   -4.073133
     2  C   -2.813891
     3  C    0.214968
     4  C   -3.124078
     5  C    2.748332
     6  C    7.071401
     7  H    1.465883
     8  H    1.497092
     9  H    1.839675
    10  H    1.650334
    11  C    0.438040
    12  C   -3.802572
    13  C   -2.701983
    14  C   -4.238649
    15  H    1.596166
    16  H    1.517248
    17  H    1.657139
    18  Cl  -0.941974
 Sum of Mulliken charges =   0.00000

 Dipole moment (field-independent basis, Debye):
    X=             -2.3681    Y=             -0.6798    Z=              0.0000  Tot=              2.4637

 Test job not archived.
 1\1\GINC-SE343\SP\RHF\Aug-CC-pVDZ\C10H7Cl1\OHZDE\08-Apr-2025\0\\#t hf
 aug-cc-pvdz iop(5/13=1,5/36=2,99/5=2) pseudo=read geom=check guess=(re
 ad,tcheck) scf=(maxcycle=1)\\title\\0,1\C,0,-2.339257,1.858357,0.\C,0,
 -1.06477,2.468148,0.\C,0,0.076387,1.70343,0.\C,0,-2.446631,0.490124,0.
 \C,0,-1.292182,-0.335456,0.\C,0,0.,0.287204,0.\H,0,-3.230617,2.47523,0
 .\H,0,-0.987941,3.549407,0.\H,0,1.049314,2.17621,0.\H,0,-3.421822,0.01
 496,0.\C,0,1.135767,-0.571261,0.\C,0,1.017466,-1.938228,0.\C,0,-0.2637
 28,-2.53165,0.\C,0,-1.391306,-1.750333,0.\H,0,1.906756,-2.554947,0.\H,

 Normal termination of Gaussian 16 at Tue Apr  8 22:52:37 2025.
