 Gaussian 16, Revision C.01,

 ----------------------------------------------------------------------
 #t hf aug-cc-pvdz symm=none int=(grid=ultrafine) guess=(read,tcheck) s
 table=(opt,rrhf)
 ----------------------------------------------------------------------
 -----
 title
 -----
 Symbolic Z-matrix:
 Charge =  0 Multiplicity = 1

 SCF Done:  E(RHF) =  -958.039434565     A.U. after   11 cycles

 1\1\GINC-SE252\Stability\RHF\Aug-CC-pVDZ\C1H2Cl2\OHZDE\08-Apr-2025\0\\
 #t hf aug-cc-pvdz symm=none int=(grid=ultrafine) guess=(read,tcheck) s
 table=(opt,rrhf)\\title\\0,1\C,0,-0.000007,0.77033,0.000014\Cl,0,-1.49
 1164,-0.216831,-0.000002\H,0,-0.000001,1.375107,0.900019\H,0,0.,1.3751
 2,-0.899982\Cl,0,1.491166,-0.216829,-0.000005\\Version=ES64L-G16RevC.0
 1\HF=-958.0394346\RMSD=7.088e-09\Dipole=-0.0000209,0.7484138,0.0000109
 \Quadrupole=-1.8927893,1.624151,0.2686384,0.0000095,-0.0000008,0.00003
 45\PG=Unknown\\@

 Normal termination of Gaussian 16 at Tue Apr  8 22:38:21 2025.
 Gaussian 16:  ES64L-G16RevC.01  3-Jul-2019

 ----------------------------------------------------------------------
 #t hf aug-cc-pvdz iop(5/13=1,5/36=2,99/5=2) pseudo=read geom=check gue
 ss=(read,tcheck) scf=(maxcycle=1)
 ----------------------------------------------------------------------
 -----
 title
 -----
 Structure from the checkpoint file:  "BDE49_expt_117_mol1.chk"
 Charge =  0 Multiplicity = 1

                         Standard orientation:
 ---------------------------------------------------------------------
 Center     Atomic      Atomic             Coordinates (Angstroms)
 Number     Number       Type             X           Y           Z
 ---------------------------------------------------------------------
      1          6           0       -0.000007    0.770330    0.000014
      2         17           0       -1.491164   -0.216830   -0.000002
      3          1           0       -0.000001    1.375107    0.900019
      4          1           0        0.000000    1.375120   -0.899982
      5         17           0        1.491166   -0.216829   -0.000005
 ---------------------------------------------------------------------

 SCF Done:  E(RHF) =  -958.721422342     A.U. after    2 cycles

 The electronic state is 1-A.
 Alpha  occ. eigenvalues --  -99.90370 -99.90365 -11.49336 -10.47756 -10.47584
 Alpha  occ. eigenvalues --   -9.67499  -9.67386  -9.66740  -9.66734  -9.66683
 Alpha  occ. eigenvalues --   -9.66660  -1.39601  -1.28639  -1.00217  -0.70536
 Alpha  occ. eigenvalues --   -0.67064  -0.64234  -0.52856  -0.51388  -0.49966
 Alpha  occ. eigenvalues --   -0.48658
 Alpha virt. eigenvalues --    0.01457   0.05058   0.05831   0.07085   0.09110
 Alpha virt. eigenvalues --    0.12702   0.13818   0.15189   0.15218   0.15526
 Alpha virt. eigenvalues --    0.16509   0.18025   0.19993   0.20175   0.22065

 Mulliken charges:
               1
     1  C   -4.039984
     2  Cl   0.272689
     3  H    1.747299
     4  H    1.747311
     5  Cl   0.272686
 Sum of Mulliken charges =   0.00000

 Dipole moment (field-independent basis, Debye):
    X=             -0.0001    Y=              1.7565    Z=              0.0000  Tot=              1.7565

 Test job not archived.
 1\1\GINC-SE252\SP\RHF\Aug-CC-pVDZ\C1H2Cl2\OHZDE\08-Apr-2025\0\\#t hf a
 ug-cc-pvdz iop(5/13=1,5/36=2,99/5=2) pseudo=read geom=check guess=(rea
 d,tcheck) scf=(maxcycle=1)\\title\\0,1\C,0,-0.000007,0.77033,0.000014\
 Cl,0,-1.491164,-0.216831,-0.000002\H,0,-0.000001,1.375107,0.900019\H,0
 ,0.,1.37512,-0.899982\Cl,0,1.491166,-0.216829,-0.000005\\Version=ES64L
 -G16RevC.01\State=1-A\HF=-958.7214223\RMSD=5.985e-02\Dipole=-0.0000235
 ,0.6910758,0.0000104\Quadrupole=-0.9728908,1.3550913,-0.3822005,0.0000
 155,-0.0000023,0.0000414\PG=C01 [X(C1H2Cl2)]\\@

 Normal termination of Gaussian 16 at Tue Apr  8 22:38:23 2025.
