 Gaussian 16, Revision C.01,

 ----------------------------------------------------------------------
 #t hf aug-cc-pvdz symm=none int=(grid=ultrafine) guess=(read,tcheck) s
 table=opt
 ----------------------------------------------------------------------
 -----
 title
 -----
 Symbolic Z-matrix:
 Charge =  0 Multiplicity = 2

 SCF Done:  E(UHF) =  -996.450386594     A.U. after   17 cycles

 1\1\GINC-SE071\Stability\UHF\Aug-CC-pVDZ\C2H3Cl2\OHZDE\08-Apr-2025\0\\
 #t hf aug-cc-pvdz symm=none int=(grid=ultrafine) guess=(read,tcheck) s
 table=opt\\title\\0,2\C,0,-0.003085,1.746449,-0.159803\C,0,0.023034,0.
 413437,0.428577\H,0,0.247483,1.880331,-1.202818\Cl,0,-1.487686,-0.5364
 44,-0.076844\Cl,0,1.49157,-0.511276,-0.060045\H,0,-0.42419,2.56785,0.4
 04932\H,0,-0.009013,0.403749,1.512343\\Version=ES64L-G16RevC.01\HF=-99
 6.4503866\S2=0.767296\S2-1=0.\S2A=0.750226\RMSD=9.013e-09\Dipole=0.033
 8737,0.8646428,0.3259282\Quadrupole=-2.7004475,1.4794256,1.2210218,-0.

 Normal termination of Gaussian 16 at Tue Apr  8 22:31:22 2025.
 Gaussian 16:  ES64L-G16RevC.01  3-Jul-2019

 ----------------------------------------------------------------------
 #t hf aug-cc-pvdz iop(5/13=1,5/36=2,99/5=2) pseudo=read geom=check gue
 ss=(read,tcheck) scf=(maxcycle=1)
 ----------------------------------------------------------------------
 -----
 title
 -----
 Structure from the checkpoint file:  "BDE49_expt_1024_mol2.chk"
 Charge =  0 Multiplicity = 2

                         Standard orientation:
 ---------------------------------------------------------------------
 Center     Atomic      Atomic             Coordinates (Angstroms)
 Number     Number       Type             X           Y           Z
 ---------------------------------------------------------------------
      1          6           0       -0.003084    1.746449   -0.159803
      2          6           0        0.023034    0.413437    0.428577
      3          1           0        0.247484    1.880331   -1.202818
      4         17           0       -1.487686   -0.536443   -0.076844
      5         17           0        1.491570   -0.511277   -0.060045
      6          1           0       -0.424188    2.567850    0.404932
      7          1           0       -0.009013    0.403749    1.512343
 ---------------------------------------------------------------------

 SCF Done:  E(UHF) =  -997.302935545     A.U. after    2 cycles

 The electronic state is 2-A.
 Alpha  occ. eigenvalues --  -99.90137 -99.89485 -11.51255 -11.41903 -10.47440
 Alpha  occ. eigenvalues --  -10.46675  -9.67345  -9.66783  -9.66521  -9.66453
 Alpha  occ. eigenvalues --   -9.65776  -9.65745  -1.40174  -1.28234  -1.12990
 Alpha  occ. eigenvalues --   -0.90488  -0.71318  -0.66194  -0.64045  -0.58438
 Alpha  occ. eigenvalues --   -0.52823  -0.51231  -0.49159  -0.48839  -0.37527
 Alpha virt. eigenvalues --    0.02752   0.04106   0.05842   0.06244   0.08237
 Alpha virt. eigenvalues --    0.09594   0.11747   0.12203   0.13666   0.14265
 Alpha virt. eigenvalues --    0.15499   0.16510   0.17152   0.17428   0.17892

  Beta  occ. eigenvalues --  -99.90088 -99.89302 -11.51591 -11.39740 -10.47385
  Beta  occ. eigenvalues --  -10.46477  -9.67175  -9.66473  -9.66447  -9.66062
  Beta  occ. eigenvalues --   -9.65642  -9.65598  -1.39248  -1.27177  -1.08192
  Beta  occ. eigenvalues --   -0.87368  -0.70767  -0.63695  -0.63332  -0.57536
  Beta  occ. eigenvalues --   -0.52203  -0.50059  -0.48924  -0.48302
  Beta virt. eigenvalues --    0.02537   0.03728   0.04628   0.05902   0.06269
  Beta virt. eigenvalues --    0.09586   0.09856   0.12195   0.12495   0.14129
  Beta virt. eigenvalues --    0.14416   0.15915   0.16810   0.17453   0.17992

 Mulliken charges and spin densities:
               1          2
     1  C   -1.397110   1.358672
     2  C   -3.732696  -0.325792
     3  H    1.381736  -0.080749
     4  Cl   0.286870   0.103203
     5  Cl   0.265182   0.019753
     6  H    1.353845  -0.074664
     7  H    1.842174  -0.000422
 Sum of Mulliken charges =  -0.00000   1.00000

 Dipole moment (field-independent basis, Debye):
    X=              0.1484    Y=              2.3313    Z=              0.7749  Tot=              2.4612
                          Isotropic Fermi Contact Couplings
        Atom                 a.u.       MegaHertz       Gauss      10(-4) cm-1
     1  C(13)              0.12277     138.02055      49.24916      46.03870
     2  C(13)             -0.04084     -45.91048     -16.38200     -15.31409
     3  H(1)              -0.01764     -78.86101     -28.13957     -26.30520
     4  Cl(35)             0.09277      40.67500      14.51385      13.56772
     5  Cl(35)             0.02599      11.39719       4.06680       3.80169
     6  H(1)              -0.01837     -82.11657     -29.30123     -27.39114
     7  H(1)               0.00301      13.47105       4.80681       4.49346
 --------------------------------------------------------

 Normal termination of Gaussian 16 at Tue Apr  8 22:31:24 2025.
