 Gaussian 16, Revision C.01,

 ----------------------------------------------------------------------
 #t hf aug-cc-pvdz symm=none int=(grid=ultrafine) guess=(read,tcheck) s
 table=(opt,rrhf)
 ----------------------------------------------------------------------
 -----
 title
 -----
 Symbolic Z-matrix:
 Charge =  0 Multiplicity = 1

 SCF Done:  E(RHF) =  -999.465937061     A.U. after   11 cycles
 Normal termination of Gaussian 16 at Tue Apr  8 23:41:08 2025.
 Gaussian 16:  ES64L-G16RevC.01  3-Jul-2019

 ----------------------------------------------------------------------
 #t hf aug-cc-pvdz iop(5/13=1,5/36=2,99/5=2) pseudo=read geom=check gue
 ss=(read,tcheck) scf=(maxcycle=1)
 ----------------------------------------------------------------------
 -----
 title
 -----
 Structure from the checkpoint file:  "BDE49_nonexpt_163_mol1.chk"
 Charge =  0 Multiplicity = 1

                         Standard orientation:
 ---------------------------------------------------------------------
 Center     Atomic      Atomic             Coordinates (Angstroms)
 Number     Number       Type             X           Y           Z
 ---------------------------------------------------------------------
      1         17           0        1.534906   -0.544479   -0.000012
      2         17           0       -1.534906   -0.544479    0.000000
      3          7           0        0.000000    1.739858    0.000009
      4          5           0        0.000000    0.354920    0.000025
      5          1           0        0.851432    2.279334   -0.000003
      6          1           0       -0.851431    2.279334    0.000004
 ---------------------------------------------------------------------

 SCF Done:  E(RHF) =  -1000.31477191     A.U. after    2 cycles

 The electronic state is 1-A.
 Alpha  occ. eigenvalues --  -99.89052 -99.89040 -15.75545 -10.46478 -10.46225
 Alpha  occ. eigenvalues --   -9.66408  -9.66158  -9.65813  -9.65788  -9.65629
 Alpha  occ. eigenvalues --   -9.65583  -7.70992  -1.43565  -1.28956  -1.28264
 Alpha  occ. eigenvalues --   -0.81586  -0.72632  -0.65525  -0.58025  -0.57811
 Alpha  occ. eigenvalues --   -0.52034  -0.50597  -0.50011  -0.43207
 Alpha virt. eigenvalues --    0.02803   0.04135   0.04216   0.04464   0.08366
 Alpha virt. eigenvalues --    0.09551   0.11196   0.11776   0.14578   0.16247
 Alpha virt. eigenvalues --    0.16902   0.16946   0.17348   0.18054   0.18859

 Mulliken charges:
               1
     1  Cl  -1.132548
     2  Cl  -1.132548
     3  N   -2.410347
     4  B    3.014412
     5  H    0.830515
     6  H    0.830516
 Sum of Mulliken charges =  -0.00000

 Dipole moment (field-independent basis, Debye):
    X=              0.0000    Y=              2.6154    Z=              0.0000  Tot=              2.6154

 Test job not archived.
 1\1\GINC-SE250\SP\RHF\Aug-CC-pVDZ\B1Cl2H2N1\OHZDE\08-Apr-2025\0\\#t hf
  aug-cc-pvdz iop(5/13=1,5/36=2,99/5=2) pseudo=read geom=check guess=(r
 ead,tcheck) scf=(maxcycle=1)\\title\\0,1\Cl,0,1.534906,-0.544479,-0.00
 0012\Cl,0,-1.534906,-0.544479,0.\N,0,0.,1.739858,0.000009\B,0,0.,0.354
 92,0.000025\H,0,0.851432,2.279334,-0.000003\H,0,-0.851431,2.279334,0.0
 00004\\Version=ES64L-G16RevC.01\State=1-A\HF=-1000.3147719\RMSD=2.496e
 -02\Dipole=0.0000001,1.0289802,0.000008\Quadrupole=-0.8100262,2.905649
 1,-2.0956229,0.0000006,-0.0000055,-0.0000071\PG=C01 [X(B1Cl2H2N1)]\\@

 Normal termination of Gaussian 16 at Tue Apr  8 23:41:10 2025.
