 Gaussian 16, Revision C.01,

 ----------------------------------------------------------------------
 #t hf aug-cc-pvdz symm=none int=(grid=ultrafine) guess=(read,tcheck) s
 table=(opt,rrhf)
 ----------------------------------------------------------------------
 -----
 title
 -----
 Symbolic Z-matrix:
 Charge =  0 Multiplicity = 1

 SCF Done:  E(RHF) =  -1073.97884334     A.U. after   13 cycles

 1\1\GINC-SE367\Stability\RHF\Aug-CC-pVDZ\C4H6Cl2\OHZDE\08-Apr-2025\0\\
 #t hf aug-cc-pvdz symm=none int=(grid=ultrafine) guess=(read,tcheck) s
 table=(opt,rrhf)\\title\\0,1\C,0,-1.746106,-0.837589,0.032428\C,0,-0.5
 25571,-0.07209,0.403215\C,0,0.525571,0.07209,-0.403215\Cl,0,-3.21364,0
 .258982,-0.042382\H,0,-1.999656,-1.591014,0.777055\H,0,-1.662469,-1.30
 0626,-0.948325\C,0,1.746106,0.837589,-0.032428\H,0,1.999656,1.591014,-
 0.777055\Cl,0,3.21364,-0.258982,0.042382\H,0,1.662469,1.300626,0.94832
 5\H,0,-0.521987,0.378342,1.392551\H,0,0.521987,-0.378342,-1.392551\\Ve

 Normal termination of Gaussian 16 at Tue Apr  8 22:48:39 2025.
 Gaussian 16:  ES64L-G16RevC.01  3-Jul-2019

 ----------------------------------------------------------------------
 #t hf aug-cc-pvdz iop(5/13=1,5/36=2,99/5=2) pseudo=read geom=check gue
 ss=(read,tcheck) scf=(maxcycle=1)
 ----------------------------------------------------------------------
 -----
 title
 -----
 Structure from the checkpoint file:  "BDE49_expt_1649_mol1.chk"
 Charge =  0 Multiplicity = 1

                         Standard orientation:
 ---------------------------------------------------------------------
 Center     Atomic      Atomic             Coordinates (Angstroms)
 Number     Number       Type             X           Y           Z
 ---------------------------------------------------------------------
      1          6           0       -1.746106   -0.837589    0.032428
      2          6           0       -0.525571   -0.072090    0.403215
      3          6           0        0.525571    0.072090   -0.403215
      4         17           0       -3.213640    0.258982   -0.042382
      5          1           0       -1.999656   -1.591014    0.777055
      6          1           0       -1.662469   -1.300626   -0.948325
      7          6           0        1.746106    0.837589   -0.032428
      8          1           0        1.999656    1.591014   -0.777055
      9         17           0        3.213640   -0.258982    0.042382
     10          1           0        1.662469    1.300626    0.948325
     11          1           0       -0.521987    0.378342    1.392551
     12          1           0        0.521987   -0.378342   -1.392551
 ---------------------------------------------------------------------

 SCF Done:  E(RHF) =  -1075.23831343     A.U. after    2 cycles

 The electronic state is 1-AG.
 Alpha  occ. eigenvalues --  -99.88259 -99.88258 -11.48125 -11.46648 -11.45071
 Alpha  occ. eigenvalues --  -11.40336 -10.45456 -10.45452  -9.65409  -9.65319
 Alpha  occ. eigenvalues --   -9.64678  -9.64635  -9.64602  -9.64586  -1.36126
 Alpha  occ. eigenvalues --   -1.32057  -1.20013  -1.06305  -0.94000  -0.82174
 Alpha  occ. eigenvalues --   -0.67998  -0.67577  -0.62021  -0.61588  -0.60141
 Alpha  occ. eigenvalues --   -0.55815  -0.53478  -0.49239  -0.48310  -0.48135
 Alpha  occ. eigenvalues --   -0.45789  -0.37588
 Alpha virt. eigenvalues --    0.02896   0.04712   0.05739   0.05820   0.05952
 Alpha virt. eigenvalues --    0.05963   0.07497   0.08625   0.09453   0.11184
 Alpha virt. eigenvalues --    0.11586   0.11706   0.13213   0.14112   0.15427

 Mulliken charges:
               1
     1  C   -4.692245
     2  C    0.277434
     3  C    0.277434
     4  Cl   0.109883
     5  H    1.367090
     6  H    1.570111
     7  C   -4.692245
     8  H    1.367090
     9  Cl   0.109883
    10  H    1.570111
    11  H    1.367726
    12  H    1.367726
 Sum of Mulliken charges =   0.00000

 Dipole moment (field-independent basis, Debye):
    X=             -0.0000    Y=             -0.0000    Z=             -0.0000  Tot=              0.0000

 Test job not archived.
 1\1\GINC-SE367\SP\RHF\Aug-CC-pVDZ\C4H6Cl2\OHZDE\08-Apr-2025\0\\#t hf a
 ug-cc-pvdz iop(5/13=1,5/36=2,99/5=2) pseudo=read geom=check guess=(rea
 d,tcheck) scf=(maxcycle=1)\\title\\0,1\C,0,-1.746106,-0.837589,0.03242
 8\C,0,-0.525571,-0.07209,0.403215\C,0,0.525571,0.07209,-0.403215\Cl,0,
 -3.21364,0.258982,-0.042382\H,0,-1.999656,-1.591014,0.777055\H,0,-1.66
 2469,-1.300626,-0.948325\C,0,1.746106,0.837589,-0.032428\H,0,1.999656,
 1.591014,-0.777055\Cl,0,3.21364,-0.258982,0.042382\H,0,1.662469,1.3006
 26,0.948325\H,0,-0.521987,0.378342,1.392551\H,0,0.521987,-0.378342,-1.

 Normal termination of Gaussian 16 at Tue Apr  8 22:48:42 2025.
