 Gaussian 16, Revision C.01,

 ----------------------------------------------------------------------
 #t hf aug-cc-pvdz symm=none int=(grid=ultrafine) guess=(read,tcheck) s
 table=(opt,rrhf)
 ----------------------------------------------------------------------
 -----
 title
 -----
 Symbolic Z-matrix:
 Charge =  0 Multiplicity = 1

 SCF Done:  E(RHF) =  -156.125257478     A.U. after   12 cycles
 Normal termination of Gaussian 16 at Tue Apr  8 23:07:46 2025.
 Gaussian 16:  ES64L-G16RevC.01  3-Jul-2019

 ----------------------------------------------------------------------
 #t hf aug-cc-pvdz iop(5/13=1,5/36=2,99/5=2) pseudo=read geom=check gue
 ss=(read,tcheck) scf=(maxcycle=1)
 ----------------------------------------------------------------------
 -----
 title
 -----
 Structure from the checkpoint file:  "BDE49_expt_42_mol1.chk"
 Charge =  0 Multiplicity = 1

                         Standard orientation:
 ---------------------------------------------------------------------
 Center     Atomic      Atomic             Coordinates (Angstroms)
 Number     Number       Type             X           Y           Z
 ---------------------------------------------------------------------
      1          6           0       -1.859505    0.018261   -0.278605
      2          6           0       -0.723635   -0.296460    0.336812
      3          1           0       -1.956211    0.929737   -0.861507
      4          1           0       -2.734867   -0.619083   -0.221621
      5          6           0        0.538430    0.519332    0.307660
      6          1           0       -0.673547   -1.223221    0.908151
      7          6           0        1.729292   -0.245308   -0.293154
      8          1           0        0.793758    0.820442    1.331971
      9          1           0        0.364938    1.442045   -0.255406
     10          1           0        1.930628   -1.164526    0.265123
     11          1           0        2.637382    0.363170   -0.271586
     12          1           0        1.530424   -0.523515   -1.331402
 ---------------------------------------------------------------------

 SCF Done:  E(RHF) =  -156.930414516     A.U. after    2 cycles

 The electronic state is 1-A.
 Alpha  occ. eigenvalues --  -11.42408 -11.39215 -11.37244 -11.35182  -1.22958
 Alpha  occ. eigenvalues --   -1.06459  -0.89908  -0.78075  -0.64187  -0.59749
 Alpha  occ. eigenvalues --   -0.57798  -0.51864  -0.49971  -0.47142  -0.44370
 Alpha  occ. eigenvalues --   -0.33954
 Alpha virt. eigenvalues --    0.03876   0.05343   0.05866   0.06168   0.06268
 Alpha virt. eigenvalues --    0.06455   0.06883   0.08356   0.10841   0.12242
 Alpha virt. eigenvalues --    0.13155   0.13880   0.15374   0.15517   0.16042

 Mulliken charges:
               1
     1  C   -3.044448
     2  C   -0.128569
     3  H    1.408940
     4  H    1.363498
     5  C   -3.828027
     6  H    1.383638
     7  C   -3.604139
     8  H    1.339044
     9  H    1.362248
    10  H    1.262255
    11  H    1.166522
    12  H    1.319039
 Sum of Mulliken charges =  -0.00000

 Dipole moment (field-independent basis, Debye):
    X=              0.3205    Y=              0.0713    Z=              0.1318  Tot=              0.3538

 Test job not archived.
 1\1\GINC-SE338\SP\RHF\Aug-CC-pVDZ\C4H8\OHZDE\08-Apr-2025\0\\#t hf aug-
 cc-pvdz iop(5/13=1,5/36=2,99/5=2) pseudo=read geom=check guess=(read,t
 check) scf=(maxcycle=1)\\title\\0,1\C,0,-1.859505,0.018261,-0.278605\C
 ,0,-0.723635,-0.29646,0.336812\H,0,-1.956211,0.929737,-0.861507\H,0,-2
 .734867,-0.619083,-0.221621\C,0,0.53843,0.519332,0.30766\H,0,-0.673547
 ,-1.223221,0.908151\C,0,1.729292,-0.245308,-0.293154\H,0,0.793758,0.82
 0442,1.331971\H,0,0.364938,1.442045,-0.255406\H,0,1.930628,-1.164526,0
 .265123\H,0,2.637382,0.36317,-0.271586\H,0,1.530424,-0.523515,-1.33140

 Normal termination of Gaussian 16 at Tue Apr  8 23:07:48 2025.
