 Gaussian 16, Revision C.01,

 ----------------------------------------------------------------------
 #t hf aug-cc-pvdz symm=none int=(grid=ultrafine) guess=(read,tcheck) s
 table=(opt,rrhf)
 ----------------------------------------------------------------------
 -----
 title
 -----
 Symbolic Z-matrix:
 Charge =  0 Multiplicity = 1

 SCF Done:  E(RHF) =  -947.509984540     A.U. after   13 cycles
 Normal termination of Gaussian 16 at Tue Apr  8 23:43:46 2025.
 Gaussian 16:  ES64L-G16RevC.01  3-Jul-2019

 ----------------------------------------------------------------------
 #t hf aug-cc-pvdz iop(5/13=1,5/36=2,99/5=2) pseudo=read geom=check gue
 ss=(read,tcheck) scf=(maxcycle=1)
 ----------------------------------------------------------------------
 -----
 title
 -----
 Structure from the checkpoint file:  "BDE49_nonexpt_1692_mol1.chk"
 Charge =  0 Multiplicity = 1

                         Standard orientation:
 ---------------------------------------------------------------------
 Center     Atomic      Atomic             Coordinates (Angstroms)
 Number     Number       Type             X           Y           Z
 ---------------------------------------------------------------------
      1         14           0       -0.894220    0.000000    0.029885
      2         15           0        1.313448    0.000000   -0.709193
      3          9           0        1.797861    1.244578    0.246219
      4          9           0        1.797861   -1.244578    0.246219
      5          6           0       -1.715929   -1.550219   -0.650265
      6          1           0       -1.709874   -1.562986   -1.743997
      7          1           0       -2.759669   -1.601517   -0.323786
      8          1           0       -1.212090   -2.454565   -0.298639
      9          6           0       -1.715929    1.550219   -0.650265
     10          1           0       -1.709875    1.562986   -1.743996
     11          1           0       -1.212090    2.454565   -0.298638
     12          1           0       -2.759669    1.601517   -0.323786
     13          6           0       -0.847211    0.000000    1.906630
     14          1           0       -0.323393   -0.883067    2.280569
     15          1           0       -1.859672   -0.000002    2.322652
     16          1           0       -0.323395    0.883068    2.280569
 ---------------------------------------------------------------------

 SCF Done:  E(RHF) =  -949.162723595     A.U. after    2 cycles

 The electronic state is 1-A.
 Alpha  occ. eigenvalues -- -105.27024 -76.21033 -29.27192 -29.27192 -11.36005
 Alpha  occ. eigenvalues --  -11.35954 -11.35407  -5.55228  -2.85851  -2.18904
 Alpha  occ. eigenvalues --   -2.18833  -2.16856  -1.58962  -1.55700  -1.50344
 Alpha  occ. eigenvalues --   -1.08564  -1.02289  -1.02031  -0.87834  -0.64307
 Alpha  occ. eigenvalues --   -0.58156  -0.57905  -0.57780  -0.56177  -0.55880
 Alpha  occ. eigenvalues --   -0.55504  -0.54472  -0.43289  -0.41180  -0.40914
 Alpha  occ. eigenvalues --   -0.38153  -0.34078  -0.33171  -0.27277  -0.18885
 Alpha  occ. eigenvalues --   -0.12571   0.00515
 Alpha virt. eigenvalues --    0.02996   0.05245   0.05535   0.05970   0.06784
 Alpha virt. eigenvalues --    0.07045   0.07265   0.07524   0.08286   0.09082
 Alpha virt. eigenvalues --    0.10448   0.10831   0.11455   0.13067   0.14165

 Mulliken charges:
               1
     1  Si   5.405999
     2  P    2.860729
     3  F   -0.733223
     4  F   -0.733223
     5  C   -5.721763
     6  H    1.059322
     7  H    0.999723
     8  H    1.259261
     9  C   -5.721763
    10  H    1.059323
    11  H    1.259261
    12  H    0.999722
    13  C   -5.653007
    14  H    1.218801
    15  H    1.222036
    16  H    1.218801
 Sum of Mulliken charges =  -0.00000

 Dipole moment (field-independent basis, Debye):
    X=              3.3790    Y=              0.0000    Z=              7.8234  Tot=              8.5220

 Test job not archived.
 1\1\GINC-SE424\SP\RHF\Aug-CC-pVDZ\C3H9F2P1Si1\OHZDE\08-Apr-2025\0\\#t
 hf aug-cc-pvdz iop(5/13=1,5/36=2,99/5=2) pseudo=read geom=check guess=
 (read,tcheck) scf=(maxcycle=1)\\title\\0,1\Si,0,0.89422,0.,0.029885\P,
 0,-1.313448,0.,-0.709193\F,0,-1.797861,-1.244578,0.246219\F,0,-1.79786
 1,1.244578,0.246219\C,0,1.715929,1.550219,-0.650265\H,0,1.709874,1.562
 986,-1.743997\H,0,2.759669,1.601517,-0.323786\H,0,1.21209,2.454565,-0.
 298639\C,0,1.715929,-1.550219,-0.650265\H,0,1.709875,-1.562986,-1.7439
 96\H,0,1.21209,-2.454565,-0.298638\H,0,2.759669,-1.601517,-0.323786\C,

 Normal termination of Gaussian 16 at Tue Apr  8 23:43:52 2025.
