 Gaussian 16, Revision C.01,

 ----------------------------------------------------------------------
 #t hf aug-cc-pvdz symm=none int=(grid=ultrafine) guess=(read,tcheck) s
 table=opt
 ----------------------------------------------------------------------
 -----
 title
 -----
 Symbolic Z-matrix:
 Charge =  0 Multiplicity = 2

 SCF Done:  E(UHF) =  -947.475434516     A.U. after   14 cycles
 Normal termination of Gaussian 16 at Tue Apr  8 23:48:15 2025.
 Gaussian 16:  ES64L-G16RevC.01  3-Jul-2019

 ----------------------------------------------------------------------
 #t hf aug-cc-pvdz iop(5/13=1,5/36=2,99/5=2) pseudo=read geom=check gue
 ss=(read,tcheck) scf=(maxcycle=1)
 ----------------------------------------------------------------------
 -----
 title
 -----
 Structure from the checkpoint file:  "BDE49_nonexpt_1807_mol2.chk"
 Charge =  0 Multiplicity = 2

                         Standard orientation:
 ---------------------------------------------------------------------
 Center     Atomic      Atomic             Coordinates (Angstroms)
 Number     Number       Type             X           Y           Z
 ---------------------------------------------------------------------
      1         14           0        0.603669   -0.035638   -0.000000
      2          9           0        0.603669   -0.987843    1.281418
      3          9           0        0.603669   -0.987843   -1.281418
      4         17           0       -1.136317    1.075300    0.000000
 ---------------------------------------------------------------------

 SCF Done:  E(UHF) =  -948.525280240     A.U. after    2 cycles

 The electronic state is 2-A'.
 Alpha  occ. eigenvalues --  -99.91783 -76.35658 -29.30866 -29.30865 -10.49244
 Alpha  occ. eigenvalues --   -9.69261  -9.68339  -9.68313  -5.70945  -2.34990
 Alpha  occ. eigenvalues --   -2.32813  -2.29288  -1.33134  -0.96743  -0.72770
 Alpha  occ. eigenvalues --   -0.64921  -0.58173  -0.56345  -0.47622  -0.43366
 Alpha  occ. eigenvalues --   -0.39331  -0.37686  -0.36022  -0.30802  -0.25454
 Alpha virt. eigenvalues --    0.05391   0.05790   0.07342   0.09426   0.13040
 Alpha virt. eigenvalues --    0.14716   0.14766   0.15100   0.16099   0.21077
 Alpha virt. eigenvalues --    0.22702   0.23867   0.24726   0.26235   0.26642

  Beta  occ. eigenvalues --  -99.91613 -76.35000 -29.30533 -29.30531 -10.49054
  Beta  occ. eigenvalues --   -9.68705  -9.68247  -9.68073  -5.69794  -2.34252
  Beta  occ. eigenvalues --   -2.32052  -2.26145  -1.31658  -0.93131  -0.72255
  Beta  occ. eigenvalues --   -0.62846  -0.56703  -0.56064  -0.43306  -0.41757
  Beta  occ. eigenvalues --   -0.38682  -0.36304  -0.35761  -0.30471
  Beta virt. eigenvalues --    0.03020   0.05653   0.07481   0.08481   0.10048
  Beta virt. eigenvalues --    0.13536   0.14950   0.15232   0.17680   0.18134
  Beta virt. eigenvalues --    0.21300   0.23201   0.24864   0.25177   0.26651

 Mulliken charges and spin densities:
               1          2
     1  Si   2.261965   0.966374
     2  F   -0.763015  -0.016832
     3  F   -0.763015  -0.016832
     4  Cl  -0.735935   0.067291
 Sum of Mulliken charges =  -0.00000   1.00000

 Dipole moment (field-independent basis, Debye):
    X=              1.5917    Y=             -3.2593    Z=              0.0000  Tot=              3.6272
                          Isotropic Fermi Contact Couplings
        Atom                 a.u.       MegaHertz       Gauss      10(-4) cm-1
     1  Si(29)             0.70281    -624.60331    -222.87399    -208.34524
     2  F(19)              0.06197     260.73705      93.03746      86.97252
     3  F(19)              0.06197     260.73705      93.03746      86.97252
     4  Cl(35)             0.12794      56.09538      20.01623      18.71140
 --------------------------------------------------------
       Center         ----  Spin Dipole Couplings  ----
                      3XX-RR        3YY-RR        3ZZ-RR
 --------------------------------------------------------

 Normal termination of Gaussian 16 at Tue Apr  8 23:48:16 2025.
