 Gaussian 16, Revision C.01,

 ----------------------------------------------------------------------
 #t hf aug-cc-pvdz symm=none int=(grid=ultrafine) guess=(read,tcheck) s
 table=(opt,rrhf)
 ----------------------------------------------------------------------
 -----
 title
 -----
 Symbolic Z-matrix:
 Charge =  0 Multiplicity = 1

 SCF Done:  E(RHF) =  -1601.90187666     A.U. after   16 cycles
 Normal termination of Gaussian 16 at Wed Apr  9 00:14:25 2025.
 Gaussian 16:  ES64L-G16RevC.01  3-Jul-2019

 ----------------------------------------------------------------------
 #t hf aug-cc-pvdz iop(5/13=1,5/36=2,99/5=2) pseudo=read geom=check gue
 ss=(read,tcheck) scf=(maxcycle=1)
 ----------------------------------------------------------------------
 -----
 title
 -----
 Structure from the checkpoint file:  "BDE49_nonexpt_2433_mol1.chk"
 Charge =  0 Multiplicity = 1

                         Standard orientation:
 ---------------------------------------------------------------------
 Center     Atomic      Atomic             Coordinates (Angstroms)
 Number     Number       Type             X           Y           Z
 ---------------------------------------------------------------------
      1         14           0       -1.093741   -1.294599   -0.652677
      2         14           0        0.856451   -1.148831    0.676087
      3          6           0        1.844446    0.390228    0.033364
      4          1           0        1.714340   -2.351637    0.570304
      5          1           0        0.550164   -0.877671    2.098459
      6          8           0        1.288513    1.427747   -0.244784
      7         16           0        3.633030    0.182895   -0.121622
      8          1           0        3.860034    1.441116   -0.547334
      9          6           0       -2.502675   -0.120174   -0.023523
     10          1           0       -1.642723   -2.666243   -0.627976
     11          1           0       -0.730850   -0.908284   -2.036027
     12          8           0       -3.589356   -0.570672    0.234656
     13         16           0       -2.206763    1.657716    0.146612
     14          1           0       -0.893062    1.644047   -0.163025
 ---------------------------------------------------------------------

 SCF Done:  E(RHF) =  -1603.59920822     A.U. after    2 cycles

 The electronic state is 1-A.
 Alpha  occ. eigenvalues --  -76.25715 -76.25201 -75.72798 -75.70682 -21.09930
 Alpha  occ. eigenvalues --  -21.08139 -13.17316 -13.14031 -13.13521 -13.11470
 Alpha  occ. eigenvalues --  -13.04869 -13.03134 -11.50509 -11.48771  -8.06838
 Alpha  occ. eigenvalues --   -8.04682  -5.59297  -5.58739  -2.22806  -2.22163
 Alpha  occ. eigenvalues --   -2.21503  -2.21108  -2.20940  -2.19795  -1.74844
 Alpha  occ. eigenvalues --   -1.72811  -1.17721  -1.15596  -0.89861  -0.84848
 Alpha  occ. eigenvalues --   -0.74314  -0.69371  -0.59929  -0.58319  -0.56965
 Alpha  occ. eigenvalues --   -0.53110  -0.52463  -0.51184  -0.49251  -0.48536
 Alpha  occ. eigenvalues --   -0.46405  -0.44364  -0.38850  -0.28159  -0.27341
 Alpha  occ. eigenvalues --   -0.25940  -0.24964
 Alpha virt. eigenvalues --    0.02790   0.04149   0.04420   0.04690   0.05562
 Alpha virt. eigenvalues --    0.06119   0.06938   0.07111   0.07603   0.07960
 Alpha virt. eigenvalues --    0.08509   0.09086   0.09507   0.10022   0.10518

 Mulliken charges:
               1
     1  Si   4.386242
     2  Si   4.673781
     3  C    0.781615
     4  H   -1.828866
     5  H   -1.713589
     6  O   -2.572939
     7  S   -0.440839
     8  H    1.058372
     9  C    0.580721
    10  H   -1.951628
    11  H   -1.573818
    12  O   -2.374298
    13  S   -0.325953
    14  H    1.301199
 Sum of Mulliken charges =   0.00000

 Dipole moment (field-independent basis, Debye):
    X=              1.1777    Y=             -0.2094    Z=              0.4116  Tot=              1.2650

 Test job not archived.
 1\1\GINC-SE120\SP\RHF\Aug-CC-pVDZ\C2H6O2S2Si2\OHZDE\09-Apr-2025\0\\#t
 hf aug-cc-pvdz iop(5/13=1,5/36=2,99/5=2) pseudo=read geom=check guess=
 (read,tcheck) scf=(maxcycle=1)\\title\\0,1\Si,0,1.093741,-1.294599,0.6
 52677\Si,0,-0.856451,-1.148831,-0.676087\C,0,-1.844446,0.390228,-0.033
 364\H,0,-1.71434,-2.351637,-0.570304\H,0,-0.550164,-0.877671,-2.098459
 \O,0,-1.288513,1.427747,0.244784\S,0,-3.63303,0.182895,0.121622\H,0,-3
 .860034,1.441116,0.547334\C,0,2.502675,-0.120174,0.023523\H,0,1.642723
 ,-2.666243,0.627976\H,0,0.73085,-0.908284,2.036027\O,0,3.589356,-0.570

 Normal termination of Gaussian 16 at Wed Apr  9 00:14:32 2025.
