 Gaussian 16, Revision C.01,

 ----------------------------------------------------------------------
 #t hf aug-cc-pvdz symm=none int=(grid=ultrafine) guess=(read,tcheck) s
 table=(opt,rrhf)
 ----------------------------------------------------------------------
 -----
 title
 -----
 Symbolic Z-matrix:
 Charge =  0 Multiplicity = 1

 SCF Done:  E(RHF) =  -799.877424456     A.U. after   14 cycles
 Normal termination of Gaussian 16 at Tue Apr  8 22:42:19 2025.
 Gaussian 16:  ES64L-G16RevC.01  3-Jul-2019

 ----------------------------------------------------------------------
 #t hf aug-cc-pvdz iop(5/13=1,5/36=2,99/5=2) pseudo=read geom=check gue
 ss=(read,tcheck) scf=(maxcycle=1)
 ----------------------------------------------------------------------
 -----
 title
 -----
 Structure from the checkpoint file:  "BDE49_expt_1341_mol1.chk"
 Charge =  0 Multiplicity = 1

                         Standard orientation:
 ---------------------------------------------------------------------
 Center     Atomic      Atomic             Coordinates (Angstroms)
 Number     Number       Type             X           Y           Z
 ---------------------------------------------------------------------
      1          6           0       -0.000000    1.363624   -0.000000
      2          6           0        1.211231    0.687896   -0.000000
      3          6           0       -1.220414    0.690320    0.000000
      4          6           0       -1.197344   -0.704956    0.000000
      5          6           0        0.009993   -1.393014    0.000000
      6          6           0        1.217196   -0.701702   -0.000000
      7          8           0       -2.408356    1.337861    0.000000
      8          1           0       -2.241329    2.288674   -0.000000
      9          9           0       -0.026180    2.714304   -0.000000
     10          9           0        2.361453    1.366833   -0.000000
     11          9           0        2.375043   -1.369962   -0.000000
     12          9           0        0.012512   -2.728561    0.000000
     13          9           0       -2.346805   -1.387567    0.000000
 ---------------------------------------------------------------------

 SCF Done:  E(RHF) =  -802.877778712     A.U. after    2 cycles

 The electronic state is 1-A'.
 Alpha  occ. eigenvalues --  -29.33585 -29.33147 -29.32752 -29.32602 -29.32195
 Alpha  occ. eigenvalues --  -21.14804 -11.61590 -11.54813 -11.53945 -11.52204
 Alpha  occ. eigenvalues --  -11.51726 -11.47085  -1.80924  -1.46516  -1.29086
 Alpha  occ. eigenvalues --   -1.24259  -1.09798  -1.04506  -0.91939  -0.86097
 Alpha  occ. eigenvalues --   -0.78815  -0.76785  -0.71876  -0.68439  -0.66849
 Alpha  occ. eigenvalues --   -0.62751  -0.56974  -0.56630  -0.50957  -0.44873
 Alpha  occ. eigenvalues --   -0.43851  -0.43404  -0.42778  -0.42725  -0.41515
 Alpha  occ. eigenvalues --   -0.40347  -0.38109  -0.33389  -0.31947  -0.31310
 Alpha  occ. eigenvalues --   -0.30687  -0.29411  -0.28463  -0.21055  -0.19754
 Alpha virt. eigenvalues --    0.04674   0.08208   0.10025   0.10521   0.11293
 Alpha virt. eigenvalues --    0.11451   0.11825   0.12108   0.12112   0.12866
 Alpha virt. eigenvalues --    0.13768   0.14125   0.14312   0.14868   0.15347

 Mulliken charges:
               1
     1  C    0.348780
     2  C   -1.812773
     3  C   -1.304735
     4  C    1.968923
     5  C   -1.987025
     6  C    0.477900
     7  O   -4.077690
     8  H    0.878793
     9  F    0.947504
    10  F    1.224992
    11  F    1.094337
    12  F    1.130636
    13  F    1.110360
 Sum of Mulliken charges =   0.00000

 Dipole moment (field-independent basis, Debye):
    X=              1.6892    Y=             -0.2890    Z=             -0.0000  Tot=              1.7137

 Test job not archived.
 1\1\GINC-SE334\SP\RHF\Aug-CC-pVDZ\C6H1F5O1\OHZDE\08-Apr-2025\0\\#t hf
 aug-cc-pvdz iop(5/13=1,5/36=2,99/5=2) pseudo=read geom=check guess=(re
 ad,tcheck) scf=(maxcycle=1)\\title\\0,1\C,0,0.,1.363624,0.\C,0,-1.2112
 31,0.687896,0.\C,0,1.220414,0.69032,0.\C,0,1.197344,-0.704956,0.\C,0,-
 0.009993,-1.393014,0.\C,0,-1.217196,-0.701702,0.\O,0,2.408356,1.337861
 ,0.\H,0,2.241329,2.288674,0.\F,0,0.02618,2.714304,0.\F,0,-2.361453,1.3
 66833,0.\F,0,-2.375043,-1.369962,0.\F,0,-0.012512,-2.728561,0.\F,0,2.3
 46805,-1.387567,0.\\Version=ES64L-G16RevC.01\State=1-A'\HF=-802.877778

 Normal termination of Gaussian 16 at Tue Apr  8 22:42:26 2025.
