 Gaussian 16, Revision C.01,

 ----------------------------------------------------------------------
 #t hf aug-cc-pvdz symm=none int=(grid=ultrafine) guess=(read,tcheck) s
 table=(opt,rrhf)
 ----------------------------------------------------------------------
 -----
 title
 -----
 Symbolic Z-matrix:
 Charge =  0 Multiplicity = 1

 SCF Done:  E(RHF) =  -498.633633729     A.U. after   12 cycles

 1\1\GINC-SE029\Stability\RHF\Aug-CC-pVDZ\C4H11P1\OHZDE\08-Apr-2025\0\\
 #t hf aug-cc-pvdz symm=none int=(grid=ultrafine) guess=(read,tcheck) s
 table=(opt,rrhf)\\title\\0,1\P,0,-0.449251,-0.001573,-0.585997\C,0,-1.
 812109,-0.962639,0.23258\H,0,-1.769237,-0.907347,1.325075\H,0,-1.75138
 3,-2.01085,-0.07039\H,0,-2.778669,-0.577422,-0.101371\C,0,1.007929,-0.
 690699,0.357\C,0,-0.666472,1.626839,0.283096\H,0,-1.600886,2.087747,-0
 .046857\H,0,0.145914,2.304416,0.011147\H,0,-0.690838,1.520755,1.372639
 \C,0,2.344,-0.041413,-0.023303\H,0,1.041703,-1.761717,0.129413\H,0,0.8

 Normal termination of Gaussian 16 at Tue Apr  8 23:29:10 2025.
 Gaussian 16:  ES64L-G16RevC.01  3-Jul-2019

 ----------------------------------------------------------------------
 #t hf aug-cc-pvdz iop(5/13=1,5/36=2,99/5=2) pseudo=read geom=check gue
 ss=(read,tcheck) scf=(maxcycle=1)
 ----------------------------------------------------------------------
 -----
 title
 -----
 Structure from the checkpoint file:  "BDE49_nonexpt_1309_mol1.chk"
 Charge =  0 Multiplicity = 1

                         Standard orientation:
 ---------------------------------------------------------------------
 Center     Atomic      Atomic             Coordinates (Angstroms)
 Number     Number       Type             X           Y           Z
 ---------------------------------------------------------------------
      1         15           0       -0.449251   -0.001573   -0.585997
      2          6           0       -1.812109   -0.962639    0.232580
      3          1           0       -1.769237   -0.907347    1.325075
      4          1           0       -1.751383   -2.010850   -0.070390
      5          1           0       -2.778669   -0.577422   -0.101371
      6          6           0        1.007929   -0.690699    0.357000
      7          6           0       -0.666472    1.626839    0.283096
      8          1           0       -1.600886    2.087747   -0.046857
      9          1           0        0.145914    2.304416    0.011147
     10          1           0       -0.690838    1.520755    1.372639
     11          6           0        2.344000   -0.041413   -0.023303
     12          1           0        1.041703   -1.761717    0.129413
     13          1           0        0.828458   -0.600101    1.435158
     14          1           0        2.536798   -0.132228   -1.095685
     15          1           0        3.174878   -0.515018    0.507325
     16          1           0        2.361936    1.022829    0.227260
 ---------------------------------------------------------------------

 SCF Done:  E(RHF) =  -499.677261383     A.U. after    2 cycles

 The electronic state is 1-A.
 Alpha  occ. eigenvalues -- -105.15018 -11.39692 -11.36370 -11.36278 -11.35349
 Alpha  occ. eigenvalues --   -2.73675  -1.46757  -1.46023  -1.43182  -1.13292
 Alpha  occ. eigenvalues --   -1.01902  -0.96119  -0.86453  -0.64306  -0.61154
 Alpha  occ. eigenvalues --   -0.57045  -0.56324  -0.55250  -0.54569  -0.53742
 Alpha  occ. eigenvalues --   -0.49042  -0.48547  -0.19981  -0.18760  -0.00916
 Alpha virt. eigenvalues --    0.05030   0.05424   0.05883   0.06313   0.06473
 Alpha virt. eigenvalues --    0.06623   0.06934   0.07113   0.08022   0.08176
 Alpha virt. eigenvalues --    0.09135   0.10714   0.11712   0.12449   0.14304

 Mulliken charges:
               1
     1  P    9.032971
     2  C   -6.189933
     3  H    1.034077
     4  H    1.075584
     5  H    1.103411
     6  C   -4.728468
     7  C   -6.367336
     8  H    1.026833
     9  H    1.202134
    10  H    0.971120
    11  C   -4.022629
    12  H    1.190788
    13  H    1.270910
    14  H    1.232668
    15  H    0.942698
    16  H    1.225174
 Sum of Mulliken charges =   0.00000

 Dipole moment (field-independent basis, Debye):
    X=              0.3207    Y=             -0.3700    Z=             -3.0115  Tot=              3.0510

 Test job not archived.
 1\1\GINC-SE029\SP\RHF\Aug-CC-pVDZ\C4H11P1\OHZDE\08-Apr-2025\0\\#t hf a
 ug-cc-pvdz iop(5/13=1,5/36=2,99/5=2) pseudo=read geom=check guess=(rea
 d,tcheck) scf=(maxcycle=1)\\title\\0,1\P,0,-0.449251,-0.001573,-0.5859
 97\C,0,-1.812109,-0.962639,0.23258\H,0,-1.769237,-0.907347,1.325075\H,
 0,-1.751383,-2.01085,-0.07039\H,0,-2.778669,-0.577422,-0.101371\C,0,1.
 007929,-0.690699,0.357\C,0,-0.666472,1.626839,0.283096\H,0,-1.600886,2
 .087747,-0.046857\H,0,0.145914,2.304416,0.011147\H,0,-0.690838,1.52075
 5,1.372639\C,0,2.344,-0.041413,-0.023303\H,0,1.041703,-1.761717,0.1294

 Normal termination of Gaussian 16 at Tue Apr  8 23:29:15 2025.
