 Gaussian 16, Revision C.01,

 ----------------------------------------------------------------------
 #t hf aug-cc-pvdz symm=none int=(grid=ultrafine) guess=(read,tcheck) s
 table=(opt,rrhf)
 ----------------------------------------------------------------------
 -----
 title
 -----
 Symbolic Z-matrix:
 Charge =  0 Multiplicity = 1

 SCF Done:  E(RHF) =  -725.828152407     A.U. after   11 cycles
 Normal termination of Gaussian 16 at Tue Apr  8 23:49:55 2025.
 Gaussian 16:  ES64L-G16RevC.01  3-Jul-2019

 ----------------------------------------------------------------------
 #t hf aug-cc-pvdz iop(5/13=1,5/36=2,99/5=2) pseudo=read geom=check gue
 ss=(read,tcheck) scf=(maxcycle=1)
 ----------------------------------------------------------------------
 -----
 title
 -----
 Structure from the checkpoint file:  "BDE49_nonexpt_1838_mol1.chk"
 Charge =  0 Multiplicity = 1

                         Standard orientation:
 ---------------------------------------------------------------------
 Center     Atomic      Atomic             Coordinates (Angstroms)
 Number     Number       Type             X           Y           Z
 ---------------------------------------------------------------------
      1         14           0        1.097222    0.598547   -0.000001
      2          6           0       -0.715359   -0.033590   -0.000001
      3          9           0       -1.565784    1.027452   -0.000005
      4          9           0        2.062394   -0.680739    0.000004
      5          9           0       -1.009004   -0.780316    1.089486
      6          1           0        1.311797    1.373606    1.231275
      7          9           0       -1.009001   -0.780322   -1.089483
      8          1           0        1.311800    1.373598   -1.231280
 ---------------------------------------------------------------------

 SCF Done:  E(RHF) =  -727.501563470     A.U. after    2 cycles

 The electronic state is 1-A.
 Alpha  occ. eigenvalues --  -76.29237 -29.31602 -29.31505 -29.31452 -29.29636
 Alpha  occ. eigenvalues --  -11.55804  -5.63801  -2.29098  -2.26171  -2.24935
 Alpha  occ. eigenvalues --   -1.38820  -0.92326  -0.87608  -0.87604  -0.71688
 Alpha  occ. eigenvalues --   -0.60818  -0.54806  -0.48848  -0.44151  -0.43966
 Alpha  occ. eigenvalues --   -0.39050  -0.37510  -0.36896  -0.35621  -0.35045
 Alpha  occ. eigenvalues --   -0.26694  -0.26536  -0.24146  -0.22089
 Alpha virt. eigenvalues --    0.04360   0.06165   0.06754   0.06984   0.09354
 Alpha virt. eigenvalues --    0.10186   0.14380   0.14500   0.15050   0.16987
 Alpha virt. eigenvalues --    0.18709   0.21876   0.21994   0.22910   0.24119

 Mulliken charges:
               1
     1  Si   5.306525
     2  C   -1.629559
     3  F    0.264124
     4  F   -0.974345
     5  F    0.280883
     6  H   -1.764256
     7  F    0.280886
     8  H   -1.764257
 Sum of Mulliken charges =  -0.00000

 Dipole moment (field-independent basis, Debye):
    X=              0.1180    Y=             -2.0947    Z=              0.0000  Tot=              2.0980

 Test job not archived.
 1\1\GINC-SE186\SP\RHF\Aug-CC-pVDZ\C1H2F4Si1\OHZDE\08-Apr-2025\0\\#t hf
  aug-cc-pvdz iop(5/13=1,5/36=2,99/5=2) pseudo=read geom=check guess=(r
 ead,tcheck) scf=(maxcycle=1)\\title\\0,1\Si,0,1.097222,0.598547,-0.000
 001\C,0,-0.715359,-0.03359,-0.000001\F,0,-1.565784,1.027452,-0.000005\
 F,0,2.062394,-0.680739,0.000004\F,0,-1.009004,-0.780316,1.089486\H,0,1
 .311797,1.373606,1.231275\F,0,-1.009001,-0.780322,-1.089483\H,0,1.3118
 ,1.373598,-1.23128\\Version=ES64L-G16RevC.01\State=1-A\HF=-727.5015635
 \RMSD=7.571e-02\Dipole=0.0464324,-0.8241021,0.0000011\Quadrupole=2.824

 Normal termination of Gaussian 16 at Tue Apr  8 23:49:58 2025.
