 Gaussian 16, Revision C.01,

 ----------------------------------------------------------------------
 #t hf aug-cc-pvdz symm=none int=(grid=ultrafine) guess=(read,tcheck) s
 table=(opt,rrhf)
 ----------------------------------------------------------------------
 -----
 title
 -----
 Symbolic Z-matrix:
 Charge =  0 Multiplicity = 1

 SCF Done:  E(RHF) =  -1605.44717764     A.U. after   14 cycles
 Normal termination of Gaussian 16 at Wed Apr  9 00:01:41 2025.
 Gaussian 16:  ES64L-G16RevC.01  3-Jul-2019

 ----------------------------------------------------------------------
 #t hf aug-cc-pvdz iop(5/13=1,5/36=2,99/5=2) pseudo=read geom=check gue
 ss=(read,tcheck) scf=(maxcycle=1)
 ----------------------------------------------------------------------
 -----
 title
 -----
 Structure from the checkpoint file:  "BDE49_nonexpt_212_mol1.chk"
 Charge =  0 Multiplicity = 1

                         Standard orientation:
 ---------------------------------------------------------------------
 Center     Atomic      Atomic             Coordinates (Angstroms)
 Number     Number       Type             X           Y           Z
 ---------------------------------------------------------------------
      1         17           0        2.343372   -0.742211   -0.344517
      2         17           0        1.001917    1.936003    0.223734
      3          5           0        0.942446    0.213676    0.008389
      4         16           0       -0.699005   -0.728123    0.167662
      5          8           0       -0.611573   -1.485367    1.386922
      6          8           0       -1.812405    0.407855    0.460440
      7          6           0       -2.506365    1.025257   -0.652276
      8          1           0       -3.372656    1.509536   -0.206599
      9          1           0       -2.818182    0.269901   -1.371363
     10          1           0       -1.869602    1.771749   -1.131551
     11          8           0       -0.988451   -1.349440   -1.103370
 ---------------------------------------------------------------------

 SCF Done:  E(RHF) =  -1607.42457386     A.U. after    2 cycles

 The electronic state is 1-A.
 Alpha  occ. eigenvalues --  -99.94543 -99.94028 -75.92130 -21.10966 -21.07111
 Alpha  occ. eigenvalues --  -21.06809 -13.55125 -13.45439 -13.37768 -11.44141
 Alpha  occ. eigenvalues --  -10.51824 -10.51277  -9.71779  -9.71349  -9.71218
 Alpha  occ. eigenvalues --   -9.71139  -9.70808  -9.70626  -8.27242  -7.77259
 Alpha  occ. eigenvalues --   -1.91722  -1.74434  -1.67524  -1.44364  -1.34154
 Alpha  occ. eigenvalues --   -1.07616  -0.97218  -0.82173  -0.70835  -0.69056
 Alpha  occ. eigenvalues --   -0.65635  -0.63640  -0.62035  -0.60134  -0.56516
 Alpha  occ. eigenvalues --   -0.56054  -0.54329  -0.51418  -0.45817  -0.42806
 Alpha  occ. eigenvalues --   -0.40105  -0.38365  -0.37486  -0.36317
 Alpha virt. eigenvalues --    0.00760   0.02266   0.02967   0.03610   0.04515
 Alpha virt. eigenvalues --    0.06715   0.07525   0.08091   0.09453   0.11242
 Alpha virt. eigenvalues --    0.11754   0.13070   0.13447   0.14111   0.15239

 Mulliken charges:
               1
     1  Cl  -1.177156
     2  Cl  -1.069398
     3  B    2.979379
     4  S    6.202889
     5  O   -2.537876
     6  O   -3.118653
     7  C   -2.838641
     8  H    1.299810
     9  H    1.434555
    10  H    1.348898
    11  O   -2.523807
 Sum of Mulliken charges =  -0.00000

 Dipole moment (field-independent basis, Debye):
    X=             -1.3280    Y=              1.7637    Z=             -0.5354  Tot=              2.2718

 Test job not archived.
 1\1\GINC-SE338\SP\RHF\Aug-CC-pVDZ\C1H3B1Cl2O3S1\OHZDE\09-Apr-2025\0\\#
 t hf aug-cc-pvdz iop(5/13=1,5/36=2,99/5=2) pseudo=read geom=check gues
 s=(read,tcheck) scf=(maxcycle=1)\\title\\0,1\Cl,0,2.343372,-0.742211,-
 0.344517\Cl,0,1.001917,1.936003,0.223734\B,0,0.942446,0.213676,0.00838
 9\S,0,-0.699005,-0.728123,0.167662\O,0,-0.611573,-1.485367,1.386922\O,
 0,-1.812405,0.407855,0.46044\C,0,-2.506365,1.025257,-0.652276\H,0,-3.3
 72656,1.509535,-0.206599\H,0,-2.818182,0.269901,-1.371363\H,0,-1.86960
 2,1.771749,-1.131551\O,0,-0.988451,-1.34944,-1.10337\\Version=ES64L-G1

 Normal termination of Gaussian 16 at Wed Apr  9 00:01:45 2025.
