 Gaussian 16, Revision C.01,

 ----------------------------------------------------------------------
 #t hf aug-cc-pvdz symm=none int=(grid=ultrafine) guess=(read,tcheck) s
 table=(opt,rrhf)
 ----------------------------------------------------------------------
 -----
 title
 -----
 Symbolic Z-matrix:
 Charge =  0 Multiplicity = 1

 SCF Done:  E(RHF) =  -636.660794835     A.U. after   15 cycles
 Normal termination of Gaussian 16 at Wed Apr  9 00:44:58 2025.
 Gaussian 16:  ES64L-G16RevC.01  3-Jul-2019

 ----------------------------------------------------------------------
 #t hf aug-cc-pvdz iop(5/13=1,5/36=2,99/5=2) pseudo=read geom=check gue
 ss=(read,tcheck) scf=(maxcycle=1)
 ----------------------------------------------------------------------
 -----
 title
 -----
 Structure from the checkpoint file:  "BDE49_nonexpt_737_mol1.chk"
 Charge =  0 Multiplicity = 1

                         Standard orientation:
 ---------------------------------------------------------------------
 Center     Atomic      Atomic             Coordinates (Angstroms)
 Number     Number       Type             X           Y           Z
 ---------------------------------------------------------------------
      1          6           0       -1.051348    0.127297   -0.229450
      2          5           0        1.959467    0.073343    0.107534
      3          6           0        3.107201   -0.840165    0.674087
      4          1           0        2.991908   -0.859003    1.768445
      5          1           0        4.099140   -0.412773    0.489111
      6          1           0        3.101682   -1.879384    0.336731
      7          8           0       -1.138672    1.324790   -0.372540
      8          6           0       -2.192323   -0.720247    0.324057
      9          6           0        2.058418    1.634730    0.148808
     10          1           0        2.572780    1.953525   -0.770960
     11          1           0        2.675696    1.991264    0.980080
     12          1           0        1.094544    2.147626    0.150598
     13          6           0       -3.482811    0.068088    0.538422
     14          1           0       -1.840550   -1.165501    1.262761
     15          1           0       -2.347009   -1.564575   -0.358017
     16          1           0       -3.321114    0.902901    1.222157
     17          1           0       -4.259147   -0.577245    0.956013
     18          1           0       -3.849231    0.483393   -0.402428
     19         15           0        0.492612   -0.773744   -0.788963
     20          1           0        0.369345   -1.997321   -0.092941
 ---------------------------------------------------------------------

 SCF Done:  E(RHF) =  -638.272290962     A.U. after    2 cycles

 The electronic state is 1-A.
 Alpha  occ. eigenvalues -- -105.16422 -21.05578 -11.49717 -11.41537 -11.36850
 Alpha  occ. eigenvalues --  -11.34252 -11.32980  -7.61323  -2.74561  -1.71601
 Alpha  occ. eigenvalues --   -1.51289  -1.46401  -1.42531  -1.18206  -1.11738
 Alpha  occ. eigenvalues --   -1.01003  -0.95068  -0.80286  -0.69846  -0.63317
 Alpha  occ. eigenvalues --   -0.62934  -0.57540  -0.56172  -0.54694  -0.54218
 Alpha  occ. eigenvalues --   -0.52925  -0.51497  -0.50614  -0.48591  -0.43007
 Alpha  occ. eigenvalues --   -0.42256  -0.39416  -0.20973  -0.11751  -0.03165
 Alpha virt. eigenvalues --    0.03223   0.04061   0.04851   0.05063   0.05870
 Alpha virt. eigenvalues --    0.06440   0.06529   0.07118   0.07676   0.07959
 Alpha virt. eigenvalues --    0.08175   0.08922   0.09222   0.09615   0.09905

 Mulliken charges:
               1
     1  C    2.254156
     2  B    4.683761
     3  C   -5.781547
     4  H    1.138405
     5  H    1.166063
     6  H    1.397073
     7  O   -3.118966
     8  C   -3.744545
     9  C   -5.677881
    10  H    0.933898
    11  H    1.165263
    12  H    1.380512
    13  C   -3.793915
    14  H    1.629467
    15  H    1.703845
    16  H    1.359628
    17  H    1.058833
    18  H    1.307006
    19  P    2.271510
    20  H   -1.332565
 Sum of Mulliken charges =  -0.00000

 Dipole moment (field-independent basis, Debye):
    X=             -1.7258    Y=             -1.7360    Z=             -4.9588  Tot=              5.5301

 Test job not archived.
 1\1\GINC-SE284\SP\RHF\Aug-CC-pVDZ\C5H12B1O1P1\OHZDE\09-Apr-2025\0\\#t
 hf aug-cc-pvdz iop(5/13=1,5/36=2,99/5=2) pseudo=read geom=check guess=
 (read,tcheck) scf=(maxcycle=1)\\title\\0,1\C,0,-1.051348,0.127297,-0.2
 2945\B,0,1.959467,0.073343,0.107534\C,0,3.107201,-0.840165,0.674087\H,
 0,2.991908,-0.859003,1.768445\H,0,4.09914,-0.412773,0.489111\H,0,3.101
 682,-1.879384,0.336731\O,0,-1.138672,1.32479,-0.37254\C,0,-2.192323,-0
 .720247,0.324057\C,0,2.058418,1.63473,0.148808\H,0,2.57278,1.953525,-0
 .77096\H,0,2.675696,1.991264,0.98008\H,0,1.094544,2.147626,0.150598\C,

 Normal termination of Gaussian 16 at Wed Apr  9 00:45:07 2025.
