 Gaussian 16, Revision C.01,

 ----------------------------------------------------------------------
 #t hf aug-cc-pvdz symm=none int=(grid=ultrafine) guess=(read,tcheck) s
 table=opt
 ----------------------------------------------------------------------
 -----
 title
 -----
 Symbolic Z-matrix:
 Charge =  0 Multiplicity = 2

 SCF Done:  E(UHF) =  -605.946023310     A.U. after   14 cycles

 1\1\GINC-SE462\Stability\UHF\Aug-CC-pVDZ\B1H6Si2\OHZDE\09-Apr-2025\0\\
 #t hf aug-cc-pvdz symm=none int=(grid=ultrafine) guess=(read,tcheck) s
 table=opt\\title\\0,2\B,0,0.,0.096711,0.000019\Si,0,1.964599,0.000706,
 -0.000002\Si,0,-1.964599,0.000706,-0.000002\H,0,-2.601461,0.604343,1.1
 9814\H,0,-2.24859,-1.460422,-0.000046\H,0,-2.60144,0.604412,-1.19812\H
 ,0,2.60146,0.604347,1.198139\H,0,2.60144,0.604409,-1.198122\H,0,2.2485
 9,-1.460422,-0.000041\\Version=ES64L-G16RevC.01\HF=-605.9460233\S2=0.7
 63225\S2-1=0.\S2A=0.750059\RMSD=6.241e-09\Dipole=0.0000006,0.1211966,-

 Normal termination of Gaussian 16 at Wed Apr  9 00:47:57 2025.
 Gaussian 16:  ES64L-G16RevC.01  3-Jul-2019

 ----------------------------------------------------------------------
 #t hf aug-cc-pvdz iop(5/13=1,5/36=2,99/5=2) pseudo=read geom=check gue
 ss=(read,tcheck) scf=(maxcycle=1)
 ----------------------------------------------------------------------
 -----
 title
 -----
 Structure from the checkpoint file:  "BDE49_nonexpt_855_mol2.chk"
 Charge =  0 Multiplicity = 2

                         Standard orientation:
 ---------------------------------------------------------------------
 Center     Atomic      Atomic             Coordinates (Angstroms)
 Number     Number       Type             X           Y           Z
 ---------------------------------------------------------------------
      1          5           0       -0.000000   -0.096711    0.000019
      2         14           0       -1.964599   -0.000706   -0.000002
      3         14           0        1.964599   -0.000706   -0.000002
      4          1           0        2.601461   -0.604343    1.198140
      5          1           0        2.248590    1.460422   -0.000046
      6          1           0        2.601440   -0.604412   -1.198120
      7          1           0       -2.601460   -0.604347    1.198139
      8          1           0       -2.601440   -0.604409   -1.198122
      9          1           0       -2.248590    1.460422   -0.000041
 ---------------------------------------------------------------------

 SCF Done:  E(UHF) =  -606.360959399     A.U. after    2 cycles

 The electronic state is 2-A.
 Alpha  occ. eigenvalues --  -76.21649 -76.21618  -7.64028  -5.55390  -5.54664
 Alpha  occ. eigenvalues --   -2.18878  -2.17322  -2.17108  -2.16775  -2.16681
 Alpha  occ. eigenvalues --   -2.16586  -0.87147  -0.78690  -0.60988  -0.48741
 Alpha  occ. eigenvalues --   -0.48060  -0.47029  -0.46893  -0.37046  -0.29960
 Alpha virt. eigenvalues --    0.00720   0.03649   0.03707   0.05602   0.05827
 Alpha virt. eigenvalues --    0.06818   0.08451   0.08994   0.09160   0.09211
 Alpha virt. eigenvalues --    0.09248   0.10512   0.10647   0.10666   0.10958

  Beta  occ. eigenvalues --  -76.21719 -76.21688  -7.62624  -5.55499  -5.54773
  Beta  occ. eigenvalues --   -2.19136  -2.17419  -2.17194  -2.16869  -2.16855
  Beta  occ. eigenvalues --   -2.16746  -0.83534  -0.78563  -0.56180  -0.47813
  Beta  occ. eigenvalues --   -0.47063  -0.46778  -0.45961  -0.35667
  Beta virt. eigenvalues --    0.01808   0.03395   0.03732   0.03758   0.06056
  Beta virt. eigenvalues --    0.06889   0.07035   0.08451   0.08992   0.09270
  Beta virt. eigenvalues --    0.09321   0.09367   0.10665   0.10686   0.11181

 Mulliken charges and spin densities:
               1          2
     1  B   -2.500331   1.192779
     2  Si   6.038679  -0.137802
     3  Si   6.038681  -0.137802
     4  H   -1.643886   0.026077
     5  H   -1.500745  -0.010744
     6  H   -1.643885   0.026079
     7  H   -1.643884   0.026077
     8  H   -1.643884   0.026079
     9  H   -1.500745  -0.010744
 Sum of Mulliken charges =   0.00000   1.00000

 Dipole moment (field-independent basis, Debye):
    X=             -0.0000    Y=             -0.4734    Z=              0.0000  Tot=              0.4734
                          Isotropic Fermi Contact Couplings
        Atom                 a.u.       MegaHertz       Gauss      10(-4) cm-1
     1  B(11)              0.05634      80.81154      28.83557      26.95583
     2  Si(29)            -0.06675      59.31831      21.16625      19.78646
     3  Si(29)            -0.06675      59.31831      21.16625      19.78646
     4  H(1)               0.00749      33.46020      11.93943      11.16112
     5  H(1)              -0.00068      -3.04627      -1.08699      -1.01613
     6  H(1)               0.00749      33.46137      11.93985      11.16151
     7  H(1)               0.00749      33.46010      11.93940      11.16109
     8  H(1)               0.00749      33.46148      11.93989      11.16155

 Normal termination of Gaussian 16 at Wed Apr  9 00:47:59 2025.
