 Gaussian 16, Revision C.01,

 ----------------------------------------------------------------------
 #t hf aug-cc-pvdz symm=none int=(grid=ultrafine) guess=(read,tcheck) s
 table=opt
 ----------------------------------------------------------------------
 -----
 title
 -----
 Symbolic Z-matrix:
 Charge =  0 Multiplicity = 2

 SCF Done:  E(UHF) =  -544.107781067     A.U. after   20 cycles
 Normal termination of Gaussian 16 at Wed Apr  9 00:32:28 2025.
 Gaussian 16:  ES64L-G16RevC.01  3-Jul-2019

 ----------------------------------------------------------------------
 #t hf aug-cc-pvdz iop(5/13=1,5/36=2,99/5=2) pseudo=read geom=check gue
 ss=(read,tcheck) scf=(maxcycle=1)
 ----------------------------------------------------------------------
 -----
 title
 -----
 Structure from the checkpoint file:  "BDE49_nonexpt_362_mol2.chk"
 Charge =  0 Multiplicity = 2

                         Standard orientation:
 ---------------------------------------------------------------------
 Center     Atomic      Atomic             Coordinates (Angstroms)
 Number     Number       Type             X           Y           Z
 ---------------------------------------------------------------------
      1          9           0       -2.341134   -0.215592    0.164315
      2          5           0       -1.179946   -0.837084    0.112991
      3         15           0        0.420681   -0.038425   -0.555691
      4          6           0        1.747450   -0.959151    0.361747
      5          6           0        0.454204    1.652318    0.234477
      6          1           0        1.658945   -2.021510    0.127414
      7          1           0        1.686435   -0.831282    1.444225
      8          1           0        2.724560   -0.614690    0.016746
      9          1           0       -0.427045    2.208483   -0.090746
     10          1           0        1.340585    2.190616   -0.108855
     11          1           0        0.466308    1.611506    1.325453
 ---------------------------------------------------------------------

 SCF Done:  E(UHF) =  -545.135734165     A.U. after    2 cycles

 The electronic state is 2-A.
 Alpha  occ. eigenvalues -- -105.15716 -29.26493 -11.38047 -11.37786  -7.68033
 Alpha  occ. eigenvalues --   -2.74768  -1.51146  -1.47428  -1.43349  -1.05447
 Alpha  occ. eigenvalues --   -0.97175  -0.93392  -0.66368  -0.57858  -0.57208
 Alpha  occ. eigenvalues --   -0.56776  -0.55710  -0.48364  -0.43011  -0.40594
 Alpha  occ. eigenvalues --   -0.32553  -0.20674  -0.08608  -0.00350
 Alpha virt. eigenvalues --    0.03078   0.04720   0.05412   0.05916   0.07045
 Alpha virt. eigenvalues --    0.07539   0.07828   0.08152   0.09222   0.09859
 Alpha virt. eigenvalues --    0.12091   0.12321   0.14456   0.15426   0.16291

  Beta  occ. eigenvalues -- -105.15621 -29.26189 -11.38016 -11.37790  -7.66288
  Beta  occ. eigenvalues --   -2.74461  -1.48604  -1.47243  -1.42678  -1.05069
  Beta  occ. eigenvalues --   -0.97114  -0.90048  -0.65725  -0.57831  -0.57111
  Beta  occ. eigenvalues --   -0.56510  -0.55669  -0.42423  -0.40706  -0.40254
  Beta  occ. eigenvalues --   -0.21174  -0.19672  -0.02426
  Beta virt. eigenvalues --    0.03224   0.04422   0.05423   0.05808   0.07061
  Beta virt. eigenvalues --    0.07400   0.07843   0.08182   0.08898   0.09612
  Beta virt. eigenvalues --    0.11646   0.12379   0.14451   0.15875   0.16032

 Mulliken charges and spin densities:
               1          2
     1  F   -0.270837  -0.016108
     2  B   -0.304939   1.090933
     3  P    5.341896  -0.275169
     4  C   -5.957298   0.029208
     5  C   -6.002038   0.029309
     6  H    1.267972   0.056223
     7  H    1.304761   0.046367
     8  H    1.105826  -0.002477
     9  H    1.163378   0.038046
    10  H    1.206748   0.001441
    11  H    1.144531   0.002226
 Sum of Mulliken charges =  -0.00000   1.00000

 Dipole moment (field-independent basis, Debye):
    X=             -1.7513    Y=              4.5641    Z=             -0.3750  Tot=              4.9029
                          Isotropic Fermi Contact Couplings
        Atom                 a.u.       MegaHertz       Gauss      10(-4) cm-1
     1  F(19)              0.01093      45.98485      16.40854      15.33889
     2  B(11)              0.08484     121.69465      43.42368      40.59296
     3  P(31)              0.12661     229.30322      81.82109      76.48732
     4  C(13)             -0.00248      -2.78414      -0.99345      -0.92869
     5  C(13)              0.00913      10.26004       3.66104       3.42238
     6  H(1)               0.00010       0.45739       0.16321       0.15257
     7  H(1)               0.00005       0.21181       0.07558       0.07065
     8  H(1)              -0.00067      -3.01143      -1.07455      -1.00451

 Normal termination of Gaussian 16 at Wed Apr  9 00:32:32 2025.
