 Gaussian 16, Revision C.01,

 ----------------------------------------------------------------------
 #t hf aug-cc-pvdz symm=none int=(grid=ultrafine) guess=(read,tcheck) s
 table=(opt,rrhf)
 ----------------------------------------------------------------------
 -----
 title
 -----
 Symbolic Z-matrix:
 Charge =  0 Multiplicity = 1

 SCF Done:  E(RHF) =  -441.603316946     A.U. after   15 cycles
 Normal termination of Gaussian 16 at Tue Apr  8 23:22:18 2025.
 Gaussian 16:  ES64L-G16RevC.01  3-Jul-2019

 ----------------------------------------------------------------------
 #t hf aug-cc-pvdz iop(5/13=1,5/36=2,99/5=2) pseudo=read geom=check gue
 ss=(read,tcheck) scf=(maxcycle=1)
 ----------------------------------------------------------------------
 -----
 title
 -----
 Structure from the checkpoint file:  "BDE49_nonexpt_1164_mol1.chk"
 Charge =  0 Multiplicity = 1

                         Standard orientation:
 ---------------------------------------------------------------------
 Center     Atomic      Atomic             Coordinates (Angstroms)
 Number     Number       Type             X           Y           Z
 ---------------------------------------------------------------------
      1          9           0       -0.990056    2.006439    0.056070
      2          8           0       -0.135754    1.020987   -0.565428
      3          6           0        0.087127    0.008911    0.447007
      4          8           0        1.107280   -0.739147   -0.111520
      5          8           0       -1.013965   -0.747397    0.702482
      6          6           0        2.406321   -0.142912   -0.040417
      7          1           0        3.104074   -0.891682   -0.410867
      8          1           0        2.659171    0.107304    0.996317
      9          1           0        2.465472    0.755110   -0.658755
     10          6           0       -1.540197   -1.493827   -0.407521
     11          1           0       -2.456758   -1.951319   -0.040917
     12          1           0       -0.837133   -2.266974   -0.722391
     13          1           0       -1.766970   -0.831530   -1.245367
     14          1           0        0.362652    0.512556    1.378660
 ---------------------------------------------------------------------

 SCF Done:  E(RHF) =  -443.421895171     A.U. after    2 cycles

 The electronic state is 1-A.
 Alpha  occ. eigenvalues --  -29.28725 -21.14762 -21.07961 -21.07132 -11.50936
 Alpha  occ. eigenvalues --  -11.42545 -11.41154  -1.90717  -1.73328  -1.72086
 Alpha  occ. eigenvalues --   -1.05800  -1.00226  -0.87767  -0.76100  -0.68698
 Alpha  occ. eigenvalues --   -0.65856  -0.62112  -0.61189  -0.58062  -0.56074
 Alpha  occ. eigenvalues --   -0.54553  -0.46062  -0.43517  -0.41285  -0.36956
 Alpha  occ. eigenvalues --   -0.33340  -0.31949  -0.24512  -0.21748
 Alpha virt. eigenvalues --    0.03584   0.05096   0.05320   0.05764   0.06569
 Alpha virt. eigenvalues --    0.06959   0.07510   0.10871   0.12502   0.13371
 Alpha virt. eigenvalues --    0.13989   0.14506   0.15057   0.16073   0.16662

 Mulliken charges:
               1
     1  F   -0.315876
     2  O   -1.410078
     3  C    4.500067
     4  O   -3.244512
     5  O   -3.347077
     6  C   -2.817531
     7  H    1.316653
     8  H    1.329266
     9  H    1.294982
    10  C   -3.230266
    11  H    1.212249
    12  H    1.405425
    13  H    1.275853
    14  H    2.030843
 Sum of Mulliken charges =   0.00000

 Dipole moment (field-independent basis, Debye):
    X=              0.1699    Y=              0.0955    Z=              0.2524  Tot=              0.3188

 Test job not archived.
 1\1\GINC-SE127\SP\RHF\Aug-CC-pVDZ\C3H7F1O3\OHZDE\08-Apr-2025\0\\#t hf
 aug-cc-pvdz iop(5/13=1,5/36=2,99/5=2) pseudo=read geom=check guess=(re
 ad,tcheck) scf=(maxcycle=1)\\title\\0,1\F,0,-0.990057,2.006439,0.05607
 \O,0,-0.135754,1.020987,-0.565428\C,0,0.087127,0.008911,0.447007\O,0,1
 .10728,-0.739147,-0.11152\O,0,-1.013965,-0.747397,0.702482\C,0,2.40632
 1,-0.142911,-0.040417\H,0,3.104074,-0.891681,-0.410867\H,0,2.659171,0.
 107305,0.996317\H,0,2.465472,0.755111,-0.658755\C,0,-1.540197,-1.49382
 7,-0.407521\H,0,-2.456758,-1.95132,-0.040917\H,0,-0.837133,-2.266974,-

 Normal termination of Gaussian 16 at Tue Apr  8 23:22:23 2025.
