 Gaussian 16, Revision C.01,

 ----------------------------------------------------------------------
 #t hf aug-cc-pvdz symm=none int=(grid=ultrafine) guess=(read,tcheck) s
 table=(opt,rrhf)
 ----------------------------------------------------------------------
 -----
 title
 -----
 Symbolic Z-matrix:
 Charge =  0 Multiplicity = 1

 SCF Done:  E(RHF) =  -611.893595523     A.U. after   15 cycles
 Normal termination of Gaussian 16 at Wed Apr  9 00:00:59 2025.
 Gaussian 16:  ES64L-G16RevC.01  3-Jul-2019

 ----------------------------------------------------------------------
 #t hf aug-cc-pvdz iop(5/13=1,5/36=2,99/5=2) pseudo=read geom=check gue
 ss=(read,tcheck) scf=(maxcycle=1)
 ----------------------------------------------------------------------
 -----
 title
 -----
 Structure from the checkpoint file:  "BDE49_nonexpt_2099_mol1.chk"
 Charge =  0 Multiplicity = 1

                         Standard orientation:
 ---------------------------------------------------------------------
 Center     Atomic      Atomic             Coordinates (Angstroms)
 Number     Number       Type             X           Y           Z
 ---------------------------------------------------------------------
      1         14           0       -0.623906    1.105896   -0.003136
      2          7           0       -1.681297   -0.445379   -0.017644
      3          8           0       -1.200859   -1.501662   -0.423084
      4          8           0       -2.835710   -0.310924    0.376464
      5          6           0        1.118468    0.667788   -0.497163
      6          6           0        1.881857   -0.222241    0.504139
      7          1           0        1.654483    1.614822   -0.650492
      8          1           0        1.074757    0.181490   -1.478507
      9          6           0        3.311071   -0.532172    0.048957
     10          1           0        1.331644   -1.157685    0.639201
     11          1           0        1.910759    0.268282    1.483781
     12          1           0        3.312003   -1.056746   -0.910968
     13          1           0        3.826507   -1.165873    0.775478
     14          1           0        3.896967    0.384390   -0.070870
     15          1           0       -0.761478    1.600755    1.378540
     16          1           0       -1.317703    1.986121   -0.961398
 ---------------------------------------------------------------------

 SCF Done:  E(RHF) =  -613.518560358     A.U. after    2 cycles

 The electronic state is 1-A.
 Alpha  occ. eigenvalues --  -76.27022 -21.09132 -21.09028 -15.95724 -11.43072
 Alpha  occ. eigenvalues --  -11.39305 -11.36257  -5.60734  -2.25558  -2.24016
 Alpha  occ. eigenvalues --   -2.22924  -1.96828  -1.67694  -1.22525  -1.03139
 Alpha  occ. eigenvalues --   -0.98510  -0.86458  -0.75372  -0.66743  -0.64968
 Alpha  occ. eigenvalues --   -0.63786  -0.60022  -0.58728  -0.55687  -0.54930
 Alpha  occ. eigenvalues --   -0.50644  -0.48209  -0.47360  -0.42050  -0.31796
 Alpha  occ. eigenvalues --   -0.31342  -0.30649
 Alpha virt. eigenvalues --    0.03289   0.04398   0.05114   0.05573   0.05730
 Alpha virt. eigenvalues --    0.06017   0.06578   0.07260   0.08496   0.09040
 Alpha virt. eigenvalues --    0.09606   0.10196   0.11601   0.12210   0.13136

 Mulliken charges:
               1
     1  Si   5.589937
     2  N    3.545368
     3  O   -2.157063
     4  O   -2.484109
     5  C   -4.002677
     6  C   -2.670097
     7  H    1.469384
     8  H    1.613463
     9  C   -3.880629
    10  H    1.562407
    11  H    1.456279
    12  H    1.262991
    13  H    1.148696
    14  H    1.274594
    15  H   -1.826214
    16  H   -1.902331
 Sum of Mulliken charges =   0.00000

 Dipole moment (field-independent basis, Debye):
    X=              2.7903    Y=              1.5226    Z=             -0.1672  Tot=              3.1831

 Test job not archived.
 1\1\GINC-SE402\SP\RHF\Aug-CC-pVDZ\C3H9N1O2Si1\OHZDE\09-Apr-2025\0\\#t
 hf aug-cc-pvdz iop(5/13=1,5/36=2,99/5=2) pseudo=read geom=check guess=
 (read,tcheck) scf=(maxcycle=1)\\title\\0,1\Si,0,-0.623906,1.105896,-0.
 003136\N,0,-1.681297,-0.445379,-0.017644\O,0,-1.200859,-1.501662,-0.42
 3084\O,0,-2.83571,-0.310924,0.376464\C,0,1.118468,0.667788,-0.497163\C
 ,0,1.881857,-0.222241,0.504139\H,0,1.654483,1.614822,-0.650492\H,0,1.0
 74757,0.18149,-1.478507\C,0,3.311071,-0.532172,0.048957\H,0,1.331644,-
 1.157685,0.639201\H,0,1.910759,0.268282,1.483781\H,0,3.312003,-1.05674

 Normal termination of Gaussian 16 at Wed Apr  9 00:01:04 2025.
