 Gaussian 16, Revision C.01,

 ----------------------------------------------------------------------
 #t hf aug-cc-pvdz symm=none int=(grid=ultrafine) guess=(read,tcheck) s
 table=(opt,rrhf)
 ----------------------------------------------------------------------
 -----
 title
 -----
 Symbolic Z-matrix:
 Charge =  0 Multiplicity = 1

 SCF Done:  E(RHF) =  -1835.99297517     A.U. after   13 cycles
 Normal termination of Gaussian 16 at Tue Apr  8 23:47:23 2025.
 Gaussian 16:  ES64L-G16RevC.01  3-Jul-2019

 ----------------------------------------------------------------------
 #t hf aug-cc-pvdz iop(5/13=1,5/36=2,99/5=2) pseudo=read geom=check gue
 ss=(read,tcheck) scf=(maxcycle=1)
 ----------------------------------------------------------------------
 -----
 title
 -----
 Structure from the checkpoint file:  "BDE49_nonexpt_1783_mol1.chk"
 Charge =  0 Multiplicity = 1

                         Standard orientation:
 ---------------------------------------------------------------------
 Center     Atomic      Atomic             Coordinates (Angstroms)
 Number     Number       Type             X           Y           Z
 ---------------------------------------------------------------------
      1         14           0       -0.219230    0.001303   -0.000001
      2          6           0        1.682031   -0.265069    0.000019
      3         17           0       -0.711419    2.016752   -0.000066
      4         17           0       -1.015202   -0.870601    1.673270
      5         17           0       -1.015184   -0.870706   -1.673225
      6          7           0        2.487197    0.825163   -0.000003
      7          1           0        2.116887    1.761589   -0.000032
      8          1           0        3.489127    0.690677    0.000001
      9          8           0        2.071416   -1.417349    0.000038
 ---------------------------------------------------------------------

 SCF Done:  E(RHF) =  -1837.58640432     A.U. after    2 cycles

 The electronic state is 1-A.
 Alpha  occ. eigenvalues --  -99.92143 -99.91466 -99.91466 -76.35872 -21.05876
 Alpha  occ. eigenvalues --  -15.80881 -11.50003 -10.49577 -10.48974 -10.48909
 Alpha  occ. eigenvalues --   -9.69430  -9.68877  -9.68802  -9.68800  -9.68771
 Alpha  occ. eigenvalues --   -9.68263  -9.68149  -9.68130  -9.68022  -5.69610
 Alpha  occ. eigenvalues --   -2.31973  -2.31519  -2.31426  -1.72659  -1.37316
 Alpha  occ. eigenvalues --   -1.34673  -1.31227  -1.30856  -0.89973  -0.79448
 Alpha  occ. eigenvalues --   -0.73683  -0.64638  -0.63445  -0.62558  -0.58483
 Alpha  occ. eigenvalues --   -0.58163  -0.56639  -0.55773  -0.54421  -0.53658
 Alpha  occ. eigenvalues --   -0.52666  -0.49909  -0.34952  -0.30582
 Alpha virt. eigenvalues --    0.03085   0.04544   0.05669   0.05951   0.06523
 Alpha virt. eigenvalues --    0.07491   0.07769   0.07906   0.10526   0.12309
 Alpha virt. eigenvalues --    0.12375   0.12632   0.13745   0.14909   0.15451

 Mulliken charges:
               1
     1  Si   3.029426
     2  C    3.259344
     3  Cl  -0.742683
     4  Cl  -0.755448
     5  Cl  -0.755446
     6  N   -2.904102
     7  H    0.834195
     8  H    0.736518
     9  O   -2.701805
 Sum of Mulliken charges =  -0.00000

 Dipole moment (field-independent basis, Debye):
    X=              2.2032    Y=              1.5284    Z=             -0.0000  Tot=              2.6814

 Test job not archived.
 1\1\GINC-SE334\SP\RHF\Aug-CC-pVDZ\C1H2Cl3N1O1Si1\OHZDE\08-Apr-2025\0\\
 #t hf aug-cc-pvdz iop(5/13=1,5/36=2,99/5=2) pseudo=read geom=check gue
 ss=(read,tcheck) scf=(maxcycle=1)\\title\\0,1\Si,0,-0.21923,0.001303,-
 0.000001\C,0,1.682031,-0.26507,0.000019\Cl,0,-0.711417,2.016753,-0.000
 066\Cl,0,-1.015203,-0.8706,1.67327\Cl,0,-1.015185,-0.870705,-1.673225\
 N,0,2.487198,0.825161,-0.000003\H,0,2.116889,1.761587,-0.000032\H,0,3.
 489128,0.690674,0.000001\O,0,2.071415,-1.417351,0.000038\\Version=ES64
 L-G16RevC.01\State=1-A\HF=-1837.5864043\RMSD=3.963e-02\Dipole=0.866804

 Normal termination of Gaussian 16 at Tue Apr  8 23:47:27 2025.
