 Gaussian 16, Revision C.01,

 ----------------------------------------------------------------------
 #t hf aug-cc-pvdz symm=none int=(grid=ultrafine) guess=(read,tcheck) s
 table=opt
 ----------------------------------------------------------------------
 -----
 title
 -----
 Symbolic Z-matrix:
 Charge =  0 Multiplicity = 2

 SCF Done:  E(UHF) =  -2211.40916021     A.U. after   20 cycles

 1\1\GINC-SE363\Stability\UHF\Aug-CC-pVDZ\C1Cl3S2\OHZDE\09-Apr-2025\0\\
 #t hf aug-cc-pvdz symm=none int=(grid=ultrafine) guess=(read,tcheck) s
 table=opt\\title\\0,2\S,0,-2.558708,-0.044925,0.000013\S,0,-0.96729,1.
 102196,-0.000018\C,0,0.552292,-0.02867,-0.000002\Cl,0,1.930348,1.11608
 5,-0.000026\Cl,0,0.596652,-1.050548,-1.459058\Cl,0,0.59666,-1.050497,1
 .459089\\Version=ES64L-G16RevC.01\HF=-2211.4091602\S2=0.768155\S2-1=0.
 \S2A=0.750224\RMSD=6.734e-09\Dipole=-0.0879203,0.0395318,0.0000002\Qua
 drupole=0.1721781,-0.269228,0.0970499,1.0210577,-0.0000204,0.0000008\P

 Normal termination of Gaussian 16 at Wed Apr  9 00:51:05 2025.
 Gaussian 16:  ES64L-G16RevC.01  3-Jul-2019

 ----------------------------------------------------------------------
 #t hf aug-cc-pvdz iop(5/13=1,5/36=2,99/5=2) pseudo=read geom=check gue
 ss=(read,tcheck) scf=(maxcycle=1)
 ----------------------------------------------------------------------
 -----
 title
 -----
 Structure from the checkpoint file:  "BDE49_nonexpt_915_mol2.chk"
 Charge =  0 Multiplicity = 2

                         Standard orientation:
 ---------------------------------------------------------------------
 Center     Atomic      Atomic             Coordinates (Angstroms)
 Number     Number       Type             X           Y           Z
 ---------------------------------------------------------------------
      1         16           0       -2.558708   -0.044924    0.000013
      2         16           0       -0.967290    1.102196   -0.000018
      3          6           0        0.552292   -0.028670   -0.000002
      4         17           0        1.930348    1.116084   -0.000026
      5         17           0        0.596652   -1.050548   -1.459058
      6         17           0        0.596660   -1.050497    1.459089
 ---------------------------------------------------------------------

 SCF Done:  E(UHF) =  -2212.74540403     A.U. after    2 cycles

 The electronic state is 2-A.
 Alpha  occ. eigenvalues --  -99.93238 -99.92835 -99.92818 -75.76636 -75.74398
 Alpha  occ. eigenvalues --  -13.17478 -13.13812 -13.10005 -13.09704 -13.07095
 Alpha  occ. eigenvalues --  -13.06712 -11.57244 -10.50659 -10.50207 -10.50027
 Alpha  occ. eigenvalues --   -9.70419  -9.70103  -9.69929  -9.69608  -9.69560
 Alpha  occ. eigenvalues --   -9.69225  -9.69189  -9.69162  -9.69108  -8.10652
 Alpha  occ. eigenvalues --   -8.08288  -1.47948  -1.31998  -1.31666  -1.26951
 Alpha  occ. eigenvalues --   -1.04930  -0.92256  -0.72034  -0.72019  -0.68050
 Alpha  occ. eigenvalues --   -0.57834  -0.57623  -0.52654  -0.52560  -0.51169
 Alpha  occ. eigenvalues --   -0.46545  -0.41488  -0.39358  -0.29999  -0.23910
 Alpha virt. eigenvalues --   -0.00803   0.03664   0.04410   0.05943   0.06030
 Alpha virt. eigenvalues --    0.07667   0.09225   0.09946   0.11737   0.13168
 Alpha virt. eigenvalues --    0.13799   0.14003   0.15628   0.16066   0.17275

  Beta  occ. eigenvalues --  -99.93241 -99.92827 -99.92811 -75.76393 -75.73502
  Beta  occ. eigenvalues --  -13.17336 -13.13732 -13.09597 -13.08110 -13.06166
  Beta  occ. eigenvalues --  -13.01838 -11.57320 -10.50660 -10.50201 -10.50020
  Beta  occ. eigenvalues --   -9.70423  -9.70069  -9.69897  -9.69617  -9.69556
  Beta  occ. eigenvalues --   -9.69214  -9.69190  -9.69163  -9.69101  -8.10376
  Beta  occ. eigenvalues --   -8.07282  -1.47823  -1.31985  -1.31596  -1.24090
  Beta  occ. eigenvalues --   -1.01107  -0.89165  -0.71981  -0.71830  -0.67639
  Beta  occ. eigenvalues --   -0.57788  -0.57488  -0.52610  -0.52494  -0.51130
  Beta  occ. eigenvalues --   -0.46467  -0.38047  -0.34565  -0.28765
  Beta virt. eigenvalues --   -0.00736   0.02545   0.03786   0.04520   0.06076
  Beta virt. eigenvalues --    0.06767   0.07738   0.09765   0.10010   0.11939
  Beta virt. eigenvalues --    0.13457   0.13952   0.14063   0.15701   0.17230

 Mulliken charges and spin densities:
               1          2
     1  S    0.106101   0.885790
     2  S    0.615425   0.110816
     3  C   -1.887208  -0.009569
     4  Cl   0.537071  -0.002738
     5  Cl   0.314305   0.007851
     6  Cl   0.314306   0.007851
 Sum of Mulliken charges =  -0.00000   1.00000

 Dipole moment (field-independent basis, Debye):
    X=             -3.5917    Y=              1.4500    Z=             -0.0000  Tot=              3.8734
                          Isotropic Fermi Contact Couplings
        Atom                 a.u.       MegaHertz       Gauss      10(-4) cm-1
     1  S(33)              0.29017      99.66726      35.56376      33.24542
     2  S(33)              0.13882      47.68198      17.01412      15.90500
     3  C(13)             -0.01201     -13.49707      -4.81609      -4.50214
     4  Cl(35)            -0.00272      -1.19141      -0.42512      -0.39741
     5  Cl(35)             0.00521       2.28460       0.81520       0.76206
     6  Cl(35)             0.00521       2.28452       0.81517       0.76203
 --------------------------------------------------------
       Center         ----  Spin Dipole Couplings  ----

 Normal termination of Gaussian 16 at Wed Apr  9 00:51:08 2025.
