 Gaussian 16, Revision C.01,

 ----------------------------------------------------------------------
 #t hf aug-cc-pvdz symm=none int=(grid=ultrafine) guess=(read,tcheck) s
 table=opt
 ----------------------------------------------------------------------
 -----
 title
 -----
 Symbolic Z-matrix:
 Charge =  0 Multiplicity = 2

 SCF Done:  E(UHF) =  -666.996109421     A.U. after   25 cycles
 Normal termination of Gaussian 16 at Tue Apr  8 23:24:12 2025.
 Gaussian 16:  ES64L-G16RevC.01  3-Jul-2019

 ----------------------------------------------------------------------
 #t hf aug-cc-pvdz iop(5/13=1,5/36=2,99/5=2) pseudo=read geom=check gue
 ss=(read,tcheck) scf=(maxcycle=1)
 ----------------------------------------------------------------------
 -----
 title
 -----
 Structure from the checkpoint file:  "BDE49_nonexpt_1196_mol2.chk"
 Charge =  0 Multiplicity = 2

                         Standard orientation:
 ---------------------------------------------------------------------
 Center     Atomic      Atomic             Coordinates (Angstroms)
 Number     Number       Type             X           Y           Z
 ---------------------------------------------------------------------
      1         16           0        2.729608    0.022604   -0.411065
      2          6           0        1.095117   -0.150360    0.246058
      3          8           0        0.844840   -1.256092    0.674898
      4          6           0        0.158949    1.034484    0.267445
      5          6           0       -1.302120    0.674247    0.565714
      6          1           0        0.256033    1.563623   -0.687268
      7          1           0        0.553865    1.716154    1.031064
      8          6           0       -2.003922   -0.065686   -0.579780
      9          1           0       -1.842691    1.601108    0.786398
     10          1           0       -1.340083    0.064584    1.473474
     11          6           0       -3.466420   -0.390523   -0.264957
     12          1           0       -1.463642   -0.992407   -0.795708
     13          1           0       -1.952365    0.546012   -1.488945
     14          1           0       -3.546339   -1.030203    0.619052
     15          1           0       -3.943905   -0.914078   -1.097148
     16          1           0       -4.042940    0.519316   -0.069942
 ---------------------------------------------------------------------

 SCF Done:  E(UHF) =  -668.470430713     A.U. after    2 cycles

 The electronic state is 2-A.
 Alpha  occ. eigenvalues --  -75.73095 -21.06818 -13.17118 -13.08752 -13.04616
 Alpha  occ. eigenvalues --  -11.51804 -11.44169 -11.41393 -11.38578 -11.35300
 Alpha  occ. eigenvalues --   -8.06945  -1.73176  -1.26328  -1.17287  -1.09502
 Alpha  occ. eigenvalues --   -0.95832  -0.84771  -0.74204  -0.65904  -0.63533
 Alpha  occ. eigenvalues --   -0.60306  -0.58590  -0.54174  -0.52084  -0.49409
 Alpha  occ. eigenvalues --   -0.47773  -0.46315  -0.45679  -0.42795  -0.32429
 Alpha  occ. eigenvalues --   -0.26749  -0.26536
 Alpha virt. eigenvalues --    0.03614   0.04721   0.05178   0.05653   0.05914
 Alpha virt. eigenvalues --    0.06598   0.06754   0.07138   0.08340   0.09072
 Alpha virt. eigenvalues --    0.10921   0.11202   0.12585   0.13509   0.13934

  Beta  occ. eigenvalues --  -75.72082 -21.06629 -13.16551 -13.03989 -13.02664
  Beta  occ. eigenvalues --  -11.51902 -11.44165 -11.41392 -11.38574 -11.35298
  Beta  occ. eigenvalues --   -8.05810  -1.72780  -1.26008  -1.13660  -1.05864
  Beta  occ. eigenvalues --   -0.94996  -0.84552  -0.73369  -0.65277  -0.63465
  Beta  occ. eigenvalues --   -0.60021  -0.58038  -0.53794  -0.51616  -0.49158
  Beta  occ. eigenvalues --   -0.47646  -0.46293  -0.45467  -0.42685  -0.27335
  Beta  occ. eigenvalues --   -0.25180
  Beta virt. eigenvalues --    0.02874   0.03836   0.04859   0.05478   0.05668
  Beta virt. eigenvalues --    0.06150   0.06829   0.06892   0.07405   0.08371
  Beta virt. eigenvalues --    0.09181   0.10958   0.11577   0.12629   0.13705

 Mulliken charges and spin densities:
               1          2
     1  S    0.772032   1.096909
     2  C    2.119559  -0.066697
     3  O   -2.830627  -0.021321
     4  C   -3.560328   0.004979
     5  C   -2.229748  -0.006826
     6  H    1.634539  -0.000169
     7  H    1.423722  -0.003853
     8  C   -2.869431   0.008196
     9  H    1.335127   0.000388
    10  H    1.545921  -0.003166
    11  C   -3.991513  -0.009403
    12  H    1.518535   0.002952
    13  H    1.423968  -0.000894
    14  H    1.290505  -0.000757
    15  H    1.107754  -0.000473
    16  H    1.309985   0.000135
 Sum of Mulliken charges =   0.00000   1.00000

 Dipole moment (field-independent basis, Debye):
    X=              0.1352    Y=              0.9158    Z=             -0.4623  Tot=              1.0347
                          Isotropic Fermi Contact Couplings
        Atom                 a.u.       MegaHertz       Gauss      10(-4) cm-1
     1  S(33)              0.31688     108.83877      38.83638      36.30470
     2  C(13)             -0.01084     -12.18556      -4.34811      -4.06466
     3  O(17)              0.02891     -17.52369      -6.25289      -5.84527
     4  C(13)              0.00004       0.04109       0.01466       0.01371
     5  C(13)              0.00263       2.95373       1.05396       0.98526
     6  H(1)               0.00055       2.47142       0.88186       0.82438
     7  H(1)              -0.00015      -0.68884      -0.24580      -0.22977
     8  C(13)             -0.00009      -0.10399      -0.03711      -0.03469

 Normal termination of Gaussian 16 at Tue Apr  8 23:24:21 2025.
