 Gaussian 16, Revision C.01,

 ----------------------------------------------------------------------
 #t hf aug-cc-pvdz symm=none int=(grid=ultrafine) guess=(read,tcheck) s
 table=(opt,rrhf)
 ----------------------------------------------------------------------
 -----
 title
 -----
 Symbolic Z-matrix:
 Charge =  0 Multiplicity = 1

 SCF Done:  E(RHF) =  -1261.80295411     A.U. after   16 cycles
 Normal termination of Gaussian 16 at Wed Apr  9 00:27:04 2025.
 Gaussian 16:  ES64L-G16RevC.01  3-Jul-2019

 ----------------------------------------------------------------------
 #t hf aug-cc-pvdz iop(5/13=1,5/36=2,99/5=2) pseudo=read geom=check gue
 ss=(read,tcheck) scf=(maxcycle=1)
 ----------------------------------------------------------------------
 -----
 title
 -----
 Structure from the checkpoint file:  "BDE49_nonexpt_2516_mol1.chk"
 Charge =  0 Multiplicity = 1

                         Standard orientation:
 ---------------------------------------------------------------------
 Center     Atomic      Atomic             Coordinates (Angstroms)
 Number     Number       Type             X           Y           Z
 ---------------------------------------------------------------------
      1          6           0       -2.130090   -0.501184    1.411841
      2          6           0       -0.903830   -1.130709    1.271943
      3          6           0       -2.855365   -0.105425    0.280897
      4          6           0       -2.334062   -0.352914   -0.991498
      5          6           0       -1.097874   -0.986409   -1.122154
      6          6           0       -0.368687   -1.376547   -0.000064
      7          1           0       -0.352747   -1.439129    2.151532
      8          1           0       -2.553243   -0.307018    2.389997
      9          8           0       -4.049534    0.504005    0.526054
     10          1           0       -2.874174   -0.064233   -1.883096
     11          1           0       -0.700353   -1.180175   -2.110673
     12         16           0        1.186845   -2.260420   -0.182255
     13         14           0        2.655483   -0.651131   -0.171733
     14          6           0        2.682719    0.299539    1.413477
     15          6           0        2.459353    0.522190   -1.586887
     16          6           0        1.843099    1.726983   -1.593098
     17          6           0        2.086836    1.483235    1.687519
     18          6           0        1.327380    2.373414    0.834813
     19          6           0        1.227273    2.473945   -0.516474
     20          1           0        3.214864   -0.165852    2.242569
     21          1           0        2.164769    1.847611    2.711757
     22          1           0        2.858896    0.189692   -2.544479
     23          1           0        1.774411    2.239187   -2.552798
     24          1           0        0.784324    3.135964    1.387308
     25          1           0        0.618206    3.304323   -0.864786
     26          6           0       -4.840779    0.914285   -0.579913
     27          1           0       -4.319941    1.657979   -1.193583
     28          1           0       -5.736190    1.364028   -0.154066
     29          1           0       -5.127429    0.062846   -1.207208
     30          1           0        3.902758   -1.437125   -0.322971
 ---------------------------------------------------------------------

 SCF Done:  E(RHF) =  -1264.89641138     A.U. after    2 cycles

 The electronic state is 1-A.
 Alpha  occ. eigenvalues --  -76.22465 -75.66627 -21.07643 -13.15898 -13.09515
 Alpha  occ. eigenvalues --  -13.06137 -11.52997 -11.47903 -11.46139 -11.44543
 Alpha  occ. eigenvalues --  -11.43890 -11.43152 -11.42816 -11.41729 -11.41042
 Alpha  occ. eigenvalues --  -11.40541 -11.40008 -11.37019 -11.36812  -8.00732
 Alpha  occ. eigenvalues --   -5.56353  -2.21667  -2.20229  -2.18269  -1.78982
 Alpha  occ. eigenvalues --   -1.33280  -1.26896  -1.15150  -1.14479  -1.09905
 Alpha  occ. eigenvalues --   -1.06054  -1.03542  -0.96916  -0.90840  -0.87603
 Alpha  occ. eigenvalues --   -0.84572  -0.81404  -0.70322  -0.69302  -0.69225
 Alpha  occ. eigenvalues --   -0.67462  -0.64161  -0.62905  -0.62652  -0.62466
 Alpha  occ. eigenvalues --   -0.58669  -0.57534  -0.56364  -0.53075  -0.52822
 Alpha  occ. eigenvalues --   -0.51273  -0.47648  -0.47110  -0.46392  -0.45223
 Alpha  occ. eigenvalues --   -0.42759  -0.41870  -0.40400  -0.38830  -0.37807
 Alpha  occ. eigenvalues --   -0.34681  -0.33312  -0.28750  -0.25143  -0.24351
 Alpha virt. eigenvalues --    0.02887   0.04108   0.04458   0.04753   0.05257
 Alpha virt. eigenvalues --    0.05597   0.05925   0.06081   0.06339   0.06715
 Alpha virt. eigenvalues --    0.06869   0.07051   0.07248   0.07518   0.08237

 Mulliken charges:
               1
     1  C   -4.221566
     2  C   -3.060790
     3  C    5.599865
     4  C   -3.654804
     5  C   -2.596504
     6  C    4.214167
     7  H    2.032232
     8  H    2.083623
     9  O   -4.910153
    10  H    1.991846
    11  H    2.042724
    12  S   -1.344285
    13  Si   6.145357
    14  C   -3.832665
    15  C   -3.858993
    16  C   -1.048672
    17  C   -1.092670
    18  C   -0.482032
    19  C   -0.517872
    20  H    1.199891
    21  H    1.468051
    22  H    1.197401
    23  H    1.465432
    24  H    1.480345
    25  H    1.452603
    26  C   -3.840840
    27  H    1.416802
    28  H    1.426166
    29  H    1.417961
    30  H   -2.172619
 Sum of Mulliken charges =   0.00000

 Dipole moment (field-independent basis, Debye):
    X=             -2.5052    Y=              1.1896    Z=             -0.2122  Tot=              2.7814

 Test job not archived.
 1\1\GINC-SE070\SP\RHF\Aug-CC-pVDZ\C13H14O1S1Si1\OHZDE\09-Apr-2025\0\\#
 t hf aug-cc-pvdz iop(5/13=1,5/36=2,99/5=2) pseudo=read geom=check gues
 s=(read,tcheck) scf=(maxcycle=1)\\title\\0,1\C,0,-2.13009,-0.501184,1.
 411841\C,0,-0.90383,-1.130709,1.271943\C,0,-2.855365,-0.105425,0.28089
 7\C,0,-2.334062,-0.352914,-0.991498\C,0,-1.097874,-0.986409,-1.122154\
 C,0,-0.368687,-1.376547,-0.000064\H,0,-0.352747,-1.439129,2.151532\H,0
 ,-2.553243,-0.307018,2.389997\O,0,-4.049534,0.504005,0.526054\H,0,-2.8
 74174,-0.064233,-1.883096\H,0,-0.700353,-1.180175,-2.110673\S,0,1.1868

 Normal termination of Gaussian 16 at Wed Apr  9 00:27:46 2025.
