 Gaussian 16, Revision C.01,

 ----------------------------------------------------------------------
 #t hf aug-cc-pvdz symm=none int=(grid=ultrafine) guess=(read,tcheck) s
 table=opt
 ----------------------------------------------------------------------
 -----
 title
 -----
 Symbolic Z-matrix:
 Charge =  0 Multiplicity = 2

 SCF Done:  E(UHF) =  -291.383572395     A.U. after   18 cycles
 Normal termination of Gaussian 16 at Wed Apr  9 00:33:47 2025.
 Gaussian 16:  ES64L-G16RevC.01  3-Jul-2019

 ----------------------------------------------------------------------
 #t hf aug-cc-pvdz iop(5/13=1,5/36=2,99/5=2) pseudo=read geom=check gue
 ss=(read,tcheck) scf=(maxcycle=1)
 ----------------------------------------------------------------------
 -----
 title
 -----
 Structure from the checkpoint file:  "BDE49_nonexpt_410_mol2.chk"
 Charge =  0 Multiplicity = 2

                         Standard orientation:
 ---------------------------------------------------------------------
 Center     Atomic      Atomic             Coordinates (Angstroms)
 Number     Number       Type             X           Y           Z
 ---------------------------------------------------------------------
      1          9           0       -2.342104   -0.150124   -0.000002
      2          5           0       -1.201351    0.503068    0.000003
      3          6           0        1.248036   -0.029545    0.000001
      4          8           0        2.409492    0.006554   -0.000001
      5          7           0        0.045934   -0.148483    0.000001
 ---------------------------------------------------------------------

 SCF Done:  E(UHF) =  -292.479766347     A.U. after    2 cycles

 The electronic state is 2-A.
 Alpha  occ. eigenvalues --  -29.27502 -21.15553 -15.77261 -11.61779  -7.73506
 Alpha  occ. eigenvalues --   -1.80155  -1.43202  -1.04181  -0.77108  -0.65560
 Alpha  occ. eigenvalues --   -0.63335  -0.62788  -0.50788  -0.46863  -0.43627
 Alpha  occ. eigenvalues --   -0.39191  -0.36348  -0.23405
 Alpha virt. eigenvalues --    0.03628   0.03775   0.04618   0.07695   0.11171
 Alpha virt. eigenvalues --    0.12108   0.12511   0.12950   0.13099   0.16033
 Alpha virt. eigenvalues --    0.19723   0.19782   0.20571   0.20825   0.23780

  Beta  occ. eigenvalues --  -29.27187 -21.15432 -15.77184 -11.61701  -7.71373
  Beta  occ. eigenvalues --   -1.79923  -1.42379  -1.01361  -0.75363  -0.64791
  Beta  occ. eigenvalues --   -0.63290  -0.61579  -0.46043  -0.43366  -0.40901
  Beta  occ. eigenvalues --   -0.38689  -0.36618
  Beta virt. eigenvalues --    0.02856   0.03945   0.04031   0.07169   0.10196
  Beta virt. eigenvalues --    0.12129   0.12437   0.12661   0.13893   0.15486
  Beta virt. eigenvalues --    0.16595   0.19865   0.20325   0.21724   0.21858

 Mulliken charges and spin densities:
               1          2
     1  F   -1.040883  -0.072574
     2  B    0.850169   1.091879
     3  C    4.610726  -0.066634
     4  O   -2.308582   0.045332
     5  N   -2.111430   0.001997
 Sum of Mulliken charges =   0.00000   1.00000

 Dipole moment (field-independent basis, Debye):
    X=             -1.5188    Y=             -1.1414    Z=             -0.0000  Tot=              1.8999
                          Isotropic Fermi Contact Couplings
        Atom                 a.u.       MegaHertz       Gauss      10(-4) cm-1
     1  F(19)              0.09571     402.70295     143.69443     134.32725
     2  B(11)              0.28105     403.12952     143.84664     134.46953
     3  C(13)              0.00108       1.21235       0.43260       0.40440
     4  O(17)              0.00836      -5.06705      -1.80805      -1.69019
     5  N(14)              0.09070      29.30490      10.45672       9.77506
 --------------------------------------------------------
       Center         ----  Spin Dipole Couplings  ----
                      3XX-RR        3YY-RR        3ZZ-RR

 Normal termination of Gaussian 16 at Wed Apr  9 00:33:49 2025.
