 Gaussian 16, Revision C.01,

 ----------------------------------------------------------------------
 #t hf aug-cc-pvdz symm=none int=(grid=ultrafine) guess=(read,tcheck) s
 table=(opt,rrhf)
 ----------------------------------------------------------------------
 -----
 title
 -----
 Symbolic Z-matrix:
 Charge =  0 Multiplicity = 1

 SCF Done:  E(RHF) =  -546.074895031     A.U. after   15 cycles
 Normal termination of Gaussian 16 at Wed Apr  9 00:48:41 2025.
 Gaussian 16:  ES64L-G16RevC.01  3-Jul-2019

 ----------------------------------------------------------------------
 #t hf aug-cc-pvdz iop(5/13=1,5/36=2,99/5=2) pseudo=read geom=check gue
 ss=(read,tcheck) scf=(maxcycle=1)
 ----------------------------------------------------------------------
 -----
 title
 -----
 Structure from the checkpoint file:  "BDE49_nonexpt_849_mol1.chk"
 Charge =  0 Multiplicity = 1

                         Standard orientation:
 ---------------------------------------------------------------------
 Center     Atomic      Atomic             Coordinates (Angstroms)
 Number     Number       Type             X           Y           Z
 ---------------------------------------------------------------------
      1         14           0       -3.054181   -0.188058    0.000024
      2          5           0       -1.356438    0.911270   -0.000118
      3          6           0        0.092770    0.396426   -0.000055
      4          6           0        1.168197    1.314461   -0.000008
      5          6           0        0.415921   -0.979092   -0.000044
      6          6           0        1.735529   -1.413874    0.000005
      7          6           0        2.772655   -0.480295    0.000049
      8          6           0        2.489665    0.886221    0.000043
      9          1           0        3.803342   -0.818388    0.000088
     10          1           0        3.299053    1.607636    0.000077
     11          1           0        0.947378    2.376364   -0.000015
     12          1           0       -0.384706   -1.710180   -0.000077
     13          1           0        1.961184   -2.474317    0.000010
     14          1           0       -1.516549    2.098096    0.000050
     15          1           0       -2.877978   -1.664155    0.000036
     16          1           0       -3.869784    0.159141   -1.195041
     17          1           0       -3.869631    0.159181    1.195183
 ---------------------------------------------------------------------

 SCF Done:  E(RHF) =  -547.457783212     A.U. after    2 cycles

 The electronic state is 1-A.
 Alpha  occ. eigenvalues --  -76.19553 -11.51924 -11.43968 -11.43496 -11.41299
 Alpha  occ. eigenvalues --  -11.40914 -11.36404  -7.63485  -5.53043  -2.16021
 Alpha  occ. eigenvalues --   -2.15227  -2.15015  -1.34821  -1.11385  -1.09774
 Alpha  occ. eigenvalues --   -0.90871  -0.86779  -0.81287  -0.72826  -0.69135
 Alpha  occ. eigenvalues --   -0.63450  -0.59249  -0.57489  -0.52982  -0.50769
 Alpha  occ. eigenvalues --   -0.46056  -0.45869  -0.45476  -0.41678  -0.34727
 Alpha  occ. eigenvalues --   -0.34661  -0.33614
 Alpha virt. eigenvalues --    0.03046   0.03974   0.04360   0.04635   0.05248
 Alpha virt. eigenvalues --    0.05460   0.06173   0.06671   0.07920   0.08430
 Alpha virt. eigenvalues --    0.08458   0.09278   0.09538   0.10783   0.11170

 Mulliken charges:
               1
     1  Si   6.816636
     2  B    0.968856
     3  C   -2.522043
     4  C   -0.749922
     5  C    0.038455
     6  C   -1.632788
     7  C   -2.046348
     8  C   -1.172910
     9  H    1.502479
    10  H    1.563474
    11  H    1.971566
    12  H    2.146820
    13  H    1.555513
    14  H   -3.187022
    15  H   -1.723467
    16  H   -1.764684
    17  H   -1.764616
 Sum of Mulliken charges =   0.00000

 Dipole moment (field-independent basis, Debye):
    X=              2.7276    Y=             -0.2170    Z=             -0.0000  Tot=              2.7362

 Test job not archived.
 1\1\GINC-SE366\SP\RHF\Aug-CC-pVDZ\C6H9B1Si1\OHZDE\09-Apr-2025\0\\#t hf
  aug-cc-pvdz iop(5/13=1,5/36=2,99/5=2) pseudo=read geom=check guess=(r
 ead,tcheck) scf=(maxcycle=1)\\title\\0,1\Si,0,-3.054181,-0.188058,0.00
 0024\B,0,-1.356438,0.91127,-0.000118\C,0,0.09277,0.396426,-0.000055\C,
 0,1.168197,1.314461,-0.000008\C,0,0.415921,-0.979092,-0.000044\C,0,1.7
 35529,-1.413874,0.000005\C,0,2.772655,-0.480295,0.000049\C,0,2.489665,
 0.886221,0.000043\H,0,3.803342,-0.818388,0.000088\H,0,3.299053,1.60763
 6,0.000077\H,0,0.947378,2.376364,-0.000015\H,0,-0.384706,-1.71018,-0.0

 Normal termination of Gaussian 16 at Wed Apr  9 00:48:47 2025.
