 Gaussian 16, Revision C.01,

 ----------------------------------------------------------------------
 #t hf aug-cc-pvdz symm=none int=(grid=ultrafine) guess=(read,tcheck) s
 table=(opt,rrhf)
 ----------------------------------------------------------------------
 -----
 title
 -----
 Symbolic Z-matrix:
 Charge =  0 Multiplicity = 1

 SCF Done:  E(RHF) =  -444.229212583     A.U. after   12 cycles
 Normal termination of Gaussian 16 at Wed Apr  9 00:06:30 2025.
 Gaussian 16:  ES64L-G16RevC.01  3-Jul-2019

 ----------------------------------------------------------------------
 #t hf aug-cc-pvdz iop(5/13=1,5/36=2,99/5=2) pseudo=read geom=check gue
 ss=(read,tcheck) scf=(maxcycle=1)
 ----------------------------------------------------------------------
 -----
 title
 -----
 Structure from the checkpoint file:  "BDE49_nonexpt_2238_mol1.chk"
 Charge =  0 Multiplicity = 1

                         Standard orientation:
 ---------------------------------------------------------------------
 Center     Atomic      Atomic             Coordinates (Angstroms)
 Number     Number       Type             X           Y           Z
 ---------------------------------------------------------------------
      1         14           0        1.657093   -0.007375   -0.000002
      2          8           0        0.056254   -0.397538   -0.000001
      3          6           0       -1.024451    0.538066    0.000004
      4          6           0       -2.336829   -0.225061    0.000001
      5          1           0       -0.956900    1.182667   -0.886312
      6          1           0       -0.956899    1.182657    0.886327
      7          1           0       -2.407162   -0.860935   -0.885210
      8          1           0       -3.182779    0.468286    0.000005
      9          1           0       -2.407161   -0.860944    0.885205
     10          1           0        2.393030   -1.286018   -0.000009
     11          1           0        2.018111    0.789902    1.200055
     12          1           0        2.018107    0.789913   -1.200054
 ---------------------------------------------------------------------

 SCF Done:  E(RHF) =  -445.118617704     A.U. after    2 cycles

 The electronic state is 1-A.
 Alpha  occ. eigenvalues --  -76.23171 -21.03956 -11.43497 -11.36357  -5.56787
 Alpha  occ. eigenvalues --   -2.23608  -2.18531  -2.18185  -1.69479  -1.11683
 Alpha  occ. eigenvalues --   -0.87915  -0.75227  -0.64627  -0.59608  -0.54006
 Alpha  occ. eigenvalues --   -0.51351  -0.49612  -0.47842  -0.45738  -0.36270
 Alpha  occ. eigenvalues --   -0.34557
 Alpha virt. eigenvalues --    0.03925   0.05071   0.05775   0.06171   0.06360
 Alpha virt. eigenvalues --    0.06656   0.06751   0.07112   0.09222   0.09801
 Alpha virt. eigenvalues --    0.10992   0.13269   0.14090   0.14972   0.15367

 Mulliken charges:
               1
     1  Si   6.506270
     2  O   -3.162067
     3  C   -1.358129
     4  C   -3.640265
     5  H    1.483883
     6  H    1.483882
     7  H    1.243344
     8  H    1.207830
     9  H    1.243344
    10  H   -1.645996
    11  H   -1.681050
    12  H   -1.681048
 Sum of Mulliken charges =   0.00000

 Dipole moment (field-independent basis, Debye):
    X=             -1.0389    Y=              0.1575    Z=              0.0000  Tot=              1.0508

 Test job not archived.
 1\1\GINC-SE365\SP\RHF\Aug-CC-pVDZ\C2H8O1Si1\OHZDE\09-Apr-2025\0\\#t hf
  aug-cc-pvdz iop(5/13=1,5/36=2,99/5=2) pseudo=read geom=check guess=(r
 ead,tcheck) scf=(maxcycle=1)\\title\\0,1\Si,0,1.657093,-0.007375,-0.00
 0002\O,0,0.056254,-0.397538,-0.000001\C,0,-1.024451,0.538066,0.000004\
 C,0,-2.336829,-0.225061,0.000001\H,0,-0.9569,1.182667,-0.886312\H,0,-0
 .956899,1.182657,0.886327\H,0,-2.407162,-0.860935,-0.88521\H,0,-3.1827
 79,0.468286,0.000005\H,0,-2.407161,-0.860944,0.885205\H,0,2.39303,-1.2
 86018,-0.000009\H,0,2.018111,0.789902,1.200055\H,0,2.018107,0.789913,-

 Normal termination of Gaussian 16 at Wed Apr  9 00:06:33 2025.
