 Gaussian 16, Revision C.01,

 ----------------------------------------------------------------------
 #t hf aug-cc-pvdz symm=none int=(grid=ultrafine) guess=(read,tcheck) s
 table=(opt,rrhf)
 ----------------------------------------------------------------------
 -----
 title
 -----
 Symbolic Z-matrix:
 Charge =  0 Multiplicity = 1

 SCF Done:  E(RHF) =  -438.436606995     A.U. after   16 cycles

 1\1\GINC-SE054\Stability\RHF\Aug-CC-pVDZ\C10H9N1\OHZDE\08-Apr-2025\0\\
 #t hf aug-cc-pvdz symm=none int=(grid=ultrafine) guess=(read,tcheck) s
 table=(opt,rrhf)\\title\\0,1\C,0,1.406625,-1.505216,-0.001902\C,0,2.69
 3576,-1.023463,0.002409\C,0,2.941032,0.368883,0.005806\C,0,1.887518,1.
 25182,0.004906\C,0,0.548533,0.788134,0.000329\C,0,0.294825,-0.620485,-
 0.003195\C,0,-1.042096,-1.085799,-0.003337\C,0,-2.110426,-0.207633,-0.
 005269\C,0,-1.849427,1.19251,-0.00689\C,0,-0.565197,1.66793,-0.000815\
 H,0,3.5292,-1.714863,0.002665\H,0,3.96148,0.734597,0.00879\H,0,1.22349

 Normal termination of Gaussian 16 at Tue Apr  8 23:09:54 2025.
 Gaussian 16:  ES64L-G16RevC.01  3-Jul-2019

 ----------------------------------------------------------------------
 #t hf aug-cc-pvdz iop(5/13=1,5/36=2,99/5=2) pseudo=read geom=check gue
 ss=(read,tcheck) scf=(maxcycle=1)
 ----------------------------------------------------------------------
 -----
 title
 -----
 Structure from the checkpoint file:  "BDE49_expt_407_mol1.chk"
 Charge =  0 Multiplicity = 1

                         Standard orientation:
 ---------------------------------------------------------------------
 Center     Atomic      Atomic             Coordinates (Angstroms)
 Number     Number       Type             X           Y           Z
 ---------------------------------------------------------------------
      1          6           0        1.406625   -1.505216   -0.001902
      2          6           0        2.693576   -1.023463    0.002409
      3          6           0        2.941032    0.368883    0.005806
      4          6           0        1.887518    1.251820    0.004906
      5          6           0        0.548533    0.788134    0.000329
      6          6           0        0.294825   -0.620485   -0.003195
      7          6           0       -1.042096   -1.085799   -0.003337
      8          6           0       -2.110426   -0.207633   -0.005269
      9          6           0       -1.849427    1.192510   -0.006890
     10          6           0       -0.565197    1.667930   -0.000815
     11          1           0        3.529200   -1.714863    0.002665
     12          1           0        3.961480    0.734597    0.008790
     13          1           0        1.223499   -2.574922   -0.005175
     14          1           0        2.068617    2.322109    0.007226
     15          1           0       -2.686819    1.883210   -0.019228
     16          1           0       -0.386841    2.738437    0.000949
     17          7           0       -3.431293   -0.651578   -0.069962
     18          1           0       -3.579716   -1.606357    0.222132
     19          1           0       -4.116571   -0.024544    0.325205
     20          1           0       -1.223563   -2.156709   -0.005077
 ---------------------------------------------------------------------

 SCF Done:  E(RHF) =  -440.529909884     A.U. after    2 cycles

 The electronic state is 1-A.
 Alpha  occ. eigenvalues --  -15.75953 -11.51708 -11.49272 -11.45039 -11.44358
 Alpha  occ. eigenvalues --  -11.42815 -11.41759 -11.40833 -11.40564 -11.38817
 Alpha  occ. eigenvalues --  -11.35763  -1.42507  -1.33131  -1.19712  -1.13211
 Alpha  occ. eigenvalues --   -1.06147  -1.02758  -0.89308  -0.85990  -0.84481
 Alpha  occ. eigenvalues --   -0.72417  -0.70133  -0.68098  -0.64879  -0.62778
 Alpha  occ. eigenvalues --   -0.56657  -0.56089  -0.55325  -0.53980  -0.52613
 Alpha  occ. eigenvalues --   -0.48367  -0.47642  -0.42486  -0.41542  -0.40030
 Alpha  occ. eigenvalues --   -0.36730  -0.29231  -0.25247
 Alpha virt. eigenvalues --    0.03401   0.04598   0.04908   0.05700   0.06249
 Alpha virt. eigenvalues --    0.06503   0.06685   0.08702   0.09387   0.09943
 Alpha virt. eigenvalues --    0.10532   0.10763   0.11504   0.11962   0.12589

 Mulliken charges:
               1
     1  C   -2.509945
     2  C   -4.246403
     3  C   -3.790433
     4  C   -2.152101
     5  C    5.900368
     6  C    7.167391
     7  C   -1.097083
     8  C   -0.809684
     9  C   -4.705381
    10  C   -2.637443
    11  H    1.465475
    12  H    1.492033
    13  H    1.681392
    14  H    1.711102
    15  H    1.660033
    16  H    1.820478
    17  N   -4.016892
    18  H    0.632674
    19  H    0.604516
    20  H    1.829903
 Sum of Mulliken charges =   0.00000

 Dipole moment (field-independent basis, Debye):
    X=             -1.4149    Y=             -0.0452    Z=              0.7587  Tot=              1.6061

 Test job not archived.
 1\1\GINC-SE054\SP\RHF\Aug-CC-pVDZ\C10H9N1\OHZDE\08-Apr-2025\0\\#t hf a
 ug-cc-pvdz iop(5/13=1,5/36=2,99/5=2) pseudo=read geom=check guess=(rea
 d,tcheck) scf=(maxcycle=1)\\title\\0,1\C,0,1.406625,-1.505216,-0.00190
 2\C,0,2.693576,-1.023463,0.002409\C,0,2.941032,0.368883,0.005806\C,0,1
 .887518,1.25182,0.004906\C,0,0.548533,0.788134,0.000329\C,0,0.294825,-
 0.620485,-0.003195\C,0,-1.042096,-1.085799,-0.003337\C,0,-2.110426,-0.
 207633,-0.005269\C,0,-1.849427,1.19251,-0.00689\C,0,-0.565197,1.66793,
 -0.000815\H,0,3.5292,-1.714863,0.002665\H,0,3.96148,0.734597,0.00879\H

 Normal termination of Gaussian 16 at Tue Apr  8 23:10:07 2025.
