 Gaussian 16, Revision C.01,

 ----------------------------------------------------------------------
 #t hf aug-cc-pvdz symm=none int=(grid=ultrafine) guess=(read,tcheck) s
 table=(opt,rrhf)
 ----------------------------------------------------------------------
 -----
 title
 -----
 Symbolic Z-matrix:
 Charge =  0 Multiplicity = 1

 SCF Done:  E(RHF) =  -664.262053127     A.U. after   13 cycles
 Normal termination of Gaussian 16 at Tue Apr  8 23:36:41 2025.
 Gaussian 16:  ES64L-G16RevC.01  3-Jul-2019

 ----------------------------------------------------------------------
 #t hf aug-cc-pvdz iop(5/13=1,5/36=2,99/5=2) pseudo=read geom=check gue
 ss=(read,tcheck) scf=(maxcycle=1)
 ----------------------------------------------------------------------
 -----
 title
 -----
 Structure from the checkpoint file:  "BDE49_nonexpt_1496_mol1.chk"
 Charge =  0 Multiplicity = 1

                         Standard orientation:
 ---------------------------------------------------------------------
 Center     Atomic      Atomic             Coordinates (Angstroms)
 Number     Number       Type             X           Y           Z
 ---------------------------------------------------------------------
      1         15           0       -0.585337    1.117281   -0.233173
      2          7           0       -1.260430   -0.480867    0.267462
      3          8           0       -2.528978   -0.157469    0.847515
      4          8           0       -1.513073   -1.212712   -0.923881
      5          6           0        1.150736    0.558982   -0.570723
      6          6           0        1.902404   -0.133167    0.573042
      7          1           0        1.686321    1.456512   -0.905012
      8          1           0        1.085104   -0.098036   -1.444772
      9          6           0        3.294499   -0.619722    0.156907
     10          1           0        1.304260   -0.974795    0.930621
     11          1           0        1.992715    0.562610    1.414813
     12          1           0        3.231048   -1.346579   -0.658496
     13          1           0        3.808641   -1.102563    0.992525
     14          1           0        3.921912    0.209408   -0.185402
     15          1           0       -2.659231   -0.868072    1.487891
     16          1           0       -2.132455   -0.673433   -1.448124
     17          1           0       -0.384666    1.566685    1.096889
 ---------------------------------------------------------------------

 SCF Done:  E(RHF) =  -665.934770287     A.U. after    2 cycles

 The electronic state is 1-A.
 Alpha  occ. eigenvalues -- -105.19959 -21.10251 -21.09747 -15.79834 -11.41514
 Alpha  occ. eigenvalues --  -11.38350 -11.35130  -2.77488  -1.85903  -1.67709
 Alpha  occ. eigenvalues --   -1.51036  -1.49044  -1.46467  -1.19660  -1.03187
 Alpha  occ. eigenvalues --   -0.97228  -0.84665  -0.72307  -0.66202  -0.63869
 Alpha  occ. eigenvalues --   -0.57275  -0.56203  -0.54442  -0.52038  -0.51147
 Alpha  occ. eigenvalues --   -0.46928  -0.46549  -0.45827  -0.35680  -0.31837
 Alpha  occ. eigenvalues --   -0.25271  -0.21217  -0.02714
 Alpha virt. eigenvalues --    0.04526   0.05334   0.05722   0.06188   0.06405
 Alpha virt. eigenvalues --    0.06717   0.06998   0.07558   0.08049   0.09676
 Alpha virt. eigenvalues --    0.11141   0.11471   0.12820   0.13160   0.15064

 Mulliken charges:
               1
     1  P    3.757620
     2  N    2.234455
     3  O   -2.412429
     4  O   -2.332362
     5  C   -3.600375
     6  C   -3.545536
     7  H    1.279024
     8  H    1.419466
     9  C   -3.980236
    10  H    1.528238
    11  H    1.535044
    12  H    1.261804
    13  H    1.143976
    14  H    1.248345
    15  H    0.815079
    16  H    0.812319
    17  H   -1.164432
 Sum of Mulliken charges =   0.00000

 Dipole moment (field-independent basis, Debye):
    X=             -0.1828    Y=             -0.0046    Z=              0.5753  Tot=              0.6037

 Test job not archived.
 1\1\GINC-SE340\SP\RHF\Aug-CC-pVDZ\C3H10N1O2P1\OHZDE\08-Apr-2025\0\\#t
 hf aug-cc-pvdz iop(5/13=1,5/36=2,99/5=2) pseudo=read geom=check guess=
 (read,tcheck) scf=(maxcycle=1)\\title\\0,1\P,0,-0.585337,1.117281,-0.2
 33173\N,0,-1.26043,-0.480867,0.267462\O,0,-2.528978,-0.157469,0.847515
 \O,0,-1.513073,-1.212712,-0.923881\C,0,1.150736,0.558982,-0.570723\C,0
 ,1.902404,-0.133167,0.573042\H,0,1.686321,1.456512,-0.905012\H,0,1.085
 104,-0.098036,-1.444772\C,0,3.294499,-0.619722,0.156907\H,0,1.30426,-0
 .974795,0.930621\H,0,1.992715,0.56261,1.414813\H,0,3.231048,-1.346579,

 Normal termination of Gaussian 16 at Tue Apr  8 23:36:47 2025.
