 Gaussian 16, Revision C.01,

 ----------------------------------------------------------------------
 #t hf aug-cc-pvdz symm=none int=(grid=ultrafine) guess=(read,tcheck) s
 table=opt
 ----------------------------------------------------------------------
 -----
 title
 -----
 Symbolic Z-matrix:
 Charge =  0 Multiplicity = 2

 SCF Done:  E(UHF) =  -1300.33733574     A.U. after   23 cycles
 Normal termination of Gaussian 16 at Tue Apr  8 23:46:18 2025.
 Gaussian 16:  ES64L-G16RevC.01  3-Jul-2019

 ----------------------------------------------------------------------
 #t hf aug-cc-pvdz iop(5/13=1,5/36=2,99/5=2) pseudo=read geom=check gue
 ss=(read,tcheck) scf=(maxcycle=1)
 ----------------------------------------------------------------------
 -----
 title
 -----
 Structure from the checkpoint file:  "BDE49_nonexpt_1766_mol2.chk"
 Charge =  0 Multiplicity = 2

                         Standard orientation:
 ---------------------------------------------------------------------
 Center     Atomic      Atomic             Coordinates (Angstroms)
 Number     Number       Type             X           Y           Z
 ---------------------------------------------------------------------
      1          6           0       -1.750756   -0.016269   -0.019455
      2         14           0        0.000781   -0.000310    0.550093
      3          7           0       -2.885040   -0.024553   -0.250272
      4         17           0        0.918395   -1.695201   -0.171626
      5         17           0        0.886833    1.711309   -0.171472
 ---------------------------------------------------------------------

 SCF Done:  E(UHF) =  -1301.33743776     A.U. after    2 cycles

 The electronic state is 2-A.
 Alpha  occ. eigenvalues --  -99.92971 -99.92966 -76.36656 -15.80644 -11.42477
 Alpha  occ. eigenvalues --  -10.50419 -10.50377  -9.70324  -9.70309  -9.69590
 Alpha  occ. eigenvalues --   -9.69569  -9.69556  -9.69456  -5.70171  -2.32960
 Alpha  occ. eigenvalues --   -2.32129  -2.29901  -1.35591  -1.32818  -1.32386
 Alpha  occ. eigenvalues --   -0.88046  -0.68774  -0.63285  -0.60279  -0.59018
 Alpha  occ. eigenvalues --   -0.57566  -0.55202  -0.53993  -0.49497  -0.48385
 Alpha  occ. eigenvalues --   -0.36237
 Alpha virt. eigenvalues --    0.03610   0.04429   0.04434   0.05650   0.07180
 Alpha virt. eigenvalues --    0.08282   0.10002   0.11532   0.11742   0.13014
 Alpha virt. eigenvalues --    0.13749   0.13953   0.14939   0.14977   0.16968

  Beta  occ. eigenvalues --  -99.92850 -99.92846 -76.36003 -15.79798 -11.42827
  Beta  occ. eigenvalues --  -10.50287 -10.50244  -9.70028  -9.70025  -9.69523
  Beta  occ. eigenvalues --   -9.69425  -9.69298  -9.69244  -5.69072  -2.32166
  Beta  occ. eigenvalues --   -2.31438  -2.26491  -1.34490  -1.31429  -1.31345
  Beta  occ. eigenvalues --   -0.85033  -0.67636  -0.62070  -0.59049  -0.58303
  Beta  occ. eigenvalues --   -0.56393  -0.55013  -0.52656  -0.48064  -0.47831
  Beta virt. eigenvalues --   -0.02069   0.04813   0.05140   0.05243   0.05709
  Beta virt. eigenvalues --    0.07970   0.09350   0.11279   0.11923   0.12194
  Beta virt. eigenvalues --    0.13166   0.13918   0.14481   0.15327   0.16437

 Mulliken charges and spin densities:
               1          2
     1  C    0.870544  -0.320708
     2  Si   2.733710   0.959355
     3  N   -2.047428   0.261429
     4  Cl  -0.778468   0.049934
     5  Cl  -0.778358   0.049990
 Sum of Mulliken charges =  -0.00000   1.00000

 Dipole moment (field-independent basis, Debye):
    X=              1.2978    Y=              0.0107    Z=              1.5105  Tot=              1.9915
                          Isotropic Fermi Contact Couplings
        Atom                 a.u.       MegaHertz       Gauss      10(-4) cm-1
     1  C(13)              0.03079      34.60906      12.34937      11.54434
     2  Si(29)             1.00607    -894.12195    -319.04495    -298.24698
     3  N(14)              0.05176      16.72512       5.96794       5.57890
     4  Cl(35)             0.08431      36.96572      13.19029      12.33044
     5  Cl(35)             0.08431      36.96841      13.19125      12.33133
 --------------------------------------------------------
       Center         ----  Spin Dipole Couplings  ----
                      3XX-RR        3YY-RR        3ZZ-RR

 Normal termination of Gaussian 16 at Tue Apr  8 23:46:20 2025.
