 Gaussian 16, Revision C.01,

 ----------------------------------------------------------------------
 #t hf aug-cc-pvdz symm=none int=(grid=ultrafine) guess=(read,tcheck) s
 table=(opt,rrhf)
 ----------------------------------------------------------------------
 -----
 title
 -----
 Symbolic Z-matrix:
 Charge =  0 Multiplicity = 1

 SCF Done:  E(RHF) =  -299.982631796     A.U. after   13 cycles
 Normal termination of Gaussian 16 at Wed Apr  9 00:32:55 2025.
 Gaussian 16:  ES64L-G16RevC.01  3-Jul-2019

 ----------------------------------------------------------------------
 #t hf aug-cc-pvdz iop(5/13=1,5/36=2,99/5=2) pseudo=read geom=check gue
 ss=(read,tcheck) scf=(maxcycle=1)
 ----------------------------------------------------------------------
 -----
 title
 -----
 Structure from the checkpoint file:  "BDE49_nonexpt_386_mol1.chk"
 Charge =  0 Multiplicity = 1

                         Standard orientation:
 ---------------------------------------------------------------------
 Center     Atomic      Atomic             Coordinates (Angstroms)
 Number     Number       Type             X           Y           Z
 ---------------------------------------------------------------------
      1          9           0       -1.155367    1.130226   -0.000002
      2          9           0       -1.155370   -1.130225    0.000003
      3          5           0       -0.468322    0.000000   -0.000004
      4          6           0        1.049072   -0.000002   -0.000002
      5          6           0        2.254224   -0.000003    0.000003
      6          1           0        3.318457    0.000011    0.000007
 ---------------------------------------------------------------------

 SCF Done:  E(RHF) =  -301.110745978     A.U. after    2 cycles

 The electronic state is 1-A.
 Alpha  occ. eigenvalues --  -29.26736 -29.26634 -11.44999 -11.39760  -7.73281
 Alpha  occ. eigenvalues --   -1.22387  -1.07191  -0.79296  -0.76229  -0.67617
 Alpha  occ. eigenvalues --   -0.53042  -0.47122  -0.45836  -0.43180  -0.39743
 Alpha  occ. eigenvalues --   -0.34867  -0.33008  -0.29061
 Alpha virt. eigenvalues --    0.02070   0.04447   0.04448   0.05808   0.06880
 Alpha virt. eigenvalues --    0.07821   0.09637   0.10241   0.13849   0.16511
 Alpha virt. eigenvalues --    0.16544   0.16632   0.18373   0.20176   0.21286

 Mulliken charges:
               1
     1  F   -0.565669
     2  F   -0.565672
     3  B    1.615203
     4  C    0.805312
     5  C   -1.769092
     6  H    0.479919
 Sum of Mulliken charges =   0.00000

 Dipole moment (field-independent basis, Debye):
    X=             -1.5342    Y=              0.0000    Z=              0.0000  Tot=              1.5342

 Test job not archived.
 1\1\GINC-SE132\SP\RHF\Aug-CC-pVDZ\C2H1B1F2\OHZDE\09-Apr-2025\0\\#t hf
 aug-cc-pvdz iop(5/13=1,5/36=2,99/5=2) pseudo=read geom=check guess=(re
 ad,tcheck) scf=(maxcycle=1)\\title\\0,1\F,0,1.155367,-1.130226,-0.0000
 02\F,0,1.15537,1.130225,0.000003\B,0,0.468322,0.,-0.000004\C,0,-1.0490
 72,0.000002,-0.000002\C,0,-2.254224,0.000003,0.000003\H,0,-3.318457,-0
 .000011,0.000007\\Version=ES64L-G16RevC.01\State=1-A\HF=-301.110746\RM
 SD=1.529e+00\Dipole=0.6035896,-0.0000094,0.0000061\Quadrupole=3.608203
 4,0.7287298,-4.3369332,0.0000416,-0.0000144,0.0000112\PG=C01 [X(C2H1B1

 Normal termination of Gaussian 16 at Wed Apr  9 00:32:57 2025.
