 Gaussian 16, Revision C.01,

 ----------------------------------------------------------------------
 #t hf aug-cc-pvdz symm=none int=(grid=ultrafine) guess=(read,tcheck) s
 table=(opt,rrhf)
 ----------------------------------------------------------------------
 -----
 title
 -----
 Symbolic Z-matrix:
 Charge =  0 Multiplicity = 1

 SCF Done:  E(RHF) =  -381.605513106     A.U. after   15 cycles
 Normal termination of Gaussian 16 at Tue Apr  8 23:20:56 2025.
 Gaussian 16:  ES64L-G16RevC.01  3-Jul-2019

 ----------------------------------------------------------------------
 #t hf aug-cc-pvdz iop(5/13=1,5/36=2,99/5=2) pseudo=read geom=check gue
 ss=(read,tcheck) scf=(maxcycle=1)
 ----------------------------------------------------------------------
 -----
 title
 -----
 Structure from the checkpoint file:  "BDE49_nonexpt_1140_mol1.chk"
 Charge =  0 Multiplicity = 1

                         Standard orientation:
 ---------------------------------------------------------------------
 Center     Atomic      Atomic             Coordinates (Angstroms)
 Number     Number       Type             X           Y           Z
 ---------------------------------------------------------------------
      1          9           0        1.846428   -0.958050   -0.000020
      2          8           0        1.411843    0.439886   -0.000005
      3          6           0        0.017732    0.537202    0.000021
      4          8           0       -0.377345    1.673436   -0.000007
      5          7           0       -0.665160   -0.614988    0.000014
      6          6           0       -2.121303   -0.638053    0.000005
      7          1           0       -0.139846   -1.474577    0.000018
      8          1           0       -2.477619    0.390253   -0.000013
      9          1           0       -2.499417   -1.144872    0.890920
     10          1           0       -2.499406   -1.144900   -0.890898
 ---------------------------------------------------------------------

 SCF Done:  E(RHF) =  -383.154100077     A.U. after    2 cycles

 The electronic state is 1-A.
 Alpha  occ. eigenvalues --  -29.32224 -21.19738 -21.06075 -15.79779 -11.55423
 Alpha  occ. eigenvalues --  -11.42389  -1.88587  -1.68615  -1.42761  -1.04903
 Alpha  occ. eigenvalues --   -0.86118  -0.77611  -0.69332  -0.66686  -0.59132
 Alpha  occ. eigenvalues --   -0.58293  -0.55018  -0.53134  -0.46020  -0.39869
 Alpha  occ. eigenvalues --   -0.35275  -0.34438  -0.27616  -0.24427
 Alpha virt. eigenvalues --    0.02999   0.05367   0.05919   0.07040   0.09657
 Alpha virt. eigenvalues --    0.11644   0.11703   0.12228   0.13882   0.15680
 Alpha virt. eigenvalues --    0.15997   0.16624   0.19263   0.19392   0.21069

 Mulliken charges:
               1
     1  F   -0.166791
     2  O   -1.580155
     3  C    5.063126
     4  O   -2.672697
     5  N   -2.086185
     6  C   -2.974074
     7  H    0.501998
     8  H    1.287891
     9  H    1.313445
    10  H    1.313441
 Sum of Mulliken charges =  -0.00000

 Dipole moment (field-independent basis, Debye):
    X=             -0.4941    Y=             -3.7938    Z=             -0.0000  Tot=              3.8259

 Test job not archived.
 1\1\GINC-SE339\SP\RHF\Aug-CC-pVDZ\C2H4F1N1O2\OHZDE\08-Apr-2025\0\\#t h
 f aug-cc-pvdz iop(5/13=1,5/36=2,99/5=2) pseudo=read geom=check guess=(
 read,tcheck) scf=(maxcycle=1)\\title\\0,1\F,0,1.846428,-0.95805,-0.000
 02\O,0,1.411843,0.439886,-0.000005\C,0,0.017732,0.537202,0.000021\O,0,
 -0.377345,1.673436,-0.000007\N,0,-0.66516,-0.614988,0.000014\C,0,-2.12
 1303,-0.638053,0.000005\H,0,-0.139846,-1.474577,0.000018\H,0,-2.477619
 ,0.390253,-0.000013\H,0,-2.499417,-1.144872,0.89092\H,0,-2.499406,-1.1
 449,-0.890898\\Version=ES64L-G16RevC.01\State=1-A\HF=-383.1541001\RMSD

 Normal termination of Gaussian 16 at Tue Apr  8 23:20:59 2025.
