 Gaussian 16, Revision C.01,

 ----------------------------------------------------------------------
 #t hf aug-cc-pvdz symm=none int=(grid=ultrafine) guess=(read,tcheck) s
 table=(opt,rrhf)
 ----------------------------------------------------------------------
 -----
 title
 -----
 Symbolic Z-matrix:
 Charge =  0 Multiplicity = 1

 SCF Done:  E(RHF) =  -1258.16302131     A.U. after   13 cycles
 Normal termination of Gaussian 16 at Wed Apr  9 00:50:01 2025.
 Gaussian 16:  ES64L-G16RevC.01  3-Jul-2019

 ----------------------------------------------------------------------
 #t hf aug-cc-pvdz iop(5/13=1,5/36=2,99/5=2) pseudo=read geom=check gue
 ss=(read,tcheck) scf=(maxcycle=1)
 ----------------------------------------------------------------------
 -----
 title
 -----
 Structure from the checkpoint file:  "BDE49_nonexpt_894_mol1.chk"
 Charge =  0 Multiplicity = 1

                         Standard orientation:
 ---------------------------------------------------------------------
 Center     Atomic      Atomic             Coordinates (Angstroms)
 Number     Number       Type             X           Y           Z
 ---------------------------------------------------------------------
      1          6           0       -2.515769   -0.053349    0.000010
      2         16           0       -1.035945   -1.135238    0.000015
      3          1           0       -2.541189    0.567813    0.894466
      4          1           0       -3.378244   -0.719110    0.000012
      5          1           0       -2.541189    0.567805   -0.894452
      6          5           0        0.372211   -0.004967    0.000010
      7         16           0        2.064886   -0.680751   -0.000008
      8         16           0        0.129029    1.801028   -0.000014
      9          1           0        1.740152   -1.986425   -0.000001
     10          1           0        1.426504    2.154241   -0.000025
 ---------------------------------------------------------------------

 SCF Done:  E(RHF) =  -1259.16595060     A.U. after    2 cycles

 The electronic state is 1-A.
 Alpha  occ. eigenvalues --  -75.70034 -75.69733 -75.68744 -13.17195 -13.16575
 Alpha  occ. eigenvalues --  -13.13228 -13.10993 -13.10268 -13.07369 -13.04395
 Alpha  occ. eigenvalues --  -13.03607 -13.03145 -11.40831  -8.04089  -8.03649
 Alpha  occ. eigenvalues --   -8.02760  -7.67789  -1.26249  -1.15352  -1.10244
 Alpha  occ. eigenvalues --   -0.96189  -0.66619  -0.59938  -0.59716  -0.54501
 Alpha  occ. eigenvalues --   -0.51275  -0.40895  -0.37685  -0.34311  -0.33202
 Alpha  occ. eigenvalues --   -0.25645  -0.24313
 Alpha virt. eigenvalues --    0.01297   0.02177   0.02785   0.03119   0.07031
 Alpha virt. eigenvalues --    0.08138   0.08906   0.09312   0.09804   0.11717
 Alpha virt. eigenvalues --    0.11810   0.12279   0.12970   0.13366   0.15472

 Mulliken charges:
               1
     1  C   -4.905478
     2  S   -0.736883
     3  H    1.418124
     4  H    1.387134
     5  H    1.418125
     6  B    4.270838
     7  S   -2.565398
     8  S   -2.350302
     9  H    1.052176
    10  H    1.011664
 Sum of Mulliken charges =  -0.00000

 Dipole moment (field-independent basis, Debye):
    X=             -1.1833    Y=              0.5836    Z=             -0.0001  Tot=              1.3194

 Test job not archived.
 1\1\GINC-SE454\SP\RHF\Aug-CC-pVDZ\C1H5B1S3\OHZDE\09-Apr-2025\0\\#t hf
 aug-cc-pvdz iop(5/13=1,5/36=2,99/5=2) pseudo=read geom=check guess=(re
 ad,tcheck) scf=(maxcycle=1)\\title\\0,1\C,0,-2.515769,-0.053351,0.0000
 1\S,0,-1.035944,-1.135239,0.000015\H,0,-2.541189,0.567811,0.894466\H,0
 ,-3.378244,-0.719112,0.000012\H,0,-2.541189,0.567803,-0.894452\B,0,0.3
 72211,-0.004967,0.00001\S,0,2.064886,-0.68075,-0.000008\S,0,0.129028,1
 .801028,-0.000014\H,0,1.740153,-1.986424,-0.000001\H,0,1.426503,2.1542
 42,-0.000025\\Version=ES64L-G16RevC.01\State=1-A\HF=-1259.1659506\RMSD

 Normal termination of Gaussian 16 at Wed Apr  9 00:50:04 2025.
