 Gaussian 16, Revision C.01,

 ----------------------------------------------------------------------
 #t hf aug-cc-pvdz symm=none int=(grid=ultrafine) guess=(read,tcheck) s
 table=(opt,rrhf)
 ----------------------------------------------------------------------
 -----
 title
 -----
 Symbolic Z-matrix:
 Charge =  0 Multiplicity = 1

 SCF Done:  E(RHF) =  -330.124883489     A.U. after   14 cycles
 Normal termination of Gaussian 16 at Tue Apr  8 23:38:00 2025.
 Gaussian 16:  ES64L-G16RevC.01  3-Jul-2019

 ----------------------------------------------------------------------
 #t hf aug-cc-pvdz iop(5/13=1,5/36=2,99/5=2) pseudo=read geom=check gue
 ss=(read,tcheck) scf=(maxcycle=1)
 ----------------------------------------------------------------------
 -----
 title
 -----
 Structure from the checkpoint file:  "BDE49_nonexpt_150_mol1.chk"
 Charge =  0 Multiplicity = 1

                         Standard orientation:
 ---------------------------------------------------------------------
 Center     Atomic      Atomic             Coordinates (Angstroms)
 Number     Number       Type             X           Y           Z
 ---------------------------------------------------------------------
      1          5           0        0.550459   -1.181206   -0.528372
      2          5           0       -0.599469   -1.147987    0.569819
      3          5           0       -1.789822    0.015649    0.132888
      4          8           0       -1.501118    1.337856   -0.004218
      5          6           0       -3.276953   -0.446941   -0.123802
      6          1           0       -3.759957   -0.681295    0.833475
      7          1           0       -3.336284   -1.363035   -0.721444
      8          1           0       -3.865711    0.332477   -0.617131
      9          5           0        1.764233   -0.050801   -0.149042
     10          8           0        1.382112    1.270458   -0.038939
     11          6           0        3.260632   -0.474721    0.110986
     12          1           0        3.338123   -1.418596    0.659285
     13          1           0        3.847799    0.278896    0.650953
     14          1           0        3.753650   -0.647876   -0.854537
     15          1           0       -0.557537    1.538713    0.088732
     16          1           0        2.104168    1.870444    0.183589
     17          1           0       -0.688239   -1.662070    1.643376
     18          1           0        0.586951   -1.762469   -1.570612
 ---------------------------------------------------------------------

 SCF Done:  E(RHF) =  -331.592912340     A.U. after    2 cycles

 The electronic state is 1-A.
 Alpha  occ. eigenvalues --  -21.08046 -21.03564 -11.34655 -11.31916  -7.61124
 Alpha  occ. eigenvalues --   -7.58696  -7.56474  -7.56026  -1.75831  -1.71484
 Alpha  occ. eigenvalues --   -1.07933  -1.05337  -0.94947  -0.77093  -0.68543
 Alpha  occ. eigenvalues --   -0.66561  -0.59680  -0.57023  -0.56253  -0.54879
 Alpha  occ. eigenvalues --   -0.53457  -0.51083  -0.45922  -0.43920  -0.42307
 Alpha  occ. eigenvalues --   -0.41729  -0.39239  -0.34389  -0.29581
 Alpha virt. eigenvalues --    0.01079   0.01426   0.01649   0.03292   0.06354
 Alpha virt. eigenvalues --    0.06706   0.07321   0.07513   0.07838   0.08320
 Alpha virt. eigenvalues --    0.08492   0.08691   0.08968   0.09204   0.09630

 Mulliken charges:
               1
     1  B    1.638328
     2  B    1.251475
     3  B    7.977192
     4  O   -4.792349
     5  C   -6.396577
     6  H    0.664744
     7  H    1.125475
     8  H    1.244178
     9  B    7.066111
    10  O   -4.171142
    11  C   -6.215906
    12  H    1.311829
    13  H    1.145655
    14  H    0.872833
    15  H    2.168057
    16  H    1.298259
    17  H   -3.052016
    18  H   -3.136146
 Sum of Mulliken charges =  -0.00000

 Dipole moment (field-independent basis, Debye):
    X=              2.1594    Y=              0.9245    Z=              0.2654  Tot=              2.3639

 Test job not archived.
 1\1\GINC-SE103\SP\RHF\Aug-CC-pVDZ\C2H10B4O2\OHZDE\08-Apr-2025\0\\#t hf
  aug-cc-pvdz iop(5/13=1,5/36=2,99/5=2) pseudo=read geom=check guess=(r
 ead,tcheck) scf=(maxcycle=1)\\title\\0,1\B,0,0.550459,-1.181206,-0.528
 372\B,0,-0.599469,-1.147987,0.569819\B,0,-1.789822,0.015649,0.132888\O
 ,0,-1.501118,1.337856,-0.004218\C,0,-3.276953,-0.446941,-0.123802\H,0,
 -3.759957,-0.681295,0.833475\H,0,-3.336284,-1.363035,-0.721444\H,0,-3.
 865711,0.332477,-0.617131\B,0,1.764233,-0.050801,-0.149042\O,0,1.38211
 2,1.270458,-0.038939\C,0,3.260632,-0.474721,0.110986\H,0,3.338123,-1.4

 Normal termination of Gaussian 16 at Tue Apr  8 23:38:10 2025.
