 Gaussian 16, Revision C.01,

 ----------------------------------------------------------------------
 #t hf aug-cc-pvdz symm=none int=(grid=ultrafine) guess=(read,tcheck) s
 table=(opt,rrhf)
 ----------------------------------------------------------------------
 -----
 title
 -----
 Symbolic Z-matrix:
 Charge =  0 Multiplicity = 1

 SCF Done:  E(RHF) =  -459.488077952     A.U. after   16 cycles
 Normal termination of Gaussian 16 at Wed Apr  9 00:37:59 2025.
 Gaussian 16:  ES64L-G16RevC.01  3-Jul-2019

 ----------------------------------------------------------------------
 #t hf aug-cc-pvdz iop(5/13=1,5/36=2,99/5=2) pseudo=read geom=check gue
 ss=(read,tcheck) scf=(maxcycle=1)
 ----------------------------------------------------------------------
 -----
 title
 -----
 Structure from the checkpoint file:  "BDE49_nonexpt_533_mol1.chk"
 Charge =  0 Multiplicity = 1

                         Standard orientation:
 ---------------------------------------------------------------------
 Center     Atomic      Atomic             Coordinates (Angstroms)
 Number     Number       Type             X           Y           Z
 ---------------------------------------------------------------------
      1          1           0       -0.000073   -4.311569    1.030422
      2          1           0       -0.000073   -4.311569   -1.030422
      3          5           0        0.000011   -3.713115   -0.000000
      4          6           0        0.000004   -2.169129   -0.000000
      5          6           0        0.000002   -1.441173    1.207950
      6          6           0        0.000000   -0.052295    1.220162
      7          6           0        0.000000    0.615083    0.000000
      8          6           0        0.000002   -1.441173   -1.207950
      9          1           0        0.000003   -1.979363   -2.148989
     10          6           0        0.000000   -0.052295   -1.220162
     11          1           0        0.000000    0.517758   -2.138549
     12          7           0        0.000000    2.101886    0.000000
     13          8           0        0.000002    2.665289    1.084664
     14          8           0        0.000002    2.665289   -1.084664
     15          1           0        0.000003   -1.979363    2.148989
     16          1           0        0.000000    0.517758    2.138549
 ---------------------------------------------------------------------

 SCF Done:  E(RHF) =  -461.542262086     A.U. after    2 cycles

 The electronic state is 1-A'.
 Alpha  occ. eigenvalues --  -21.10182 -21.10064 -16.00655 -11.54783 -11.48369
 Alpha  occ. eigenvalues --  -11.47329 -11.44763 -11.44523 -11.39669  -7.65634
 Alpha  occ. eigenvalues --   -2.00506  -1.69812  -1.38570  -1.19424  -1.13070
 Alpha  occ. eigenvalues --   -1.02670  -0.90695  -0.87785  -0.81415  -0.74017
 Alpha  occ. eigenvalues --   -0.68201  -0.66781  -0.64831  -0.62065  -0.60496
 Alpha  occ. eigenvalues --   -0.58449  -0.53177  -0.49880  -0.45970  -0.44227
 Alpha  occ. eigenvalues --   -0.37629  -0.36429  -0.36278  -0.31863  -0.31837
 Alpha virt. eigenvalues --    0.02427   0.02805   0.03410   0.03845   0.04988
 Alpha virt. eigenvalues --    0.06710   0.06906   0.07159   0.08270   0.09846
 Alpha virt. eigenvalues --    0.10170   0.11676   0.11871   0.12244   0.13191

 Mulliken charges:
               1
     1  H   -3.650387
     2  H   -3.650387
     3  B    6.167024
     4  C   -2.848752
     5  C    0.610794
     6  C   -2.724228
     7  C    3.492191
     8  C    0.610794
     9  H    1.783331
    10  C   -2.724228
    11  H    1.894926
    12  N    3.357367
    13  O   -2.998351
    14  O   -2.998351
    15  H    1.783331
    16  H    1.894926
 Sum of Mulliken charges =  -0.00000

 Dipole moment (field-independent basis, Debye):
    X=              0.0001    Y=             -1.8541    Z=             -0.0000  Tot=              1.8541

 Test job not archived.
 1\1\GINC-SE127\SP\RHF\Aug-CC-pVDZ\C6H6B1N1O2\OHZDE\09-Apr-2025\0\\#t h
 f aug-cc-pvdz iop(5/13=1,5/36=2,99/5=2) pseudo=read geom=check guess=(
 read,tcheck) scf=(maxcycle=1)\\title\\0,1\H,0,0.000073,4.311569,1.0304
 22\H,0,0.000073,4.311569,-1.030422\B,0,-0.000011,3.713115,0.\C,0,-0.00
 0004,2.169129,0.\C,0,-0.000002,1.441173,1.20795\C,0,0.,0.052295,1.2201
 62\C,0,0.,-0.615083,0.\C,0,-0.000002,1.441173,-1.20795\H,0,-0.000003,1
 .979363,-2.148989\C,0,0.,0.052295,-1.220162\H,0,0.,-0.517758,-2.138549
 \N,0,0.,-2.101886,0.\O,0,-0.000002,-2.665289,1.084664\O,0,-0.000002,-2

 Normal termination of Gaussian 16 at Wed Apr  9 00:38:04 2025.
