 Gaussian 16, Revision C.01,

 ----------------------------------------------------------------------
 #t hf aug-cc-pvdz symm=none int=(grid=ultrafine) guess=(read,tcheck) s
 table=(opt,rrhf)
 ----------------------------------------------------------------------
 -----
 title
 -----
 Symbolic Z-matrix:
 Charge =  0 Multiplicity = 1

 SCF Done:  E(RHF) =  -516.079294464     A.U. after   14 cycles
 Normal termination of Gaussian 16 at Tue Apr  8 23:52:40 2025.
 Gaussian 16:  ES64L-G16RevC.01  3-Jul-2019

 ----------------------------------------------------------------------
 #t hf aug-cc-pvdz iop(5/13=1,5/36=2,99/5=2) pseudo=read geom=check gue
 ss=(read,tcheck) scf=(maxcycle=1)
 ----------------------------------------------------------------------
 -----
 title
 -----
 Structure from the checkpoint file:  "BDE49_nonexpt_1904_mol1.chk"
 Charge =  0 Multiplicity = 1

                         Standard orientation:
 ---------------------------------------------------------------------
 Center     Atomic      Atomic             Coordinates (Angstroms)
 Number     Number       Type             X           Y           Z
 ---------------------------------------------------------------------
      1         14           0       -0.979095   -0.995310    0.102549
      2          6           0        0.846693   -1.026946   -0.429587
      3          6           0        1.746906   -0.132567    0.376589
      4          7           0        2.363935    0.912384   -0.001408
      5          1           0        1.867971   -0.415911    1.427975
      6          1           0        2.197643    1.090018   -0.997757
      7          6           0       -1.751521    0.736194   -0.057869
      8          1           0       -1.090256   -1.448471    1.510665
      9          1           0       -1.736250   -1.937147   -0.755752
     10          7           0       -1.172127    1.871770   -0.010453
     11          1           0       -2.840945    0.769838   -0.201745
     12          1           0       -0.162119    1.780221    0.132399
     13          1           0        0.911269   -0.783122   -1.495454
     14          1           0        1.164904   -2.070238   -0.307797
 ---------------------------------------------------------------------

 SCF Done:  E(RHF) =  -517.298975505     A.U. after    2 cycles

 The electronic state is 1-A.
 Alpha  occ. eigenvalues --  -76.23487 -15.75718 -15.74674 -11.45884 -11.40474
 Alpha  occ. eigenvalues --  -11.38856  -5.57213  -2.21475  -2.20256  -2.19429
 Alpha  occ. eigenvalues --   -1.35527  -1.32759  -1.09140  -0.88705  -0.84240
 Alpha  occ. eigenvalues --   -0.75453  -0.64271  -0.62488  -0.58473  -0.56458
 Alpha  occ. eigenvalues --   -0.54543  -0.50489  -0.49384  -0.43181  -0.40414
 Alpha  occ. eigenvalues --   -0.38019  -0.34510
 Alpha virt. eigenvalues --    0.03162   0.04517   0.04977   0.05502   0.06094
 Alpha virt. eigenvalues --    0.06448   0.07047   0.07767   0.08518   0.09094
 Alpha virt. eigenvalues --    0.09415   0.10503   0.12059   0.12274   0.12685

 Mulliken charges:
               1
     1  Si   6.092576
     2  C   -4.071057
     3  C    1.104654
     4  N   -3.003941
     5  H    1.563219
     6  H    0.632891
     7  C   -1.019323
     8  H   -1.922051
     9  H   -1.835145
    10  N   -2.462918
    11  H    1.415520
    12  H    0.809161
    13  H    1.346895
    14  H    1.349518
 Sum of Mulliken charges =  -0.00000

 Dipole moment (field-independent basis, Debye):
    X=             -0.2789    Y=             -2.7205    Z=             -0.8287  Tot=              2.8576

 Test job not archived.
 1\1\GINC-SE402\SP\RHF\Aug-CC-pVDZ\C3H8N2Si1\OHZDE\08-Apr-2025\0\\#t hf
  aug-cc-pvdz iop(5/13=1,5/36=2,99/5=2) pseudo=read geom=check guess=(r
 ead,tcheck) scf=(maxcycle=1)\\title\\0,1\Si,0,-0.979095,-0.99531,0.102
 549\C,0,0.846693,-1.026946,-0.429587\C,0,1.746906,-0.132567,0.376589\N
 ,0,2.363935,0.912384,-0.001408\H,0,1.867971,-0.415911,1.427975\H,0,2.1
 97643,1.090018,-0.997757\C,0,-1.751521,0.736194,-0.057869\H,0,-1.09025
 6,-1.448471,1.510665\H,0,-1.73625,-1.937147,-0.755752\N,0,-1.172127,1.
 87177,-0.010453\H,0,-2.840945,0.769839,-0.201745\H,0,-0.162119,1.78022

 Normal termination of Gaussian 16 at Tue Apr  8 23:52:44 2025.
