 Gaussian 16, Revision C.01,

 ----------------------------------------------------------------------
 #t hf aug-cc-pvdz symm=none int=(grid=ultrafine) guess=(read,tcheck) s
 table=(opt,rrhf)
 ----------------------------------------------------------------------
 -----
 title
 -----
 Symbolic Z-matrix:
 Charge =  0 Multiplicity = 1

 SCF Done:  E(RHF) =  -627.083445653     A.U. after   15 cycles
 Normal termination of Gaussian 16 at Tue Apr  8 23:33:43 2025.
 Gaussian 16:  ES64L-G16RevC.01  3-Jul-2019

 ----------------------------------------------------------------------
 #t hf aug-cc-pvdz iop(5/13=1,5/36=2,99/5=2) pseudo=read geom=check gue
 ss=(read,tcheck) scf=(maxcycle=1)
 ----------------------------------------------------------------------
 -----
 title
 -----
 Structure from the checkpoint file:  "BDE49_nonexpt_1427_mol1.chk"
 Charge =  0 Multiplicity = 1

                         Standard orientation:
 ---------------------------------------------------------------------
 Center     Atomic      Atomic             Coordinates (Angstroms)
 Number     Number       Type             X           Y           Z
 ---------------------------------------------------------------------
      1          6           0       -0.237763   -1.200570   -0.001476
      2          6           0        1.152280   -1.203857   -0.004658
      3          6           0        1.867087    0.002165   -0.005826
      4          6           0       -0.968851   -0.006670    0.000023
      5          6           0       -0.246252    1.195788   -0.001945
      6          6           0        1.139870    1.205918   -0.005423
      7          1           0       -0.764952   -2.148862    0.001328
      8          1           0        1.690846   -2.146286   -0.009853
      9          7           0        3.255500    0.012346   -0.066328
     10          1           0        3.716916   -0.826322    0.252077
     11          1           0        3.705489    0.852943    0.263087
     12         15           0       -2.807522   -0.114558    0.005914
     13          1           0        1.673524    2.151399   -0.012030
     14          1           0       -0.775500    2.142491    0.000069
     15          1           0       -3.083153    0.815786   -1.031889
     16          1           0       -3.077058    0.834154    1.028625
 ---------------------------------------------------------------------

 SCF Done:  E(RHF) =  -628.646411189     A.U. after    2 cycles

 The electronic state is 1-A.
 Alpha  occ. eigenvalues -- -105.17497 -15.76471 -11.51374 -11.44924 -11.43175
 Alpha  occ. eigenvalues --  -11.40814 -11.40271 -11.36126  -2.74323  -1.49335
 Alpha  occ. eigenvalues --   -1.43886  -1.42598  -1.40965  -1.25685  -1.09435
 Alpha  occ. eigenvalues --   -1.04114  -0.87502  -0.84137  -0.74104  -0.68645
 Alpha  occ. eigenvalues --   -0.68019  -0.62205  -0.57941  -0.54755  -0.54116
 Alpha  occ. eigenvalues --   -0.51174  -0.44285  -0.43792  -0.33463  -0.28536
 Alpha  occ. eigenvalues --   -0.24453  -0.22428  -0.02143
 Alpha virt. eigenvalues --    0.03497   0.04785   0.05049   0.06436   0.07016
 Alpha virt. eigenvalues --    0.07575   0.08551   0.08797   0.09131   0.10137
 Alpha virt. eigenvalues --    0.12070   0.12155   0.12728   0.12924   0.13305

 Mulliken charges:
               1
     1  C   -3.676975
     2  C   -1.967783
     3  C    2.211216
     4  C    3.471281
     5  C   -2.151970
     6  C   -1.894231
     7  H    1.788972
     8  H    1.797909
     9  N   -4.051227
    10  H    0.639751
    11  H    0.623536
    12  P    1.041342
    13  H    1.675316
    14  H    1.850607
    15  H   -0.670932
    16  H   -0.686812
 Sum of Mulliken charges =  -0.00000

 Dipole moment (field-independent basis, Debye):
    X=              2.5091    Y=             -1.9186    Z=              0.7134  Tot=              3.2381

 Test job not archived.
 1\1\GINC-SE338\SP\RHF\Aug-CC-pVDZ\C6H8N1P1\OHZDE\08-Apr-2025\0\\#t hf
 aug-cc-pvdz iop(5/13=1,5/36=2,99/5=2) pseudo=read geom=check guess=(re
 ad,tcheck) scf=(maxcycle=1)\\title\\0,1\C,0,-0.237763,-1.20057,-0.0014
 76\C,0,1.15228,-1.203857,-0.004658\C,0,1.867087,0.002165,-0.005826\C,0
 ,-0.968851,-0.00667,0.000023\C,0,-0.246252,1.195788,-0.001945\C,0,1.13
 987,1.205918,-0.005423\H,0,-0.764952,-2.148862,0.001328\H,0,1.690846,-
 2.146286,-0.009853\N,0,3.2555,0.012346,-0.066328\H,0,3.716916,-0.82632
 2,0.252077\H,0,3.705489,0.852943,0.263087\P,0,-2.807522,-0.114558,0.00

 Normal termination of Gaussian 16 at Tue Apr  8 23:33:48 2025.
