 Gaussian 16, Revision C.01,

 ----------------------------------------------------------------------
 #t hf aug-cc-pvdz symm=none int=(grid=ultrafine) guess=(read,tcheck) s
 table=opt
 ----------------------------------------------------------------------
 -----
 title
 -----
 Symbolic Z-matrix:
 Charge =  0 Multiplicity = 2

 SCF Done:  E(UHF) =  -421.266582523     A.U. after   20 cycles

 1\1\GINC-SE082\Stability\UHF\Aug-CC-pVDZ\C7H11O2\OHZDE\08-Apr-2025\0\\
 #t hf aug-cc-pvdz symm=none int=(grid=ultrafine) guess=(read,tcheck) s
 table=opt\\title\\0,2\C,0,-1.787405,0.12425,-0.040652\O,0,-2.408667,-1
 .088888,-0.15339\O,0,-2.405048,1.16524,-0.191942\H,0,-3.332471,-0.8883
 82,-0.358439\C,0,-0.373522,0.030687,0.26632\C,0,0.412137,1.289431,0.44
 0846\C,0,0.342501,-1.269953,0.445089\C,0,1.745183,1.240923,-0.338886\H
 ,0,0.645692,1.409593,1.511443\H,0,-0.192535,2.148957,0.150513\C,0,2.52
 5461,-0.04563,-0.041735\H,0,2.344357,2.121633,-0.089473\H,0,1.531749,1

 Normal termination of Gaussian 16 at Tue Apr  8 23:05:05 2025.
 Gaussian 16:  ES64L-G16RevC.01  3-Jul-2019

 ----------------------------------------------------------------------
 #t hf aug-cc-pvdz iop(5/13=1,5/36=2,99/5=2) pseudo=read geom=check gue
 ss=(read,tcheck) scf=(maxcycle=1)
 ----------------------------------------------------------------------
 -----
 title
 -----
 Structure from the checkpoint file:  "BDE49_expt_251_mol2.chk"
 Charge =  0 Multiplicity = 2

                         Standard orientation:
 ---------------------------------------------------------------------
 Center     Atomic      Atomic             Coordinates (Angstroms)
 Number     Number       Type             X           Y           Z
 ---------------------------------------------------------------------
      1          6           0       -1.787405    0.124250   -0.040652
      2          8           0       -2.408667   -1.088888   -0.153390
      3          8           0       -2.405048    1.165240   -0.191942
      4          1           0       -3.332471   -0.888382   -0.358439
      5          6           0       -0.373522    0.030687    0.266320
      6          6           0        0.412137    1.289431    0.440846
      7          6           0        0.342501   -1.269953    0.445089
      8          6           0        1.745183    1.240923   -0.338886
      9          1           0        0.645692    1.409593    1.511443
     10          1           0       -0.192535    2.148957    0.150513
     11          6           0        2.525461   -0.045630   -0.041735
     12          1           0        2.344357    2.121633   -0.089473
     13          1           0        1.531749    1.297690   -1.412619
     14          6           0        1.679531   -1.291305   -0.332355
     15          1           0        2.831231   -0.050913    1.012724
     16          1           0        3.446299   -0.072116   -0.632936
     17          1           0        1.464331   -1.342158   -1.406056
     18          1           0        2.231605   -2.200933   -0.077783
     19          1           0       -0.292163   -2.107184    0.156866
     20          1           0        0.568305   -1.397429    1.516660
 ---------------------------------------------------------------------

 SCF Done:  E(UHF) =  -423.198100965     A.U. after    2 cycles

 The electronic state is 2-A.
 Alpha  occ. eigenvalues --  -21.10995 -21.05516 -11.53040 -11.44643 -11.44166
 Alpha  occ. eigenvalues --  -11.43097 -11.39238 -11.38235 -11.35178  -1.81885
 Alpha  occ. eigenvalues --   -1.65045  -1.32962  -1.13669  -1.11389  -0.94377
 Alpha  occ. eigenvalues --   -0.89964  -0.82243  -0.73754  -0.67148  -0.63684
 Alpha  occ. eigenvalues --   -0.62244  -0.61426  -0.59513  -0.56843  -0.53754
 Alpha  occ. eigenvalues --   -0.53511  -0.49454  -0.47903  -0.46272  -0.45666
 Alpha  occ. eigenvalues --   -0.42273  -0.40536  -0.35346  -0.30084  -0.29487
 Alpha virt. eigenvalues --    0.03962   0.04961   0.05035   0.05340   0.05456
 Alpha virt. eigenvalues --    0.05822   0.06138   0.07162   0.07499   0.08196
 Alpha virt. eigenvalues --    0.08952   0.10482   0.11830   0.12067   0.13349

  Beta  occ. eigenvalues --  -21.11028 -21.04311 -11.53302 -11.44318 -11.43637
  Beta  occ. eigenvalues --  -11.43066 -11.38726 -11.38276 -11.35122  -1.81409
  Beta  occ. eigenvalues --   -1.63231  -1.31333  -1.11194  -1.10490  -0.92790
  Beta  occ. eigenvalues --   -0.89758  -0.81872  -0.72078  -0.67002  -0.63056
  Beta  occ. eigenvalues --   -0.61307  -0.59620  -0.58264  -0.55338  -0.53669
  Beta  occ. eigenvalues --   -0.52949  -0.48719  -0.47283  -0.45766  -0.45419
  Beta  occ. eigenvalues --   -0.41500  -0.40152  -0.31885  -0.28866
  Beta virt. eigenvalues --    0.03566   0.04933   0.05038   0.05335   0.05463
  Beta virt. eigenvalues --    0.05814   0.06092   0.07149   0.07504   0.07884
  Beta virt. eigenvalues --    0.08438   0.08956   0.10560   0.11906   0.12093

 Mulliken charges and spin densities:
               1          2
     1  C    6.781990  -0.676747
     2  O   -3.481001  -0.013992
     3  O   -3.476089   0.331743
     4  H    1.057395   0.000318
     5  C    1.251483   1.875897
     6  C   -3.634249  -0.282697
     7  C   -3.441754  -0.296977
     8  C   -2.868347   0.036322
     9  H    1.170341   0.018557
    10  H    1.444949   0.001464
    11  C   -2.917596  -0.059357
    12  H    1.293347   0.003895
    13  H    1.429331  -0.003517
    14  C   -2.756761   0.045644
    15  H    1.443601  -0.002899
    16  H    1.269600   0.003599
    17  H    1.423656  -0.007744
    18  H    1.289937   0.005751
    19  H    1.465538   0.001212
    20  H    1.254629   0.019529
 Sum of Mulliken charges =  -0.00000   1.00000

 Dipole moment (field-independent basis, Debye):
    X=              1.3998    Y=             -1.0257    Z=              0.1854  Tot=              1.7452
                          Isotropic Fermi Contact Couplings
        Atom                 a.u.       MegaHertz       Gauss      10(-4) cm-1
     1  C(13)             -0.05818     -65.40756     -23.33904     -21.81761
     2  O(17)             -0.01209       7.33002       2.61553       2.44503
     3  O(17)              0.07031     -42.62243     -15.20874     -14.21731
     4  H(1)              -0.00054      -2.42892      -0.86670      -0.81020
     5  C(13)              0.12591     141.54866      50.50808      47.21555
     6  C(13)             -0.03224     -36.24169     -12.93194     -12.08893
     7  C(13)             -0.03228     -36.29253     -12.95008     -12.10589
     8  C(13)              0.02135      23.99703       8.56274       8.00455

 Normal termination of Gaussian 16 at Tue Apr  8 23:05:16 2025.
