 Gaussian 16, Revision C.01,

 ----------------------------------------------------------------------
 #t hf aug-cc-pvdz symm=none int=(grid=ultrafine) guess=(read,tcheck) s
 table=(opt,rrhf)
 ----------------------------------------------------------------------
 -----
 title
 -----
 Symbolic Z-matrix:
 Charge =  0 Multiplicity = 1

 SCF Done:  E(RHF) =  -255.986454320     A.U. after   14 cycles
 Normal termination of Gaussian 16 at Wed Apr  9 00:28:38 2025.
 Gaussian 16:  ES64L-G16RevC.01  3-Jul-2019

 ----------------------------------------------------------------------
 #t hf aug-cc-pvdz iop(5/13=1,5/36=2,99/5=2) pseudo=read geom=check gue
 ss=(read,tcheck) scf=(maxcycle=1)
 ----------------------------------------------------------------------
 -----
 title
 -----
 Structure from the checkpoint file:  "BDE49_nonexpt_295_mol1.chk"
 Charge =  0 Multiplicity = 1

                         Standard orientation:
 ---------------------------------------------------------------------
 Center     Atomic      Atomic             Coordinates (Angstroms)
 Number     Number       Type             X           Y           Z
 ---------------------------------------------------------------------
      1          6           0        0.000007   -1.104975    1.210799
      2          6           0        0.000007    0.284823    1.206948
      3          6           0        0.000009    1.016554   -0.000000
      4          6           0        0.000006   -1.798982    0.000000
      5          6           0        0.000007   -1.104975   -1.210799
      6          6           0        0.000007    0.284823   -1.206948
      7          1           0        0.000007   -1.650478    2.147866
      8          1           0        0.000008    0.825360    2.147640
      9          1           0        0.000008    0.825360   -2.147640
     10          1           0        0.000006   -2.883783    0.000000
     11          1           0        0.000007   -1.650478   -2.147866
     12          5           0        0.000018    2.551871   -0.000000
     13          1           0       -0.000190    3.155526    1.029762
     14          1           0       -0.000190    3.155526   -1.029762
 ---------------------------------------------------------------------

 SCF Done:  E(RHF) =  -257.219573087     A.U. after    2 cycles

 The electronic state is 1-A'.
 Alpha  occ. eigenvalues --  -11.51083 -11.43471 -11.42889 -11.40722 -11.40076
 Alpha  occ. eigenvalues --  -11.35811  -7.62988  -1.34481  -1.11097  -1.09347
 Alpha  occ. eigenvalues --   -0.90618  -0.86347  -0.79304  -0.70044  -0.63643
 Alpha  occ. eigenvalues --   -0.59020  -0.57388  -0.52787  -0.50311  -0.47224
 Alpha  occ. eigenvalues --   -0.43053  -0.40568  -0.34239  -0.33229
 Alpha virt. eigenvalues --    0.03201   0.04246   0.04541   0.04603   0.05414
 Alpha virt. eigenvalues --    0.05577   0.07186   0.07306   0.08558   0.09382
 Alpha virt. eigenvalues --    0.11373   0.11850   0.12644   0.14295   0.14350

 Mulliken charges:
               1
     1  C   -1.082878
     2  C   -0.996599
     3  C   -0.994026
     4  C   -1.881179
     5  C   -1.082878
     6  C   -0.996599
     7  H    1.561134
     8  H    1.797221
     9  H    1.797221
    10  H    1.479368
    11  H    1.561134
    12  B    6.006147
    13  H   -3.584032
    14  H   -3.584032
 Sum of Mulliken charges =  -0.00000

 Dipole moment (field-independent basis, Debye):
    X=              0.0003    Y=             -1.7020    Z=              0.0000  Tot=              1.7020

 Test job not archived.
 1\1\GINC-SE096\SP\RHF\Aug-CC-pVDZ\C6H7B1\OHZDE\09-Apr-2025\0\\#t hf au
 g-cc-pvdz iop(5/13=1,5/36=2,99/5=2) pseudo=read geom=check guess=(read
 ,tcheck) scf=(maxcycle=1)\\title\\0,1\C,0,-0.000007,1.104975,1.210799\
 C,0,-0.000007,-0.284823,1.206948\C,0,-0.000009,-1.016554,0.\C,0,-0.000
 006,1.798982,0.\C,0,-0.000007,1.104975,-1.210799\C,0,-0.000007,-0.2848
 23,-1.206948\H,0,-0.000007,1.650478,2.147866\H,0,-0.000008,-0.82536,2.
 14764\H,0,-0.000008,-0.82536,-2.14764\H,0,-0.000006,2.883783,0.\H,0,-0
 .000007,1.650478,-2.147866\B,0,-0.000018,-2.551871,0.\H,0,0.00019,-3.1

 Normal termination of Gaussian 16 at Wed Apr  9 00:28:41 2025.
