 Gaussian 16, Revision C.01,

 ----------------------------------------------------------------------
 #t hf aug-cc-pvdz symm=none int=(grid=ultrafine) guess=(read,tcheck) s
 table=(opt,rrhf)
 ----------------------------------------------------------------------
 -----
 title
 -----
 Symbolic Z-matrix:
 Charge =  0 Multiplicity = 1

 SCF Done:  E(RHF) =  -519.050023525     A.U. after   12 cycles
 Normal termination of Gaussian 16 at Tue Apr  8 23:59:35 2025.
 Gaussian 16:  ES64L-G16RevC.01  3-Jul-2019

 ----------------------------------------------------------------------
 #t hf aug-cc-pvdz iop(5/13=1,5/36=2,99/5=2) pseudo=read geom=check gue
 ss=(read,tcheck) scf=(maxcycle=1)
 ----------------------------------------------------------------------
 -----
 title
 -----
 Structure from the checkpoint file:  "BDE49_nonexpt_2072_mol1.chk"
 Charge =  0 Multiplicity = 1

                         Standard orientation:
 ---------------------------------------------------------------------
 Center     Atomic      Atomic             Coordinates (Angstroms)
 Number     Number       Type             X           Y           Z
 ---------------------------------------------------------------------
      1         14           0        1.742132   -0.378316   -0.011974
      2          6           0       -0.029870    0.235483    0.358019
      3          8           0       -0.912033   -0.640837   -0.303621
      4          8           0       -0.206454    1.592350   -0.040408
      5          6           0       -2.284320   -0.464239    0.048496
      6          1           0       -2.443758   -0.685448    1.111970
      7          1           0       -2.857275   -1.167636   -0.554823
      8          1           0       -2.616752    0.556439   -0.159563
      9          1           0       -0.008982    1.645735   -0.983414
     10          1           0       -0.239885    0.249903    1.436391
     11          1           0        2.007863   -0.113601   -1.447286
     12          1           0        1.897006   -1.822333    0.271697
     13          1           0        2.704979    0.393808    0.805809
 ---------------------------------------------------------------------

 SCF Done:  E(RHF) =  -520.230894324     A.U. after    2 cycles

 The electronic state is 1-A.
 Alpha  occ. eigenvalues --  -76.21539 -21.07895 -21.05457 -11.42768 -11.40250
 Alpha  occ. eigenvalues --   -5.55126  -2.19261  -2.17570  -2.17353  -1.79734
 Alpha  occ. eigenvalues --   -1.66643  -1.01925  -0.90033  -0.77552  -0.64057
 Alpha  occ. eigenvalues --   -0.61988  -0.61702  -0.55824  -0.50807  -0.47852
 Alpha  occ. eigenvalues --   -0.47095  -0.46305  -0.36813  -0.31522  -0.30007
 Alpha virt. eigenvalues --    0.03912   0.04832   0.05621   0.05987   0.06259
 Alpha virt. eigenvalues --    0.06594   0.06741   0.07727   0.09365   0.09791
 Alpha virt. eigenvalues --    0.10770   0.13130   0.14439   0.15121   0.15254

 Mulliken charges:
               1
     1  Si   5.768502
     2  C    1.149566
     3  O   -2.933390
     4  O   -2.573291
     5  C   -2.814039
     6  H    1.327512
     7  H    1.281756
     8  H    1.312191
     9  H    0.683452
    10  H    1.782733
    11  H   -1.721738
    12  H   -1.617107
    13  H   -1.646146
 Sum of Mulliken charges =   0.00000

 Dipole moment (field-independent basis, Debye):
    X=             -0.7535    Y=             -0.0858    Z=              0.1117  Tot=              0.7665

 Test job not archived.
 1\1\GINC-SE403\SP\RHF\Aug-CC-pVDZ\C2H8O2Si1\OHZDE\08-Apr-2025\0\\#t hf
  aug-cc-pvdz iop(5/13=1,5/36=2,99/5=2) pseudo=read geom=check guess=(r
 ead,tcheck) scf=(maxcycle=1)\\title\\0,1\Si,0,1.742132,-0.378316,-0.01
 1974\C,0,-0.02987,0.235483,0.358019\O,0,-0.912033,-0.640837,-0.303621\
 O,0,-0.206454,1.59235,-0.040408\C,0,-2.28432,-0.464239,0.048496\H,0,-2
 .443758,-0.685448,1.11197\H,0,-2.857275,-1.167636,-0.554823\H,0,-2.616
 752,0.556439,-0.159563\H,0,-0.008982,1.645735,-0.983414\H,0,-0.239885,
 0.249903,1.436391\H,0,2.007863,-0.113601,-1.447286\H,0,1.897006,-1.822

 Normal termination of Gaussian 16 at Tue Apr  8 23:59:38 2025.
