 Gaussian 16, Revision C.01,

 ----------------------------------------------------------------------
 #t hf aug-cc-pvdz symm=none int=(grid=ultrafine) guess=(read,tcheck) s
 table=opt
 ----------------------------------------------------------------------
 -----
 title
 -----
 Symbolic Z-matrix:
 Charge =  0 Multiplicity = 2

 SCF Done:  E(UHF) =  -396.925100589     A.U. after   16 cycles
 Normal termination of Gaussian 16 at Tue Apr  8 23:28:57 2025.
 Gaussian 16:  ES64L-G16RevC.01  3-Jul-2019

 ----------------------------------------------------------------------
 #t hf aug-cc-pvdz iop(5/13=1,5/36=2,99/5=2) pseudo=read geom=check gue
 ss=(read,tcheck) scf=(maxcycle=1)
 ----------------------------------------------------------------------
 -----
 title
 -----
 Structure from the checkpoint file:  "BDE49_nonexpt_1315_mol2.chk"
 Charge =  0 Multiplicity = 2

                         Standard orientation:
 ---------------------------------------------------------------------
 Center     Atomic      Atomic             Coordinates (Angstroms)
 Number     Number       Type             X           Y           Z
 ---------------------------------------------------------------------
      1         15           0       -0.645532   -0.098601    0.008282
      2          7           0        1.055834    0.018146   -0.049380
      3          1           0        1.598137   -0.820356    0.092300
      4          1           0        1.555562    0.866225    0.169168
      5          1           0       -0.861552    1.306123   -0.040039
 ---------------------------------------------------------------------

 SCF Done:  E(UHF) =  -397.356327934     A.U. after    2 cycles

 The electronic state is 2-A.
 Alpha  occ. eigenvalues -- -105.18391 -15.75929  -2.76538  -1.54576  -1.43779
 Alpha  occ. eigenvalues --   -1.43586  -1.18434  -0.70157  -0.66302  -0.42354
 Alpha  occ. eigenvalues --   -0.29447  -0.09086   0.03101
 Alpha virt. eigenvalues --    0.04328   0.06124   0.06654   0.09980   0.12086
 Alpha virt. eigenvalues --    0.18085   0.18917   0.19113   0.20226   0.21918
 Alpha virt. eigenvalues --    0.24030   0.24482   0.26130   0.28028   0.31756

  Beta  occ. eigenvalues -- -105.17836 -15.75221  -2.74889  -1.53513  -1.42282
  Beta  occ. eigenvalues --   -1.22429  -1.16644  -0.66546  -0.65897  -0.35746
  Beta  occ. eigenvalues --   -0.28984  -0.05839
  Beta virt. eigenvalues --    0.04325   0.06163   0.06797   0.09229   0.10113
  Beta virt. eigenvalues --    0.12875   0.18404   0.19329   0.20048   0.22307
  Beta virt. eigenvalues --    0.24329   0.25771   0.27450   0.27976   0.29913

 Mulliken charges and spin densities:
               1          2
     1  P    2.066170   1.274157
     2  N   -1.978825  -0.157166
     3  H    0.480545  -0.022082
     4  H    0.520263   0.049939
     5  H   -1.088152  -0.144848
 Sum of Mulliken charges =   0.00000   1.00000

 Dipole moment (field-independent basis, Debye):
    X=              0.4088    Y=             -1.9684    Z=             -0.6617  Tot=              2.1165
                          Isotropic Fermi Contact Couplings
        Atom                 a.u.       MegaHertz       Gauss      10(-4) cm-1
     1  P(31)              0.28854     522.57552     186.46794     174.31243
     2  N(14)              0.05926      19.14832       6.83260       6.38719
     3  H(1)              -0.00330     -14.73639      -5.25831      -4.91553
     4  H(1)              -0.00255     -11.40147      -4.06833      -3.80312
     5  H(1)              -0.00544     -24.32861      -8.68105      -8.11515
 --------------------------------------------------------
       Center         ----  Spin Dipole Couplings  ----
                      3XX-RR        3YY-RR        3ZZ-RR

 Normal termination of Gaussian 16 at Tue Apr  8 23:28:59 2025.
