 Gaussian 16, Revision C.01,

 ----------------------------------------------------------------------
 #t hf aug-cc-pvdz symm=none int=(grid=ultrafine) guess=(read,tcheck) s
 table=(opt,rrhf)
 ----------------------------------------------------------------------
 -----
 title
 -----
 Symbolic Z-matrix:
 Charge =  0 Multiplicity = 1

 SCF Done:  E(RHF) =  -1036.12709002     A.U. after   12 cycles

 1\1\GINC-SE070\Stability\RHF\Aug-CC-pVDZ\C3H6Cl2\OHZDE\08-Apr-2025\0\\
 #t hf aug-cc-pvdz symm=none int=(grid=ultrafine) guess=(read,tcheck) s
 table=(opt,rrhf)\\title\\0,1\C,0,0.,1.275143,1.179331\H,0,0.889645,1.2
 98653,1.812619\H,0,-0.889645,1.298653,1.812619\H,0,0.,2.154653,0.53681
 6\C,0,0.,0.,0.353318\C,0,0.,-1.275143,1.179331\Cl,0,1.475915,0.,-0.723
 411\H,0,0.,-2.154653,0.536816\H,0,0.889645,-1.298653,1.812619\Cl,0,-1.
 475915,0.,-0.723411\H,0,-0.889645,-1.298653,1.812619\\Version=ES64L-G1
 6RevC.01\HF=-1036.12709\RMSD=5.320e-09\Dipole=0.,0.,1.0458297\Quadrupo

 Normal termination of Gaussian 16 at Tue Apr  8 22:32:26 2025.
 Gaussian 16:  ES64L-G16RevC.01  3-Jul-2019

 ----------------------------------------------------------------------
 #t hf aug-cc-pvdz iop(5/13=1,5/36=2,99/5=2) pseudo=read geom=check gue
 ss=(read,tcheck) scf=(maxcycle=1)
 ----------------------------------------------------------------------
 -----
 title
 -----
 Structure from the checkpoint file:  "BDE49_expt_1030_mol1.chk"
 Charge =  0 Multiplicity = 1

                         Standard orientation:
 ---------------------------------------------------------------------
 Center     Atomic      Atomic             Coordinates (Angstroms)
 Number     Number       Type             X           Y           Z
 ---------------------------------------------------------------------
      1          6           0       -0.000000    1.275143    1.179331
      2          1           0        0.889645    1.298653    1.812619
      3          1           0       -0.889645    1.298653    1.812619
      4          1           0        0.000000    2.154653    0.536816
      5          6           0       -0.000000    0.000000    0.353318
      6          6           0       -0.000000   -1.275143    1.179331
      7         17           0        1.475915   -0.000000   -0.723411
      8          1           0       -0.000000   -2.154653    0.536816
      9          1           0        0.889645   -1.298653    1.812619
     10         17           0       -1.475915    0.000000   -0.723411
     11          1           0       -0.889645   -1.298653    1.812619
 ---------------------------------------------------------------------

 SCF Done:  E(RHF) =  -1037.22890656     A.U. after    2 cycles

 The electronic state is 1-A1.
 Alpha  occ. eigenvalues --  -99.88806 -99.88801 -11.51337 -11.41406 -11.39101
 Alpha  occ. eigenvalues --  -10.46158 -10.46037  -9.66098  -9.65964  -9.65338
 Alpha  occ. eigenvalues --   -9.65282  -9.65247  -9.65114  -1.40987  -1.27373
 Alpha  occ. eigenvalues --   -1.15445  -1.04866  -0.85526  -0.69216  -0.66583
 Alpha  occ. eigenvalues --   -0.64283  -0.58428  -0.56949  -0.52836  -0.52514
 Alpha  occ. eigenvalues --   -0.50154  -0.48553  -0.48143  -0.46068
 Alpha virt. eigenvalues --    0.03317   0.05333   0.05783   0.05877   0.06807
 Alpha virt. eigenvalues --    0.07070   0.07085   0.08399   0.09123   0.12865
 Alpha virt. eigenvalues --    0.13776   0.13799   0.14116   0.15471   0.16706

 Mulliken charges:
               1
     1  C   -3.127729
     2  H    1.238740
     3  H    1.238740
     4  H    1.289825
     5  C   -1.206859
     6  C   -3.127729
     7  Cl  -0.036146
     8  H    1.289825
     9  H    1.238740
    10  Cl  -0.036146
    11  H    1.238740
 Sum of Mulliken charges =  -0.00000

 Dipole moment (field-independent basis, Debye):
    X=             -0.0000    Y=              0.0000    Z=              2.7478  Tot=              2.7478

 Test job not archived.
 1\1\GINC-SE070\SP\RHF\Aug-CC-pVDZ\C3H6Cl2\OHZDE\08-Apr-2025\0\\#t hf a
 ug-cc-pvdz iop(5/13=1,5/36=2,99/5=2) pseudo=read geom=check guess=(rea
 d,tcheck) scf=(maxcycle=1)\\title\\0,1\C,0,0.,1.275143,1.179331\H,0,0.
 889645,1.298653,1.812619\H,0,-0.889645,1.298653,1.812619\H,0,0.,2.1546
 53,0.536816\C,0,0.,0.,0.353318\C,0,0.,-1.275143,1.179331\Cl,0,1.475915
 ,0.,-0.723411\H,0,0.,-2.154653,0.536816\H,0,0.889645,-1.298653,1.81261
 9\Cl,0,-1.475915,0.,-0.723411\H,0,-0.889645,-1.298653,1.812619\\Versio
 n=ES64L-G16RevC.01\State=1-A1\HF=-1037.2289066\RMSD=1.935e-01\Dipole=0

 Normal termination of Gaussian 16 at Tue Apr  8 22:32:28 2025.
