 Gaussian 16, Revision C.01,

 ----------------------------------------------------------------------
 #t hf aug-cc-pvdz symm=none int=(grid=ultrafine) guess=(read,tcheck) s
 table=(opt,rrhf)
 ----------------------------------------------------------------------
 -----
 title
 -----
 Symbolic Z-matrix:
 Charge =  0 Multiplicity = 1

 SCF Done:  E(RHF) =  -369.881363546     A.U. after   16 cycles
 Normal termination of Gaussian 16 at Wed Apr  9 00:38:01 2025.
 Gaussian 16:  ES64L-G16RevC.01  3-Jul-2019

 ----------------------------------------------------------------------
 #t hf aug-cc-pvdz iop(5/13=1,5/36=2,99/5=2) pseudo=read geom=check gue
 ss=(read,tcheck) scf=(maxcycle=1)
 ----------------------------------------------------------------------
 -----
 title
 -----
 Structure from the checkpoint file:  "BDE49_nonexpt_527_mol1.chk"
 Charge =  0 Multiplicity = 1

                         Standard orientation:
 ---------------------------------------------------------------------
 Center     Atomic      Atomic             Coordinates (Angstroms)
 Number     Number       Type             X           Y           Z
 ---------------------------------------------------------------------
      1          1           0       -0.923765    2.946047    0.000016
      2          1           0        1.097293    3.315925    0.000008
      3          5           0        0.191925    2.536407   -0.000003
      4          6           0        0.525684    1.039621   -0.000004
      5          6           0       -0.461030    0.013361   -0.000000
      6          6           0       -0.088373   -1.335532    0.000001
      7          1           0       -0.833088   -2.119435    0.000003
      8          6           0        1.261675   -1.680644   -0.000001
      9          6           0        1.875279    0.632017   -0.000006
     10          1           0        2.635671    1.405538   -0.000009
     11          6           0        2.254901   -0.703992   -0.000005
     12          1           0        3.301458   -0.983946   -0.000007
     13          1           0        1.533994   -2.730871   -0.000000
     14          8           0       -1.752874    0.419693    0.000001
     15          6           0       -2.789627   -0.551470    0.000009
     16          1           0       -3.720541    0.012719    0.000013
     17          1           0       -2.749348   -1.182865    0.894381
     18          1           0       -2.749358   -1.182870   -0.894359
 ---------------------------------------------------------------------

 SCF Done:  E(RHF) =  -371.612591763     A.U. after    2 cycles

 The electronic state is 1-A.
 Alpha  occ. eigenvalues --  -21.07759 -11.52974 -11.46781 -11.43319 -11.41967
 Alpha  occ. eigenvalues --  -11.40689 -11.39660 -11.36018  -7.62945  -1.79585
 Alpha  occ. eigenvalues --   -1.32331  -1.11738  -1.08767  -0.99475  -0.90677
 Alpha  occ. eigenvalues --   -0.84009  -0.78786  -0.69415  -0.64200  -0.62770
 Alpha  occ. eigenvalues --   -0.62735  -0.60651  -0.54081  -0.53176  -0.52325
 Alpha  occ. eigenvalues --   -0.47404  -0.43667  -0.42542  -0.41176  -0.37668
 Alpha  occ. eigenvalues --   -0.34390  -0.26785
 Alpha virt. eigenvalues --    0.03177   0.04254   0.04466   0.04651   0.05142
 Alpha virt. eigenvalues --    0.05721   0.06464   0.06758   0.07417   0.07852
 Alpha virt. eigenvalues --    0.08269   0.09466   0.11465   0.12736   0.12841

 Mulliken charges:
               1
     1  H   -3.797459
     2  H   -4.156659
     3  B    6.135851
     4  C   -2.989198
     5  C    8.413171
     6  C   -3.207217
     7  H    1.959138
     8  C   -0.154683
     9  C   -0.170299
    10  H    1.765699
    11  C   -2.678879
    12  H    1.592012
    13  H    1.514622
    14  O   -4.727178
    15  C   -3.661074
    16  H    1.430696
    17  H    1.365727
    18  H    1.365730
 Sum of Mulliken charges =   0.00000

 Dipole moment (field-independent basis, Debye):
    X=             -0.9160    Y=             -2.0411    Z=             -0.0000  Tot=              2.2372

 Test job not archived.
 1\1\GINC-SE179\SP\RHF\Aug-CC-pVDZ\C7H9B1O1\OHZDE\09-Apr-2025\0\\#t hf
 aug-cc-pvdz iop(5/13=1,5/36=2,99/5=2) pseudo=read geom=check guess=(re
 ad,tcheck) scf=(maxcycle=1)\\title\\0,1\H,0,-0.923765,2.946047,0.00001
 6\H,0,1.097293,3.315925,0.000008\B,0,0.191925,2.536407,-0.000003\C,0,0
 .525684,1.039621,-0.000004\C,0,-0.46103,0.013361,0.\C,0,-0.088373,-1.3
 35532,0.000001\H,0,-0.833088,-2.119435,0.000003\C,0,1.261675,-1.680644
 ,-0.000001\C,0,1.875279,0.632017,-0.000006\H,0,2.635671,1.405538,-0.00
 0009\C,0,2.254901,-0.703992,-0.000005\H,0,3.301458,-0.983946,-0.000007

 Normal termination of Gaussian 16 at Wed Apr  9 00:38:09 2025.
