 Gaussian 16, Revision C.01,

 ----------------------------------------------------------------------
 #t hf aug-cc-pvdz symm=none int=(grid=ultrafine) guess=(read,tcheck) s
 table=opt
 ----------------------------------------------------------------------
 -----
 title
 -----
 Symbolic Z-matrix:
 Charge =  0 Multiplicity = 2

 SCF Done:  E(UHF) =  -1491.18088128     A.U. after   20 cycles

 1\1\GINC-SE403\Stability\UHF\Aug-CC-pVDZ\C1Cl3O1\OHZDE\08-Apr-2025\0\\
 #t hf aug-cc-pvdz symm=none int=(grid=ultrafine) guess=(read,tcheck) s
 table=opt\\title\\0,2\O,0,0.298272,0.000038,1.568705\C,0,-0.02477,0.00
 0001,0.321248\Cl,0,1.696474,0.000215,-0.381303\Cl,0,-0.914247,1.467102
 ,-0.235145\Cl,0,-0.913849,-1.467335,-0.235148\\Version=ES64L-G16RevC.0
 1\HF=-1491.1808813\S2=0.777796\S2-1=0.\S2A=0.750365\RMSD=4.603e-09\Dip
 ole=-0.0441431,-0.0000043,-0.0876358\Quadrupole=0.7487098,0.1664107,-0
 .9151206,0.0000504,-0.591148,-0.0000702\PG=Unknown\\@

 Normal termination of Gaussian 16 at Tue Apr  8 23:17:52 2025.
 Gaussian 16:  ES64L-G16RevC.01  3-Jul-2019

 ----------------------------------------------------------------------
 #t hf aug-cc-pvdz iop(5/13=1,5/36=2,99/5=2) pseudo=read geom=check gue
 ss=(read,tcheck) scf=(maxcycle=1)
 ----------------------------------------------------------------------
 -----
 title
 -----
 Structure from the checkpoint file:  "BDE49_nonexpt_1031_mol2.chk"
 Charge =  0 Multiplicity = 2

                         Standard orientation:
 ---------------------------------------------------------------------
 Center     Atomic      Atomic             Coordinates (Angstroms)
 Number     Number       Type             X           Y           Z
 ---------------------------------------------------------------------
      1          8           0       -0.298272   -0.000039    1.568705
      2          6           0        0.024770   -0.000001    0.321248
      3         17           0       -1.696474   -0.000220   -0.381303
      4         17           0        0.914251   -1.467099   -0.235145
      5         17           0        0.913844    1.467338   -0.235148
 ---------------------------------------------------------------------

 SCF Done:  E(UHF) =  -1492.34099021     A.U. after    2 cycles

 The electronic state is 2-A.
 Alpha  occ. eigenvalues --  -99.93930 -99.93162 -99.93144 -21.20227 -11.60026
 Alpha  occ. eigenvalues --  -10.51150 -10.50569 -10.50381  -9.71440  -9.70420
 Alpha  occ. eigenvalues --   -9.70269  -9.70118  -9.70068  -9.69541  -9.69466
 Alpha  occ. eigenvalues --   -9.69449  -9.69422  -1.86087  -1.40600  -1.33077
 Alpha  occ. eigenvalues --   -1.32100  -0.94286  -0.77016  -0.75014  -0.67682
 Alpha  occ. eigenvalues --   -0.60589  -0.58228  -0.54195  -0.52882  -0.52591
 Alpha  occ. eigenvalues --   -0.51753  -0.47860  -0.43636
 Alpha virt. eigenvalues --   -0.01780   0.05254   0.05757   0.07021   0.09309
 Alpha virt. eigenvalues --    0.09585   0.11040   0.13392   0.13736   0.13991
 Alpha virt. eigenvalues --    0.15643   0.17640   0.17741   0.18288   0.18725

  Beta  occ. eigenvalues --  -99.93625 -99.93135 -99.93117 -21.16579 -11.60625
  Beta  occ. eigenvalues --  -10.50842 -10.50534 -10.50355  -9.70393  -9.70283
  Beta  occ. eigenvalues --   -9.70019  -9.69905  -9.69762  -9.69533  -9.69452
  Beta  occ. eigenvalues --   -9.69438  -9.69411  -1.76127  -1.38774  -1.31877
  Beta  occ. eigenvalues --   -1.30812  -0.93547  -0.74800  -0.72994  -0.66105
  Beta  occ. eigenvalues --   -0.57872  -0.57688  -0.53152  -0.52673  -0.51678
  Beta  occ. eigenvalues --   -0.51517  -0.40598
  Beta virt. eigenvalues --   -0.01654  -0.00597   0.05684   0.07021   0.09400
  Beta virt. eigenvalues --    0.09581   0.10038   0.11559   0.13550   0.13828
  Beta virt. eigenvalues --    0.14028   0.16604   0.17749   0.18176   0.18634

 Mulliken charges and spin densities:
               1          2
     1  O   -1.469485   1.119357
     2  C   -0.164566  -0.443185
     3  Cl   0.512705   0.257968
     4  Cl   0.560671   0.032929
     5  Cl   0.560675   0.032931
 Sum of Mulliken charges =  -0.00000   1.00000

 Dipole moment (field-independent basis, Debye):
    X=             -0.2302    Y=             -0.0000    Z=              1.1798  Tot=              1.2020
                          Isotropic Fermi Contact Couplings
        Atom                 a.u.       MegaHertz       Gauss      10(-4) cm-1
     1  O(17)              0.18713    -113.43984     -40.47815     -37.83946
     2  C(13)             -0.05863     -65.91155     -23.51888     -21.98573
     3  Cl(35)             0.09230      40.47181      14.44135      13.49994
     4  Cl(35)            -0.00479      -2.10200      -0.75005      -0.70115
     5  Cl(35)            -0.00479      -2.10165      -0.74992      -0.70104
 --------------------------------------------------------
       Center         ----  Spin Dipole Couplings  ----
                      3XX-RR        3YY-RR        3ZZ-RR

 Normal termination of Gaussian 16 at Tue Apr  8 23:17:54 2025.
