 Gaussian 16, Revision C.01,

 ----------------------------------------------------------------------
 #t hf aug-cc-pvdz symm=none int=(grid=ultrafine) guess=(read,tcheck) s
 table=(opt,rrhf)
 ----------------------------------------------------------------------
 -----
 title
 -----
 Symbolic Z-matrix:
 Charge =  0 Multiplicity = 1

 SCF Done:  E(RHF) =  -802.393938241     A.U. after   16 cycles
 Normal termination of Gaussian 16 at Tue Apr  8 23:03:29 2025.
 Gaussian 16:  ES64L-G16RevC.01  3-Jul-2019

 ----------------------------------------------------------------------
 #t hf aug-cc-pvdz iop(5/13=1,5/36=2,99/5=2) pseudo=read geom=check gue
 ss=(read,tcheck) scf=(maxcycle=1)
 ----------------------------------------------------------------------
 -----
 title
 -----
 Structure from the checkpoint file:  "BDE49_expt_205_mol1.chk"
 Charge =  0 Multiplicity = 1

                         Standard orientation:
 ---------------------------------------------------------------------
 Center     Atomic      Atomic             Coordinates (Angstroms)
 Number     Number       Type             X           Y           Z
 ---------------------------------------------------------------------
      1          6           0        2.413623   -1.047711    0.000843
      2          8           0        3.544754   -0.624014   -0.000872
      3          6           0        1.197295   -0.196145    0.000450
      4          1           0        2.212326   -2.140416   -0.000886
      5          6           0        1.310579    1.198750    0.000275
      6          6           0        0.164548    1.981675   -0.000023
      7          6           0       -1.098456    1.386552   -0.000158
      8          6           0       -1.198134   -0.001526    0.000011
      9          6           0       -0.061984   -0.801253    0.000303
     10          1           0       -0.154088   -1.881239    0.000433
     11          1           0       -1.996697    1.990593   -0.000389
     12          1           0        2.300033    1.639050    0.000400
     13          1           0        0.241360    3.062640   -0.000149
     14         17           0       -2.783870   -0.752975   -0.000155
 ---------------------------------------------------------------------

 SCF Done:  E(RHF) =  -804.200109531     A.U. after    2 cycles

 The electronic state is 1-A.
 Alpha  occ. eigenvalues --  -99.90738 -21.07085 -11.53950 -11.49771 -11.47745
 Alpha  occ. eigenvalues --  -11.46813 -11.45015 -11.43938 -11.39712 -10.48078
 Alpha  occ. eigenvalues --   -9.68117  -9.67215  -9.67036  -1.71859  -1.41777
 Alpha  occ. eigenvalues --   -1.29815  -1.14685  -1.10350  -0.95329  -0.89637
 Alpha  occ. eigenvalues --   -0.82128  -0.73828  -0.69265  -0.64566  -0.61814
 Alpha  occ. eigenvalues --   -0.60673  -0.58982  -0.54404  -0.52836  -0.51630
 Alpha  occ. eigenvalues --   -0.48158  -0.47507  -0.46131  -0.35701  -0.34086
 Alpha  occ. eigenvalues --   -0.30653
 Alpha virt. eigenvalues --    0.02780   0.04990   0.05422   0.05884   0.06916
 Alpha virt. eigenvalues --    0.06968   0.07546   0.09251   0.09716   0.10794
 Alpha virt. eigenvalues --    0.11153   0.11401   0.12558   0.12588   0.13269

 Mulliken charges:
               1
     1  C   -0.561258
     2  O   -3.219061
     3  C    3.929403
     4  H    1.253873
     5  C   -2.746966
     6  C   -0.177074
     7  C   -2.720518
     8  C   -2.014604
     9  C    0.372233
    10  H    1.798075
    11  H    1.701009
    12  H    1.766512
    13  H    1.483298
    14  Cl  -0.864920
 Sum of Mulliken charges =  -0.00000

 Dipole moment (field-independent basis, Debye):
    X=              0.4748    Y=              1.4051    Z=             -0.0006  Tot=              1.4831

 Test job not archived.
 1\1\GINC-SE177\SP\RHF\Aug-CC-pVDZ\C7H5Cl1O1\OHZDE\08-Apr-2025\0\\#t hf
  aug-cc-pvdz iop(5/13=1,5/36=2,99/5=2) pseudo=read geom=check guess=(r
 ead,tcheck) scf=(maxcycle=1)\\title\\0,1\C,0,-2.413623,-1.047711,-0.00
 0843\O,0,-3.544754,-0.624014,0.000872\C,0,-1.197295,-0.196145,-0.00045
 \H,0,-2.212326,-2.140416,0.000886\C,0,-1.310579,1.19875,-0.000275\C,0,
 -0.164548,1.981675,0.000023\C,0,1.098456,1.386552,0.000158\C,0,1.19813
 4,-0.001526,-0.000011\C,0,0.061984,-0.801253,-0.000303\H,0,0.154088,-1
 .881239,-0.000433\H,0,1.996697,1.990593,0.000389\H,0,-2.300033,1.63905

 Normal termination of Gaussian 16 at Tue Apr  8 23:03:36 2025.
