 Gaussian 16, Revision C.01,

 ----------------------------------------------------------------------
 #t hf aug-cc-pvdz symm=none int=(grid=ultrafine) guess=(read,tcheck) s
 table=(opt,rrhf)
 ----------------------------------------------------------------------
 -----
 title
 -----
 Symbolic Z-matrix:
 Charge =  0 Multiplicity = 1

 SCF Done:  E(RHF) =  -699.942991506     A.U. after   16 cycles
 Normal termination of Gaussian 16 at Tue Apr  8 23:36:48 2025.
 Gaussian 16:  ES64L-G16RevC.01  3-Jul-2019

 ----------------------------------------------------------------------
 #t hf aug-cc-pvdz iop(5/13=1,5/36=2,99/5=2) pseudo=read geom=check gue
 ss=(read,tcheck) scf=(maxcycle=1)
 ----------------------------------------------------------------------
 -----
 title
 -----
 Structure from the checkpoint file:  "BDE49_nonexpt_1492_mol1.chk"
 Charge =  0 Multiplicity = 1

                         Standard orientation:
 ---------------------------------------------------------------------
 Center     Atomic      Atomic             Coordinates (Angstroms)
 Number     Number       Type             X           Y           Z
 ---------------------------------------------------------------------
      1          6           0       -1.054237   -0.783725   -0.086393
      2          6           0       -0.681458    0.671664   -0.383279
      3          6           0        0.814684    0.853504   -0.156951
      4         15           0        1.659364   -0.841671    0.028853
      5          7           0        0.076156   -1.566612    0.064318
      6          1           0       -0.077695   -2.563437    0.142119
      7          6           0       -1.545452    1.695022    0.356678
      8          1           0       -1.405027    1.614802    1.437134
      9          1           0       -2.597227    1.513160    0.134433
     10          1           0       -1.275080    2.705846    0.050222
     11          8           0        1.397217    1.900099   -0.082985
     12          8           0       -2.185665   -1.209151   -0.039815
     13          1           0       -0.833822    0.790655   -1.466401
     14          1           0        1.871658   -0.616040    1.421539
 ---------------------------------------------------------------------

 SCF Done:  E(RHF) =  -701.703658776     A.U. after    2 cycles

 The electronic state is 1-A.
 Alpha  occ. eigenvalues -- -105.23261 -21.08909 -21.04863 -15.78001 -11.53156
 Alpha  occ. eigenvalues --  -11.52014 -11.44119 -11.39231  -2.81134  -1.74910
 Alpha  occ. eigenvalues --   -1.72175  -1.59290  -1.51072  -1.48088  -1.30093
 Alpha  occ. eigenvalues --   -1.20089  -0.99021  -0.86716  -0.78904  -0.73587
 Alpha  occ. eigenvalues --   -0.65960  -0.60784  -0.57239  -0.55920  -0.52271
 Alpha  occ. eigenvalues --   -0.52218  -0.49983  -0.47218  -0.44931  -0.35806
 Alpha  occ. eigenvalues --   -0.34047  -0.28260  -0.19394  -0.04924
 Alpha virt. eigenvalues --    0.03404   0.05193   0.05903   0.06386   0.06732
 Alpha virt. eigenvalues --    0.07277   0.08745   0.09121   0.09722   0.10996
 Alpha virt. eigenvalues --    0.11620   0.11998   0.12559   0.13357   0.13944

 Mulliken charges:
               1
     1  C    5.306611
     2  C   -3.503203
     3  C    2.743461
     4  P    2.588311
     5  N   -2.033759
     6  H    0.666351
     7  C   -3.866497
     8  H    1.276942
     9  H    1.255521
    10  H    1.287911
    11  O   -3.232235
    12  O   -3.406410
    13  H    1.638373
    14  H   -0.721376
 Sum of Mulliken charges =  -0.00000

 Dipole moment (field-independent basis, Debye):
    X=              1.7732    Y=             -1.5892    Z=             -1.4641  Tot=              2.7952

 Test job not archived.
 1\1\GINC-SE220\SP\RHF\Aug-CC-pVDZ\C4H6N1O2P1\OHZDE\08-Apr-2025\0\\#t h
 f aug-cc-pvdz iop(5/13=1,5/36=2,99/5=2) pseudo=read geom=check guess=(
 read,tcheck) scf=(maxcycle=1)\\title\\0,1\C,0,-1.054237,-0.783725,-0.0
 86393\C,0,-0.681458,0.671664,-0.383279\C,0,0.814684,0.853504,-0.156951
 \P,0,1.659364,-0.841672,0.028853\N,0,0.076155,-1.566612,0.064318\H,0,-
 0.077696,-2.563437,0.142119\C,0,-1.545451,1.695023,0.356678\H,0,-1.405
 026,1.614803,1.437134\H,0,-2.597226,1.513161,0.134433\H,0,-1.275079,2.
 705847,0.050222\O,0,1.397218,1.900098,-0.082985\O,0,-2.185665,-1.20915

 Normal termination of Gaussian 16 at Tue Apr  8 23:36:54 2025.
