 Gaussian 16, Revision C.01,

 ----------------------------------------------------------------------
 #t hf aug-cc-pvdz symm=none int=(grid=ultrafine) guess=(read,tcheck) s
 table=opt
 ----------------------------------------------------------------------
 -----
 title
 -----
 Symbolic Z-matrix:
 Charge =  0 Multiplicity = 2

 SCF Done:  E(UHF) =  -195.723246023     A.U. after   16 cycles
 Normal termination of Gaussian 16 at Tue Apr  8 22:39:57 2025.
 Gaussian 16:  ES64L-G16RevC.01  3-Jul-2019

 ----------------------------------------------------------------------
 #t hf aug-cc-pvdz iop(5/13=1,5/36=2,99/5=2) pseudo=read geom=check gue
 ss=(read,tcheck) scf=(maxcycle=1)
 ----------------------------------------------------------------------
 -----
 title
 -----
 Structure from the checkpoint file:  "BDE49_expt_1235_mol2.chk"
 Charge =  0 Multiplicity = 2

                         Standard orientation:
 ---------------------------------------------------------------------
 Center     Atomic      Atomic             Coordinates (Angstroms)
 Number     Number       Type             X           Y           Z
 ---------------------------------------------------------------------
      1          6           0        0.000002   -0.001246    0.054363
      2          6           0       -0.000095    1.318053   -0.764114
      3          1           0        0.884311    1.919980   -0.538047
      4          1           0       -0.884576    1.919864   -0.538026
      5          6           0       -1.261156   -0.813238   -0.303753
      6          1           0       -2.169627   -0.254822   -0.058172
      7          1           0       -1.287917   -1.757948    0.246346
      8          1           0       -1.287294   -1.042186   -1.373665
      9          1           0       -0.000094    1.103426   -1.838706
     10          6           0        1.261257   -0.813073   -0.303778
     11          1           0        1.287402   -1.042023   -1.373690
     12          1           0        1.288154   -1.757777    0.246324
     13          1           0        2.169660   -0.254536   -0.058221
     14          6           0       -0.000007    0.325482    1.518831
     15          1           0       -0.928641    0.535065    2.038277
     16          1           0        0.928617    0.535084    2.038289
 ---------------------------------------------------------------------

 SCF Done:  E(UHF) =  -196.735489021     A.U. after    2 cycles

 The electronic state is 2-A.
 Alpha  occ. eigenvalues --  -11.40250 -11.38251 -11.38083 -11.38030 -11.33999
 Alpha  occ. eigenvalues --   -1.28600  -0.99910  -0.99847  -0.98621  -0.76444
 Alpha  occ. eigenvalues --   -0.62143  -0.61792  -0.60043  -0.56197  -0.53872
 Alpha  occ. eigenvalues --   -0.51366  -0.50647  -0.44733  -0.43822  -0.41909
 Alpha  occ. eigenvalues --   -0.30859
 Alpha virt. eigenvalues --    0.03721   0.05562   0.05718   0.05861   0.06136
 Alpha virt. eigenvalues --    0.06286   0.06391   0.06521   0.06949   0.09076
 Alpha virt. eigenvalues --    0.09293   0.11976   0.13366   0.13788   0.14075

  Beta  occ. eigenvalues --  -11.40382 -11.38019 -11.37900 -11.36530 -11.33485
  Beta  occ. eigenvalues --   -1.27346  -0.99794  -0.99364  -0.92252  -0.75323
  Beta  occ. eigenvalues --   -0.61504  -0.61475  -0.59188  -0.55720  -0.53089
  Beta  occ. eigenvalues --   -0.51054  -0.50586  -0.42885  -0.42552  -0.41797
  Beta virt. eigenvalues --    0.03830   0.05577   0.05727   0.05779   0.06129
  Beta virt. eigenvalues --    0.06149   0.06348   0.06399   0.06810   0.09081
  Beta virt. eigenvalues --    0.09297   0.10794   0.12081   0.13431   0.14120

 Mulliken charges and spin densities:
               1          2
     1  C    1.283069  -0.510279
     2  C   -4.095596   0.082674
     3  H    1.323529  -0.019992
     4  H    1.323518  -0.019988
     5  C   -4.173014   0.049009
     6  H    1.234272  -0.010949
     7  H    1.275968  -0.005219
     8  H    1.261683  -0.001398
     9  H    1.254937   0.006389
    10  C   -4.173016   0.048997
    11  H    1.261683  -0.001399
    12  H    1.275957  -0.005216
    13  H    1.234276  -0.010949
    14  C   -3.038682   1.519930
    15  H    1.375708  -0.060809
    16  H    1.375707  -0.060802
 Sum of Mulliken charges =  -0.00000   1.00000

 Dipole moment (field-independent basis, Debye):
    X=              0.0000    Y=              0.0844    Z=             -0.1125  Tot=              0.1406
                          Isotropic Fermi Contact Couplings
        Atom                 a.u.       MegaHertz       Gauss      10(-4) cm-1
     1  C(13)             -0.03370     -37.88091     -13.51685     -12.63571
     2  C(13)              0.04869      54.73312      19.53014      18.25701
     3  H(1)              -0.00055      -2.44857      -0.87371      -0.81676
     4  H(1)              -0.00055      -2.44854      -0.87370      -0.81675
     5  C(13)              0.01327      14.92225       5.32463       4.97753
     6  H(1)              -0.00050      -2.21448      -0.79018      -0.73867
     7  H(1)              -0.00044      -1.98603      -0.70866      -0.66247
     8  H(1)               0.00005       0.22103       0.07887       0.07373

 Normal termination of Gaussian 16 at Tue Apr  8 22:40:02 2025.
