 Gaussian 16, Revision C.01,

 ----------------------------------------------------------------------
 #t hf aug-cc-pvdz symm=none int=(grid=ultrafine) guess=(read,tcheck) s
 table=(opt,rrhf)
 ----------------------------------------------------------------------
 -----
 title
 -----
 Symbolic Z-matrix:
 Charge =  0 Multiplicity = 1

 SCF Done:  E(RHF) =  -774.177164112     A.U. after   18 cycles
 Normal termination of Gaussian 16 at Tue Apr  8 23:04:46 2025.
 Gaussian 16:  ES64L-G16RevC.01  3-Jul-2019

 ----------------------------------------------------------------------
 #t hf aug-cc-pvdz iop(5/13=1,5/36=2,99/5=2) pseudo=read geom=check gue
 ss=(read,tcheck) scf=(maxcycle=1)
 ----------------------------------------------------------------------
 -----
 title
 -----
 Structure from the checkpoint file:  "BDE49_expt_1762_mol1.chk"
 Charge =  0 Multiplicity = 1

                         Standard orientation:
 ---------------------------------------------------------------------
 Center     Atomic      Atomic             Coordinates (Angstroms)
 Number     Number       Type             X           Y           Z
 ---------------------------------------------------------------------
      1          7           0        1.092406    0.522396   -0.430796
      2          7           0        1.537559    1.726386   -0.869133
      3          8           0        2.738177    1.798339   -1.045541
      4          6           0        1.994108   -0.642190   -0.394280
      5          8           0        1.897937   -1.502709   -1.243149
      6          7           0        2.854593   -0.653471    0.648989
      7          6           0       -0.316849    0.380001   -0.230332
      8          6           0       -1.032308    1.439689    0.343196
      9          6           0       -2.397503    1.330837    0.540612
     10          6           0       -3.074054    0.154135    0.193697
     11          6           0       -2.358472   -0.906127   -0.366728
     12          6           0       -0.986595   -0.787594   -0.588082
     13          1           0       -2.964418    2.143199    0.978162
     14          1           0       -2.852953   -1.824442   -0.652236
     15          1           0       -0.440898   -1.595943   -1.054299
     16          6           0        3.874901   -1.697232    0.690476
     17          1           0        3.860828   -2.191642    1.665739
     18          1           0        4.867140   -1.263343    0.528449
     19          1           0        3.667648   -2.423476   -0.090381
     20          6           0        2.990299    0.414966    1.631213
     21          1           0        3.200312   -0.031231    2.605968
     22          1           0        2.066921    0.983208    1.707628
     23          1           0        3.805244    1.093768    1.363928
     24          8           0       -4.412506    0.144318    0.443437
     25          1           0       -0.513275    2.347966    0.619162
     26          6           0       -5.156247   -1.019295    0.107209
     27          1           0       -6.185694   -0.804744    0.388658
     28          1           0       -4.804318   -1.895372    0.663274
     29          1           0       -5.110995   -1.227863   -0.967339
 ---------------------------------------------------------------------

 SCF Done:  E(RHF) =  -777.691406240     A.U. after    2 cycles

 The electronic state is 1-A.
 Alpha  occ. eigenvalues --  -21.09504 -21.08027 -21.04260 -15.89647 -15.79342
 Alpha  occ. eigenvalues --  -15.76691 -11.55108 -11.53617 -11.47776 -11.46586
 Alpha  occ. eigenvalues --  -11.44893 -11.42116 -11.41677 -11.41608 -11.40466
 Alpha  occ. eigenvalues --  -11.37994  -1.87566  -1.79438  -1.73785  -1.49202
 Alpha  occ. eigenvalues --   -1.43653  -1.30080  -1.11568  -1.09825  -1.06930
 Alpha  occ. eigenvalues --   -1.04286  -1.00746  -0.93619  -0.89268  -0.84959
 Alpha  occ. eigenvalues --   -0.76468  -0.72290  -0.69705  -0.68198  -0.66797
 Alpha  occ. eigenvalues --   -0.64776  -0.64399  -0.62982  -0.61824  -0.59581
 Alpha  occ. eigenvalues --   -0.59307  -0.57973  -0.56946  -0.55685  -0.53926
 Alpha  occ. eigenvalues --   -0.52988  -0.51876  -0.50754  -0.49498  -0.48197
 Alpha  occ. eigenvalues --   -0.46767  -0.43977  -0.39998  -0.35785  -0.34612
 Alpha  occ. eigenvalues --   -0.31784  -0.30819  -0.28091  -0.25276
 Alpha virt. eigenvalues --    0.03170   0.04324   0.04946   0.05070   0.05731
 Alpha virt. eigenvalues --    0.05917   0.06179   0.06351   0.06819   0.07278
 Alpha virt. eigenvalues --    0.07865   0.08162   0.08937   0.10128   0.10335

 Mulliken charges:
               1
     1  N   -1.835775
     2  N    0.808861
     3  O   -2.372068
     4  C    5.710848
     5  O   -3.854281
     6  N   -3.046650
     7  C    4.013536
     8  C   -1.790224
     9  C   -3.046629
    10  C    4.057663
    11  C   -1.848733
    12  C   -1.455800
    13  H    1.954337
    14  H    1.834733
    15  H    2.012486
    16  C   -3.966431
    17  H    1.470757
    18  H    1.468419
    19  H    1.289092
    20  C   -3.770972
    21  H    1.407214
    22  H    1.843973
    23  H    1.506301
    24  O   -4.767001
    25  H    1.993358
    26  C   -3.858431
    27  H    1.406568
    28  H    1.414671
    29  H    1.420178
 Sum of Mulliken charges =   0.00000

 Dipole moment (field-independent basis, Debye):
    X=             -0.6607    Y=             -1.4083    Z=              2.4279  Tot=              2.8835

 Test job not archived.
 1\1\GINC-SE108\SP\RHF\Aug-CC-pVDZ\C10H13N3O3\OHZDE\08-Apr-2025\0\\#t h
 f aug-cc-pvdz iop(5/13=1,5/36=2,99/5=2) pseudo=read geom=check guess=(
 read,tcheck) scf=(maxcycle=1)\\title\\0,1\N,0,1.092406,0.522396,-0.430
 796\N,0,1.537559,1.726386,-0.869133\O,0,2.738177,1.798339,-1.045541\C,
 0,1.994108,-0.64219,-0.39428\O,0,1.897937,-1.502709,-1.243149\N,0,2.85
 4593,-0.653471,0.648989\C,0,-0.316849,0.380001,-0.230332\C,0,-1.032308
 ,1.439689,0.343196\C,0,-2.397503,1.330837,0.540612\C,0,-3.074054,0.154
 135,0.193697\C,0,-2.358472,-0.906127,-0.366728\C,0,-0.986595,-0.787594

 Normal termination of Gaussian 16 at Tue Apr  8 23:05:20 2025.
