 Gaussian 16, Revision C.01,

 ----------------------------------------------------------------------
 #t hf aug-cc-pvdz symm=none int=(grid=ultrafine) guess=(read,tcheck) s
 table=(opt,rrhf)
 ----------------------------------------------------------------------
 -----
 title
 -----
 Symbolic Z-matrix:
 Charge =  0 Multiplicity = 1

 SCF Done:  E(RHF) =  -1224.21142543     A.U. after   15 cycles
 Normal termination of Gaussian 16 at Tue Apr  8 23:14:58 2025.
 Gaussian 16:  ES64L-G16RevC.01  3-Jul-2019

 ----------------------------------------------------------------------
 #t hf aug-cc-pvdz iop(5/13=1,5/36=2,99/5=2) pseudo=read geom=check gue
 ss=(read,tcheck) scf=(maxcycle=1)
 ----------------------------------------------------------------------
 -----
 title
 -----
 Structure from the checkpoint file:  "BDE49_expt_395_mol1.chk"
 Charge =  0 Multiplicity = 1

                         Standard orientation:
 ---------------------------------------------------------------------
 Center     Atomic      Atomic             Coordinates (Angstroms)
 Number     Number       Type             X           Y           Z
 ---------------------------------------------------------------------
      1         16           0       -0.185140   -0.079310   -0.768211
      2          8           0        0.009552   -1.388809   -1.365832
      3          8           0        0.038638    1.129924   -1.542036
      4          6           0       -1.874947   -0.016173   -0.152728
      5          6           0       -2.531025   -1.204347    0.163339
      6          6           0       -2.506964    1.218670   -0.019431
      7          6           0       -3.815218    1.261686    0.455852
      8          6           0       -4.477849    0.080568    0.787539
      9          6           0       -3.839074   -1.149774    0.637935
     10          1           0       -4.361814   -2.067468    0.881527
     11          1           0       -2.026837   -2.151096    0.015349
     12          1           0       -1.984184    2.122279   -0.306882
     13          1           0       -4.319475    2.215649    0.558035
     14          1           0       -5.497386    0.118316    1.154080
     15          6           0        0.832535    0.012046    0.704186
     16         14           0        2.733142    0.037263    0.399980
     17          1           0        0.565755   -0.850165    1.321155
     18          1           0        0.535775    0.921374    1.234030
     19          6           0        3.205935    1.599418   -0.522094
     20          1           0        2.715790    1.642791   -1.496816
     21          1           0        4.289157    1.641685   -0.674100
     22          1           0        2.911743    2.493622    0.035572
     23          6           0        3.483292    0.045472    2.128590
     24          1           0        4.576022    0.070294    2.067932
     25          1           0        3.205539   -0.848831    2.694498
     26          1           0        3.166132    0.920247    2.704262
     27          6           0        3.260029   -1.503070   -0.528895
     28          1           0        2.788306   -1.554986   -1.512235
     29          1           0        2.981533   -2.409546    0.016332
     30          1           0        4.346380   -1.512785   -0.663890
 ---------------------------------------------------------------------

 SCF Done:  E(RHF) =  -1227.20527667     A.U. after    2 cycles

 The electronic state is 1-A.
 Alpha  occ. eigenvalues --  -76.19894 -75.87703 -21.03230 -21.03150 -13.50393
 Alpha  occ. eigenvalues --  -13.40524 -13.37079 -11.53963 -11.45740 -11.45404
 Alpha  occ. eigenvalues --  -11.43391 -11.42716 -11.40212 -11.38557 -11.35129
 Alpha  occ. eigenvalues --  -11.34302 -11.34209  -8.22727  -5.53965  -2.17796
 Alpha  occ. eigenvalues --   -2.17741  -2.17626  -1.81816  -1.64027  -1.36359
 Alpha  occ. eigenvalues --   -1.16788  -1.11254  -1.10673  -1.06672  -1.01078
 Alpha  occ. eigenvalues --   -1.00482  -0.93430  -0.88689  -0.83475  -0.73498
 Alpha  occ. eigenvalues --   -0.67126  -0.66143  -0.63055  -0.62526  -0.60383
 Alpha  occ. eigenvalues --   -0.59386  -0.57345  -0.56928  -0.56484  -0.55671
 Alpha  occ. eigenvalues --   -0.54339  -0.53997  -0.52998  -0.52266  -0.48436
 Alpha  occ. eigenvalues --   -0.47313  -0.43362  -0.42306  -0.39877  -0.39188
 Alpha  occ. eigenvalues --   -0.38225  -0.37692  -0.34794  -0.34718  -0.34258
 Alpha  occ. eigenvalues --   -0.33774
 Alpha virt. eigenvalues --    0.02645   0.03694   0.04952   0.04963   0.05364
 Alpha virt. eigenvalues --    0.05475   0.06056   0.06311   0.06491   0.06765
 Alpha virt. eigenvalues --    0.07194   0.07797   0.08338   0.08657   0.08777

 Mulliken charges:
               1
     1  S    6.058524
     2  O   -2.763744
     3  O   -2.778160
     4  C    2.828747
     5  C   -3.327104
     6  C   -3.336227
     7  C   -0.736817
     8  C   -2.619467
     9  C   -0.780866
    10  H    1.513752
    11  H    1.917735
    12  H    1.919960
    13  H    1.511784
    14  H    1.573196
    15  C   -6.311646
    16  Si  11.641526
    17  H    1.300483
    18  H    1.316553
    19  C   -6.178034
    20  H    1.077416
    21  H    1.059467
    22  H    1.007469
    23  C   -6.192689
    24  H    1.119612
    25  H    1.109182
    26  H    1.135818
    27  C   -6.220273
    28  H    1.101688
    29  H    1.000507
    30  H    1.051608
 Sum of Mulliken charges =  -0.00000

 Dipole moment (field-independent basis, Debye):
    X=             -0.9956    Y=              0.1823    Z=              2.1200  Tot=              2.3492

 Test job not archived.
 1\1\GINC-SE253\SP\RHF\Aug-CC-pVDZ\C10H16O2S1Si1\OHZDE\08-Apr-2025\0\\#
 t hf aug-cc-pvdz iop(5/13=1,5/36=2,99/5=2) pseudo=read geom=check gues
 s=(read,tcheck) scf=(maxcycle=1)\\title\\0,1\S,0,-0.18514,-0.07931,-0.
 768211\O,0,0.009552,-1.388809,-1.365832\O,0,0.038638,1.129924,-1.54203
 6\C,0,-1.874947,-0.016173,-0.152728\C,0,-2.531025,-1.204347,0.163339\C
 ,0,-2.506964,1.21867,-0.019431\C,0,-3.815218,1.261686,0.455852\C,0,-4.
 477849,0.080568,0.787539\C,0,-3.839074,-1.149774,0.637935\H,0,-4.36181
 4,-2.067468,0.881527\H,0,-2.026837,-2.151096,0.015349\H,0,-1.984184,2.

 Normal termination of Gaussian 16 at Tue Apr  8 23:15:31 2025.
