 Gaussian 16, Revision C.01,

 ----------------------------------------------------------------------
 #t hf aug-cc-pvdz symm=none int=(grid=ultrafine) guess=(read,tcheck) s
 table=(opt,rrhf)
 ----------------------------------------------------------------------
 -----
 title
 -----
 Symbolic Z-matrix:
 Charge =  0 Multiplicity = 1

 SCF Done:  E(RHF) =  -275.523664089     A.U. after   13 cycles
 Normal termination of Gaussian 16 at Wed Apr  9 00:39:07 2025.
 Gaussian 16:  ES64L-G16RevC.01  3-Jul-2019

 ----------------------------------------------------------------------
 #t hf aug-cc-pvdz iop(5/13=1,5/36=2,99/5=2) pseudo=read geom=check gue
 ss=(read,tcheck) scf=(maxcycle=1)
 ----------------------------------------------------------------------
 -----
 title
 -----
 Structure from the checkpoint file:  "BDE49_nonexpt_576_mol1.chk"
 Charge =  0 Multiplicity = 1

                         Standard orientation:
 ---------------------------------------------------------------------
 Center     Atomic      Atomic             Coordinates (Angstroms)
 Number     Number       Type             X           Y           Z
 ---------------------------------------------------------------------
      1          5           0       -2.961551   -0.000039    0.343379
      2          6           0       -0.410974   -0.000026    0.212713
      3          6           0        0.454081    1.202243   -0.209081
      4          6           0        0.454091   -1.202181   -0.209354
      5          6           0        1.897177   -0.780969    0.137923
      6          1           0        0.345949   -1.347337   -1.291320
      7          1           0        0.142944   -2.130751    0.273985
      8          6           0        1.897278    0.780902    0.137701
      9          1           0        2.619274   -1.192550   -0.570140
     10          1           0        2.176887   -1.158677    1.124704
     11          1           0        2.177566    1.158880    1.124210
     12          1           0        2.619074    1.192146   -0.570865
     13          1           0        0.143059    2.130643    0.274663
     14          1           0        0.345693    1.347815   -1.290964
     15          7           0       -1.756212    0.000049   -0.344805
     16          1           0       -0.522791   -0.000165    1.301333
     17          1           0       -2.950054   -0.000193    1.537238
     18          1           0       -3.980218    0.000043   -0.277765
     19          1           0       -1.766064    0.000184   -1.357758
 ---------------------------------------------------------------------

 SCF Done:  E(RHF) =  -276.911204790     A.U. after    2 cycles

 The electronic state is 1-A.
 Alpha  occ. eigenvalues --  -15.70800 -11.47049 -11.44200 -11.38048 -11.37943
 Alpha  occ. eigenvalues --  -11.34100  -7.59022  -1.41264  -1.25913  -1.04329
 Alpha  occ. eigenvalues --   -1.02423  -0.83788  -0.82016  -0.80889  -0.67531
 Alpha  occ. eigenvalues --   -0.65390  -0.58258  -0.57585  -0.55997  -0.49784
 Alpha  occ. eigenvalues --   -0.47738  -0.46472  -0.45319  -0.44082  -0.44055
 Alpha  occ. eigenvalues --   -0.42214  -0.34308
 Alpha virt. eigenvalues --    0.03534   0.03832   0.04285   0.04628   0.05724
 Alpha virt. eigenvalues --    0.05881   0.05969   0.06164   0.06396   0.08491
 Alpha virt. eigenvalues --    0.08997   0.09040   0.09291   0.11381   0.12197

 Mulliken charges:
               1
     1  B    7.308384
     2  C    1.293289
     3  C   -3.428050
     4  C   -3.427719
     5  C   -2.590168
     6  H    1.469078
     7  H    1.346878
     8  C   -2.589789
     9  H    1.327672
    10  H    1.307262
    11  H    1.307285
    12  H    1.327763
    13  H    1.346802
    14  H    1.469004
    15  N   -3.312563
    16  H    1.978604
    17  H   -3.239080
    18  H   -3.903034
    19  H    1.008384
 Sum of Mulliken charges =  -0.00000

 Dipole moment (field-independent basis, Debye):
    X=              1.7444    Y=              0.0001    Z=             -0.8034  Tot=              1.9205

 Test job not archived.
 1\1\GINC-SE048\SP\RHF\Aug-CC-pVDZ\C5H12B1N1\OHZDE\09-Apr-2025\0\\#t hf
  aug-cc-pvdz iop(5/13=1,5/36=2,99/5=2) pseudo=read geom=check guess=(r
 ead,tcheck) scf=(maxcycle=1)\\title\\0,1\B,0,-2.961551,-0.000039,0.343
 379\C,0,-0.410974,-0.000026,0.212713\C,0,0.454081,1.202243,-0.209081\C
 ,0,0.454091,-1.202181,-0.209354\C,0,1.897177,-0.780969,0.137923\H,0,0.
 345949,-1.347337,-1.29132\H,0,0.142944,-2.130751,0.273985\C,0,1.897278
 ,0.780902,0.137701\H,0,2.619274,-1.19255,-0.57014\H,0,2.176887,-1.1586
 77,1.124704\H,0,2.177566,1.15888,1.12421\H,0,2.619074,1.192146,-0.5708

 Normal termination of Gaussian 16 at Wed Apr  9 00:39:15 2025.
