 Gaussian 16, Revision C.01,

 ----------------------------------------------------------------------
 #t hf aug-cc-pvdz symm=none int=(grid=ultrafine) guess=(read,tcheck) s
 table=opt
 ----------------------------------------------------------------------
 -----
 title
 -----
 Symbolic Z-matrix:
 Charge =  0 Multiplicity = 2

 SCF Done:  E(UHF) =  -601.869651958     A.U. after   18 cycles
 Normal termination of Gaussian 16 at Tue Apr  8 23:48:28 2025.
 Gaussian 16:  ES64L-G16RevC.01  3-Jul-2019

 ----------------------------------------------------------------------
 #t hf aug-cc-pvdz iop(5/13=1,5/36=2,99/5=2) pseudo=read geom=check gue
 ss=(read,tcheck) scf=(maxcycle=1)
 ----------------------------------------------------------------------
 -----
 title
 -----
 Structure from the checkpoint file:  "BDE49_nonexpt_179_mol2.chk"
 Charge =  0 Multiplicity = 2

                         Standard orientation:
 ---------------------------------------------------------------------
 Center     Atomic      Atomic             Coordinates (Angstroms)
 Number     Number       Type             X           Y           Z
 ---------------------------------------------------------------------
      1         17           0        2.006703   -0.087229    0.031382
      2          5           0        0.403429   -0.783057    0.056067
      3          6           0       -0.929589   -0.066137   -0.320834
      4          6           0       -2.187901   -0.831826    0.133991
      5          1           0       -2.159898   -1.875875   -0.185383
      6          1           0       -3.092499   -0.372624   -0.276223
      7          1           0       -2.276567   -0.822132    1.224252
      8          6           0       -0.992525    1.426439    0.073323
      9          1           0       -0.893108   -0.115689   -1.426095
     10          1           0       -1.001833    1.542429    1.161020
     11          1           0       -1.907039    1.884688   -0.314750
     12          1           0       -0.140067    1.986535   -0.315534
 ---------------------------------------------------------------------

 SCF Done:  E(UHF) =  -602.817385235     A.U. after    2 cycles

 The electronic state is 2-A.
 Alpha  occ. eigenvalues --  -99.89549 -11.40418 -11.38803 -11.34774 -10.46826
 Alpha  occ. eigenvalues --   -9.66824  -9.66438  -9.66138  -7.67231  -1.35130
 Alpha  occ. eigenvalues --   -1.22206  -1.00542  -0.89428  -0.73786  -0.63300
 Alpha  occ. eigenvalues --   -0.61024  -0.58447  -0.54497  -0.53926  -0.53117
 Alpha  occ. eigenvalues --   -0.47914  -0.47109  -0.44029  -0.30646
 Alpha virt. eigenvalues --    0.03053   0.04078   0.04394   0.04531   0.06493
 Alpha virt. eigenvalues --    0.06547   0.06857   0.07551   0.07739   0.09312
 Alpha virt. eigenvalues --    0.10343   0.12052   0.13932   0.14406   0.14991

  Beta  occ. eigenvalues --  -99.89470 -11.40325 -11.38757 -11.34684 -10.46733
  Beta  occ. eigenvalues --   -9.66726  -9.66161  -9.66127  -7.65326  -1.34063
  Beta  occ. eigenvalues --   -1.21763  -1.00370  -0.88104  -0.71214  -0.63009
  Beta  occ. eigenvalues --   -0.60339  -0.56729  -0.54485  -0.53637  -0.52412
  Beta  occ. eigenvalues --   -0.47132  -0.46089  -0.42884
  Beta virt. eigenvalues --    0.02597   0.04001   0.04311   0.04549   0.06523
  Beta virt. eigenvalues --    0.06570   0.06996   0.07569   0.07684   0.08260
  Beta virt. eigenvalues --    0.10108   0.10902   0.13690   0.14560   0.14603

 Mulliken charges and spin densities:
               1          2
     1  Cl  -1.069638   0.023179
     2  B    1.016147   0.955234
     3  C   -2.206210  -0.027948
     4  C   -3.630685   0.003243
     5  H    1.367872   0.022481
     6  H    1.254679  -0.008660
     7  H    1.307942   0.013133
     8  C   -3.553658   0.053136
     9  H    1.827878  -0.025737
    10  H    1.208167  -0.007024
    11  H    1.257367   0.001277
    12  H    1.220139  -0.002313
 Sum of Mulliken charges =   0.00000   1.00000

 Dipole moment (field-independent basis, Debye):
    X=             -1.4684    Y=              0.5484    Z=             -0.3805  Tot=              1.6129
                          Isotropic Fermi Contact Couplings
        Atom                 a.u.       MegaHertz       Gauss      10(-4) cm-1
     1  Cl(35)             0.12036      52.77159      18.83022      17.60271
     2  B(11)              0.22430     321.72444     114.79928     107.31572
     3  C(13)              0.03225      36.26031      12.93858      12.09514
     4  C(13)              0.01002      11.26416       4.01933       3.75732
     5  H(1)              -0.00018      -0.78426      -0.27984      -0.26160
     6  H(1)              -0.00027      -1.21952      -0.43515      -0.40679
     7  H(1)              -0.00017      -0.77943      -0.27812      -0.25999
     8  C(13)              0.00885       9.94935       3.55018       3.31875

 Normal termination of Gaussian 16 at Tue Apr  8 23:48:32 2025.
