 Gaussian 16, Revision C.01,

 ----------------------------------------------------------------------
 #t hf aug-cc-pvdz symm=none int=(grid=ultrafine) guess=(read,tcheck) s
 table=(opt,rrhf)
 ----------------------------------------------------------------------
 -----
 title
 -----
 Symbolic Z-matrix:
 Charge =  0 Multiplicity = 1

 SCF Done:  E(RHF) =  -759.601159428     A.U. after   12 cycles
 Normal termination of Gaussian 16 at Wed Apr  9 00:14:36 2025.
 Gaussian 16:  ES64L-G16RevC.01  3-Jul-2019

 ----------------------------------------------------------------------
 #t hf aug-cc-pvdz iop(5/13=1,5/36=2,99/5=2) pseudo=read geom=check gue
 ss=(read,tcheck) scf=(maxcycle=1)
 ----------------------------------------------------------------------
 -----
 title
 -----
 Structure from the checkpoint file:  "BDE49_nonexpt_2457_mol1.chk"
 Charge =  0 Multiplicity = 1

                         Standard orientation:
 ---------------------------------------------------------------------
 Center     Atomic      Atomic             Coordinates (Angstroms)
 Number     Number       Type             X           Y           Z
 ---------------------------------------------------------------------
      1         14           0        2.379208   -0.229368   -0.536971
      2         14           0        0.638676    0.326813    0.962496
      3          5           0       -1.164186    0.512916   -0.011495
      4          1           0        1.002017    1.625308    1.589895
      5          1           0        0.660759   -0.696580    2.044704
      6          1           0        2.135489   -1.561648   -1.146698
      7          1           0        3.695863   -0.270760    0.146088
      8          8           0       -1.973264   -0.526890   -0.314570
      9          6           0       -1.640236    1.941293   -0.469828
     10          1           0        2.458872    0.764368   -1.636895
     11          1           0       -0.864124    2.457220   -1.047672
     12          1           0       -1.823397    2.578383    0.404629
     13          1           0       -2.555455    1.904827   -1.067137
     14          6           0       -1.738716   -1.898575   -0.007519
     15          1           0       -1.623131   -2.451283   -0.942055
     16          1           0       -2.609111   -2.284899    0.525971
     17          1           0       -0.847396   -2.034952    0.609937
 ---------------------------------------------------------------------

 SCF Done:  E(RHF) =  -760.767686785     A.U. after    2 cycles

 The electronic state is 1-A.
 Alpha  occ. eigenvalues --  -76.21299 -76.19660 -21.03756 -11.41821 -11.33080
 Alpha  occ. eigenvalues --   -7.62119  -5.54652  -5.53311  -2.16717  -2.16708
 Alpha  occ. eigenvalues --   -2.16589  -2.15967  -2.15534  -2.14435  -1.77235
 Alpha  occ. eigenvalues --   -1.08184  -0.98359  -0.82004  -0.73596  -0.65554
 Alpha  occ. eigenvalues --   -0.61871  -0.61740  -0.56305  -0.54503  -0.48841
 Alpha  occ. eigenvalues --   -0.47764  -0.46712  -0.45533  -0.44195  -0.39542
 Alpha  occ. eigenvalues --   -0.35753  -0.30105
 Alpha virt. eigenvalues --    0.03571   0.03931   0.04204   0.04750   0.06406
 Alpha virt. eigenvalues --    0.06888   0.07009   0.07654   0.07943   0.08348
 Alpha virt. eigenvalues --    0.08490   0.08765   0.08889   0.09375   0.09944

 Mulliken charges:
               1
     1  Si   5.346147
     2  Si   3.143651
     3  B    5.361712
     4  H   -1.825658
     5  H   -1.574146
     6  H   -1.601340
     7  H   -1.658449
     8  O   -4.886108
     9  C   -5.944406
    10  H   -1.604901
    11  H    1.004202
    12  H    0.814832
    13  H    1.343974
    14  C   -2.344926
    15  H    1.422327
    16  H    1.330018
    17  H    1.673071
 Sum of Mulliken charges =  -0.00000

 Dipole moment (field-independent basis, Debye):
    X=             -1.2215    Y=             -0.8905    Z=             -0.0425  Tot=              1.5123

 Test job not archived.
 1\1\GINC-SE166\SP\RHF\Aug-CC-pVDZ\C2H11B1O1Si2\OHZDE\09-Apr-2025\0\\#t
  hf aug-cc-pvdz iop(5/13=1,5/36=2,99/5=2) pseudo=read geom=check guess
 =(read,tcheck) scf=(maxcycle=1)\\title\\0,1\Si,0,-2.379208,0.229368,-0
 .536971\Si,0,-0.638676,-0.326813,0.962496\B,0,1.164186,-0.512916,-0.01
 1495\H,0,-1.002017,-1.625308,1.589895\H,0,-0.660759,0.69658,2.044704\H
 ,0,-2.135489,1.561648,-1.146698\H,0,-3.695863,0.27076,0.146088\O,0,1.9
 73264,0.52689,-0.31457\C,0,1.640236,-1.941293,-0.469828\H,0,-2.458872,
 -0.764368,-1.636895\H,0,0.864124,-2.45722,-1.047672\H,0,1.823397,-2.57

 Normal termination of Gaussian 16 at Wed Apr  9 00:14:43 2025.
