 Gaussian 16, Revision C.01,

 ----------------------------------------------------------------------
 #t hf aug-cc-pvdz symm=none int=(grid=ultrafine) guess=(read,tcheck) s
 table=(opt,rrhf)
 ----------------------------------------------------------------------
 -----
 title
 -----
 Symbolic Z-matrix:
 Charge =  0 Multiplicity = 1

 SCF Done:  E(RHF) =  -1076.33570858     A.U. after   13 cycles
 Normal termination of Gaussian 16 at Wed Apr  9 00:19:12 2025.
 Gaussian 16:  ES64L-G16RevC.01  3-Jul-2019

 ----------------------------------------------------------------------
 #t hf aug-cc-pvdz iop(5/13=1,5/36=2,99/5=2) pseudo=read geom=check gue
 ss=(read,tcheck) scf=(maxcycle=1)
 ----------------------------------------------------------------------
 -----
 title
 -----
 Structure from the checkpoint file:  "BDE49_nonexpt_257_mol1.chk"
 Charge =  0 Multiplicity = 1

                         Standard orientation:
 ---------------------------------------------------------------------
 Center     Atomic      Atomic             Coordinates (Angstroms)
 Number     Number       Type             X           Y           Z
 ---------------------------------------------------------------------
      1          5           0       -0.505422   -0.000004    0.056389
      2         17           0       -1.404080   -1.537663   -0.058952
      3         17           0       -1.404048    1.537678   -0.058950
      4          7           0        0.846174   -0.000011    0.196792
      5          6           0        2.048468   -0.000013    0.535003
      6          6           0        3.203272   -0.000008   -0.421675
      7          1           0        2.859727   -0.000017   -1.455268
      8          1           0        3.831114   -0.879010   -0.241235
      9          1           0        3.831094    0.879011   -0.241245
     10          1           0        2.309698   -0.000017    1.602621
 ---------------------------------------------------------------------

 SCF Done:  E(RHF) =  -1077.55249008     A.U. after    2 cycles

 The electronic state is 1-A.
 Alpha  occ. eigenvalues --  -99.88019 -99.88005 -15.73085 -11.49506 -11.40516
 Alpha  occ. eigenvalues --  -10.45426 -10.45172  -9.65352  -9.65162  -9.64798
 Alpha  occ. eigenvalues --   -9.64705  -9.64582  -9.64547  -7.72214  -1.44763
 Alpha  occ. eigenvalues --   -1.33165  -1.27789  -1.11585  -0.92295  -0.75765
 Alpha  occ. eigenvalues --   -0.68333  -0.63990  -0.61889  -0.59719  -0.56740
 Alpha  occ. eigenvalues --   -0.55382  -0.50995  -0.50416  -0.48889  -0.44112
 Alpha  occ. eigenvalues --   -0.38473
 Alpha virt. eigenvalues --    0.02214   0.04246   0.04840   0.04956   0.05929
 Alpha virt. eigenvalues --    0.06064   0.07354   0.08465   0.08920   0.11550
 Alpha virt. eigenvalues --    0.12217   0.12905   0.13250   0.14009   0.14806

 Mulliken charges:
               1
     1  B    2.315498
     2  Cl  -1.223946
     3  Cl  -1.223936
     4  N   -4.158168
     5  C    2.841534
     6  C   -4.052855
     7  H    1.384074
     8  H    1.232092
     9  H    1.232090
    10  H    1.653617
 Sum of Mulliken charges =   0.00000

 Dipole moment (field-independent basis, Debye):
    X=              4.2488    Y=             -0.0000    Z=              0.6001  Tot=              4.2909

 Test job not archived.
 1\1\GINC-SE038\SP\RHF\Aug-CC-pVDZ\C2H4B1Cl2N1\OHZDE\09-Apr-2025\0\\#t
 hf aug-cc-pvdz iop(5/13=1,5/36=2,99/5=2) pseudo=read geom=check guess=
 (read,tcheck) scf=(maxcycle=1)\\title\\0,1\B,0,-0.505422,-0.000004,0.0
 56389\Cl,0,-1.40408,-1.537663,-0.058952\Cl,0,-1.404048,1.537678,-0.058
 95\N,0,0.846174,-0.000011,0.196792\C,0,2.048468,-0.000013,0.535003\C,0
 ,3.203272,-0.000008,-0.421675\H,0,2.859727,-0.000017,-1.455268\H,0,3.8
 31114,-0.87901,-0.241235\H,0,3.831094,0.879011,-0.241245\H,0,2.309698,
 -0.000017,1.602621\\Version=ES64L-G16RevC.01\State=1-A\HF=-1077.552490

 Normal termination of Gaussian 16 at Wed Apr  9 00:19:16 2025.
