 Gaussian 16, Revision C.01,

 ----------------------------------------------------------------------
 #t hf aug-cc-pvdz symm=none int=(grid=ultrafine) guess=(read,tcheck) s
 table=(opt,rrhf)
 ----------------------------------------------------------------------
 -----
 title
 -----
 Symbolic Z-matrix:
 Charge =  0 Multiplicity = 1

 SCF Done:  E(RHF) =  -952.365661049     A.U. after   13 cycles
 Normal termination of Gaussian 16 at Tue Apr  8 23:53:31 2025.
 Gaussian 16:  ES64L-G16RevC.01  3-Jul-2019

 ----------------------------------------------------------------------
 #t hf aug-cc-pvdz iop(5/13=1,5/36=2,99/5=2) pseudo=read geom=check gue
 ss=(read,tcheck) scf=(maxcycle=1)
 ----------------------------------------------------------------------
 -----
 title
 -----
 Structure from the checkpoint file:  "BDE49_nonexpt_1935_mol1.chk"
 Charge =  0 Multiplicity = 1

                         Standard orientation:
 ---------------------------------------------------------------------
 Center     Atomic      Atomic             Coordinates (Angstroms)
 Number     Number       Type             X           Y           Z
 ---------------------------------------------------------------------
      1         14           0       -2.219158    0.045866    0.019516
      2          6           0       -0.620321   -0.920887   -0.346180
      3         16           0        0.877139   -0.061672    0.112355
      4          8           0        0.657200    0.684192    1.329949
      5          8           0        0.955240    1.030885   -1.098075
      6          8           0        1.996243   -0.945063   -0.031698
      7          1           0       -3.314097   -0.658632   -0.684723
      8          1           0       -2.105870    1.423346   -0.501662
      9          1           0       -2.481783    0.057675    1.470342
     10          1           0        0.903812    1.909985   -0.695819
     11          1           0       -0.520000   -1.167676   -1.404868
     12          1           0       -0.595606   -1.854846    0.221504
 ---------------------------------------------------------------------

 SCF Done:  E(RHF) =  -953.931671632     A.U. after    2 cycles

 The electronic state is 1-A.
 Alpha  occ. eigenvalues --  -76.24471 -75.92639 -21.13569 -21.06697 -21.06350
 Alpha  occ. eigenvalues --  -13.55650 -13.46054 -13.37030 -11.42121  -8.27771
 Alpha  occ. eigenvalues --   -5.57901  -2.21457  -2.20232  -2.20157  -1.90572
 Alpha  occ. eigenvalues --   -1.72697  -1.67195  -1.15611  -0.91736  -0.78365
 Alpha  occ. eigenvalues --   -0.69111  -0.63855  -0.62659  -0.57407  -0.52296
 Alpha  occ. eigenvalues --   -0.49238  -0.49114  -0.47022  -0.42323  -0.39414
 Alpha  occ. eigenvalues --   -0.38582  -0.38106  -0.36407
 Alpha virt. eigenvalues --    0.03045   0.03939   0.04478   0.05013   0.07022
 Alpha virt. eigenvalues --    0.07728   0.08369   0.09192   0.09296   0.11355
 Alpha virt. eigenvalues --    0.12808   0.13265   0.13625   0.14383   0.15548

 Mulliken charges:
               1
     1  Si   6.144073
     2  C   -4.534839
     3  S    7.432135
     4  O   -2.562382
     5  O   -2.375807
     6  O   -2.528430
     7  H   -1.695830
     8  H   -1.700050
     9  H   -1.748484
    10  H    0.748747
    11  H    1.439843
    12  H    1.381025
 Sum of Mulliken charges =   0.00000

 Dipole moment (field-independent basis, Debye):
    X=             -1.4430    Y=              0.3693    Z=             -1.1664  Tot=              1.8919

 Test job not archived.
 1\1\GINC-SE073\SP\RHF\Aug-CC-pVDZ\C1H6O3S1Si1\OHZDE\08-Apr-2025\0\\#t
 hf aug-cc-pvdz iop(5/13=1,5/36=2,99/5=2) pseudo=read geom=check guess=
 (read,tcheck) scf=(maxcycle=1)\\title\\0,1\Si,0,-2.219158,0.045866,0.0
 19516\C,0,-0.620321,-0.920887,-0.34618\S,0,0.877139,-0.061672,0.112355
 \O,0,0.6572,0.684192,1.329949\O,0,0.95524,1.030885,-1.098075\O,0,1.996
 243,-0.945063,-0.031698\H,0,-3.314097,-0.658632,-0.684723\H,0,-2.10587
 ,1.423346,-0.501662\H,0,-2.481783,0.057675,1.470342\H,0,0.903812,1.909
 985,-0.695819\H,0,-0.52,-1.167676,-1.404868\H,0,-0.595606,-1.854846,0.

 Normal termination of Gaussian 16 at Tue Apr  8 23:53:35 2025.
