 Gaussian 16, Revision C.01,

 ----------------------------------------------------------------------
 #t hf aug-cc-pvdz symm=none int=(grid=ultrafine) guess=(read,tcheck) s
 table=(opt,rrhf)
 ----------------------------------------------------------------------
 -----
 title
 -----
 Symbolic Z-matrix:
 Charge =  0 Multiplicity = 1

 SCF Done:  E(RHF) =  -1012.67151914     A.U. after   15 cycles
 Normal termination of Gaussian 16 at Tue Apr  8 23:17:02 2025.
 Gaussian 16:  ES64L-G16RevC.01  3-Jul-2019

 ----------------------------------------------------------------------
 #t hf aug-cc-pvdz iop(5/13=1,5/36=2,99/5=2) pseudo=read geom=check gue
 ss=(read,tcheck) scf=(maxcycle=1)
 ----------------------------------------------------------------------
 -----
 title
 -----
 Structure from the checkpoint file:  "BDE49_nonexpt_1014_mol1.chk"
 Charge =  0 Multiplicity = 1

                         Standard orientation:
 ---------------------------------------------------------------------
 Center     Atomic      Atomic             Coordinates (Angstroms)
 Number     Number       Type             X           Y           Z
 ---------------------------------------------------------------------
      1         16           0       -0.789123   -1.104789   -0.194029
      2          7           0       -1.968614    0.315098   -0.004518
      3          8           0       -1.609619    1.419188   -0.299399
      4          8           0       -3.035914   -0.074132    0.412277
      5          8           0        0.532832   -0.311997   -0.832497
      6          6           0        1.522301    0.106208    0.046535
      7          9           0        2.410953    0.767114   -0.678569
      8          9           0        2.118833   -0.938382    0.632096
      9          9           0        1.045110    0.901181    1.003566
 ---------------------------------------------------------------------

 SCF Done:  E(RHF) =  -1015.21169292     A.U. after    2 cycles

 The electronic state is 1-A.
 Alpha  occ. eigenvalues --  -75.84005 -29.34860 -29.34769 -29.34707 -21.16874
 Alpha  occ. eigenvalues --  -21.14695 -21.13861 -16.04830 -13.30798 -13.25512
 Alpha  occ. eigenvalues --  -13.17945 -11.64525  -8.17421  -2.04087  -1.91775
 Alpha  occ. eigenvalues --   -1.74706  -1.39324  -1.19001  -0.97185  -0.95490
 Alpha  occ. eigenvalues --   -0.91513  -0.77365  -0.72393  -0.70715  -0.65056
 Alpha  occ. eigenvalues --   -0.54102  -0.51489  -0.50683  -0.47384  -0.46807
 Alpha  occ. eigenvalues --   -0.39505  -0.38865  -0.37258  -0.35474  -0.34823
 Alpha  occ. eigenvalues --   -0.34033  -0.30689  -0.28385  -0.28161  -0.24722
 Alpha virt. eigenvalues --    0.05366   0.07959   0.09009   0.10537   0.11384
 Alpha virt. eigenvalues --    0.11987   0.12104   0.13931   0.14706   0.16050
 Alpha virt. eigenvalues --    0.17233   0.17942   0.19324   0.20449   0.21456

 Mulliken charges:
               1
     1  S    1.346798
     2  N    4.341781
     3  O   -2.594698
     4  O   -2.572335
     5  O   -2.477732
     6  C    0.355537
     7  F    0.557508
     8  F    0.499055
     9  F    0.544086
 Sum of Mulliken charges =   0.00000

 Dipole moment (field-independent basis, Debye):
    X=              3.0464    Y=             -0.9901    Z=              1.3287  Tot=              3.4679

 Test job not archived.
 1\1\GINC-SE071\SP\RHF\Aug-CC-pVDZ\C1F3N1O3S1\OHZDE\08-Apr-2025\0\\#t h
 f aug-cc-pvdz iop(5/13=1,5/36=2,99/5=2) pseudo=read geom=check guess=(
 read,tcheck) scf=(maxcycle=1)\\title\\0,1\S,0,-0.789123,-1.104789,-0.1
 94029\N,0,-1.968614,0.315098,-0.004518\O,0,-1.609619,1.419188,-0.29939
 9\O,0,-3.035914,-0.074132,0.412277\O,0,0.532832,-0.311997,-0.832497\C,
 0,1.522301,0.106208,0.046535\F,0,2.410953,0.767114,-0.678569\F,0,2.118
 833,-0.938382,0.632096\F,0,1.04511,0.901181,1.003566\\Version=ES64L-G1
 6RevC.01\State=1-A\HF=-1015.2116929\RMSD=5.639e-02\Dipole=1.1985462,-0

 Normal termination of Gaussian 16 at Tue Apr  8 23:17:06 2025.
