 Gaussian 16, Revision C.01,

 ----------------------------------------------------------------------
 #t hf aug-cc-pvdz symm=none int=(grid=ultrafine) guess=(read,tcheck) s
 table=(opt,rrhf)
 ----------------------------------------------------------------------
 -----
 title
 -----
 Symbolic Z-matrix:
 Charge =  0 Multiplicity = 1

 SCF Done:  E(RHF) =  -232.187387924     A.U. after   12 cycles

 1\1\GINC-SE332\Stability\RHF\Aug-CC-pVDZ\C4H10O1\OHZDE\08-Apr-2025\0\\
 #t hf aug-cc-pvdz symm=none int=(grid=ultrafine) guess=(read,tcheck) s
 table=(opt,rrhf)\\title\\0,1\C,0,2.067206,-0.031219,0.111428\C,0,0.735
 431,-0.685641,-0.263126\C,0,-0.479674,0.029914,0.323502\O,0,-0.472752,
 1.357859,-0.216584\H,0,-1.200825,1.844847,0.180651\H,0,0.719218,-1.727
 715,0.074785\H,0,0.62124,-0.702484,-1.353095\H,0,2.224708,-0.049024,1.
 19478\H,0,2.085388,1.010218,-0.213365\H,0,2.907156,-0.552702,-0.355083
 \C,0,-1.793863,-0.679478,0.000315\H,0,-0.359724,0.080261,1.417769\H,0,

 Normal termination of Gaussian 16 at Tue Apr  8 22:48:42 2025.
 Gaussian 16:  ES64L-G16RevC.01  3-Jul-2019

 ----------------------------------------------------------------------
 #t hf aug-cc-pvdz iop(5/13=1,5/36=2,99/5=2) pseudo=read geom=check gue
 ss=(read,tcheck) scf=(maxcycle=1)
 ----------------------------------------------------------------------
 -----
 title
 -----
 Structure from the checkpoint file:  "BDE49_expt_162_mol1.chk"
 Charge =  0 Multiplicity = 1

                         Standard orientation:
 ---------------------------------------------------------------------
 Center     Atomic      Atomic             Coordinates (Angstroms)
 Number     Number       Type             X           Y           Z
 ---------------------------------------------------------------------
      1          6           0        2.067206   -0.031219    0.111428
      2          6           0        0.735431   -0.685641   -0.263126
      3          6           0       -0.479674    0.029914    0.323502
      4          8           0       -0.472752    1.357859   -0.216584
      5          1           0       -1.200825    1.844847    0.180651
      6          1           0        0.719218   -1.727715    0.074785
      7          1           0        0.621240   -0.702484   -1.353095
      8          1           0        2.224708   -0.049024    1.194780
      9          1           0        2.085388    1.010218   -0.213365
     10          1           0        2.907156   -0.552702   -0.355083
     11          6           0       -1.793863   -0.679478    0.000315
     12          1           0       -0.359724    0.080261    1.417769
     13          1           0       -1.935601   -0.736792   -1.082274
     14          1           0       -2.645063   -0.137309    0.425333
     15          1           0       -1.809082   -1.693634    0.410462
 ---------------------------------------------------------------------

 SCF Done:  E(RHF) =  -233.320902257     A.U. after    2 cycles

 The electronic state is 1-A.
 Alpha  occ. eigenvalues --  -21.05862 -11.44064 -11.39839 -11.37135 -11.34339
 Alpha  occ. eigenvalues --   -1.70520  -1.19519  -1.06805  -0.91643  -0.81020
 Alpha  occ. eigenvalues --   -0.67125  -0.60234  -0.58786  -0.56739  -0.53491
 Alpha  occ. eigenvalues --   -0.51363  -0.47355  -0.46062  -0.43132  -0.39059
 Alpha  occ. eigenvalues --   -0.31250
 Alpha virt. eigenvalues --    0.04070   0.05281   0.05547   0.05682   0.06008
 Alpha virt. eigenvalues --    0.06177   0.06500   0.07044   0.08951   0.09623
 Alpha virt. eigenvalues --    0.11269   0.12972   0.13879   0.15642   0.15743

 Mulliken charges:
               1
     1  C   -3.852074
     2  C   -3.022439
     3  C    0.819312
     4  O   -2.938008
     5  H    0.767220
     6  H    1.421798
     7  H    1.472963
     8  H    1.277949
     9  H    1.377360
    10  H    1.092362
    11  C   -3.749048
    12  H    1.734471
    13  H    1.224106
    14  H    1.118589
    15  H    1.255438
 Sum of Mulliken charges =  -0.00000

 Dipole moment (field-independent basis, Debye):
    X=             -0.3729    Y=             -0.1875    Z=              0.4347  Tot=              0.6026

 Test job not archived.
 1\1\GINC-SE332\SP\RHF\Aug-CC-pVDZ\C4H10O1\OHZDE\08-Apr-2025\0\\#t hf a
 ug-cc-pvdz iop(5/13=1,5/36=2,99/5=2) pseudo=read geom=check guess=(rea
 d,tcheck) scf=(maxcycle=1)\\title\\0,1\C,0,2.067206,-0.031219,0.111428
 \C,0,0.735431,-0.685641,-0.263126\C,0,-0.479674,0.029914,0.323502\O,0,
 -0.472752,1.357859,-0.216584\H,0,-1.200825,1.844847,0.180651\H,0,0.719
 218,-1.727715,0.074785\H,0,0.62124,-0.702484,-1.353095\H,0,2.224708,-0
 .049024,1.19478\H,0,2.085388,1.010218,-0.213365\H,0,2.907156,-0.552702
 ,-0.355083\C,0,-1.793863,-0.679478,0.000315\H,0,-0.359724,0.080261,1.4

 Normal termination of Gaussian 16 at Tue Apr  8 22:48:46 2025.
