 Gaussian 16, Revision C.01,

 ----------------------------------------------------------------------
 #t hf aug-cc-pvdz symm=none int=(grid=ultrafine) guess=(read,tcheck) s
 table=opt
 ----------------------------------------------------------------------
 -----
 title
 -----
 Symbolic Z-matrix:
 Charge =  0 Multiplicity = 2

 SCF Done:  E(UHF) =  -479.527326470     A.U. after   15 cycles
 Normal termination of Gaussian 16 at Tue Apr  8 23:43:20 2025.
 Gaussian 16:  ES64L-G16RevC.01  3-Jul-2019

 ----------------------------------------------------------------------
 #t hf aug-cc-pvdz iop(5/13=1,5/36=2,99/5=2) pseudo=read geom=check gue
 ss=(read,tcheck) scf=(maxcycle=1)
 ----------------------------------------------------------------------
 -----
 title
 -----
 Structure from the checkpoint file:  "BDE49_nonexpt_1677_mol2.chk"
 Charge =  0 Multiplicity = 2

                         Standard orientation:
 ---------------------------------------------------------------------
 Center     Atomic      Atomic             Coordinates (Angstroms)
 Number     Number       Type             X           Y           Z
 ---------------------------------------------------------------------
      1         14           0       -0.065488   -0.013760   -0.402501
      2          8           0       -0.530884    1.458431    0.187750
      3          6           0        1.716164   -0.215793    0.163399
      4          1           0        2.122889   -1.180423   -0.148993
      5          1           0        1.753954   -0.151971    1.256117
      6          1           0        2.340894    0.576544   -0.255398
      7          1           0       -1.472143    1.650693    0.203762
      8          8           0       -1.082355   -1.139426    0.286361
      9          1           0       -1.219830   -1.959489   -0.193764
 ---------------------------------------------------------------------

 SCF Done:  E(UHF) =  -480.493627124     A.U. after    2 cycles

 The electronic state is 2-A.
 Alpha  occ. eigenvalues --  -76.24622 -21.07825 -21.07377 -11.35065  -5.58739
 Alpha  occ. eigenvalues --   -2.25643  -2.23254  -2.19499  -1.68253  -1.63735
 Alpha  occ. eigenvalues --   -1.03842  -0.70607  -0.60989  -0.56934  -0.55615
 Alpha  occ. eigenvalues --   -0.51692  -0.45883  -0.41238  -0.40124  -0.37204
 Alpha  occ. eigenvalues --   -0.24475
 Alpha virt. eigenvalues --    0.03821   0.05439   0.05612   0.06774   0.06923
 Alpha virt. eigenvalues --    0.07397   0.08496   0.09340   0.13283   0.15523
 Alpha virt. eigenvalues --    0.15938   0.17048   0.17255   0.18424   0.20880

  Beta  occ. eigenvalues --  -76.24137 -21.07455 -21.07049 -11.34726  -5.57940
  Beta  occ. eigenvalues --   -2.25131  -2.22784  -2.16516  -1.67373  -1.62965
  Beta  occ. eigenvalues --   -1.02798  -0.68511  -0.60787  -0.55667  -0.55381
  Beta  occ. eigenvalues --   -0.48946  -0.44139  -0.39466  -0.38805  -0.36280
  Beta virt. eigenvalues --    0.02337   0.05588   0.05741   0.06748   0.06896
  Beta virt. eigenvalues --    0.07302   0.07919   0.09264   0.10156   0.14712
  Beta virt. eigenvalues --    0.16549   0.17002   0.17336   0.18595   0.19888

 Mulliken charges and spin densities:
               1          2
     1  Si   4.485394   1.019762
     2  O   -2.749371   0.003766
     3  C   -5.054716   0.071203
     4  H    1.278762  -0.030653
     5  H    1.203426  -0.014528
     6  H    1.276386  -0.001792
     7  H    1.104287   0.002865
     8  O   -2.533931  -0.028943
     9  H    0.989763  -0.021680
 Sum of Mulliken charges =   0.00000   1.00000

 Dipole moment (field-independent basis, Debye):
    X=             -0.4623    Y=             -0.4849    Z=             -0.0915  Tot=              0.6762
                          Isotropic Fermi Contact Couplings
        Atom                 a.u.       MegaHertz       Gauss      10(-4) cm-1
     1  Si(29)             0.49352    -438.60202    -156.50411    -146.30189
     2  O(17)              0.03337     -20.23162      -7.21914      -6.74854
     3  C(13)              0.06848      76.98024      27.46846      25.67784
     4  H(1)              -0.00145      -6.49638      -2.31807      -2.16696
     5  H(1)               0.00378      16.90187       6.03101       5.63786
     6  H(1)              -0.00153      -6.82673      -2.43595      -2.27715
     7  H(1)              -0.00120      -5.36720      -1.91515      -1.79031
     8  O(17)              0.03780     -22.91501      -8.17664      -7.64362

 Normal termination of Gaussian 16 at Tue Apr  8 23:43:25 2025.
