 Gaussian 16, Revision C.01,

 ----------------------------------------------------------------------
 #t hf aug-cc-pvdz symm=none int=(grid=ultrafine) guess=(read,tcheck) s
 table=(opt,rrhf)
 ----------------------------------------------------------------------
 -----
 title
 -----
 Symbolic Z-matrix:
 Charge =  0 Multiplicity = 1

 SCF Done:  E(RHF) =  -1764.93936476     A.U. after   18 cycles
 Normal termination of Gaussian 16 at Wed Apr  9 00:55:56 2025.
 Gaussian 16:  ES64L-G16RevC.01  3-Jul-2019

 ----------------------------------------------------------------------
 #t hf aug-cc-pvdz iop(5/13=1,5/36=2,99/5=2) pseudo=read geom=check gue
 ss=(read,tcheck) scf=(maxcycle=1)
 ----------------------------------------------------------------------
 -----
 title
 -----
 Structure from the checkpoint file:  "BDE49_nonexpt_903_mol1.chk"
 Charge =  0 Multiplicity = 1

                         Standard orientation:
 ---------------------------------------------------------------------
 Center     Atomic      Atomic             Coordinates (Angstroms)
 Number     Number       Type             X           Y           Z
 ---------------------------------------------------------------------
      1          6           0       -3.507753   -0.082520    0.000044
      2          6           0       -3.035420    1.225235   -0.000031
      3          6           0       -1.664460    1.434344   -0.000102
      4          6           0       -2.655434   -1.179380    0.000051
      5          6           0       -1.283803   -0.958843   -0.000021
      6          6           0       -0.778626    0.347166   -0.000099
      7          1           0       -3.737860    2.046684   -0.000034
      8          1           0       -1.258811    2.437245   -0.000161
      9          1           0       -3.070211   -2.177301    0.000113
     10          1           0       -0.615385   -1.809135   -0.000014
     11          6           0        0.687010    0.673761   -0.000178
     12         16           0        1.780565   -0.776614   -0.000215
     13          5           0        3.536795   -0.207168   -0.000126
     14         16           0        4.661003   -1.641039   -0.000028
     15          8           0        1.073779    1.818322   -0.000187
     16          7           0       -4.974094   -0.315478    0.000120
     17          8           0       -5.359210   -1.475258    0.000185
     18          8           0       -5.698966    0.668261    0.000113
     19         16           0        4.202021    1.463665    0.000271
     20          1           0        5.810357   -0.941936    0.000186
     21          1           0        3.015249    2.103261    0.000378
 ---------------------------------------------------------------------

 SCF Done:  E(RHF) =  -1768.11268891     A.U. after    2 cycles

 The electronic state is 1-A.
 Alpha  occ. eigenvalues --  -75.72323 -75.70960 -75.70224 -21.11057 -21.10935
 Alpha  occ. eigenvalues --  -21.09996 -16.01597 -13.19710 -13.18332 -13.17466
 Alpha  occ. eigenvalues --  -13.15568 -13.12352 -13.10486 -13.06434 -13.05366
 Alpha  occ. eigenvalues --  -13.04079 -11.57766 -11.56253 -11.50257 -11.49261
 Alpha  occ. eigenvalues --  -11.48915 -11.46490 -11.42617  -8.06608  -8.04900
 Alpha  occ. eigenvalues --   -8.04166  -7.70166  -2.01381  -1.76770  -1.70690
 Alpha  occ. eigenvalues --   -1.40274  -1.26529  -1.21757  -1.15407  -1.14055
 Alpha  occ. eigenvalues --   -1.10956  -1.04155  -0.92692  -0.89283  -0.82287
 Alpha  occ. eigenvalues --   -0.75572  -0.71279  -0.69151  -0.67557  -0.65617
 Alpha  occ. eigenvalues --   -0.64893  -0.63482  -0.59759  -0.58000  -0.55950
 Alpha  occ. eigenvalues --   -0.54752  -0.52872  -0.51333  -0.49410  -0.47493
 Alpha  occ. eigenvalues --   -0.39176  -0.38017  -0.37883  -0.37211  -0.37140
 Alpha  occ. eigenvalues --   -0.34017  -0.32696  -0.32681  -0.28976  -0.27970
 Alpha  occ. eigenvalues --   -0.25891
 Alpha virt. eigenvalues --    0.01607   0.01950   0.02688   0.02810   0.03858
 Alpha virt. eigenvalues --    0.05145   0.06248   0.06386   0.07594   0.08189
 Alpha virt. eigenvalues --    0.08439   0.08962   0.09855   0.10154   0.10732

 Mulliken charges:
               1
     1  C    0.302667
     2  C   -1.885121
     3  C   -2.574461
     4  C   -3.140528
     5  C    2.154387
     6  C    4.268271
     7  H    1.822121
     8  H    1.803472
     9  H    1.807808
    10  H    2.167175
    11  C   -0.835698
    12  S   -0.523743
    13  B    4.461410
    14  S   -2.719935
    15  O   -3.902349
    16  N    3.364204
    17  O   -2.983512
    18  O   -3.003329
    19  S   -2.714050
    20  H    0.831881
    21  H    1.299330
 Sum of Mulliken charges =   0.00000

 Dipole moment (field-independent basis, Debye):
    X=              2.6611    Y=             -1.5515    Z=              0.0005  Tot=              3.0804

 Test job not archived.
 1\1\GINC-SE059\SP\RHF\Aug-CC-pVDZ\C7H6B1N1O3S3\OHZDE\09-Apr-2025\0\\#t
  hf aug-cc-pvdz iop(5/13=1,5/36=2,99/5=2) pseudo=read geom=check guess
 =(read,tcheck) scf=(maxcycle=1)\\title\\0,1\C,0,-3.507753,-0.08252,0.0
 00044\C,0,-3.03542,1.225235,-0.000031\C,0,-1.66446,1.434344,-0.000102\
 C,0,-2.655434,-1.17938,0.000051\C,0,-1.283803,-0.958843,-0.000021\C,0,
 -0.778626,0.347166,-0.000099\H,0,-3.73786,2.046684,-0.000034\H,0,-1.25
 8811,2.437245,-0.000161\H,0,-3.070211,-2.177301,0.000113\H,0,-0.615385
 ,-1.809135,-0.000014\C,0,0.68701,0.673761,-0.000178\S,0,1.780565,-0.77

 Normal termination of Gaussian 16 at Wed Apr  9 00:56:16 2025.
