 Gaussian 16, Revision C.01,

 ----------------------------------------------------------------------
 #t hf aug-cc-pvdz symm=none int=(grid=ultrafine) guess=(read,tcheck) s
 table=(opt,rrhf)
 ----------------------------------------------------------------------
 -----
 title
 -----
 Symbolic Z-matrix:
 Charge =  0 Multiplicity = 1

 SCF Done:  E(RHF) =  -1146.72062812     A.U. after   14 cycles
 Normal termination of Gaussian 16 at Tue Apr  8 23:10:50 2025.
 Gaussian 16:  ES64L-G16RevC.01  3-Jul-2019

 ----------------------------------------------------------------------
 #t hf aug-cc-pvdz iop(5/13=1,5/36=2,99/5=2) pseudo=read geom=check gue
 ss=(read,tcheck) scf=(maxcycle=1)
 ----------------------------------------------------------------------
 -----
 title
 -----
 Structure from the checkpoint file:  "BDE49_expt_624_mol1.chk"
 Charge =  0 Multiplicity = 1

                         Standard orientation:
 ---------------------------------------------------------------------
 Center     Atomic      Atomic             Coordinates (Angstroms)
 Number     Number       Type             X           Y           Z
 ---------------------------------------------------------------------
      1          6           0        0.082145   -0.201570    0.351595
      2          8           0       -0.241103    0.970892    0.993554
      3          8           0       -0.478341    2.045760    0.065647
      4          1           0       -1.421164    1.916253   -0.129063
      5          6           0        0.351262   -1.223063    1.437820
      6          1           0        1.193035   -0.882200    2.041529
      7          1           0        0.592152   -2.182979    0.985449
      8          1           0       -0.534594   -1.325237    2.065281
      9         17           0       -1.329888   -0.756866   -0.695117
     10         17           0        1.525517   -0.014384   -0.726842
 ---------------------------------------------------------------------

 SCF Done:  E(RHF) =  -1148.20200450     A.U. after    2 cycles

 The electronic state is 1-A.
 Alpha  occ. eigenvalues --  -99.90363 -99.90032 -21.14945 -21.14234 -11.55777
 Alpha  occ. eigenvalues --  -11.40960 -10.47661 -10.47364  -9.67580  -9.67250
 Alpha  occ. eigenvalues --   -9.66873  -9.66767  -9.66490  -9.66407  -1.99697
 Alpha  occ. eigenvalues --   -1.51633  -1.34953  -1.29129  -1.12017  -0.88497
 Alpha  occ. eigenvalues --   -0.72451  -0.69280  -0.67202  -0.62680  -0.58012
 Alpha  occ. eigenvalues --   -0.56167  -0.53094  -0.51344  -0.49466  -0.49256
 Alpha  occ. eigenvalues --   -0.45547  -0.37843  -0.36070
 Alpha virt. eigenvalues --    0.03201   0.04289   0.05717   0.06060   0.06913
 Alpha virt. eigenvalues --    0.08261   0.09261   0.11219   0.13028   0.13308
 Alpha virt. eigenvalues --    0.14210   0.15040   0.15988   0.16555   0.16870

 Mulliken charges:
               1
     1  C    0.962252
     2  O   -1.895418
     3  O   -0.703517
     4  H    0.859698
     5  C   -3.150173
     6  H    1.258162
     7  H    1.231373
     8  H    1.254714
     9  Cl   0.091434
    10  Cl   0.091475
 Sum of Mulliken charges =  -0.00000

 Dipole moment (field-independent basis, Debye):
    X=             -0.5845    Y=              0.6233    Z=              2.1113  Tot=              2.2777

 Test job not archived.
 1\1\GINC-SE398\SP\RHF\Aug-CC-pVDZ\C2H4Cl2O2\OHZDE\08-Apr-2025\0\\#t hf
  aug-cc-pvdz iop(5/13=1,5/36=2,99/5=2) pseudo=read geom=check guess=(r
 ead,tcheck) scf=(maxcycle=1)\\title\\0,1\C,0,0.082145,-0.20157,0.35159
 5\O,0,-0.241105,0.970891,0.993554\O,0,-0.478345,2.045759,0.065647\H,0,
 -1.421168,1.91625,-0.129063\C,0,0.351264,-1.223063,1.43782\H,0,1.19303
 7,-0.882198,2.041529\H,0,0.592156,-2.182978,0.985449\H,0,-0.534591,-1.
 325238,2.065281\Cl,0,-1.329887,-0.756869,-0.695117\Cl,0,1.525517,-0.01
 4381,-0.726842\\Version=ES64L-G16RevC.01\State=1-A\HF=-1148.2020045\RM

 Normal termination of Gaussian 16 at Tue Apr  8 23:10:53 2025.
