 Gaussian 16, Revision C.01,

 ----------------------------------------------------------------------
 #t hf aug-cc-pvdz symm=none int=(grid=ultrafine) guess=(read,tcheck) s
 table=opt
 ----------------------------------------------------------------------
 -----
 title
 -----
 Symbolic Z-matrix:
 Charge =  0 Multiplicity = 2

 SCF Done:  E(UHF) =  -710.930053893     A.U. after   17 cycles
 Normal termination of Gaussian 16 at Wed Apr  9 00:33:05 2025.
 Gaussian 16:  ES64L-G16RevC.01  3-Jul-2019

 ----------------------------------------------------------------------
 #t hf aug-cc-pvdz iop(5/13=1,5/36=2,99/5=2) pseudo=read geom=check gue
 ss=(read,tcheck) scf=(maxcycle=1)
 ----------------------------------------------------------------------
 -----
 title
 -----
 Structure from the checkpoint file:  "BDE49_nonexpt_404_mol2.chk"
 Charge =  0 Multiplicity = 2

                         Standard orientation:
 ---------------------------------------------------------------------
 Center     Atomic      Atomic             Coordinates (Angstroms)
 Number     Number       Type             X           Y           Z
 ---------------------------------------------------------------------
      1          9           0       -2.405809    0.226102   -0.000029
      2          5           0       -1.283072    0.868500   -0.000025
      3         16           0        0.357223   -0.163885    0.000012
      4          8           0        0.414023   -0.874208   -1.269715
      5          6           0        1.662595    1.063978   -0.000058
      6          8           0        0.414039   -0.874081    1.269810
      7          1           0        1.575543    1.670178   -0.901112
      8          1           0        2.600915    0.506743   -0.000034
      9          1           0        1.575553    1.670271    0.900935
 ---------------------------------------------------------------------

 SCF Done:  E(UHF) =  -712.435322459     A.U. after    2 cycles

 The electronic state is 2-A.
 Alpha  occ. eigenvalues --  -75.88716 -29.31296 -21.05544 -21.05524 -13.50572
 Alpha  occ. eigenvalues --  -13.38713 -13.31437 -11.43319  -8.23769  -7.75541
 Alpha  occ. eigenvalues --   -1.83519  -1.65565  -1.17511  -1.05750  -0.90120
 Alpha  occ. eigenvalues --   -0.67598  -0.64036  -0.61003  -0.57646  -0.53108
 Alpha  occ. eigenvalues --   -0.50388  -0.44786  -0.44620  -0.42591  -0.40385
 Alpha  occ. eigenvalues --   -0.37662  -0.36150  -0.23453
 Alpha virt. eigenvalues --    0.02123   0.02972   0.03585   0.06097   0.07371
 Alpha virt. eigenvalues --    0.07442   0.08611   0.09210   0.13144   0.13911
 Alpha virt. eigenvalues --    0.14561   0.14744   0.16093   0.17280   0.17393

  Beta  occ. eigenvalues --  -75.88561 -29.31045 -21.05359 -21.05339 -13.50532
  Beta  occ. eigenvalues --  -13.38438 -13.30854 -11.43328  -8.23555  -7.73600
  Beta  occ. eigenvalues --   -1.83042  -1.65101  -1.16888  -1.03138  -0.88573
  Beta  occ. eigenvalues --   -0.67237  -0.64027  -0.59890  -0.56763  -0.49619
  Beta  occ. eigenvalues --   -0.46005  -0.44268  -0.44117  -0.39781  -0.38907
  Beta  occ. eigenvalues --   -0.35972  -0.35620
  Beta virt. eigenvalues --    0.01454   0.03233   0.03325   0.05482   0.06515
  Beta virt. eigenvalues --    0.07516   0.07711   0.10389   0.10642   0.13239
  Beta virt. eigenvalues --    0.14680   0.14865   0.15181   0.16373   0.17452

 Mulliken charges and spin densities:
               1          2
     1  F   -0.300942  -0.016095
     2  B    0.674114   0.917870
     3  S    4.872597  -0.019208
     4  O   -2.466777   0.060205
     5  C   -4.469176   0.008775
     6  O   -2.466780   0.060203
     7  H    1.419783  -0.002957
     8  H    1.317390  -0.005834
     9  H    1.419791  -0.002958
 Sum of Mulliken charges =  -0.00000   1.00000

 Dipole moment (field-independent basis, Debye):
    X=             -2.8029    Y=             -0.3703    Z=             -0.0001  Tot=              2.8272
                          Isotropic Fermi Contact Couplings
        Atom                 a.u.       MegaHertz       Gauss      10(-4) cm-1
     1  F(19)              0.03276     137.83745      49.18383      45.97762
     2  B(11)              0.19497     279.65915      99.78934      93.28425
     3  S(33)              0.43239     148.51298      52.99313      49.53860
     4  O(17)              0.01454      -8.81400      -3.14506      -2.94003
     5  C(13)             -0.00459      -5.15668      -1.84003      -1.72008
     6  O(17)              0.01454      -8.81338      -3.14483      -2.93983
     7  H(1)              -0.00000      -0.01395      -0.00498      -0.00465
     8  H(1)              -0.00065      -2.91376      -1.03970      -0.97193

 Normal termination of Gaussian 16 at Wed Apr  9 00:33:08 2025.
