 Gaussian 16, Revision C.01,

 ----------------------------------------------------------------------
 #t hf aug-cc-pvdz symm=none int=(grid=ultrafine) guess=(read,tcheck) s
 table=opt
 ----------------------------------------------------------------------
 -----
 title
 -----
 Symbolic Z-matrix:
 Charge =  0 Multiplicity = 2

 SCF Done:  E(UHF) =  -445.585186934     A.U. after   15 cycles

 1\1\GINC-SE165\Stability\UHF\Aug-CC-pVDZ\C4H9Si1\OHZDE\09-Apr-2025\0\\
 #t hf aug-cc-pvdz symm=none int=(grid=ultrafine) guess=(read,tcheck) s
 table=opt\\title\\0,2\C,0,0.08041,-0.018445,-0.503911\C,0,-0.858013,1.
 094263,0.091834\C,0,-0.941531,-1.079706,0.018086\C,0,-2.000747,0.04648
 3,0.143172\H,0,-0.657557,-1.476418,0.996957\H,0,-1.165802,-1.919045,-0
 .642617\H,0,-2.634445,0.101815,-0.745401\H,0,-2.639657,0.042292,1.0288
 \H,0,-1.007711,1.987487,-0.517296\H,0,-0.546309,1.404017,1.092764\Si,0
 ,1.879179,-0.09544,0.055188\H,0,0.042742,0.023631,-1.597019\H,0,1.9584

 Normal termination of Gaussian 16 at Wed Apr  9 00:46:51 2025.
 Gaussian 16:  ES64L-G16RevC.01  3-Jul-2019

 ----------------------------------------------------------------------
 #t hf aug-cc-pvdz iop(5/13=1,5/36=2,99/5=2) pseudo=read geom=check gue
 ss=(read,tcheck) scf=(maxcycle=1)
 ----------------------------------------------------------------------
 -----
 title
 -----
 Structure from the checkpoint file:  "BDE49_nonexpt_807_mol2.chk"
 Charge =  0 Multiplicity = 2

                         Standard orientation:
 ---------------------------------------------------------------------
 Center     Atomic      Atomic             Coordinates (Angstroms)
 Number     Number       Type             X           Y           Z
 ---------------------------------------------------------------------
      1          6           0        0.080410   -0.018445   -0.503911
      2          6           0       -0.858013    1.094263    0.091834
      3          6           0       -0.941531   -1.079706    0.018086
      4          6           0       -2.000747    0.046483    0.143172
      5          1           0       -0.657557   -1.476418    0.996957
      6          1           0       -1.165803   -1.919045   -0.642617
      7          1           0       -2.634445    0.101816   -0.745401
      8          1           0       -2.639657    0.042293    1.028800
      9          1           0       -1.007711    1.987487   -0.517296
     10          1           0       -0.546309    1.404017    1.092764
     11         14           0        1.879179   -0.095440    0.055188
     12          1           0        0.042742    0.023631   -1.597019
     13          1           0        1.958471   -0.160345    1.541206
     14          1           0        2.661054    1.077153   -0.425110
 ---------------------------------------------------------------------

 SCF Done:  E(UHF) =  -446.528504504     A.U. after    2 cycles

 The electronic state is 2-A.
 Alpha  occ. eigenvalues --  -76.21471 -11.47935 -11.39056 -11.37889 -11.33933
 Alpha  occ. eigenvalues --   -5.54894  -2.19068  -2.17056  -2.16333  -1.31608
 Alpha  occ. eigenvalues --   -0.95423  -0.95257  -0.79907  -0.73809  -0.66264
 Alpha  occ. eigenvalues --   -0.60982  -0.54198  -0.51340  -0.48619  -0.46196
 Alpha  occ. eigenvalues --   -0.43460  -0.41044  -0.36977  -0.25802
 Alpha virt. eigenvalues --    0.03983   0.05342   0.05642   0.05782   0.05811
 Alpha virt. eigenvalues --    0.06144   0.06517   0.06852   0.07672   0.09177
 Alpha virt. eigenvalues --    0.09775   0.10672   0.13077   0.13660   0.14088

  Beta  occ. eigenvalues --  -76.20933 -11.47894 -11.38988 -11.37875 -11.33893
  Beta  occ. eigenvalues --   -5.54055  -2.18312  -2.16431  -2.12967  -1.31403
  Beta  occ. eigenvalues --   -0.95247  -0.94817  -0.79153  -0.70783  -0.66178
  Beta  occ. eigenvalues --   -0.60330  -0.54139  -0.51037  -0.47967  -0.45609
  Beta  occ. eigenvalues --   -0.43328  -0.40779  -0.35803
  Beta virt. eigenvalues --    0.03780   0.04373   0.05522   0.05780   0.05851
  Beta virt. eigenvalues --    0.05902   0.06149   0.06699   0.07269   0.09220
  Beta virt. eigenvalues --    0.09542   0.10326   0.10908   0.13621   0.13958

 Mulliken charges and spin densities:
               1          2
     1  C   -1.764160  -0.107844
     2  C   -2.652611   0.022693
     3  C   -2.589826   0.064110
     4  C   -2.821025  -0.014681
     5  H    1.384855  -0.017332
     6  H    1.219866   0.001555
     7  H    1.358783  -0.000633
     8  H    1.208117  -0.000328
     9  H    1.250487  -0.005083
    10  H    1.487135  -0.010139
    11  Si   3.554349   1.104801
    12  H    1.498992  -0.019316
    13  H   -1.582262  -0.016980
    14  H   -1.552700  -0.000823
 Sum of Mulliken charges =   0.00000   1.00000

 Dipole moment (field-independent basis, Debye):
    X=             -1.2236    Y=             -0.1824    Z=             -0.5216  Tot=              1.3426
                          Isotropic Fermi Contact Couplings
        Atom                 a.u.       MegaHertz       Gauss      10(-4) cm-1
     1  C(13)              0.00737       8.27999       2.95450       2.76191
     2  C(13)              0.02209      24.83757       8.86266       8.28492
     3  C(13)              0.00231       2.59424       0.92569       0.86534
     4  C(13)              0.00080       0.90331       0.32232       0.30131
     5  H(1)              -0.00010      -0.42826      -0.15281      -0.14285
     6  H(1)              -0.00012      -0.54720      -0.19525      -0.18252
     7  H(1)               0.00003       0.14584       0.05204       0.04865
     8  H(1)               0.00018       0.81040       0.28917       0.27032

 Normal termination of Gaussian 16 at Wed Apr  9 00:46:57 2025.
