 Gaussian 16, Revision C.01,

 ----------------------------------------------------------------------
 #t hf aug-cc-pvdz symm=none int=(grid=ultrafine) guess=(read,tcheck) s
 table=(opt,rrhf)
 ----------------------------------------------------------------------
 -----
 title
 -----
 Symbolic Z-matrix:
 Charge =  0 Multiplicity = 1

 SCF Done:  E(RHF) =  -1687.51736066     A.U. after   15 cycles
 Normal termination of Gaussian 16 at Wed Apr  9 00:53:23 2025.
 Gaussian 16:  ES64L-G16RevC.01  3-Jul-2019

 ----------------------------------------------------------------------
 #t hf aug-cc-pvdz iop(5/13=1,5/36=2,99/5=2) pseudo=read geom=check gue
 ss=(read,tcheck) scf=(maxcycle=1)
 ----------------------------------------------------------------------
 -----
 title
 -----
 Structure from the checkpoint file:  "BDE49_nonexpt_930_mol1.chk"
 Charge =  0 Multiplicity = 1

                         Standard orientation:
 ---------------------------------------------------------------------
 Center     Atomic      Atomic             Coordinates (Angstroms)
 Number     Number       Type             X           Y           Z
 ---------------------------------------------------------------------
      1         17           0       -0.203738    2.161826   -0.130922
      2          7           0       -0.012527    0.451381   -0.413196
      3         16           0        1.539688   -0.204431    0.183175
      4         16           0       -1.470904   -0.474484   -0.176519
      5          8           0        2.442485    0.910797    0.181097
      6          8           0        1.297892   -0.973043    1.377649
      7          8           0       -2.500778    0.218275   -0.893513
      8          8           0       -1.066368   -1.813218   -0.522756
      9          6           0        1.932343   -1.298441   -1.169538
     10          1           0        2.891972   -1.746584   -0.907689
     11          1           0        2.011996   -0.696881   -2.072305
     12          1           0        1.147912   -2.047025   -1.245185
     13          6           0       -1.816532   -0.392933    1.573474
     14          1           0       -1.969608    0.649755    1.846857
     15          1           0       -0.978742   -0.837135    2.106005
     16          1           0       -2.733541   -0.964441    1.720442
 ---------------------------------------------------------------------

 SCF Done:  E(RHF) =  -1690.21905636     A.U. after    2 cycles

 The electronic state is 1-A.
 Alpha  occ. eigenvalues --  -99.95338 -75.93752 -75.93310 -21.08266 -21.08253
 Alpha  occ. eigenvalues --  -21.07811 -21.07773 -15.82376 -13.57133 -13.56818
 Alpha  occ. eigenvalues --  -13.47225 -13.44829 -13.40740 -13.34609 -11.44491
 Alpha  occ. eigenvalues --  -11.44252 -10.52386  -9.72302  -9.71513  -9.71301
 Alpha  occ. eigenvalues --   -8.28830  -8.28480  -1.87841  -1.86844  -1.69080
 Alpha  occ. eigenvalues --   -1.68431  -1.49362  -1.25563  -1.18247  -1.13908
 Alpha  occ. eigenvalues --   -0.96565  -0.87428  -0.72839  -0.71673  -0.68585
 Alpha  occ. eigenvalues --   -0.65231  -0.64528  -0.62452  -0.61764  -0.60336
 Alpha  occ. eigenvalues --   -0.57727  -0.53340  -0.50362  -0.48991  -0.46190
 Alpha  occ. eigenvalues --   -0.44762  -0.42838  -0.41527  -0.40592  -0.39966
 Alpha  occ. eigenvalues --   -0.39405  -0.39051  -0.37531
 Alpha virt. eigenvalues --    0.01515   0.03094   0.03604   0.05395   0.05896
 Alpha virt. eigenvalues --    0.06562   0.06782   0.08820   0.10548   0.10906
 Alpha virt. eigenvalues --    0.11379   0.12632   0.12688   0.12887   0.13861

 Mulliken charges:
               1
     1  Cl   0.376069
     2  N   -2.348479
     3  S    6.347931
     4  S    6.422697
     5  O   -2.596990
     6  O   -2.618915
     7  O   -2.566660
     8  O   -2.576486
     9  C   -4.530590
    10  H    1.352439
    11  H    1.403882
    12  H    1.581139
    13  C   -4.495573
    14  H    1.394787
    15  H    1.527384
    16  H    1.327367
 Sum of Mulliken charges =  -0.00000

 Dipole moment (field-independent basis, Debye):
    X=              0.3559    Y=             -2.0256    Z=              0.4565  Tot=              2.1067

 Test job not archived.
 1\1\GINC-SE106\SP\RHF\Aug-CC-pVDZ\C2H6Cl1N1O4S2\OHZDE\09-Apr-2025\0\\#
 t hf aug-cc-pvdz iop(5/13=1,5/36=2,99/5=2) pseudo=read geom=check gues
 s=(read,tcheck) scf=(maxcycle=1)\\title\\0,1\Cl,0,-0.203738,2.161826,-
 0.130922\N,0,-0.012527,0.451381,-0.413196\S,0,1.539688,-0.204431,0.183
 175\S,0,-1.470904,-0.474484,-0.176519\O,0,2.442485,0.910797,0.181097\O
 ,0,1.297892,-0.973043,1.377649\O,0,-2.500778,0.218275,-0.893513\O,0,-1
 .066368,-1.813218,-0.522756\C,0,1.932343,-1.298441,-1.169538\H,0,2.891
 972,-1.746584,-0.907689\H,0,2.011996,-0.696881,-2.072305\H,0,1.147912,

 Normal termination of Gaussian 16 at Wed Apr  9 00:53:33 2025.
