 Gaussian 16, Revision C.01,

 ----------------------------------------------------------------------
 #t hf aug-cc-pvdz symm=none int=(grid=ultrafine) guess=(read,tcheck) s
 table=(opt,rrhf)
 ----------------------------------------------------------------------
 -----
 title
 -----
 Symbolic Z-matrix:
 Charge =  0 Multiplicity = 1

 SCF Done:  E(RHF) =  -521.128788827     A.U. after   13 cycles
 Normal termination of Gaussian 16 at Wed Apr  9 00:08:54 2025.
 Gaussian 16:  ES64L-G16RevC.01  3-Jul-2019

 ----------------------------------------------------------------------
 #t hf aug-cc-pvdz iop(5/13=1,5/36=2,99/5=2) pseudo=read geom=check gue
 ss=(read,tcheck) scf=(maxcycle=1)
 ----------------------------------------------------------------------
 -----
 title
 -----
 Structure from the checkpoint file:  "BDE49_nonexpt_2283_mol1.chk"
 Charge =  0 Multiplicity = 1

                         Standard orientation:
 ---------------------------------------------------------------------
 Center     Atomic      Atomic             Coordinates (Angstroms)
 Number     Number       Type             X           Y           Z
 ---------------------------------------------------------------------
      1          6           0        1.916268   -0.332665   -0.523051
      2          8           0        0.862328    0.480594   -0.804074
      3         14           0       -0.360905    1.046485    0.185256
      4          6           0       -1.555137   -0.311572    0.682110
      5          6           0        2.252525   -0.838582    0.661533
      6          6           0       -2.241103   -1.028347   -0.494958
      7          1           0       -2.306463    0.153861    1.334033
      8          1           0       -1.025225   -1.036623    1.309921
      9          1           0       -2.805276   -0.326549   -1.115970
     10          1           0       -2.939988   -1.792256   -0.143038
     11          1           0       -1.509619   -1.521677   -1.139892
     12          1           0        2.498353   -0.539199   -1.416002
     13          1           0        1.695185   -0.639682    1.569034
     14          1           0        3.127762   -1.469215    0.739708
     15          1           0       -1.036243    2.063140   -0.646911
     16          1           0        0.220249    1.679663    1.394319
 ---------------------------------------------------------------------

 SCF Done:  E(RHF) =  -522.391550484     A.U. after    2 cycles

 The electronic state is 1-A.
 Alpha  occ. eigenvalues --  -76.22927 -21.06243 -11.45182 -11.39543 -11.37150
 Alpha  occ. eigenvalues --  -11.34777  -5.56734  -2.23585  -2.19731  -2.18716
 Alpha  occ. eigenvalues --   -1.72794  -1.15094  -1.10163  -0.90032  -0.83387
 Alpha  occ. eigenvalues --   -0.70416  -0.65123  -0.61327  -0.58023  -0.57819
 Alpha  occ. eigenvalues --   -0.51285  -0.50199  -0.49441  -0.48852  -0.46686
 Alpha  occ. eigenvalues --   -0.40458  -0.36662  -0.29671
 Alpha virt. eigenvalues --    0.03561   0.05048   0.05411   0.05693   0.05750
 Alpha virt. eigenvalues --    0.06378   0.06622   0.06952   0.08041   0.08388
 Alpha virt. eigenvalues --    0.09124   0.10233   0.11480   0.12360   0.13053

 Mulliken charges:
               1
     1  C    0.957855
     2  O   -3.739745
     3  Si   6.500464
     4  C   -4.282008
     5  C   -3.082020
     6  C   -3.483179
     7  H    1.383693
     8  H    1.503556
     9  H    1.305879
    10  H    1.154271
    11  H    1.307404
    12  H    1.700714
    13  H    1.491751
    14  H    1.286087
    15  H   -2.072449
    16  H   -1.932272
 Sum of Mulliken charges =  -0.00000

 Dipole moment (field-independent basis, Debye):
    X=             -0.5679    Y=             -0.5920    Z=             -0.1915  Tot=              0.8424

 Test job not archived.
 1\1\GINC-SE424\SP\RHF\Aug-CC-pVDZ\C4H10O1Si1\OHZDE\09-Apr-2025\0\\#t h
 f aug-cc-pvdz iop(5/13=1,5/36=2,99/5=2) pseudo=read geom=check guess=(
 read,tcheck) scf=(maxcycle=1)\\title\\0,1\C,0,1.916268,-0.332665,-0.52
 3051\O,0,0.862328,0.480594,-0.804074\Si,0,-0.360905,1.046485,0.185256\
 C,0,-1.555137,-0.311572,0.68211\C,0,2.252525,-0.838582,0.661533\C,0,-2
 .241103,-1.028347,-0.494958\H,0,-2.306463,0.153861,1.334033\H,0,-1.025
 225,-1.036623,1.309921\H,0,-2.805276,-0.326549,-1.11597\H,0,-2.939988,
 -1.792256,-0.143038\H,0,-1.509619,-1.521677,-1.139892\H,0,2.498353,-0.

 Normal termination of Gaussian 16 at Wed Apr  9 00:08:59 2025.
