 Gaussian 16, Revision C.01,

 ----------------------------------------------------------------------
 #t hf aug-cc-pvdz symm=none int=(grid=ultrafine) guess=(read,tcheck) s
 table=(opt,rrhf)
 ----------------------------------------------------------------------
 -----
 title
 -----
 Symbolic Z-matrix:
 Charge =  0 Multiplicity = 1

 SCF Done:  E(RHF) =  -608.673718757     A.U. after   15 cycles
 Normal termination of Gaussian 16 at Wed Apr  9 00:06:34 2025.
 Gaussian 16:  ES64L-G16RevC.01  3-Jul-2019

 ----------------------------------------------------------------------
 #t hf aug-cc-pvdz iop(5/13=1,5/36=2,99/5=2) pseudo=read geom=check gue
 ss=(read,tcheck) scf=(maxcycle=1)
 ----------------------------------------------------------------------
 -----
 title
 -----
 Structure from the checkpoint file:  "BDE49_nonexpt_2240_mol1.chk"
 Charge =  0 Multiplicity = 1

                         Standard orientation:
 ---------------------------------------------------------------------
 Center     Atomic      Atomic             Coordinates (Angstroms)
 Number     Number       Type             X           Y           Z
 ---------------------------------------------------------------------
      1          8           0        0.364090   -0.849281   -0.276203
      2          7           0        1.340580    0.112003    0.001549
      3          8           0        0.967385    1.085089    0.629677
      4          8           0        2.430876   -0.143193   -0.415942
      5         14           0       -1.241640   -0.569079    0.302157
      6          6           0       -2.056298    0.872777   -0.544681
      7          1           0       -1.583568    1.817046   -0.270700
      8          1           0       -3.109595    0.916557   -0.248489
      9          1           0       -2.018812    0.761141   -1.631444
     10          1           0       -1.202047   -0.434928    1.769181
     11          1           0       -1.848095   -1.854311   -0.091761
 ---------------------------------------------------------------------

 SCF Done:  E(RHF) =  -610.184947944     A.U. after    2 cycles

 The electronic state is 1-A.
 Alpha  occ. eigenvalues --  -76.26406 -21.13108 -21.12944 -21.12081 -16.06467
 Alpha  occ. eigenvalues --  -11.37055  -5.60015  -2.26050  -2.22825  -2.21957
 Alpha  occ. eigenvalues --   -2.08201  -1.74242  -1.72615  -1.06472  -0.93812
 Alpha  occ. eigenvalues --   -0.76223  -0.73098  -0.70657  -0.66680  -0.58533
 Alpha  occ. eigenvalues --   -0.58122  -0.50409  -0.48396  -0.45362  -0.40225
 Alpha  occ. eigenvalues --   -0.37869  -0.34710  -0.31893
 Alpha virt. eigenvalues --    0.03109   0.04801   0.05389   0.06121   0.07507
 Alpha virt. eigenvalues --    0.07583   0.07976   0.10354   0.12225   0.13754
 Alpha virt. eigenvalues --    0.14312   0.14837   0.15136   0.15971   0.16767

 Mulliken charges:
               1
     1  O   -2.791419
     2  N    6.628052
     3  O   -2.614020
     4  O   -2.695865
     5  Si   6.433512
     6  C   -4.953964
     7  H    1.307434
     8  H    1.262313
     9  H    1.284332
    10  H   -1.959985
    11  H   -1.900390
 Sum of Mulliken charges =  -0.00000

 Dipole moment (field-independent basis, Debye):
    X=             -1.9998    Y=              0.0301    Z=             -0.4102  Tot=              2.0417

 Test job not archived.
 1\1\GINC-SE461\SP\RHF\Aug-CC-pVDZ\C1H5N1O3Si1\OHZDE\09-Apr-2025\0\\#t
 hf aug-cc-pvdz iop(5/13=1,5/36=2,99/5=2) pseudo=read geom=check guess=
 (read,tcheck) scf=(maxcycle=1)\\title\\0,1\O,0,0.36409,-0.849281,-0.27
 6203\N,0,1.34058,0.112003,0.001549\O,0,0.967385,1.085089,0.629677\O,0,
 2.430876,-0.143193,-0.415942\Si,0,-1.24164,-0.569079,0.302157\C,0,-2.0
 56298,0.872777,-0.544681\H,0,-1.583568,1.817046,-0.2707\H,0,-3.109595,
 0.916557,-0.248489\H,0,-2.018812,0.761141,-1.631444\H,0,-1.202047,-0.4
 34928,1.769181\H,0,-1.848095,-1.854311,-0.091761\\Version=ES64L-G16Rev

 Normal termination of Gaussian 16 at Wed Apr  9 00:06:38 2025.
