 Gaussian 16, Revision C.01,

 ----------------------------------------------------------------------
 #t hf aug-cc-pvdz symm=none int=(grid=ultrafine) guess=(read,tcheck) s
 table=opt
 ----------------------------------------------------------------------
 -----
 title
 -----
 Symbolic Z-matrix:
 Charge =  0 Multiplicity = 2

 SCF Done:  E(UHF) =  -710.037729524     A.U. after   17 cycles
 Normal termination of Gaussian 16 at Tue Apr  8 23:42:28 2025.
 Gaussian 16:  ES64L-G16RevC.01  3-Jul-2019

 ----------------------------------------------------------------------
 #t hf aug-cc-pvdz iop(5/13=1,5/36=2,99/5=2) pseudo=read geom=check gue
 ss=(read,tcheck) scf=(maxcycle=1)
 ----------------------------------------------------------------------
 -----
 title
 -----
 Structure from the checkpoint file:  "BDE49_nonexpt_1674_mol2.chk"
 Charge =  0 Multiplicity = 2

                         Standard orientation:
 ---------------------------------------------------------------------
 Center     Atomic      Atomic             Coordinates (Angstroms)
 Number     Number       Type             X           Y           Z
 ---------------------------------------------------------------------
      1         14           0        1.690232   -0.149125    0.104511
      2         15           0       -0.449925    0.014985   -0.647517
      3          6           0       -1.041270    1.479882    0.358123
      4          1           0       -0.844027    1.379805    1.428157
      5          1           0       -2.119894    1.586160    0.207206
      6          1           0       -0.561471    2.389403   -0.008675
      7          6           0       -1.229187   -1.372811    0.331897
      8          1           0       -2.312032   -1.328642    0.187887
      9          1           0       -1.018025   -1.324052    1.403174
     10          1           0       -0.879165   -2.331598   -0.055609
     11          1           0        2.589396    0.782065   -0.625288
     12          1           0        1.853592    0.067409    1.572617
 ---------------------------------------------------------------------

 SCF Done:  E(UHF) =  -710.793603405     A.U. after    2 cycles

 The electronic state is 2-A.
 Alpha  occ. eigenvalues -- -105.15660 -76.22989 -11.37366 -11.37337  -5.56305
 Alpha  occ. eigenvalues --   -2.74099  -2.18401  -2.18065  -2.17301  -1.46101
 Alpha  occ. eigenvalues --   -1.45010  -1.41193  -1.03761  -0.96932  -0.75439
 Alpha  occ. eigenvalues --   -0.61834  -0.57582  -0.56978  -0.55949  -0.55083
 Alpha  occ. eigenvalues --   -0.47503  -0.30909  -0.20848  -0.14291  -0.01994
 Alpha virt. eigenvalues --    0.04238   0.05667   0.05990   0.06444   0.06772
 Alpha virt. eigenvalues --    0.06926   0.07286   0.07655   0.09074   0.09583
 Alpha virt. eigenvalues --    0.10376   0.11247   0.11730   0.12500   0.13929

  Beta  occ. eigenvalues -- -105.15657 -76.22438 -11.37337 -11.37280  -5.55449
  Beta  occ. eigenvalues --   -2.74082  -2.17731  -2.17412  -2.13687  -1.46094
  Beta  occ. eigenvalues --   -1.44873  -1.41161  -1.03585  -0.96847  -0.71387
  Beta  occ. eigenvalues --   -0.60969  -0.57508  -0.56846  -0.55777  -0.55036
  Beta  occ. eigenvalues --   -0.46970  -0.20504  -0.17063  -0.01865
  Beta virt. eigenvalues --    0.03409   0.04448   0.05758   0.06420   0.06764
  Beta virt. eigenvalues --    0.06908   0.07339   0.07618   0.07961   0.09265
  Beta virt. eigenvalues --    0.10313   0.10615   0.11515   0.12093   0.13097

 Mulliken charges and spin densities:
               1          2
     1  Si   3.077944   1.099189
     2  P    4.675784   0.058307
     3  C   -5.855473  -0.042482
     4  H    1.176227  -0.048424
     5  H    1.138023   0.006489
     6  H    1.227208  -0.022530
     7  C   -5.818020  -0.006308
     8  H    1.174829  -0.011340
     9  H    1.165785   0.012190
    10  H    1.157412  -0.018179
    11  H   -1.643746  -0.015374
    12  H   -1.475973  -0.011538
 Sum of Mulliken charges =   0.00000   1.00000

 Dipole moment (field-independent basis, Debye):
    X=             -3.5679    Y=             -0.3016    Z=             -3.4209  Tot=              4.9521
                          Isotropic Fermi Contact Couplings
        Atom                 a.u.       MegaHertz       Gauss      10(-4) cm-1
     1  Si(29)             0.24226    -215.30300     -76.82547     -71.81735
     2  P(31)              0.01650      29.88423      10.66344       9.96831
     3  C(13)              0.02211      24.85175       8.86772       8.28965
     4  H(1)               0.00002       0.08972       0.03201       0.02993
     5  H(1)               0.00319      14.23854       5.08067       4.74947
     6  H(1)              -0.00024      -1.07729      -0.38440      -0.35934
     7  C(13)             -0.00113      -1.26715      -0.45215      -0.42268
     8  H(1)              -0.00072      -3.21472      -1.14709      -1.07232

 Normal termination of Gaussian 16 at Tue Apr  8 23:42:32 2025.
