 Gaussian 16, Revision C.01,

 ----------------------------------------------------------------------
 #t hf aug-cc-pvdz symm=none int=(grid=ultrafine) guess=(read,tcheck) s
 table=(opt,rrhf)
 ----------------------------------------------------------------------
 -----
 title
 -----
 Symbolic Z-matrix:
 Charge =  0 Multiplicity = 1

 SCF Done:  E(RHF) =  -912.844833640     A.U. after   16 cycles
 Normal termination of Gaussian 16 at Tue Apr  8 23:14:09 2025.
 Gaussian 16:  ES64L-G16RevC.01  3-Jul-2019

 ----------------------------------------------------------------------
 #t hf aug-cc-pvdz iop(5/13=1,5/36=2,99/5=2) pseudo=read geom=check gue
 ss=(read,tcheck) scf=(maxcycle=1)
 ----------------------------------------------------------------------
 -----
 title
 -----
 Structure from the checkpoint file:  "BDE49_expt_446_mol1.chk"
 Charge =  0 Multiplicity = 1

                         Standard orientation:
 ---------------------------------------------------------------------
 Center     Atomic      Atomic             Coordinates (Angstroms)
 Number     Number       Type             X           Y           Z
 ---------------------------------------------------------------------
      1          6           0       -4.114190   -0.369617   -0.652157
      2          6           0       -2.992786    0.342491   -1.062531
      3          6           0       -4.112377   -1.057058    0.559952
      4          6           0       -2.967950   -1.023986    1.353895
      5          6           0       -1.836337   -0.321230    0.951587
      6          6           0       -1.840867    0.370571   -0.264266
      7          7           0       -0.708594    1.065797   -0.733803
      8         16           0        0.538302    1.648835    0.244926
      9          6           0        1.847351    0.440997    0.027262
     10          6           0        1.727472   -0.674079   -0.800009
     11          6           0        3.031668    0.664405    0.736583
     12          6           0        4.090830   -0.228958    0.613078
     13          6           0        2.794172   -1.563631   -0.914260
     14          6           0        3.977582   -1.347257   -0.212354
     15          1           0        0.807156   -0.839928   -1.345376
     16          1           0        2.695187   -2.431172   -1.557440
     17          1           0        4.803626   -2.042487   -0.305703
     18          1           0        3.126285    1.531886    1.382028
     19          1           0        5.006921   -0.049767    1.164841
     20          1           0       -3.006759    0.881423   -2.005106
     21          1           0       -4.996075   -0.379709   -1.283127
     22          1           0       -4.988505   -1.607885    0.880450
     23          1           0       -2.949129   -1.554677    2.299422
     24          1           0       -0.950065   -0.304927    1.572871
     25          1           0       -0.828733    1.559396   -1.605749
 ---------------------------------------------------------------------

 SCF Done:  E(RHF) =  -915.541874663     A.U. after    2 cycles

 The electronic state is 1-A.
 Alpha  occ. eigenvalues --  -75.71970 -15.76753 -13.22686 -13.17757 -13.10245
 Alpha  occ. eigenvalues --  -11.52572 -11.51567 -11.45419 -11.44456 -11.43564
 Alpha  occ. eigenvalues --  -11.43037 -11.41307 -11.41054 -11.40452 -11.40196
 Alpha  occ. eigenvalues --  -11.36709 -11.36158  -8.06031  -1.45783  -1.34916
 Alpha  occ. eigenvalues --   -1.29075  -1.15026  -1.09540  -1.09141  -1.07101
 Alpha  occ. eigenvalues --   -0.99184  -0.87170  -0.86982  -0.85322  -0.82392
 Alpha  occ. eigenvalues --   -0.71919  -0.71307  -0.67507  -0.65113  -0.61674
 Alpha  occ. eigenvalues --   -0.59155  -0.58479  -0.57963  -0.57706  -0.56092
 Alpha  occ. eigenvalues --   -0.52321  -0.51600  -0.49899  -0.45913  -0.45319
 Alpha  occ. eigenvalues --   -0.44891  -0.43471  -0.37356  -0.36987  -0.33481
 Alpha  occ. eigenvalues --   -0.33046  -0.27584  -0.22767
 Alpha virt. eigenvalues --    0.03266   0.04124   0.04870   0.05307   0.05444
 Alpha virt. eigenvalues --    0.05684   0.06019   0.06125   0.07487   0.07825
 Alpha virt. eigenvalues --    0.08197   0.09084   0.10667   0.11258   0.11919

 Mulliken charges:
               1
     1  C   -0.150266
     2  C   -4.572586
     3  C   -3.180767
     4  C   -0.408442
     5  C   -1.786779
     6  C    4.700326
     7  N   -4.416794
     8  S    0.657349
     9  C    3.354211
    10  C   -1.798191
    11  C   -4.433351
    12  C   -1.304090
    13  C   -1.330884
    14  C   -3.214009
    15  H    2.138102
    16  H    1.496668
    17  H    1.554309
    18  H    1.808562
    19  H    1.548886
    20  H    1.740262
    21  H    1.536204
    22  H    1.559627
    23  H    1.536527
    24  H    2.272114
    25  H    0.693013
 Sum of Mulliken charges =  -0.00000

 Dipole moment (field-independent basis, Debye):
    X=              0.1059    Y=              1.0647    Z=             -0.0120  Tot=              1.0700

 Test job not archived.
 1\1\GINC-SE073\SP\RHF\Aug-CC-pVDZ\C12H11N1S1\OHZDE\08-Apr-2025\0\\#t h
 f aug-cc-pvdz iop(5/13=1,5/36=2,99/5=2) pseudo=read geom=check guess=(
 read,tcheck) scf=(maxcycle=1)\\title\\0,1\C,0,-4.11419,-0.369617,-0.65
 2157\C,0,-2.992786,0.342491,-1.062531\C,0,-4.112377,-1.057058,0.559952
 \C,0,-2.96795,-1.023986,1.353895\C,0,-1.836337,-0.32123,0.951587\C,0,-
 1.840867,0.370571,-0.264266\N,0,-0.708594,1.065797,-0.733803\S,0,0.538
 302,1.648835,0.244926\C,0,1.847351,0.440997,0.027262\C,0,1.727472,-0.6
 74079,-0.800009\C,0,3.031668,0.664405,0.736583\C,0,4.09083,-0.228958,0

 Normal termination of Gaussian 16 at Tue Apr  8 23:14:32 2025.
