 Gaussian 16, Revision C.01,

 ----------------------------------------------------------------------
 #t hf aug-cc-pvdz symm=none int=(grid=ultrafine) guess=(read,tcheck) s
 table=(opt,rrhf)
 ----------------------------------------------------------------------
 -----
 title
 -----
 Symbolic Z-matrix:
 Charge =  0 Multiplicity = 1

 SCF Done:  E(RHF) =  -1331.64288157     A.U. after   14 cycles
 Normal termination of Gaussian 16 at Wed Apr  9 00:31:48 2025.
 Gaussian 16:  ES64L-G16RevC.01  3-Jul-2019

 ----------------------------------------------------------------------
 #t hf aug-cc-pvdz iop(5/13=1,5/36=2,99/5=2) pseudo=read geom=check gue
 ss=(read,tcheck) scf=(maxcycle=1)
 ----------------------------------------------------------------------
 -----
 title
 -----
 Structure from the checkpoint file:  "BDE49_nonexpt_2714_mol1.chk"
 Charge =  0 Multiplicity = 1

                         Standard orientation:
 ---------------------------------------------------------------------
 Center     Atomic      Atomic             Coordinates (Angstroms)
 Number     Number       Type             X           Y           Z
 ---------------------------------------------------------------------
      1         16           0        0.944859    1.719619   -0.420462
      2         16           0       -0.944858    1.719625    0.420409
      3          6           0       -1.744451    0.293659   -0.418095
      4          6           0        1.744472    0.293701    0.418111
      5          8           0        1.194917   -0.378157    1.242290
      6          8           0       -1.194866   -0.378271   -1.242197
      7          6           0        3.133494    0.050927   -0.117312
      8          6           0        4.631563   -1.523273   -0.248285
      9          6           0        3.303692   -1.235289   -0.995978
     10          1           0        3.338365   -1.085405   -2.075224
     11          1           0        2.531306   -1.968709   -0.759378
     12          6           0       -3.133498    0.050936    0.117286
     13          6           0       -4.180380   -0.544842   -0.867496
     14          6           0       -3.303750   -1.235223    0.996025
     15          1           0       -3.510192    0.934449    0.638056
     16          6           0        4.180408   -0.544803    0.867464
     17          1           0        5.497343   -1.146649   -0.797512
     18          1           0        3.676314   -1.060319    1.686016
     19          1           0        4.918796    0.147493    1.273925
     20          6           0       -4.631595   -1.523234    0.248296
     21          1           0       -3.676257   -1.060416   -1.685994
     22          1           0       -4.824493   -2.556799   -0.042374
     23          1           0       -5.497392   -1.146562    0.797463
     24          1           0       -3.338464   -1.085273    2.075261
     25          1           0        3.510176    0.934402   -0.638152
     26          1           0       -2.531366   -1.968668    0.759499
     27          1           0       -4.918741    0.147440   -1.274032
     28          1           0        4.824457   -2.556822    0.042442
 ---------------------------------------------------------------------

 SCF Done:  E(RHF) =  -1334.61372130     A.U. after    2 cycles

 The electronic state is 1-A.
 Alpha  occ. eigenvalues --  -75.72190 -75.71962 -21.06971 -21.06960 -13.19905
 Alpha  occ. eigenvalues --  -13.15184 -13.13593 -13.11884 -13.06588 -13.05997
 Alpha  occ. eigenvalues --  -11.52925 -11.52251 -11.50277 -11.50024 -11.40922
 Alpha  occ. eigenvalues --  -11.40903 -11.40488 -11.40464 -11.35870 -11.35796
 Alpha  occ. eigenvalues --   -8.06160  -8.06018  -1.73209  -1.72655  -1.34200
 Alpha  occ. eigenvalues --   -1.33641  -1.23407  -1.09056  -1.01502  -0.97228
 Alpha  occ. eigenvalues --   -0.96656  -0.96404  -0.84233  -0.82071  -0.75061
 Alpha  occ. eigenvalues --   -0.73743  -0.68600  -0.67679  -0.63900  -0.62692
 Alpha  occ. eigenvalues --   -0.59510  -0.58297  -0.55704  -0.55406  -0.54356
 Alpha  occ. eigenvalues --   -0.53473  -0.51234  -0.49755  -0.46599  -0.45693
 Alpha  occ. eigenvalues --   -0.45302  -0.43940  -0.43476  -0.43355  -0.40733
 Alpha  occ. eigenvalues --   -0.40073  -0.34644  -0.29425  -0.28111  -0.25328
 Alpha  occ. eigenvalues --   -0.24051
 Alpha virt. eigenvalues --    0.03893   0.03990   0.05028   0.05193   0.05405
 Alpha virt. eigenvalues --    0.05868   0.05895   0.06058   0.06361   0.06372
 Alpha virt. eigenvalues --    0.07286   0.07295   0.08227   0.08241   0.08877

 Mulliken charges:
               1
     1  S   -0.136662
     2  S   -0.136651
     3  C    3.450407
     4  C    3.450416
     5  O   -3.511250
     6  O   -3.511262
     7  C   -1.250082
     8  C   -3.162121
     9  C   -2.742452
    10  H    1.280374
    11  H    1.537370
    12  C   -1.250065
    13  C   -2.653827
    14  C   -2.742451
    15  H    1.737659
    16  C   -2.653789
    17  H    1.359202
    18  H    1.555657
    19  H    1.272565
    20  C   -3.162099
    21  H    1.555662
    22  H    1.263118
    23  H    1.359200
    24  H    1.280369
    25  H    1.737658
    26  H    1.537367
    27  H    1.272566
    28  H    1.263120
 Sum of Mulliken charges =   0.00000

 Dipole moment (field-independent basis, Debye):
    X=             -0.0000    Y=              0.1412    Z=             -0.0000  Tot=              0.1412

 Test job not archived.
 1\1\GINC-SE038\SP\RHF\Aug-CC-pVDZ\C10H14O2S2\OHZDE\09-Apr-2025\0\\#t h
 f aug-cc-pvdz iop(5/13=1,5/36=2,99/5=2) pseudo=read geom=check guess=(
 read,tcheck) scf=(maxcycle=1)\\title\\0,1\S,0,-0.944859,1.719619,0.420
 462\S,0,0.944858,1.719625,-0.420409\C,0,1.744451,0.293659,0.418095\C,0
 ,-1.744472,0.293701,-0.418111\O,0,-1.194917,-0.378157,-1.24229\O,0,1.1
 94866,-0.378271,1.242197\C,0,-3.133494,0.050927,0.117312\C,0,-4.631563
 ,-1.523273,0.248285\C,0,-3.303692,-1.235289,0.995978\H,0,-3.338365,-1.
 085405,2.075224\H,0,-2.531306,-1.968709,0.759378\C,0,3.133498,0.050936

 Normal termination of Gaussian 16 at Wed Apr  9 00:32:39 2025.
