 Gaussian 16, Revision C.01,

 ----------------------------------------------------------------------
 #t hf aug-cc-pvdz symm=none int=(grid=ultrafine) guess=(read,tcheck) s
 table=(opt,rrhf)
 ----------------------------------------------------------------------
 -----
 title
 -----
 Symbolic Z-matrix:
 Charge =  0 Multiplicity = 1

 SCF Done:  E(RHF) =  -237.436470162     A.U. after   14 cycles
 Normal termination of Gaussian 16 at Wed Apr  9 00:42:59 2025.
 Gaussian 16:  ES64L-G16RevC.01  3-Jul-2019

 ----------------------------------------------------------------------
 #t hf aug-cc-pvdz iop(5/13=1,5/36=2,99/5=2) pseudo=read geom=check gue
 ss=(read,tcheck) scf=(maxcycle=1)
 ----------------------------------------------------------------------
 -----
 title
 -----
 Structure from the checkpoint file:  "BDE49_nonexpt_70_mol1.chk"
 Charge =  0 Multiplicity = 1

                         Standard orientation:
 ---------------------------------------------------------------------
 Center     Atomic      Atomic             Coordinates (Angstroms)
 Number     Number       Type             X           Y           Z
 ---------------------------------------------------------------------
      1          5           0        0.783851    1.175879   -0.247832
      2          5           0       -0.783861    1.175882    0.247825
      3          6           0       -1.826346    0.116889   -0.248704
      4          7           0       -1.845662   -1.094984    0.165919
      5          1           0       -2.622388    0.402850   -0.948506
      6          1           0       -1.067924   -1.287805    0.807370
      7          6           0        1.826339    0.116895    0.248710
      8          7           0        1.845674   -1.094976   -0.165919
      9          1           0        2.622373    0.402862    0.948518
     10          1           0        1.067947   -1.287803   -0.807382
     11          1           0       -1.163623    1.969053    1.061816
     12          1           0        1.163618    1.969059   -1.061813
 ---------------------------------------------------------------------

 SCF Done:  E(RHF) =  -238.505796066     A.U. after    2 cycles

 The electronic state is 1-A.
 Alpha  occ. eigenvalues --  -15.75295 -15.75264 -11.40555 -11.40369  -7.62640
 Alpha  occ. eigenvalues --   -7.61843  -1.34784  -1.33638  -1.01142  -0.91135
 Alpha  occ. eigenvalues --   -0.81397  -0.73448  -0.58694  -0.58493  -0.58084
 Alpha  occ. eigenvalues --   -0.55444  -0.49972  -0.43215  -0.38905  -0.37054
 Alpha  occ. eigenvalues --   -0.34229
 Alpha virt. eigenvalues --    0.01830   0.02241   0.02704   0.03450   0.05664
 Alpha virt. eigenvalues --    0.07307   0.07849   0.08014   0.08032   0.08700
 Alpha virt. eigenvalues --    0.09387   0.10283   0.10489   0.10904   0.12351

 Mulliken charges:
               1
     1  B    4.558255
     2  B    4.558224
     3  C   -1.271402
     4  N   -2.516452
     5  H    1.395112
     6  H    0.796224
     7  C   -1.271402
     8  N   -2.516449
     9  H    1.395112
    10  H    0.796221
    11  H   -2.961715
    12  H   -2.961729
 Sum of Mulliken charges =  -0.00000

 Dipole moment (field-independent basis, Debye):
    X=             -0.0000    Y=              2.6158    Z=             -0.0000  Tot=              2.6158

 Test job not archived.
 1\1\GINC-SE105\SP\RHF\Aug-CC-pVDZ\C2H6B2N2\OHZDE\09-Apr-2025\0\\#t hf
 aug-cc-pvdz iop(5/13=1,5/36=2,99/5=2) pseudo=read geom=check guess=(re
 ad,tcheck) scf=(maxcycle=1)\\title\\0,1\B,0,0.783851,1.175879,-0.24783
 2\B,0,-0.783861,1.175882,0.247825\C,0,-1.826346,0.116889,-0.248704\N,0
 ,-1.845662,-1.094984,0.165919\H,0,-2.622388,0.40285,-0.948506\H,0,-1.0
 67924,-1.287805,0.80737\C,0,1.826339,0.116895,0.24871\N,0,1.845674,-1.
 094976,-0.165919\H,0,2.622373,0.402862,0.948518\H,0,1.067947,-1.287803
 ,-0.807382\H,0,-1.163623,1.969053,1.061816\H,0,1.163618,1.969059,-1.06

 Normal termination of Gaussian 16 at Wed Apr  9 00:43:02 2025.
