 Gaussian 16, Revision C.01,

 ----------------------------------------------------------------------
 #t hf aug-cc-pvdz symm=none int=(grid=ultrafine) guess=(read,tcheck) s
 table=opt
 ----------------------------------------------------------------------
 -----
 title
 -----
 Symbolic Z-matrix:
 Charge =  0 Multiplicity = 2

 SCF Done:  E(UHF) =  -214.723118242     A.U. after   14 cycles
 Normal termination of Gaussian 16 at Tue Apr  8 23:55:21 2025.
 Gaussian 16:  ES64L-G16RevC.01  3-Jul-2019

 ----------------------------------------------------------------------
 #t hf aug-cc-pvdz iop(5/13=1,5/36=2,99/5=2) pseudo=read geom=check gue
 ss=(read,tcheck) scf=(maxcycle=1)
 ----------------------------------------------------------------------
 -----
 title
 -----
 Structure from the checkpoint file:  "BDE49_nonexpt_1958_mol3.chk"
 Charge =  0 Multiplicity = 2

                         Standard orientation:
 ---------------------------------------------------------------------
 Center     Atomic      Atomic             Coordinates (Angstroms)
 Number     Number       Type             X           Y           Z
 ---------------------------------------------------------------------
      1          6           0       -1.524858   -0.165911   -0.000001
      2          5           0        0.008933   -0.013110   -0.000014
      3          8           0        0.657071    1.202386    0.000010
      4          1           0        0.061132    1.954770    0.000022
      5          8           0        0.784560   -1.140045   -0.000006
      6          1           0        1.723045   -0.923816    0.000000
      7          1           0       -1.997776   -1.142306    0.000001
      8          1           0       -2.214968    0.673646    0.000017
 ---------------------------------------------------------------------

 SCF Done:  E(UHF) =  -215.614026737     A.U. after    2 cycles

 The electronic state is 2-A.
 Alpha  occ. eigenvalues --  -21.05986 -21.04881 -11.36167  -7.63026  -1.81252
 Alpha  occ. eigenvalues --   -1.64883  -1.04885  -0.74633  -0.64298  -0.60096
 Alpha  occ. eigenvalues --   -0.54210  -0.50007  -0.42956  -0.38348  -0.36378
 Alpha  occ. eigenvalues --   -0.34805
 Alpha virt. eigenvalues --    0.02844   0.04794   0.04937   0.05455   0.07648
 Alpha virt. eigenvalues --    0.08503   0.09025   0.10185   0.15242   0.15498
 Alpha virt. eigenvalues --    0.16905   0.17901   0.19704   0.22453   0.23238

  Beta  occ. eigenvalues --  -21.05880 -21.04759 -11.34272  -7.63149  -1.80932
  Beta  occ. eigenvalues --   -1.64633  -0.96664  -0.73901  -0.63901  -0.59026
  Beta  occ. eigenvalues --   -0.53390  -0.47123  -0.42653  -0.37582  -0.35482
  Beta virt. eigenvalues --    0.03070   0.04820   0.04852   0.04962   0.07427
  Beta virt. eigenvalues --    0.07673   0.08529   0.09195   0.10199   0.15914
  Beta virt. eigenvalues --    0.16951   0.17509   0.18083   0.20024   0.22821

 Mulliken charges and spin densities:
               1          2
     1  C   -5.051180   1.272236
     2  B    7.514656  -0.222686
     3  O   -3.412276   0.029152
     4  H    1.100257  -0.003534
     5  O   -3.703738   0.042725
     6  H    1.022318   0.005867
     7  H    1.413247  -0.060350
     8  H    1.116716  -0.063411
 Sum of Mulliken charges =  -0.00000   1.00000

 Dipole moment (field-independent basis, Debye):
    X=             -0.4126    Y=              0.9444    Z=              0.0000  Tot=              1.0306
                          Isotropic Fermi Contact Couplings
        Atom                 a.u.       MegaHertz       Gauss      10(-4) cm-1
     1  C(13)              0.09213     103.56759      36.95549      34.54643
     2  B(11)             -0.02463     -35.32904     -12.60628     -11.78450
     3  O(17)              0.00675      -4.09109      -1.45980      -1.36464
     4  H(1)              -0.00057      -2.53074      -0.90303      -0.84417
     5  O(17)              0.00158      -0.95615      -0.34118      -0.31894
     6  H(1)              -0.00104      -4.66129      -1.66326      -1.55484
     7  H(1)              -0.01576     -70.45234     -25.13915     -23.50037
     8  H(1)              -0.01580     -70.60817     -25.19475     -23.55235

 Normal termination of Gaussian 16 at Tue Apr  8 23:55:23 2025.
