 Gaussian 16, Revision C.01,

 ----------------------------------------------------------------------
 #t hf aug-cc-pvdz symm=none int=(grid=ultrafine) guess=(read,tcheck) s
 table=(opt,rrhf)
 ----------------------------------------------------------------------
 -----
 title
 -----
 Symbolic Z-matrix:
 Charge =  0 Multiplicity = 1

 SCF Done:  E(RHF) =  -1204.57598005     A.U. after   14 cycles
 Normal termination of Gaussian 16 at Tue Apr  8 23:50:49 2025.
 Gaussian 16:  ES64L-G16RevC.01  3-Jul-2019

 ----------------------------------------------------------------------
 #t hf aug-cc-pvdz iop(5/13=1,5/36=2,99/5=2) pseudo=read geom=check gue
 ss=(read,tcheck) scf=(maxcycle=1)
 ----------------------------------------------------------------------
 -----
 title
 -----
 Structure from the checkpoint file:  "BDE49_nonexpt_1819_mol1.chk"
 Charge =  0 Multiplicity = 1

                         Standard orientation:
 ---------------------------------------------------------------------
 Center     Atomic      Atomic             Coordinates (Angstroms)
 Number     Number       Type             X           Y           Z
 ---------------------------------------------------------------------
      1          6           0        3.723631    0.127022    0.349000
      2          6           0        2.849771    1.204128    0.478235
      3          6           0        1.520991    1.093422    0.073906
      4          6           0        3.261328   -1.071966   -0.190981
      5          6           0        1.935601   -1.197643   -0.595738
      6          6           0        1.071686   -0.114027   -0.457789
      7          1           0        4.756196    0.221353    0.663876
      8          1           0        3.200872    2.142155    0.893278
      9          1           0        0.837147    1.928638    0.159467
     10          1           0        3.933538   -1.915806   -0.297855
     11          1           0        1.558000   -2.120740   -1.017874
     12          8           0       -0.226033   -0.268324   -0.905385
     13         14           0       -1.670127    0.162994   -0.305243
     14          8           0       -2.841178   -0.287968   -1.332322
     15         17           0       -1.958942   -0.791267    1.518164
     16          1           0       -3.018578   -1.223455   -1.456732
     17          8           0       -1.715609    1.771857   -0.100936
     18          1           0       -2.498883    2.167337    0.289806
 ---------------------------------------------------------------------

 SCF Done:  E(RHF) =  -1206.98901809     A.U. after    2 cycles

 The electronic state is 1-A.
 Alpha  occ. eigenvalues --  -99.88669 -76.30297 -21.10053 -21.09969 -21.08028
 Alpha  occ. eigenvalues --  -11.53301 -11.46214 -11.42805 -11.40889 -11.40428
 Alpha  occ. eigenvalues --  -11.36699 -10.46118  -9.66022  -9.65493  -9.65429
 Alpha  occ. eigenvalues --   -5.65421  -2.33025  -2.32903  -2.27899  -1.76653
 Alpha  occ. eigenvalues --   -1.69500  -1.66403  -1.32064  -1.29025  -1.09710
 Alpha  occ. eigenvalues --   -1.07303  -0.87620  -0.85597  -0.75548  -0.70705
 Alpha  occ. eigenvalues --   -0.65626  -0.63902  -0.63404  -0.59401  -0.58478
 Alpha  occ. eigenvalues --   -0.58335  -0.56434  -0.55135  -0.52946  -0.47378
 Alpha  occ. eigenvalues --   -0.47087  -0.44990  -0.44377  -0.42925  -0.41521
 Alpha  occ. eigenvalues --   -0.40911  -0.39083  -0.33404  -0.29704
 Alpha virt. eigenvalues --    0.03114   0.04972   0.05004   0.05433   0.06281
 Alpha virt. eigenvalues --    0.06992   0.07187   0.07771   0.08826   0.09206
 Alpha virt. eigenvalues --    0.10217   0.11164   0.11678   0.12583   0.12887

 Mulliken charges:
               1
     1  C   -2.592511
     2  C   -0.383444
     3  C   -3.652890
     4  C   -0.073349
     5  C   -4.414889
     6  C    6.891973
     7  H    1.549777
     8  H    1.521277
     9  H    1.942420
    10  H    1.494378
    11  H    1.801258
    12  O   -5.723238
    13  Si   6.015993
    14  O   -2.701047
    15  Cl  -0.927763
    16  H    1.009120
    17  O   -2.859850
    18  H    1.102784
 Sum of Mulliken charges =  -0.00000

 Dipole moment (field-independent basis, Debye):
    X=             -0.0379    Y=              0.6862    Z=             -1.2931  Tot=              1.4644

 Test job not archived.
 1\1\GINC-SE423\SP\RHF\Aug-CC-pVDZ\C6H7Cl1O3Si1\OHZDE\08-Apr-2025\0\\#t
  hf aug-cc-pvdz iop(5/13=1,5/36=2,99/5=2) pseudo=read geom=check guess
 =(read,tcheck) scf=(maxcycle=1)\\title\\0,1\C,0,3.723631,0.127022,0.34
 9\C,0,2.849771,1.204128,0.478235\C,0,1.520991,1.093422,0.073906\C,0,3.
 261328,-1.071966,-0.190981\C,0,1.935601,-1.197643,-0.595738\C,0,1.0716
 86,-0.114027,-0.457789\H,0,4.756196,0.221353,0.663876\H,0,3.200872,2.1
 42155,0.893278\H,0,0.837147,1.928638,0.159467\H,0,3.933538,-1.915806,-
 0.297855\H,0,1.558,-2.12074,-1.017874\O,0,-0.226033,-0.268324,-0.90538

 Normal termination of Gaussian 16 at Tue Apr  8 23:50:59 2025.
