 Gaussian 16, Revision C.01,

 ----------------------------------------------------------------------
 #t hf aug-cc-pvdz symm=none int=(grid=ultrafine) guess=(read,tcheck) s
 table=opt
 ----------------------------------------------------------------------
 -----
 title
 -----
 Symbolic Z-matrix:
 Charge =  0 Multiplicity = 2

 SCF Done:  E(UHF) =  -55.5747590373     A.U. after   12 cycles
 Normal termination of Gaussian 16 at Tue Apr  8 22:40:23 2025.
 Gaussian 16:  ES64L-G16RevC.01  3-Jul-2019

 ----------------------------------------------------------------------
 #t hf aug-cc-pvdz iop(5/13=1,5/36=2,99/5=2) pseudo=read geom=check gue
 ss=(read,tcheck) scf=(maxcycle=1)
 ----------------------------------------------------------------------
 -----
 title
 -----
 Structure from the checkpoint file:  "BDE49_expt_1293_mol3.chk"
 Charge =  0 Multiplicity = 2

                         Standard orientation:
 ---------------------------------------------------------------------
 Center     Atomic      Atomic             Coordinates (Angstroms)
 Number     Number       Type             X           Y           Z
 ---------------------------------------------------------------------
      1          7           0        0.000000   -0.000000    0.143949
      2          1           0        0.000000    0.802054   -0.503821
      3          1           0       -0.000000   -0.802054   -0.503821
 ---------------------------------------------------------------------

 SCF Done:  E(UHF) =  -55.7973477613     A.U. after    2 cycles

 The electronic state is 2-B1.
 Alpha  occ. eigenvalues --  -15.78634  -1.24533  -0.62172  -0.47021  -0.45759
 Alpha virt. eigenvalues --    0.03666   0.06042   0.16044   0.16597   0.20475
 Alpha virt. eigenvalues --    0.20637   0.28938   0.30264   0.35499   0.37101
 Alpha virt. eigenvalues --    0.39493   0.51834   0.59610   0.60164   0.70145

  Beta  occ. eigenvalues --  -15.75584  -1.13146  -0.60154  -0.43080
  Beta virt. eigenvalues --    0.03873   0.06090   0.07455   0.16383   0.20650
  Beta virt. eigenvalues --    0.21345   0.24732   0.29509   0.30717   0.36346
  Beta virt. eigenvalues --    0.37867   0.44562   0.51835   0.60486   0.61274

 Mulliken charges and spin densities:
               1          2
     1  N   -1.453083   1.115185
     2  H    0.726541  -0.057593
     3  H    0.726541  -0.057593
 Sum of Mulliken charges =  -0.00000   1.00000

 Dipole moment (field-independent basis, Debye):
    X=             -0.0000    Y=             -0.0000    Z=             -1.5501  Tot=              1.5501
                          Isotropic Fermi Contact Couplings
        Atom                 a.u.       MegaHertz       Gauss      10(-4) cm-1
     1  N(14)              0.18100      58.48079      20.86740      19.50709
     2  H(1)              -0.01666     -74.46445     -26.57077     -24.83867
     3  H(1)              -0.01666     -74.46445     -26.57077     -24.83867
 --------------------------------------------------------
       Center         ----  Spin Dipole Couplings  ----
                      3XX-RR        3YY-RR        3ZZ-RR
 --------------------------------------------------------
     1   Atom        1.720735     -0.849920     -0.870815

 Normal termination of Gaussian 16 at Tue Apr  8 22:40:24 2025.
