 Gaussian 16, Revision C.01,

 ----------------------------------------------------------------------
 #t hf aug-cc-pvdz symm=none int=(grid=ultrafine) guess=(read,tcheck) s
 table=(opt,rrhf)
 ----------------------------------------------------------------------
 -----
 title
 -----
 Symbolic Z-matrix:
 Charge =  0 Multiplicity = 1

 SCF Done:  E(RHF) =  -517.932277125     A.U. after   13 cycles
 Normal termination of Gaussian 16 at Tue Apr  8 23:51:21 2025.
 Gaussian 16:  ES64L-G16RevC.01  3-Jul-2019

 ----------------------------------------------------------------------
 #t hf aug-cc-pvdz iop(5/13=1,5/36=2,99/5=2) pseudo=read geom=check gue
 ss=(read,tcheck) scf=(maxcycle=1)
 ----------------------------------------------------------------------
 -----
 title
 -----
 Structure from the checkpoint file:  "BDE49_nonexpt_1880_mol1.chk"
 Charge =  0 Multiplicity = 1

                         Standard orientation:
 ---------------------------------------------------------------------
 Center     Atomic      Atomic             Coordinates (Angstroms)
 Number     Number       Type             X           Y           Z
 ---------------------------------------------------------------------
      1          6           0       -0.218825   -0.328723    0.821718
      2         14           0       -1.764152    0.024192   -0.229952
      3          6           0        1.082415   -0.125834    0.073776
      4          8           0        1.749507   -1.009963   -0.380042
      5          8           0        1.463728    1.173382   -0.101309
      6          1           0       -2.964606   -0.321199    0.562997
      7          1           0       -1.730131   -0.772634   -1.473282
      8          1           0        0.831985    1.771216    0.314552
      9          1           0       -1.808438    1.466967   -0.568186
     10          1           0       -0.255139   -1.369325    1.147495
     11          1           0       -0.262960    0.306282    1.713604
 ---------------------------------------------------------------------

 SCF Done:  E(RHF) =  -519.072843966     A.U. after    2 cycles

 The electronic state is 1-A.
 Alpha  occ. eigenvalues --  -76.24041 -21.12581 -21.05075 -11.53152 -11.39813
 Alpha  occ. eigenvalues --   -5.57493  -2.21080  -2.19819  -2.19690  -1.82235
 Alpha  occ. eigenvalues --   -1.65492  -1.12025  -0.81591  -0.76957  -0.68076
 Alpha  occ. eigenvalues --   -0.63563  -0.57213  -0.51219  -0.49257  -0.48628
 Alpha  occ. eigenvalues --   -0.45701  -0.43418  -0.33948  -0.30064
 Alpha virt. eigenvalues --    0.03003   0.04066   0.05099   0.05522   0.06139
 Alpha virt. eigenvalues --    0.07380   0.08509   0.09227   0.09973   0.11243
 Alpha virt. eigenvalues --    0.12878   0.13050   0.13765   0.14374   0.15352

 Mulliken charges:
               1
     1  C   -4.137396
     2  Si   6.074284
     3  C    5.571675
     4  O   -3.049687
     5  O   -3.026511
     6  H   -1.677028
     7  H   -1.737908
     8  H    1.105743
     9  H   -1.693949
    10  H    1.279275
    11  H    1.291502
 Sum of Mulliken charges =   0.00000

 Dipole moment (field-independent basis, Debye):
    X=             -1.5794    Y=              1.0439    Z=              1.3166  Tot=              2.3060

 Test job not archived.
 1\1\GINC-SE329\SP\RHF\Aug-CC-pVDZ\C2H6O2Si1\OHZDE\08-Apr-2025\0\\#t hf
  aug-cc-pvdz iop(5/13=1,5/36=2,99/5=2) pseudo=read geom=check guess=(r
 ead,tcheck) scf=(maxcycle=1)\\title\\0,1\C,0,-0.218825,-0.328723,0.821
 718\Si,0,-1.764152,0.024192,-0.229952\C,0,1.082415,-0.125834,0.073776\
 O,0,1.749507,-1.009963,-0.380042\O,0,1.463728,1.173382,-0.101309\H,0,-
 2.964606,-0.321198,0.562997\H,0,-1.730131,-0.772634,-1.473282\H,0,0.83
 1985,1.771216,0.314552\H,0,-1.808438,1.466967,-0.568186\H,0,-0.255139,
 -1.369325,1.147495\H,0,-0.26296,0.306282,1.713604\\Version=ES64L-G16Re

 Normal termination of Gaussian 16 at Tue Apr  8 23:51:25 2025.
