 Gaussian 16, Revision C.01,

 ----------------------------------------------------------------------
 #t hf aug-cc-pvdz symm=none int=(grid=ultrafine) guess=(read,tcheck) s
 table=(opt,rrhf)
 ----------------------------------------------------------------------
 -----
 title
 -----
 Symbolic Z-matrix:
 Charge =  0 Multiplicity = 1

 SCF Done:  E(RHF) =  -641.260856721     A.U. after   15 cycles
 Normal termination of Gaussian 16 at Tue Apr  8 23:12:53 2025.
 Gaussian 16:  ES64L-G16RevC.01  3-Jul-2019

 ----------------------------------------------------------------------
 #t hf aug-cc-pvdz iop(5/13=1,5/36=2,99/5=2) pseudo=read geom=check gue
 ss=(read,tcheck) scf=(maxcycle=1)
 ----------------------------------------------------------------------
 -----
 title
 -----
 Structure from the checkpoint file:  "BDE49_expt_742_mol1.chk"
 Charge =  0 Multiplicity = 1

                         Standard orientation:
 ---------------------------------------------------------------------
 Center     Atomic      Atomic             Coordinates (Angstroms)
 Number     Number       Type             X           Y           Z
 ---------------------------------------------------------------------
      1          6           0        0.104289    1.519485   -0.020621
      2          6           0       -0.275515    0.175747   -0.033996
      3          6           0        0.674525   -0.838880   -0.024649
      4          6           0        1.457489    1.836110    0.002107
      5          6           0        2.421987    0.831548    0.012380
      6          6           0        2.030716   -0.508578   -0.001692
      7          1           0        1.768950    2.873978    0.008928
      8          1           0        3.477134    1.087997    0.028127
      9          8           0        2.920620   -1.540677    0.002624
     10          1           0        3.818003   -1.191963    0.015782
     11          1           0        0.384699   -1.880844   -0.042672
     12          6           0       -1.738121   -0.177649   -0.002501
     13          9           0       -2.484826    0.700373   -0.708060
     14          9           0       -1.981225   -1.406012   -0.506578
     15          9           0       -2.224991   -0.170861    1.261314
     16          1           0       -0.646581    2.298055   -0.037401
 ---------------------------------------------------------------------

 SCF Done:  E(RHF) =  -643.830468770     A.U. after    2 cycles

 The electronic state is 1-A.
 Alpha  occ. eigenvalues --  -29.30494 -29.30372 -29.30030 -21.12001 -11.61485
 Alpha  occ. eigenvalues --  -11.54493 -11.48422 -11.45845 -11.43686 -11.43123
 Alpha  occ. eigenvalues --  -11.39030  -1.77526  -1.44938  -1.30661  -1.11853
 Alpha  occ. eigenvalues --   -1.09454  -0.92034  -0.91075  -0.87284  -0.83775
 Alpha  occ. eigenvalues --   -0.76401  -0.71522  -0.64818  -0.62707  -0.59249
 Alpha  occ. eigenvalues --   -0.56029  -0.51898  -0.51374  -0.46679  -0.45580
 Alpha  occ. eigenvalues --   -0.44004  -0.43032  -0.42660  -0.38260  -0.35610
 Alpha  occ. eigenvalues --   -0.33149  -0.29868  -0.28743  -0.24911  -0.23987
 Alpha  occ. eigenvalues --   -0.20796
 Alpha virt. eigenvalues --    0.03150   0.04500   0.05142   0.06726   0.07309
 Alpha virt. eigenvalues --    0.09229   0.09987   0.10688   0.11588   0.12186
 Alpha virt. eigenvalues --    0.12585   0.13248   0.13433   0.13654   0.14502

 Mulliken charges:
               1
     1  C   -3.928414
     2  C    3.376178
     3  C   -3.861925
     4  C    0.084642
     5  C   -5.590291
     6  C    6.611706
     7  H    1.437043
     8  H    1.667835
     9  O   -4.556645
    10  H    1.018263
    11  H    1.889494
    12  C   -0.615076
    13  F    0.215820
    14  F    0.336430
    15  F    0.151870
    16  H    1.763070
 Sum of Mulliken charges =   0.00000

 Dipole moment (field-independent basis, Debye):
    X=              0.1287    Y=             -0.0580    Z=              0.1003  Tot=              0.1732

 Test job not archived.
 1\1\GINC-SE460\SP\RHF\Aug-CC-pVDZ\C7H5F3O1\OHZDE\08-Apr-2025\0\\#t hf
 aug-cc-pvdz iop(5/13=1,5/36=2,99/5=2) pseudo=read geom=check guess=(re
 ad,tcheck) scf=(maxcycle=1)\\title\\0,1\C,0,0.104289,1.519485,-0.02062
 1\C,0,-0.275515,0.175747,-0.033996\C,0,0.674525,-0.83888,-0.024649\C,0
 ,1.457489,1.83611,0.002107\C,0,2.421987,0.831548,0.01238\C,0,2.030716,
 -0.508578,-0.001692\H,0,1.76895,2.873978,0.008928\H,0,3.477134,1.08799
 8,0.028127\O,0,2.92062,-1.540677,0.002624\H,0,3.818003,-1.191962,0.015
 782\H,0,0.384699,-1.880844,-0.042672\C,0,-1.738121,-0.177649,-0.002501

 Normal termination of Gaussian 16 at Tue Apr  8 23:13:00 2025.
