 Gaussian 16, Revision C.01,

 ----------------------------------------------------------------------
 #t hf aug-cc-pvdz symm=none int=(grid=ultrafine) guess=(read,tcheck) s
 table=opt
 ----------------------------------------------------------------------
 -----
 title
 -----
 Symbolic Z-matrix:
 Charge =  0 Multiplicity = 2

 SCF Done:  E(UHF) =  -231.560052156     A.U. after   24 cycles
 Normal termination of Gaussian 16 at Tue Apr  8 22:42:56 2025.
 Gaussian 16:  ES64L-G16RevC.01  3-Jul-2019

 ----------------------------------------------------------------------
 #t hf aug-cc-pvdz iop(5/13=1,5/36=2,99/5=2) pseudo=read geom=check gue
 ss=(read,tcheck) scf=(maxcycle=1)
 ----------------------------------------------------------------------
 -----
 title
 -----
 Structure from the checkpoint file:  "BDE49_expt_1378_mol2.chk"
 Charge =  0 Multiplicity = 2

                         Standard orientation:
 ---------------------------------------------------------------------
 Center     Atomic      Atomic             Coordinates (Angstroms)
 Number     Number       Type             X           Y           Z
 ---------------------------------------------------------------------
      1          6           0        2.354568   -0.122102   -0.139025
      2          6           0        0.917260   -0.343319    0.337807
      3          1           0        2.736656    0.851730    0.183395
      4          1           0        2.417081   -0.156438   -1.231035
      5          1           0        3.026298   -0.889032    0.255597
      6          6           0       -0.063979    0.708932   -0.187218
      7          1           0        0.890680   -0.345278    1.434872
      8          1           0        0.566333   -1.330048    0.019694
      9          6           0       -1.516504    0.416054    0.198730
     10          1           0       -0.003035    0.758860   -1.280770
     11          1           0        0.206639    1.704020    0.188023
     12          8           0       -2.020284   -0.770333   -0.255204
     13          1           0       -2.199301    1.236180   -0.094092
     14          1           0       -1.627151    0.375285    1.304179
 ---------------------------------------------------------------------

 SCF Done:  E(UHF) =  -232.630073957     A.U. after    2 cycles

 The electronic state is 2-A.
 Alpha  occ. eigenvalues --  -21.10706 -11.43364 -11.40685 -11.37873 -11.34747
 Alpha  occ. eigenvalues --   -1.71765  -1.21934  -1.04836  -0.90140  -0.82407
 Alpha  occ. eigenvalues --   -0.65887  -0.63988  -0.60121  -0.56860  -0.53156
 Alpha  occ. eigenvalues --   -0.49287  -0.46510  -0.45137  -0.44976  -0.39151
 Alpha  occ. eigenvalues --   -0.33117
 Alpha virt. eigenvalues --    0.04151   0.05013   0.05401   0.05785   0.06175
 Alpha virt. eigenvalues --    0.06352   0.07063   0.07861   0.08835   0.10917
 Alpha virt. eigenvalues --    0.12726   0.13099   0.14276   0.15382   0.15760

  Beta  occ. eigenvalues --  -21.06985 -11.43579 -11.40722 -11.37901 -11.34757
  Beta  occ. eigenvalues --   -1.60224  -1.21415  -1.04057  -0.89205  -0.81757
  Beta  occ. eigenvalues --   -0.64686  -0.61925  -0.59367  -0.56175  -0.51915
  Beta  occ. eigenvalues --   -0.48289  -0.46346  -0.44394  -0.43813  -0.30169
  Beta virt. eigenvalues --    0.04122   0.05024   0.05355   0.05772   0.06177
  Beta virt. eigenvalues --    0.06321   0.07077   0.07862   0.08816   0.09883
  Beta virt. eigenvalues --    0.12805   0.13068   0.13308   0.15032   0.15404

 Mulliken charges and spin densities:
               1          2
     1  C   -3.862127  -0.004057
     2  C   -2.653966   0.010148
     3  H    1.273856  -0.000256
     4  H    1.289060  -0.000443
     5  H    1.106533   0.000083
     6  C   -2.698571   0.028319
     7  H    1.389329   0.001427
     8  H    1.508610  -0.002225
     9  C   -1.146893  -0.321355
    10  H    1.490555  -0.000378
    11  H    1.441055   0.000226
    12  O   -1.815105   1.134583
    13  H    1.190000   0.057864
    14  H    1.487665   0.096064
 Sum of Mulliken charges =  -0.00000   1.00000

 Dipole moment (field-independent basis, Debye):
    X=              0.3701    Y=              0.6799    Z=              0.3488  Tot=              0.8490
                          Isotropic Fermi Contact Couplings
        Atom                 a.u.       MegaHertz       Gauss      10(-4) cm-1
     1  C(13)              0.00006       0.07256       0.02589       0.02420
     2  C(13)             -0.00110      -1.23663      -0.44126      -0.41250
     3  H(1)              -0.00001      -0.04282      -0.01528      -0.01428
     4  H(1)               0.00001       0.04753       0.01696       0.01585
     5  H(1)              -0.00001      -0.05674      -0.02025      -0.01893
     6  C(13)             -0.00090      -1.01335      -0.36159      -0.33802
     7  H(1)               0.00002       0.11100       0.03961       0.03702
     8  H(1)               0.00020       0.89274       0.31855       0.29779

 Normal termination of Gaussian 16 at Tue Apr  8 22:43:00 2025.
