 Gaussian 16, Revision C.01,

 ----------------------------------------------------------------------
 #t hf aug-cc-pvdz symm=none int=(grid=ultrafine) guess=(read,tcheck) s
 table=(opt,rrhf)
 ----------------------------------------------------------------------
 -----
 title
 -----
 Symbolic Z-matrix:
 Charge =  0 Multiplicity = 1

 SCF Done:  E(RHF) =  -836.321621529     A.U. after   16 cycles
 Normal termination of Gaussian 16 at Tue Apr  8 23:20:01 2025.
 Gaussian 16:  ES64L-G16RevC.01  3-Jul-2019

 ----------------------------------------------------------------------
 #t hf aug-cc-pvdz iop(5/13=1,5/36=2,99/5=2) pseudo=read geom=check gue
 ss=(read,tcheck) scf=(maxcycle=1)
 ----------------------------------------------------------------------
 -----
 title
 -----
 Structure from the checkpoint file:  "BDE49_nonexpt_1077_mol1.chk"
 Charge =  0 Multiplicity = 1

                         Standard orientation:
 ---------------------------------------------------------------------
 Center     Atomic      Atomic             Coordinates (Angstroms)
 Number     Number       Type             X           Y           Z
 ---------------------------------------------------------------------
      1         17           0       -2.395391    0.312299   -0.441093
      2          8           0       -1.381575   -0.532424    0.726104
      3          8           0       -0.200579   -0.980533    0.102395
      4          6           0        0.793754   -0.006951    0.200855
      5          8           0        0.664493    1.085155    0.652801
      6          8           0        1.869190   -0.580546   -0.318934
      7          6           0        3.053174    0.248764   -0.330938
      8          1           0        2.876368    1.146633   -0.923210
      9          1           0        3.825040   -0.367489   -0.783427
     10          1           0        3.326451    0.527689    0.686788
 ---------------------------------------------------------------------

 SCF Done:  E(RHF) =  -838.119285601     A.U. after    2 cycles

 The electronic state is 1-A.
 Alpha  occ. eigenvalues --  -99.95869 -21.18360 -21.16508 -21.12637 -21.08089
 Alpha  occ. eigenvalues --  -11.56713 -11.44141 -10.52541  -9.72383  -9.71606
 Alpha  occ. eigenvalues --   -9.71469  -2.05632  -1.85865  -1.70795  -1.52079
 Alpha  occ. eigenvalues --   -1.23724  -1.04204  -0.80105  -0.72310  -0.68784
 Alpha  occ. eigenvalues --   -0.65378  -0.63985  -0.60402  -0.58462  -0.56860
 Alpha  occ. eigenvalues --   -0.55745  -0.46940  -0.45469  -0.38634  -0.37558
 Alpha  occ. eigenvalues --   -0.35456  -0.32234
 Alpha virt. eigenvalues --    0.02251   0.03309   0.05578   0.06015   0.08156
 Alpha virt. eigenvalues --    0.09670   0.11815   0.12225   0.13325   0.13809
 Alpha virt. eigenvalues --    0.14229   0.15380   0.15713   0.17008   0.17934

 Mulliken charges:
               1
     1  Cl   0.463022
     2  O   -0.603419
     3  O   -1.468927
     4  C    6.104158
     5  O   -2.444769
     6  O   -2.918688
     7  C   -3.056296
     8  H    1.280187
     9  H    1.365494
    10  H    1.279238
 Sum of Mulliken charges =   0.00000

 Dipole moment (field-independent basis, Debye):
    X=              3.3760    Y=             -1.2584    Z=              0.3342  Tot=              3.6183

 Test job not archived.
 1\1\GINC-SE177\SP\RHF\Aug-CC-pVDZ\C2H3Cl1O4\OHZDE\08-Apr-2025\0\\#t hf
  aug-cc-pvdz iop(5/13=1,5/36=2,99/5=2) pseudo=read geom=check guess=(r
 ead,tcheck) scf=(maxcycle=1)\\title\\0,1\Cl,0,-2.395391,0.312299,-0.44
 1093\O,0,-1.381575,-0.532424,0.726104\O,0,-0.200579,-0.980533,0.102395
 \C,0,0.793754,-0.006951,0.200855\O,0,0.664493,1.085155,0.652801\O,0,1.
 86919,-0.580546,-0.318934\C,0,3.053174,0.248764,-0.330938\H,0,2.876368
 ,1.146633,-0.92321\H,0,3.82504,-0.367489,-0.783427\H,0,3.326451,0.5276
 89,0.686788\\Version=ES64L-G16RevC.01\State=1-A\HF=-838.1192856\RMSD=4

 Normal termination of Gaussian 16 at Tue Apr  8 23:20:05 2025.
