 Gaussian 16, Revision C.01,

 ----------------------------------------------------------------------
 #t hf aug-cc-pvdz symm=none int=(grid=ultrafine) guess=(read,tcheck) s
 table=opt
 ----------------------------------------------------------------------
 -----
 title
 -----
 Symbolic Z-matrix:
 Charge =  0 Multiplicity = 2

 SCF Done:  E(UHF) =  -39.5658099566     A.U. after   11 cycles
 Normal termination of Gaussian 16 at Tue Apr  8 22:30:16 2025.
 Gaussian 16:  ES64L-G16RevC.01  3-Jul-2019

 ----------------------------------------------------------------------
 #t hf aug-cc-pvdz iop(5/13=1,5/36=2,99/5=2) pseudo=read geom=check gue
 ss=(read,tcheck) scf=(maxcycle=1)
 ----------------------------------------------------------------------
 -----
 title
 -----
 Structure from the checkpoint file:  "BDE49_expt_1001_mol3.chk"
 Charge =  0 Multiplicity = 2

                         Standard orientation:
 ---------------------------------------------------------------------
 Center     Atomic      Atomic             Coordinates (Angstroms)
 Number     Number       Type             X           Y           Z
 ---------------------------------------------------------------------
      1          6           0        0.000000    0.000000    0.000000
      2          1           0       -0.000000    0.000000    1.080500
      3          1           0        0.000000    0.935740   -0.540250
      4          1           0       -0.000000   -0.935740   -0.540250
 ---------------------------------------------------------------------

 SCF Done:  E(UHF) =  -39.7564796030     A.U. after    2 cycles

 The electronic state is 2-B1.
 Alpha  occ. eigenvalues --  -11.37873  -1.01422  -0.57068  -0.57068  -0.34661
 Alpha virt. eigenvalues --    0.03060   0.06384   0.06384   0.13605   0.15414
 Alpha virt. eigenvalues --    0.15915   0.15915   0.28275   0.29091   0.29091
 Alpha virt. eigenvalues --    0.35629   0.35629   0.44407   0.44407   0.49673

  Beta  occ. eigenvalues --  -11.35695  -0.92691  -0.55697  -0.55697
  Beta virt. eigenvalues --    0.03400   0.06417   0.06417   0.08320   0.15965
  Beta virt. eigenvalues --    0.15965   0.16175   0.20790   0.29470   0.29470
  Beta virt. eigenvalues --    0.30773   0.37232   0.37232   0.44627   0.44627

 Mulliken charges and spin densities:
               1          2
     1  C   -3.758946   1.288200
     2  H    1.252982  -0.096067
     3  H    1.252982  -0.096067
     4  H    1.252982  -0.096067
 Sum of Mulliken charges =  -0.00000   1.00000

 Dipole moment (field-independent basis, Debye):
    X=             -0.0000    Y=             -0.0000    Z=             -0.0000  Tot=              0.0000
                          Isotropic Fermi Contact Couplings
        Atom                 a.u.       MegaHertz       Gauss      10(-4) cm-1
     1  C(13)              0.11102     124.80378      44.53309      41.63006
     2  H(1)              -0.01870     -83.57141     -29.82036     -27.87642
     3  H(1)              -0.01870     -83.57135     -29.82034     -27.87640
     4  H(1)              -0.01870     -83.57135     -29.82034     -27.87640
 --------------------------------------------------------
       Center         ----  Spin Dipole Couplings  ----
                      3XX-RR        3YY-RR        3ZZ-RR
 --------------------------------------------------------

 Normal termination of Gaussian 16 at Tue Apr  8 22:30:18 2025.
