 Gaussian 16, Revision C.01,

 ----------------------------------------------------------------------
 #t hf aug-cc-pvdz symm=none int=(grid=ultrafine) guess=(read,tcheck) s
 table=(opt,rrhf)
 ----------------------------------------------------------------------
 -----
 title
 -----
 Symbolic Z-matrix:
 Charge =  0 Multiplicity = 1

 SCF Done:  E(RHF) =  -1046.70361683     A.U. after   16 cycles
 Normal termination of Gaussian 16 at Tue Apr  8 23:20:57 2025.
 Gaussian 16:  ES64L-G16RevC.01  3-Jul-2019

 ----------------------------------------------------------------------
 #t hf aug-cc-pvdz iop(5/13=1,5/36=2,99/5=2) pseudo=read geom=check gue
 ss=(read,tcheck) scf=(maxcycle=1)
 ----------------------------------------------------------------------
 -----
 title
 -----
 Structure from the checkpoint file:  "BDE49_nonexpt_1149_mol1.chk"
 Charge =  0 Multiplicity = 1

                         Standard orientation:
 ---------------------------------------------------------------------
 Center     Atomic      Atomic             Coordinates (Angstroms)
 Number     Number       Type             X           Y           Z
 ---------------------------------------------------------------------
      1          9           0        2.211679   -0.973652    0.000161
      2          8           0        1.599863    0.427245    0.000059
      3          6           0        0.268416    0.355856   -0.000205
      4         16           0       -0.390693    1.857149    0.000083
      5         16           0       -0.447071   -1.228160   -0.000140
      6          6           0       -2.208189   -0.781433    0.000016
      7          1           0       -2.737965   -1.735052    0.000059
      8          1           0       -2.461663   -0.215198   -0.894354
      9          1           0       -2.461512   -0.215204    0.894432
 ---------------------------------------------------------------------

 SCF Done:  E(RHF) =  -1048.17385520     A.U. after    2 cycles

 The electronic state is 1-A.
 Alpha  occ. eigenvalues --  -75.74531 -75.68481 -29.32199 -21.23468 -13.19272
 Alpha  occ. eigenvalues --  -13.16435 -13.14901 -13.07188 -13.04318 -12.99983
 Alpha  occ. eigenvalues --  -11.54623 -11.42704  -8.08823  -8.02707  -1.87097
 Alpha  occ. eigenvalues --   -1.28115  -1.14942  -1.01417  -0.83594  -0.71676
 Alpha  occ. eigenvalues --   -0.62946  -0.62581  -0.59638  -0.57532  -0.49694
 Alpha  occ. eigenvalues --   -0.43711  -0.37925  -0.34384  -0.29600  -0.28316
 Alpha  occ. eigenvalues --   -0.24486  -0.22632
 Alpha virt. eigenvalues --    0.02036   0.05024   0.05405   0.06789   0.08174
 Alpha virt. eigenvalues --    0.08414   0.09554   0.12807   0.13618   0.14335
 Alpha virt. eigenvalues --    0.14336   0.14903   0.15411   0.16966   0.18104

 Mulliken charges:
               1
     1  F   -0.048404
     2  O   -1.509760
     3  C   -0.522107
     4  S    0.968043
     5  S    1.634746
     6  C   -4.680164
     7  H    1.280638
     8  H    1.438450
     9  H    1.438559
 Sum of Mulliken charges =   0.00000

 Dipole moment (field-independent basis, Debye):
    X=              0.0411    Y=             -3.0377    Z=              0.0012  Tot=              3.0380

 Test job not archived.
 1\1\GINC-SE070\SP\RHF\Aug-CC-pVDZ\C2H3F1O1S2\OHZDE\08-Apr-2025\0\\#t h
 f aug-cc-pvdz iop(5/13=1,5/36=2,99/5=2) pseudo=read geom=check guess=(
 read,tcheck) scf=(maxcycle=1)\\title\\0,1\F,0,2.211679,-0.973654,0.000
 161\O,0,1.599863,0.427244,0.000059\C,0,0.268416,0.355856,-0.000205\S,0
 ,-0.390692,1.857149,0.000083\S,0,-0.447072,-1.22816,-0.00014\C,0,-2.20
 8189,-0.781432,0.000016\H,0,-2.737966,-1.735051,0.000059\H,0,-2.461663
 ,-0.215197,-0.894354\H,0,-2.461512,-0.215203,0.894432\\Version=ES64L-G
 16RevC.01\State=1-A\HF=-1048.1738552\RMSD=1.143e-01\Dipole=0.0161538,-

 Normal termination of Gaussian 16 at Tue Apr  8 23:21:00 2025.
