 Gaussian 16, Revision C.01,

 ----------------------------------------------------------------------
 #t hf aug-cc-pvdz symm=none int=(grid=ultrafine) guess=(read,tcheck) s
 table=(opt,rrhf)
 ----------------------------------------------------------------------
 -----
 title
 -----
 Symbolic Z-matrix:
 Charge =  0 Multiplicity = 1

 SCF Done:  E(RHF) =  -249.508375600     A.U. after   12 cycles
 Normal termination of Gaussian 16 at Wed Apr  9 00:42:19 2025.
 Gaussian 16:  ES64L-G16RevC.01  3-Jul-2019

 ----------------------------------------------------------------------
 #t hf aug-cc-pvdz iop(5/13=1,5/36=2,99/5=2) pseudo=read geom=check gue
 ss=(read,tcheck) scf=(maxcycle=1)
 ----------------------------------------------------------------------
 -----
 title
 -----
 Structure from the checkpoint file:  "BDE49_nonexpt_6_mol1.chk"
 Charge =  0 Multiplicity = 1

                         Standard orientation:
 ---------------------------------------------------------------------
 Center     Atomic      Atomic             Coordinates (Angstroms)
 Number     Number       Type             X           Y           Z
 ---------------------------------------------------------------------
      1          5           0        0.782988    0.415406    0.338385
      2          5           0       -0.782960    0.415340   -0.338427
      3          9           0       -1.744563   -0.354779    0.173140
      4          9           0        1.744556   -0.354787   -0.173130
      5          1           0       -1.109036    1.116243   -1.256548
      6          1           0        1.108961    1.116126    1.256674
 ---------------------------------------------------------------------

 SCF Done:  E(RHF) =  -250.400962343     A.U. after    2 cycles

 The electronic state is 1-A.
 Alpha  occ. eigenvalues --  -29.25778 -29.25773  -7.65733  -7.65243  -1.07579
 Alpha  occ. eigenvalues --   -0.93595  -0.60176  -0.60027  -0.56303  -0.42062
 Alpha  occ. eigenvalues --   -0.41583  -0.39749  -0.37458  -0.34084  -0.23455
 Alpha virt. eigenvalues --    0.02241   0.02722   0.03775   0.06173   0.08765
 Alpha virt. eigenvalues --    0.09100   0.09228   0.11541   0.13110   0.14412
 Alpha virt. eigenvalues --    0.15336   0.16125   0.22665   0.23934   0.24069

 Mulliken charges:
               1
     1  B    3.016318
     2  B    3.016119
     3  F   -0.773235
     4  F   -0.773252
     5  H   -2.242949
     6  H   -2.243002
 Sum of Mulliken charges =   0.00000

 Dipole moment (field-independent basis, Debye):
    X=              0.0001    Y=             -3.7714    Z=              0.0001  Tot=              3.7714

 Test job not archived.
 1\1\GINC-SE177\SP\RHF\Aug-CC-pVDZ\B2F2H2\OHZDE\09-Apr-2025\0\\#t hf au
 g-cc-pvdz iop(5/13=1,5/36=2,99/5=2) pseudo=read geom=check guess=(read
 ,tcheck) scf=(maxcycle=1)\\title\\0,1\B,0,-0.782988,0.415406,-0.338385
 \B,0,0.78296,0.41534,0.338427\F,0,1.744563,-0.354779,-0.17314\F,0,-1.7
 44556,-0.354787,0.17313\H,0,1.109036,1.116243,1.256548\H,0,-1.108961,1
 .116126,-1.256674\\Version=ES64L-G16RevC.01\State=1-A\HF=-250.4009623\
 RMSD=2.888e-01\Dipole=-0.0000371,-1.4837704,-0.0000331\Quadrupole=4.80
 80987,-1.8622683,-2.9458303,-0.0001899,-3.499944,-0.000165\PG=C01 [X(B

 Normal termination of Gaussian 16 at Wed Apr  9 00:42:21 2025.
