 Gaussian 16, Revision C.01,

 ----------------------------------------------------------------------
 #t hf aug-cc-pvdz symm=none int=(grid=ultrafine) guess=(read,tcheck) s
 table=opt
 ----------------------------------------------------------------------
 -----
 title
 -----
 Symbolic Z-matrix:
 Charge =  0 Multiplicity = 2

 SCF Done:  E(UHF) =  -155.483432674     A.U. after   15 cycles
 Normal termination of Gaussian 16 at Tue Apr  8 22:40:31 2025.
 Gaussian 16:  ES64L-G16RevC.01  3-Jul-2019

 ----------------------------------------------------------------------
 #t hf aug-cc-pvdz iop(5/13=1,5/36=2,99/5=2) pseudo=read geom=check gue
 ss=(read,tcheck) scf=(maxcycle=1)
 ----------------------------------------------------------------------
 -----
 title
 -----
 Structure from the checkpoint file:  "BDE49_expt_1284_mol2.chk"
 Charge =  0 Multiplicity = 2

                         Standard orientation:
 ---------------------------------------------------------------------
 Center     Atomic      Atomic             Coordinates (Angstroms)
 Number     Number       Type             X           Y           Z
 ---------------------------------------------------------------------
      1          6           0       -0.000002    1.081241   -0.000000
      2          6           0       -0.000002    0.061767    1.103174
      3          6           0       -0.000002    0.061767   -1.103174
      4          6           0        0.000003   -1.047202    0.000000
      5          1           0        0.881585    0.065003   -1.758914
      6          1           0       -0.881593    0.064997   -1.758908
      7          1           0        0.885307   -1.684999    0.000000
      8          1           0       -0.885295   -1.685007    0.000000
      9          1           0        0.000020    2.164570   -0.000000
     10          1           0        0.881585    0.065003    1.758914
     11          1           0       -0.881593    0.064997    1.758908
 ---------------------------------------------------------------------

 SCF Done:  E(UHF) =  -156.258479210     A.U. after    2 cycles

 The electronic state is 2-A'.
 Alpha  occ. eigenvalues --  -11.47034 -11.37894 -11.37669 -11.33677  -1.31335
 Alpha  occ. eigenvalues --   -0.95325  -0.93455  -0.76829  -0.66828  -0.64864
 Alpha  occ. eigenvalues --   -0.53800  -0.49050  -0.47643  -0.41736  -0.41629
 Alpha  occ. eigenvalues --   -0.29233
 Alpha virt. eigenvalues --    0.04056   0.05569   0.05957   0.06086   0.06294
 Alpha virt. eigenvalues --    0.06443   0.07014   0.10547   0.12867   0.13549
 Alpha virt. eigenvalues --    0.13827   0.15093   0.15636   0.16221   0.16252

  Beta  occ. eigenvalues --  -11.46897 -11.38251 -11.36402 -11.33013  -1.29016
  Beta  occ. eigenvalues --   -0.95251  -0.89832  -0.73663  -0.65808  -0.62793
  Beta  occ. eigenvalues --   -0.52445  -0.47022  -0.46970  -0.41110  -0.40936
  Beta virt. eigenvalues --    0.04110   0.05619   0.05962   0.06097   0.06259
  Beta virt. eigenvalues --    0.06317   0.07019   0.10611   0.11053   0.12886
  Beta virt. eigenvalues --    0.13550   0.13928   0.15172   0.16270   0.16390

 Mulliken charges and spin densities:
               1          2
     1  C   -0.546795   1.774061
     2  C   -2.898643  -0.449987
     3  C   -2.898643  -0.449987
     4  C   -2.623668   0.086302
     5  H    1.286841   0.017905
     6  H    1.286843   0.017905
     7  H    1.287721   0.000151
     8  H    1.287719   0.000151
     9  H    1.244942  -0.032311
    10  H    1.286841   0.017905
    11  H    1.286843   0.017905
 Sum of Mulliken charges =   0.00000   1.00000

 Dipole moment (field-independent basis, Debye):
    X=              0.0000    Y=             -0.0982    Z=              0.0000  Tot=              0.0982
                          Isotropic Fermi Contact Couplings
        Atom                 a.u.       MegaHertz       Gauss      10(-4) cm-1
     1  C(13)              0.14446     162.40606      57.95052      54.17283
     2  C(13)             -0.04301     -48.34832     -17.25188     -16.12726
     3  C(13)             -0.04301     -48.34832     -17.25188     -16.12726
     4  C(13)              0.01078      12.12203       4.32544       4.04347
     5  H(1)               0.01657      74.06920      26.42973      24.70683
     6  H(1)               0.01657      74.07035      26.43014      24.70721
     7  H(1)              -0.00117      -5.24779      -1.87254      -1.75048
     8  H(1)              -0.00117      -5.24752      -1.87245      -1.75039

 Normal termination of Gaussian 16 at Tue Apr  8 22:40:33 2025.
