 Gaussian 16, Revision C.01,

 ----------------------------------------------------------------------
 #t hf aug-cc-pvdz symm=none int=(grid=ultrafine) guess=(read,tcheck) s
 table=(opt,rrhf)
 ----------------------------------------------------------------------
 -----
 title
 -----
 Symbolic Z-matrix:
 Charge =  0 Multiplicity = 1

 SCF Done:  E(RHF) =  -182.561198957     A.U. after   12 cycles

 1\1\GINC-SE459\Stability\RHF\Aug-CC-pVDZ\C4H11B1\OHZDE\09-Apr-2025\0\\
 #t hf aug-cc-pvdz symm=none int=(grid=ultrafine) guess=(read,tcheck) s
 table=(opt,rrhf)\\title\\0,1\B,0,-2.293883,-0.758517,-0.170579\C,0,-1.
 490912,0.518022,0.205816\C,0,2.362439,-0.189265,-0.111738\H,0,-1.55472
 4,0.736721,1.280143\H,0,-2.123807,1.308441,-0.248788\C,0,-0.047631,0.6
 55448,-0.302985\C,0,0.920269,-0.313993,0.386219\H,0,0.311298,1.681196,
 -0.153897\H,0,-0.02528,0.475275,-1.384597\H,0,0.568654,-1.342167,0.232
 511\H,0,0.890533,-0.141278,1.469279\H,0,2.752774,0.819173,0.057656\H,0

 Normal termination of Gaussian 16 at Wed Apr  9 00:21:53 2025.
 Gaussian 16:  ES64L-G16RevC.01  3-Jul-2019

 ----------------------------------------------------------------------
 #t hf aug-cc-pvdz iop(5/13=1,5/36=2,99/5=2) pseudo=read geom=check gue
 ss=(read,tcheck) scf=(maxcycle=1)
 ----------------------------------------------------------------------
 -----
 title
 -----
 Structure from the checkpoint file:  "BDE49_nonexpt_263_mol1.chk"
 Charge =  0 Multiplicity = 1

                         Standard orientation:
 ---------------------------------------------------------------------
 Center     Atomic      Atomic             Coordinates (Angstroms)
 Number     Number       Type             X           Y           Z
 ---------------------------------------------------------------------
      1          5           0       -2.293883   -0.758517   -0.170579
      2          6           0       -1.490912    0.518022    0.205816
      3          6           0        2.362439   -0.189265   -0.111738
      4          1           0       -1.554724    0.736721    1.280143
      5          1           0       -2.123807    1.308441   -0.248788
      6          6           0       -0.047631    0.655448   -0.302985
      7          6           0        0.920269   -0.313993    0.386219
      8          1           0        0.311298    1.681196   -0.153897
      9          1           0       -0.025280    0.475275   -1.384597
     10          1           0        0.568654   -1.342167    0.232511
     11          1           0        0.890533   -0.141278    1.469279
     12          1           0        2.752774    0.819173    0.057656
     13          1           0        2.428545   -0.392857   -1.185006
     14          1           0        3.025084   -0.891790    0.400966
     15          1           0       -3.311938   -1.019342    0.398016
     16          1           0       -1.956716   -1.462057   -1.077264
 ---------------------------------------------------------------------

 SCF Done:  E(RHF) =  -183.521863714     A.U. after    2 cycles

 The electronic state is 1-A.
 Alpha  occ. eigenvalues --  -11.41283 -11.38718 -11.35543 -11.33077  -7.60094
 Alpha  occ. eigenvalues --   -1.24266  -1.09033  -0.94405  -0.83693  -0.75799
 Alpha  occ. eigenvalues --   -0.63621  -0.58328  -0.58072  -0.55132  -0.50938
 Alpha  occ. eigenvalues --   -0.47095  -0.46373  -0.43979  -0.40865  -0.40268
 Alpha virt. eigenvalues --    0.03594   0.03856   0.04085   0.04310   0.05829
 Alpha virt. eigenvalues --    0.06137   0.06381   0.06778   0.07811   0.08872
 Alpha virt. eigenvalues --    0.09410   0.09724   0.10907   0.12227   0.12953

 Mulliken charges:
               1
     1  B    7.763632
     2  C   -3.705648
     3  C   -3.955522
     4  H    1.567928
     5  H    1.438345
     6  C   -3.022489
     7  C   -2.734748
     8  H    1.387327
     9  H    1.423916
    10  H    1.435664
    11  H    1.465892
    12  H    1.293081
    13  H    1.309565
    14  H    1.093307
    15  H   -3.693481
    16  H   -3.066770
 Sum of Mulliken charges =  -0.00000

 Dipole moment (field-independent basis, Debye):
    X=              0.3449    Y=              0.5830    Z=              0.1816  Tot=              0.7013

 Test job not archived.
 1\1\GINC-SE459\SP\RHF\Aug-CC-pVDZ\C4H11B1\OHZDE\09-Apr-2025\0\\#t hf a
 ug-cc-pvdz iop(5/13=1,5/36=2,99/5=2) pseudo=read geom=check guess=(rea
 d,tcheck) scf=(maxcycle=1)\\title\\0,1\B,0,-2.293883,-0.758517,-0.1705
 79\C,0,-1.490912,0.518022,0.205816\C,0,2.362439,-0.189265,-0.111738\H,
 0,-1.554724,0.736721,1.280143\H,0,-2.123807,1.308441,-0.248788\C,0,-0.
 047631,0.655448,-0.302985\C,0,0.920269,-0.313993,0.386219\H,0,0.311298
 ,1.681196,-0.153897\H,0,-0.02528,0.475275,-1.384597\H,0,0.568654,-1.34
 2167,0.232511\H,0,0.890533,-0.141278,1.469279\H,0,2.752774,0.819173,0.

 Normal termination of Gaussian 16 at Wed Apr  9 00:21:57 2025.
