 Gaussian 16, Revision C.01,

 ----------------------------------------------------------------------
 #t hf aug-cc-pvdz symm=none int=(grid=ultrafine) guess=(read,tcheck) s
 table=(opt,rrhf)
 ----------------------------------------------------------------------
 -----
 title
 -----
 Symbolic Z-matrix:
 Charge =  0 Multiplicity = 1

 SCF Done:  E(RHF) =  -669.906901506     A.U. after   15 cycles
 Normal termination of Gaussian 16 at Wed Apr  9 00:47:06 2025.
 Gaussian 16:  ES64L-G16RevC.01  3-Jul-2019

 ----------------------------------------------------------------------
 #t hf aug-cc-pvdz iop(5/13=1,5/36=2,99/5=2) pseudo=read geom=check gue
 ss=(read,tcheck) scf=(maxcycle=1)
 ----------------------------------------------------------------------
 -----
 title
 -----
 Structure from the checkpoint file:  "BDE49_nonexpt_813_mol1.chk"
 Charge =  0 Multiplicity = 1

                         Standard orientation:
 ---------------------------------------------------------------------
 Center     Atomic      Atomic             Coordinates (Angstroms)
 Number     Number       Type             X           Y           Z
 ---------------------------------------------------------------------
      1         14           0       -0.117246   -1.067004    0.000175
      2          7           0       -1.576514    0.148350    0.000249
      3          5           0        1.560818    0.085946    0.000085
      4          8           0       -1.329092    1.365435   -0.000460
      5          8           0       -2.707108   -0.305349   -0.000316
      6          8           0        1.481586    1.433502    0.000313
      7          8           0        2.752615   -0.564519   -0.000203
      8          1           0        3.505943    0.040759   -0.000226
      9          1           0        0.556870    1.740463    0.000547
     10          1           0       -0.386994   -1.871953   -1.207183
     11          1           0       -0.386875   -1.871938    1.207568
 ---------------------------------------------------------------------

 SCF Done:  E(RHF) =  -671.612442836     A.U. after    2 cycles

 The electronic state is 1-A.
 Alpha  occ. eigenvalues --  -76.27399 -21.11133 -21.09844 -21.08370 -21.06933
 Alpha  occ. eigenvalues --  -15.97030  -7.67085  -5.61008  -2.24831  -2.23916
 Alpha  occ. eigenvalues --   -2.22852  -1.98297  -1.82759  -1.69272  -1.67614
 Alpha  occ. eigenvalues --   -1.01648  -0.81218  -0.76025  -0.65900  -0.65426
 Alpha  occ. eigenvalues --   -0.64662  -0.61515  -0.57827  -0.52342  -0.49783
 Alpha  occ. eigenvalues --   -0.45241  -0.38224  -0.37838  -0.33334  -0.32210
 Alpha  occ. eigenvalues --   -0.31829
 Alpha virt. eigenvalues --    0.03306   0.03942   0.04711   0.05049   0.07242
 Alpha virt. eigenvalues --    0.07405   0.07965   0.08107   0.09085   0.09875
 Alpha virt. eigenvalues --    0.10730   0.10733   0.12146   0.13624   0.14917

 Mulliken charges:
               1
     1  Si   4.792035
     2  N    3.630089
     3  B    5.088439
     4  O   -2.253509
     5  O   -2.486197
     6  O   -4.286883
     7  O   -3.869946
     8  H    1.271327
     9  H    1.839417
    10  H   -1.862503
    11  H   -1.862268
 Sum of Mulliken charges =   0.00000

 Dipole moment (field-independent basis, Debye):
    X=              1.8753    Y=             -0.6038    Z=              0.0001  Tot=              1.9701

 Test job not archived.
 1\1\GINC-SE096\SP\RHF\Aug-CC-pVDZ\B1H4N1O4Si1\OHZDE\09-Apr-2025\0\\#t
 hf aug-cc-pvdz iop(5/13=1,5/36=2,99/5=2) pseudo=read geom=check guess=
 (read,tcheck) scf=(maxcycle=1)\\title\\0,1\Si,0,0.117246,-1.067004,-0.
 000175\N,0,1.576514,0.14835,-0.000249\B,0,-1.560818,0.085946,-0.000085
 \O,0,1.329092,1.365435,0.00046\O,0,2.707108,-0.305349,0.000316\O,0,-1.
 481586,1.433502,-0.000313\O,0,-2.752615,-0.564519,0.000203\H,0,-3.5059
 43,0.040759,0.000226\H,0,-0.55687,1.740463,-0.000547\H,0,0.386994,-1.8
 71953,1.207183\H,0,0.386875,-1.871938,-1.207568\\Version=ES64L-G16RevC

 Normal termination of Gaussian 16 at Wed Apr  9 00:47:10 2025.
