 Gaussian 16, Revision C.01,

 ----------------------------------------------------------------------
 #t hf aug-cc-pvdz symm=none int=(grid=ultrafine) guess=(read,tcheck) s
 table=opt
 ----------------------------------------------------------------------
 -----
 title
 -----
 Symbolic Z-matrix:
 Charge =  0 Multiplicity = 2

 SCF Done:  E(UHF) =  -921.375334366     A.U. after   19 cycles
 Normal termination of Gaussian 16 at Tue Apr  8 23:23:08 2025.
 Gaussian 16:  ES64L-G16RevC.01  3-Jul-2019

 ----------------------------------------------------------------------
 #t hf aug-cc-pvdz iop(5/13=1,5/36=2,99/5=2) pseudo=read geom=check gue
 ss=(read,tcheck) scf=(maxcycle=1)
 ----------------------------------------------------------------------
 -----
 title
 -----
 Structure from the checkpoint file:  "BDE49_nonexpt_1203_mol3.chk"
 Charge =  0 Multiplicity = 2

                         Standard orientation:
 ---------------------------------------------------------------------
 Center     Atomic      Atomic             Coordinates (Angstroms)
 Number     Number       Type             X           Y           Z
 ---------------------------------------------------------------------
      1         16           0       -2.585523   -0.491936   -0.000044
      2          6           0       -1.035184    0.312898   -0.000002
      3          8           0       -0.926506    1.501955    0.000037
      4          6           0        1.309884   -0.139039    0.000010
      5          9           0        2.081706   -1.219363   -0.000015
      6          9           0        1.577643    0.586730    1.084045
      7          9           0        1.577668    0.586798   -1.083973
      8          8           0       -0.000118   -0.596912   -0.000019
 ---------------------------------------------------------------------

 SCF Done:  E(UHF) =  -923.476314244     A.U. after    2 cycles

 The electronic state is 2-A.
 Alpha  occ. eigenvalues --  -75.77271 -29.34199 -29.33898 -29.33853 -21.16258
 Alpha  occ. eigenvalues --  -21.10636 -13.21082 -13.12947 -13.08076 -11.64222
 Alpha  occ. eigenvalues --  -11.57747  -8.11090  -1.94297  -1.74854  -1.38340
 Alpha  occ. eigenvalues --   -1.20317  -0.96148  -0.95107  -0.88276  -0.68343
 Alpha  occ. eigenvalues --   -0.64122  -0.61582  -0.52646  -0.50071  -0.47124
 Alpha  occ. eigenvalues --   -0.46146  -0.42641  -0.42602  -0.37088  -0.36039
 Alpha  occ. eigenvalues --   -0.32804  -0.30156  -0.30081  -0.27432  -0.27288
 Alpha  occ. eigenvalues --   -0.23876
 Alpha virt. eigenvalues --    0.04447   0.07902   0.10329   0.10589   0.11667
 Alpha virt. eigenvalues --    0.12249   0.12828   0.13279   0.14357   0.15134
 Alpha virt. eigenvalues --    0.16440   0.18152   0.19326   0.21159   0.22110

  Beta  occ. eigenvalues --  -75.76244 -29.34199 -29.33897 -29.33853 -21.16231
  Beta  occ. eigenvalues --  -21.10481 -13.20566 -13.07440 -13.06733 -11.64208
  Beta  occ. eigenvalues --  -11.57858  -8.09936  -1.94222  -1.74568  -1.38184
  Beta  occ. eigenvalues --   -1.12801  -0.96091  -0.95104  -0.86687  -0.67458
  Beta  occ. eigenvalues --   -0.62924  -0.61623  -0.52050  -0.49968  -0.47118
  Beta  occ. eigenvalues --   -0.46138  -0.42551  -0.41546  -0.36008  -0.35560
  Beta  occ. eigenvalues --   -0.29901  -0.28984  -0.27391  -0.26901  -0.23865
  Beta virt. eigenvalues --    0.01110   0.04762   0.08037   0.10322   0.11381
  Beta virt. eigenvalues --    0.12242   0.12369   0.13326   0.14015   0.14389
  Beta virt. eigenvalues --    0.15887   0.16607   0.18582   0.19975   0.21197

 Mulliken charges and spin densities:
               1          2
     1  S    1.061575   1.120655
     2  C    1.489139  -0.032431
     3  O   -2.130316  -0.002570
     4  C    0.386786  -0.012837
     5  F    0.751701   0.000995
     6  F    0.522565   0.002563
     7  F    0.522565   0.002563
     8  O   -2.604016  -0.078938
 Sum of Mulliken charges =  -0.00000   1.00000

 Dipole moment (field-independent basis, Debye):
    X=              0.7402    Y=             -0.6268    Z=             -0.0000  Tot=              0.9699
                          Isotropic Fermi Contact Couplings
        Atom                 a.u.       MegaHertz       Gauss      10(-4) cm-1
     1  S(33)              0.32253     110.78094      39.52940      36.95255
     2  C(13)             -0.01096     -12.32286      -4.39710      -4.11046
     3  O(17)              0.01999     -12.11689      -4.32361      -4.04176
     4  C(13)              0.00369       4.15192       1.48151       1.38493
     5  F(19)             -0.00025      -1.04376      -0.37244      -0.34816
     6  F(19)             -0.00011      -0.47898      -0.17091      -0.15977
     7  F(19)             -0.00011      -0.47897      -0.17091      -0.15977
     8  O(17)              0.01447      -8.77444      -3.13094      -2.92684

 Normal termination of Gaussian 16 at Tue Apr  8 23:23:12 2025.
