 Gaussian 16, Revision C.01,

 ----------------------------------------------------------------------
 #t hf aug-cc-pvdz symm=none int=(grid=ultrafine) guess=(read,tcheck) s
 table=(opt,rrhf)
 ----------------------------------------------------------------------
 -----
 title
 -----
 Symbolic Z-matrix:
 Charge =  0 Multiplicity = 1

 SCF Done:  E(RHF) =  -356.233145495     A.U. after   13 cycles
 Normal termination of Gaussian 16 at Wed Apr  9 00:33:20 2025.
 Gaussian 16:  ES64L-G16RevC.01  3-Jul-2019

 ----------------------------------------------------------------------
 #t hf aug-cc-pvdz iop(5/13=1,5/36=2,99/5=2) pseudo=read geom=check gue
 ss=(read,tcheck) scf=(maxcycle=1)
 ----------------------------------------------------------------------
 -----
 title
 -----
 Structure from the checkpoint file:  "BDE49_nonexpt_405_mol1.chk"
 Charge =  0 Multiplicity = 1

                         Standard orientation:
 ---------------------------------------------------------------------
 Center     Atomic      Atomic             Coordinates (Angstroms)
 Number     Number       Type             X           Y           Z
 ---------------------------------------------------------------------
      1          9           0        1.229621   -1.338507   -0.000110
      2          9           0        1.669713    0.880002   -0.000192
      3          5           0        0.772701   -0.096429    0.000311
      4          6           0       -0.767866    0.232553    0.000106
      5          6           0       -1.763593   -0.898471    0.000037
      6          7           0       -1.191323    1.440762    0.000022
      7          1           0       -1.624424   -1.538761   -0.877192
      8          1           0       -2.777614   -0.498509   -0.000093
      9          1           0       -1.624623   -1.538696    0.877344
     10          1           0       -0.402840    2.094827    0.000095
 ---------------------------------------------------------------------

 SCF Done:  E(RHF) =  -357.637789771     A.U. after    2 cycles

 The electronic state is 1-A.
 Alpha  occ. eigenvalues --  -29.27427 -29.27259 -15.76449 -11.44103 -11.37826
 Alpha  occ. eigenvalues --   -7.72246  -1.38285  -1.15523  -1.07645  -0.81130
 Alpha  occ. eigenvalues --   -0.76485  -0.69767  -0.59686  -0.55417  -0.53822
 Alpha  occ. eigenvalues --   -0.52027  -0.47493  -0.46744  -0.41816  -0.41257
 Alpha  occ. eigenvalues --   -0.35586  -0.34408  -0.26955
 Alpha virt. eigenvalues --    0.03528   0.03936   0.04620   0.05180   0.07131
 Alpha virt. eigenvalues --    0.07648   0.07679   0.08965   0.10437   0.11419
 Alpha virt. eigenvalues --    0.14693   0.15302   0.16002   0.16240   0.16499

 Mulliken charges:
               1
     1  F   -0.038261
     2  F   -0.605884
     3  B    1.239953
     4  C    0.043005
     5  C   -2.608304
     6  N   -2.760366
     7  H    1.298929
     8  H    1.188979
     9  H    1.299045
    10  H    0.942905
 Sum of Mulliken charges =   0.00000

 Dipole moment (field-independent basis, Debye):
    X=              3.3606    Y=             -1.3474    Z=             -0.0009  Tot=              3.6207

 Test job not archived.
 1\1\GINC-SE044\SP\RHF\Aug-CC-pVDZ\C2H4B1F2N1\OHZDE\09-Apr-2025\0\\#t h
 f aug-cc-pvdz iop(5/13=1,5/36=2,99/5=2) pseudo=read geom=check guess=(
 read,tcheck) scf=(maxcycle=1)\\title\\0,1\F,0,1.229622,-1.338506,-0.00
 011\F,0,1.669712,0.880003,-0.000192\B,0,0.772701,-0.096428,0.000311\C,
 0,-0.767866,0.232553,0.000106\C,0,-1.763593,-0.898472,0.000037\N,0,-1.
 191324,1.440761,0.000022\H,0,-1.624423,-1.538762,-0.877192\H,0,-2.7776
 14,-0.498511,-0.000093\H,0,-1.624622,-1.538697,0.877344\H,0,-0.402841,
 2.094827,0.000095\\Version=ES64L-G16RevC.01\State=1-A\HF=-357.6377898\

 Normal termination of Gaussian 16 at Wed Apr  9 00:33:23 2025.
