 Gaussian 16, Revision C.01,

 ----------------------------------------------------------------------
 #t hf aug-cc-pvdz symm=none int=(grid=ultrafine) guess=(read,tcheck) s
 table=(opt,rrhf)
 ----------------------------------------------------------------------
 -----
 title
 -----
 Symbolic Z-matrix:
 Charge =  0 Multiplicity = 1

 SCF Done:  E(RHF) =  -1064.83088270     A.U. after   16 cycles
 Normal termination of Gaussian 16 at Tue Apr  8 23:01:52 2025.
 Gaussian 16:  ES64L-G16RevC.01  3-Jul-2019

 ----------------------------------------------------------------------
 #t hf aug-cc-pvdz iop(5/13=1,5/36=2,99/5=2) pseudo=read geom=check gue
 ss=(read,tcheck) scf=(maxcycle=1)
 ----------------------------------------------------------------------
 -----
 title
 -----
 Structure from the checkpoint file:  "BDE49_expt_1960_mol1.chk"
 Charge =  0 Multiplicity = 1

                         Standard orientation:
 ---------------------------------------------------------------------
 Center     Atomic      Atomic             Coordinates (Angstroms)
 Number     Number       Type             X           Y           Z
 ---------------------------------------------------------------------
      1         16           0       -2.356366   -0.531322   -0.397333
      2         16           0       -1.070367   -0.195276    1.216320
      3          6           0       -2.590442    1.142334   -1.093795
      4          1           0       -3.292417    1.025416   -1.923252
      5          1           0       -1.648077    1.536350   -1.473137
      6          1           0       -3.015942    1.812840   -0.348250
      7          6           0        0.560860   -0.088931    0.470409
      8          6           0        1.255847    1.121645    0.539586
      9          6           0        1.165096   -1.206549   -0.114583
     10          6           0        2.449912   -1.105689   -0.636932
     11          6           0        2.550158    1.211791    0.028529
     12          6           0        3.146083    0.101715   -0.563546
     13          1           0        4.150231    0.173977   -0.965585
     14          1           0        2.913809   -1.973253   -1.092608
     15          1           0        0.625527   -2.144649   -0.159023
     16          1           0        0.783113    1.984729    0.993109
     17          1           0        3.086402    2.152269    0.086949
 ---------------------------------------------------------------------

 SCF Done:  E(RHF) =  -1066.59810324     A.U. after    2 cycles

 The electronic state is 1-A.
 Alpha  occ. eigenvalues --  -75.70711 -75.70128 -13.18977 -13.12967 -13.10778
 Alpha  occ. eigenvalues --  -13.08253 -13.08139 -13.04091 -11.51997 -11.44336
 Alpha  occ. eigenvalues --  -11.43852 -11.41937 -11.41278 -11.39808 -11.37214
 Alpha  occ. eigenvalues --   -8.04600  -8.03969  -1.36495  -1.23326  -1.12943
 Alpha  occ. eigenvalues --   -1.09938  -1.03298  -0.91150  -0.87249  -0.83214
 Alpha  occ. eigenvalues --   -0.71370  -0.64546  -0.59363  -0.59125  -0.59032
 Alpha  occ. eigenvalues --   -0.58098  -0.54406  -0.52130  -0.46257  -0.45103
 Alpha  occ. eigenvalues --   -0.40932  -0.39053  -0.33790  -0.30349  -0.25576
 Alpha  occ. eigenvalues --   -0.22860
 Alpha virt. eigenvalues --    0.02872   0.03706   0.04471   0.05124   0.05586
 Alpha virt. eigenvalues --    0.06097   0.06860   0.07805   0.08363   0.09244
 Alpha virt. eigenvalues --    0.10622   0.11148   0.11687   0.12510   0.12899

 Mulliken charges:
               1
     1  S    0.364309
     2  S   -0.444006
     3  C   -4.799247
     4  H    1.401306
     5  H    1.548479
     6  H    1.499241
     7  C    4.069866
     8  C   -3.824779
     9  C   -4.138938
    10  C   -0.693074
    11  C   -0.856551
    12  C   -2.435727
    13  H    1.524022
    14  H    1.560857
    15  H    1.831719
    16  H    1.850308
    17  H    1.542216
 Sum of Mulliken charges =  -0.00000

 Dipole moment (field-independent basis, Debye):
    X=              0.1788    Y=             -0.3939    Z=             -0.0993  Tot=              0.4438

 Test job not archived.
 1\1\GINC-SE080\SP\RHF\Aug-CC-pVDZ\C7H8S2\OHZDE\08-Apr-2025\0\\#t hf au
 g-cc-pvdz iop(5/13=1,5/36=2,99/5=2) pseudo=read geom=check guess=(read
 ,tcheck) scf=(maxcycle=1)\\title\\0,1\S,0,-2.356366,0.531322,0.397333\
 S,0,-1.070367,0.195276,-1.21632\C,0,-2.590442,-1.142334,1.093795\H,0,-
 3.292417,-1.025416,1.923252\H,0,-1.648077,-1.53635,1.473137\H,0,-3.015
 942,-1.81284,0.34825\C,0,0.56086,0.088931,-0.470409\C,0,1.255847,-1.12
 1645,-0.539586\C,0,1.165096,1.206549,0.114583\C,0,2.449912,1.105689,0.
 636932\C,0,2.550158,-1.211791,-0.028529\C,0,3.146083,-0.101715,0.56354

 Normal termination of Gaussian 16 at Tue Apr  8 23:02:00 2025.
