 Gaussian 16, Revision C.01,

 ----------------------------------------------------------------------
 #t hf aug-cc-pvdz symm=none int=(grid=ultrafine) guess=(read,tcheck) s
 table=(opt,rrhf)
 ----------------------------------------------------------------------
 -----
 title
 -----
 Symbolic Z-matrix:
 Charge =  0 Multiplicity = 1

 SCF Done:  E(RHF) =  -279.565198176     A.U. after   12 cycles
 Normal termination of Gaussian 16 at Wed Apr  9 00:36:05 2025.
 Gaussian 16:  ES64L-G16RevC.01  3-Jul-2019

 ----------------------------------------------------------------------
 #t hf aug-cc-pvdz iop(5/13=1,5/36=2,99/5=2) pseudo=read geom=check gue
 ss=(read,tcheck) scf=(maxcycle=1)
 ----------------------------------------------------------------------
 -----
 title
 -----
 Structure from the checkpoint file:  "BDE49_nonexpt_46_mol1.chk"
 Charge =  0 Multiplicity = 1

                         Standard orientation:
 ---------------------------------------------------------------------
 Center     Atomic      Atomic             Coordinates (Angstroms)
 Number     Number       Type             X           Y           Z
 ---------------------------------------------------------------------
      1          5           0       -0.804713    0.571818    0.274423
      2          5           0        0.804713    0.571819   -0.274421
      3          8           0       -1.716733   -0.217405   -0.335328
      4          6           0       -3.089961   -0.259803    0.054232
      5          1           0       -3.336893   -1.279463    0.357671
      6          1           0       -3.706175    0.011090   -0.805846
      7          1           0       -3.284698    0.429549    0.881254
      8          8           0        1.716733   -0.217406    0.335327
      9          6           0        3.089961   -0.259803   -0.054233
     10          1           0        3.336893   -1.279463   -0.357673
     11          1           0        3.706175    0.011089    0.805845
     12          1           0        3.284698    0.429550   -0.881254
     13          1           0        1.184585    1.277793   -1.178925
     14          1           0       -1.184585    1.277791    1.178927
 ---------------------------------------------------------------------

 SCF Done:  E(RHF) =  -280.819909341     A.U. after    2 cycles

 The electronic state is 1-A.
 Alpha  occ. eigenvalues --  -21.02817 -21.02810 -11.40622 -11.40599  -7.59739
 Alpha  occ. eigenvalues --   -7.59061  -1.76582  -1.75932  -1.01547  -0.99726
 Alpha  occ. eigenvalues --   -0.79915  -0.70547  -0.62100  -0.60605  -0.60597
 Alpha  occ. eigenvalues --   -0.57471  -0.54163  -0.53870  -0.42108  -0.39025
 Alpha  occ. eigenvalues --   -0.38572  -0.36796  -0.32970
 Alpha virt. eigenvalues --    0.02682   0.03511   0.03555   0.04172   0.07151
 Alpha virt. eigenvalues --    0.07294   0.07415   0.07493   0.07849   0.08793
 Alpha virt. eigenvalues --    0.09731   0.09860   0.10966   0.12459   0.13081

 Mulliken charges:
               1
     1  B    4.962931
     2  B    4.962923
     3  O   -3.791056
     4  C   -2.139073
     5  H    1.282467
     6  H    1.302899
     7  H    1.595087
     8  O   -3.791055
     9  C   -2.139073
    10  H    1.282467
    11  H    1.302899
    12  H    1.595087
    13  H   -3.213250
    14  H   -3.213252
 Sum of Mulliken charges =  -0.00000

 Dipole moment (field-independent basis, Debye):
    X=             -0.0000    Y=             -0.7763    Z=              0.0000  Tot=              0.7763

 Test job not archived.
 1\1\GINC-SE253\SP\RHF\Aug-CC-pVDZ\C2H8B2O2\OHZDE\09-Apr-2025\0\\#t hf
 aug-cc-pvdz iop(5/13=1,5/36=2,99/5=2) pseudo=read geom=check guess=(re
 ad,tcheck) scf=(maxcycle=1)\\title\\0,1\B,0,-0.804713,0.571818,0.27442
 3\B,0,0.804713,0.571819,-0.274421\O,0,-1.716733,-0.217405,-0.335328\C,
 0,-3.089961,-0.259803,0.054232\H,0,-3.336893,-1.279463,0.357671\H,0,-3
 .706175,0.01109,-0.805846\H,0,-3.284698,0.429549,0.881254\O,0,1.716733
 ,-0.217406,0.335327\C,0,3.089961,-0.259803,-0.054233\H,0,3.336893,-1.2
 79463,-0.357673\H,0,3.706175,0.011089,0.805845\H,0,3.284698,0.42955,-0

 Normal termination of Gaussian 16 at Wed Apr  9 00:36:08 2025.
