 Gaussian 16, Revision C.01,

 ----------------------------------------------------------------------
 #t hf aug-cc-pvdz symm=none int=(grid=ultrafine) guess=(read,tcheck) s
 table=(opt,rrhf)
 ----------------------------------------------------------------------
 -----
 title
 -----
 Symbolic Z-matrix:
 Charge =  0 Multiplicity = 1

 SCF Done:  E(RHF) =  -1120.87817273     A.U. after   13 cycles
 Normal termination of Gaussian 16 at Tue Apr  8 23:44:41 2025.
 Gaussian 16:  ES64L-G16RevC.01  3-Jul-2019

 ----------------------------------------------------------------------
 #t hf aug-cc-pvdz iop(5/13=1,5/36=2,99/5=2) pseudo=read geom=check gue
 ss=(read,tcheck) scf=(maxcycle=1)
 ----------------------------------------------------------------------
 -----
 title
 -----
 Structure from the checkpoint file:  "BDE49_nonexpt_1700_mol1.chk"
 Charge =  0 Multiplicity = 1

                         Standard orientation:
 ---------------------------------------------------------------------
 Center     Atomic      Atomic             Coordinates (Angstroms)
 Number     Number       Type             X           Y           Z
 ---------------------------------------------------------------------
      1         16           0       -0.374460    1.486166   -0.322361
      2         15           0       -1.358941   -0.307491    0.106995
      3          8           0       -1.012149   -0.932062    1.392028
      4          6           0        1.172321    1.299595    0.688714
      5          6           0        2.412215    0.912515   -0.120776
      6          1           0        0.942408    0.593037    1.485640
      7          6           0        2.430227   -0.513935   -0.687538
      8          1           0        3.277863    1.046210    0.542181
      9          1           0        2.538357    1.630452   -0.937773
     10          6           0        2.478403   -1.615466    0.378002
     11          1           0        3.306428   -0.604446   -1.338486
     12          1           0        1.558005   -0.659832   -1.332667
     13          1           0        3.348119   -1.493748    1.032181
     14          1           0        2.555147   -2.601198   -0.089338
     15          1           0        1.583149   -1.620838    1.004414
     16          1           0        1.303720    2.284013    1.141378
     17          8           0       -1.128463   -1.222195   -1.187418
     18          1           0       -1.345334   -2.147687   -1.012191
     19          8           0       -2.908276    0.072737   -0.098106
     20          1           0       -3.260266    0.563651    0.655067
 ---------------------------------------------------------------------

 SCF Done:  E(RHF) =  -1123.05714428     A.U. after    2 cycles

 The electronic state is 1-A.
 Alpha  occ. eigenvalues -- -105.32069 -75.69758 -21.12113 -21.11966 -21.02970
 Alpha  occ. eigenvalues --  -13.15810 -13.10560 -13.05997 -11.44850 -11.41226
 Alpha  occ. eigenvalues --  -11.38113 -11.34860  -8.03976  -2.94273  -1.98967
 Alpha  occ. eigenvalues --   -1.90483  -1.80482  -1.54373  -1.40777  -1.27595
 Alpha  occ. eigenvalues --   -1.25274  -1.12768  -1.00823  -0.90596  -0.81199
 Alpha  occ. eigenvalues --   -0.69749  -0.64508  -0.63651  -0.60475  -0.56998
 Alpha  occ. eigenvalues --   -0.55830  -0.54111  -0.53778  -0.47162  -0.45484
 Alpha  occ. eigenvalues --   -0.44831  -0.44003  -0.43297  -0.39439  -0.34685
 Alpha  occ. eigenvalues --   -0.34120  -0.29701  -0.26912  -0.22013  -0.15013
 Alpha virt. eigenvalues --    0.03512   0.04568   0.05101   0.05757   0.05889
 Alpha virt. eigenvalues --    0.06117   0.06294   0.07126   0.08130   0.08400
 Alpha virt. eigenvalues --    0.10029   0.10634   0.11801   0.12276   0.12561

 Mulliken charges:
               1
     1  S   -1.518691
     2  P    8.508660
     3  O   -2.911487
     4  C   -3.855935
     5  C   -2.496665
     6  H    2.031351
     7  C   -3.262209
     8  H    1.350821
     9  H    1.387176
    10  C   -3.980153
    11  H    1.319022
    12  H    1.828160
    13  H    1.220003
    14  H    1.221471
    15  H    1.501825
    16  H    1.433709
    17  O   -2.714321
    18  H    0.790270
    19  O   -2.699728
    20  H    0.846721
 Sum of Mulliken charges =  -0.00000

 Dipole moment (field-independent basis, Debye):
    X=             -1.2798    Y=              0.1345    Z=             -1.8622  Tot=              2.2636

 Test job not archived.
 1\1\GINC-SE072\SP\RHF\Aug-CC-pVDZ\C4H11O3P1S1\OHZDE\08-Apr-2025\0\\#t
 hf aug-cc-pvdz iop(5/13=1,5/36=2,99/5=2) pseudo=read geom=check guess=
 (read,tcheck) scf=(maxcycle=1)\\title\\0,1\S,0,0.37446,-1.486166,-0.32
 2361\P,0,1.358941,0.307491,0.106995\O,0,1.012149,0.932062,1.392028\C,0
 ,-1.172321,-1.299595,0.688714\C,0,-2.412215,-0.912515,-0.120776\H,0,-0
 .942408,-0.593037,1.48564\C,0,-2.430227,0.513935,-0.687538\H,0,-3.2778
 63,-1.04621,0.542181\H,0,-2.538357,-1.630452,-0.937773\C,0,-2.478403,1
 .615466,0.378002\H,0,-3.306428,0.604446,-1.338486\H,0,-1.558005,0.6598

 Normal termination of Gaussian 16 at Tue Apr  8 23:44:52 2025.
