 Gaussian 16, Revision C.01,

 ----------------------------------------------------------------------
 #t hf aug-cc-pvdz symm=none int=(grid=ultrafine) guess=(read,tcheck) s
 table=opt
 ----------------------------------------------------------------------
 -----
 title
 -----
 Symbolic Z-matrix:
 Charge =  0 Multiplicity = 2

 SCF Done:  E(UHF) =  -446.817430299     A.U. after   14 cycles
 Normal termination of Gaussian 16 at Tue Apr  8 23:07:14 2025.
 Gaussian 16:  ES64L-G16RevC.01  3-Jul-2019

 ----------------------------------------------------------------------
 #t hf aug-cc-pvdz iop(5/13=1,5/36=2,99/5=2) pseudo=read geom=check gue
 ss=(read,tcheck) scf=(maxcycle=1)
 ----------------------------------------------------------------------
 -----
 title
 -----
 Structure from the checkpoint file:  "BDE49_expt_396_mol2.chk"
 Charge =  0 Multiplicity = 2

                         Standard orientation:
 ---------------------------------------------------------------------
 Center     Atomic      Atomic             Coordinates (Angstroms)
 Number     Number       Type             X           Y           Z
 ---------------------------------------------------------------------
      1          6           0       -0.000025   -0.353647    1.866209
      2         14           0       -0.000001   -0.012198    0.042449
      3          1           0       -0.911204   -0.444039    2.453039
      4          1           0        0.911140   -0.444050    2.453059
      5          6           0       -1.546635   -0.761850   -0.729263
      6          1           0       -1.573345   -1.847274   -0.596214
      7          1           0       -1.590684   -0.556358   -1.803558
      8          1           0       -2.454324   -0.349511   -0.277531
      9          6           0        1.546570   -0.761993   -0.729251
     10          1           0        1.590648   -0.556501   -1.803545
     11          1           0        1.573179   -1.847420   -0.596204
     12          1           0        2.454294   -0.349737   -0.277509
     13          6           0        0.000088    1.851426   -0.265714
     14          1           0       -0.882905    2.327226    0.170855
     15          1           0        0.000105    2.067677   -1.339424
     16          1           0        0.883119    2.327143    0.170867
 ---------------------------------------------------------------------

 SCF Done:  E(UHF) =  -447.795686846     A.U. after    2 cycles

 The electronic state is 2-A.
 Alpha  occ. eigenvalues --  -76.18193 -11.35647 -11.33796 -11.33715 -11.33660
 Alpha  occ. eigenvalues --   -5.52360  -2.16062  -2.15906  -2.15768  -1.08389
 Alpha  occ. eigenvalues --   -1.00308  -1.00192  -0.98737  -0.64667  -0.57563
 Alpha  occ. eigenvalues --   -0.56604  -0.55761  -0.55458  -0.53898  -0.53120
 Alpha  occ. eigenvalues --   -0.52550  -0.42227  -0.40945  -0.38523  -0.34013
 Alpha virt. eigenvalues --    0.02720   0.05634   0.05645   0.05871   0.06296
 Alpha virt. eigenvalues --    0.06411   0.06582   0.06867   0.07374   0.08479
 Alpha virt. eigenvalues --    0.08630   0.09636   0.09933   0.11247   0.12652

  Beta  occ. eigenvalues --  -76.18258 -11.33776 -11.33681 -11.33636 -11.33572
  Beta  occ. eigenvalues --   -5.52459  -2.16316  -2.15977  -2.15834  -1.07474
  Beta  occ. eigenvalues --   -1.00265  -0.99995  -0.90969  -0.64188  -0.56550
  Beta  occ. eigenvalues --   -0.56489  -0.55663  -0.55281  -0.53575  -0.52854
  Beta  occ. eigenvalues --   -0.52519  -0.39662  -0.38419  -0.38395
  Beta virt. eigenvalues --    0.02836   0.05001   0.05642   0.05723   0.06312
  Beta virt. eigenvalues --    0.06430   0.06521   0.06879   0.06926   0.08037
  Beta virt. eigenvalues --    0.08487   0.08633   0.09807   0.11270   0.11916

 Mulliken charges and spin densities:
               1          2
     1  C   -5.042600   1.343359
     2  Si  10.491952  -0.266458
     3  H    1.197557  -0.085565
     4  H    1.197563  -0.085562
     5  C   -5.886040   0.003311
     6  H    1.109434   0.012885
     7  H    1.159280   0.002398
     8  H    1.054588   0.001792
     9  C   -5.886038   0.003311
    10  H    1.159285   0.002399
    11  H    1.109438   0.012886
    12  H    1.054590   0.001793
    13  C   -5.907820   0.013361
    14  H    1.028968   0.016796
    15  H    1.130865   0.006499
    16  H    1.028978   0.016795
 Sum of Mulliken charges =  -0.00000   1.00000

 Dipole moment (field-independent basis, Debye):
    X=             -0.0000    Y=             -0.0260    Z=              0.0744  Tot=              0.0788
                          Isotropic Fermi Contact Couplings
        Atom                 a.u.       MegaHertz       Gauss      10(-4) cm-1
     1  C(13)              0.10096     113.49959      40.49948      37.85939
     2  Si(29)            -0.06126      54.44024      19.42563      18.15931
     3  H(1)              -0.01644     -73.47810     -26.21881     -24.50965
     4  H(1)              -0.01644     -73.47785     -26.21872     -24.50957
     5  C(13)              0.00293       3.28838       1.17338       1.09689
     6  H(1)              -0.00004      -0.20041      -0.07151      -0.06685
     7  H(1)               0.00005       0.23116       0.08248       0.07711
     8  H(1)              -0.00018      -0.81053      -0.28922      -0.27036

 Normal termination of Gaussian 16 at Tue Apr  8 23:07:19 2025.
