 Gaussian 16, Revision C.01,

 ----------------------------------------------------------------------
 #t hf aug-cc-pvdz symm=none int=(grid=ultrafine) guess=(read,tcheck) s
 table=opt
 ----------------------------------------------------------------------
 -----
 title
 -----
 Symbolic Z-matrix:
 Charge =  0 Multiplicity = 2

 SCF Done:  E(UHF) =  -502.251500184     A.U. after   19 cycles
 Normal termination of Gaussian 16 at Tue Apr  8 23:51:18 2025.
 Gaussian 16:  ES64L-G16RevC.01  3-Jul-2019

 ----------------------------------------------------------------------
 #t hf aug-cc-pvdz iop(5/13=1,5/36=2,99/5=2) pseudo=read geom=check gue
 ss=(read,tcheck) scf=(maxcycle=1)
 ----------------------------------------------------------------------
 -----
 title
 -----
 Structure from the checkpoint file:  "BDE49_nonexpt_1876_mol2.chk"
 Charge =  0 Multiplicity = 2

                         Standard orientation:
 ---------------------------------------------------------------------
 Center     Atomic      Atomic             Coordinates (Angstroms)
 Number     Number       Type             X           Y           Z
 ---------------------------------------------------------------------
      1         14           0        1.360028   -0.011122   -0.084370
      2          6           0       -0.529388    0.145153    0.013776
      3          8           0       -1.181643    1.134247    0.022991
      4          1           0        1.991404    1.246237    0.360477
      5          1           0        1.861716   -1.223144    0.593441
      6          9           0       -1.140449   -1.090253   -0.004369
 ---------------------------------------------------------------------

 SCF Done:  E(UHF) =  -503.180464903     A.U. after    2 cycles

 The electronic state is 2-A.
 Alpha  occ. eigenvalues --  -76.27200 -29.29796 -21.10648 -11.52624  -5.60727
 Alpha  occ. eigenvalues --   -2.24209  -2.23002  -2.21214  -1.76975  -1.05221
 Alpha  occ. eigenvalues --   -0.81862  -0.64496  -0.58097  -0.56328  -0.51306
 Alpha  occ. eigenvalues --   -0.42948  -0.32551  -0.30557  -0.28799  -0.26179
 Alpha virt. eigenvalues --    0.03979   0.05668   0.06059   0.06333   0.08816
 Alpha virt. eigenvalues --    0.09555   0.11147   0.13023   0.13458   0.14675
 Alpha virt. eigenvalues --    0.16617   0.17330   0.17757   0.22309   0.23267

  Beta  occ. eigenvalues --  -76.26619 -29.29837 -21.10082 -11.52875  -5.59824
  Beta  occ. eigenvalues --   -2.23477  -2.22303  -2.17451  -1.75986  -1.04820
  Beta  occ. eigenvalues --   -0.78484  -0.63749  -0.57762  -0.55772  -0.50873
  Beta  occ. eigenvalues --   -0.42932  -0.29196  -0.28662  -0.27783
  Beta virt. eigenvalues --    0.01557   0.04329   0.05888   0.06260   0.08082
  Beta virt. eigenvalues --    0.09082   0.10631   0.12264   0.13202   0.14410
  Beta virt. eigenvalues --    0.16907   0.17733   0.18873   0.19527   0.23100

 Mulliken charges and spin densities:
               1          2
     1  Si   3.859053   1.023639
     2  C    0.700191  -0.120346
     3  O   -2.371190   0.144436
     4  H   -1.393841  -0.009883
     5  H   -1.406404  -0.017776
     6  F    0.612191  -0.020070
 Sum of Mulliken charges =  -0.00000   1.00000

 Dipole moment (field-independent basis, Debye):
    X=              0.0206    Y=             -3.1226    Z=             -0.2127  Tot=              3.1299
                          Isotropic Fermi Contact Couplings
        Atom                 a.u.       MegaHertz       Gauss      10(-4) cm-1
     1  Si(29)             0.44950    -399.48562    -142.54640    -133.25406
     2  C(13)             -0.00808      -9.07827      -3.23935      -3.02818
     3  O(17)              0.03153     -19.11214      -6.81969      -6.37512
     4  H(1)               0.00115       5.15815       1.84056       1.72057
     5  H(1)               0.00025       1.12941       0.40300       0.37673
     6  F(19)             -0.00558     -23.46939      -8.37446      -7.82855
 --------------------------------------------------------
       Center         ----  Spin Dipole Couplings  ----

 1\1\GINC-SE095\SP\UHF\Aug-CC-pVDZ\C1H2F1O1Si1(2)\OHZDE\08-Apr-2025\0\\
 #t hf aug-cc-pvdz iop(5/13=1,5/36=2,99/5=2) pseudo=read geom=check gue
 ss=(read,tcheck) scf=(maxcycle=1)\\title\\0,2\Si,0,1.360028,-0.011122,
 -0.08437\C,0,-0.529388,0.145153,0.013776\O,0,-1.181643,1.134247,0.0229
 91\H,0,1.991404,1.246237,0.360477\H,0,1.861716,-1.223144,0.593441\F,0,
 -1.140449,-1.090253,-0.004369\\Version=ES64L-G16RevC.01\State=2-A\HF=-
 503.1804649\S2=0.768788\S2-1=0.\S2A=0.750162\RMSD=8.465e-02\Dipole=0.0
 081237,-1.2285381,-0.0836747\Quadrupole=0.3560603,-0.7257366,0.3696763

 Normal termination of Gaussian 16 at Tue Apr  8 23:51:20 2025.
