 Gaussian 16, Revision C.01,

 ----------------------------------------------------------------------
 #t hf aug-cc-pvdz symm=none int=(grid=ultrafine) guess=(read,tcheck) s
 table=(opt,rrhf)
 ----------------------------------------------------------------------
 -----
 title
 -----
 Symbolic Z-matrix:
 Charge =  0 Multiplicity = 1

 SCF Done:  E(RHF) =  -810.357124987     A.U. after   11 cycles
 Normal termination of Gaussian 16 at Tue Apr  8 22:43:47 2025.
 Gaussian 16:  ES64L-G16RevC.01  3-Jul-2019

 ----------------------------------------------------------------------
 #t hf aug-cc-pvdz iop(5/13=1,5/36=2,99/5=2) pseudo=read geom=check gue
 ss=(read,tcheck) scf=(maxcycle=1)
 ----------------------------------------------------------------------
 -----
 title
 -----
 Structure from the checkpoint file:  "BDE49_expt_143_mol1.chk"
 Charge =  0 Multiplicity = 1

                         Standard orientation:
 ---------------------------------------------------------------------
 Center     Atomic      Atomic             Coordinates (Angstroms)
 Number     Number       Type             X           Y           Z
 ---------------------------------------------------------------------
      1          6           0        1.196451    0.182962   -0.060004
      2          6           0       -0.187874   -0.494444    0.098058
      3          9           0        1.316617    1.229863    0.757633
      4          9           0        1.339840    0.609479   -1.329736
      5          9           0        2.170804   -0.687952    0.208791
      6          6           0       -1.364305    0.336780   -0.449102
      7          9           0       -0.380111   -0.770095    1.405215
      8          9           0       -0.155814   -1.660918   -0.595700
      9          9           0       -1.400605    1.537625    0.181017
     10          9           0       -2.511994   -0.329498   -0.183679
     11          1           0       -1.274252    0.491678   -1.525572
 ---------------------------------------------------------------------

 SCF Done:  E(RHF) =  -813.205780083     A.U. after    2 cycles

 The electronic state is 1-A.
 Alpha  occ. eigenvalues --  -29.34786 -29.34409 -29.34356 -29.33546 -29.33344
 Alpha  occ. eigenvalues --  -29.32276 -29.32131 -11.65920 -11.61029 -11.55050
 Alpha  occ. eigenvalues --   -1.53265  -1.38273  -1.21962  -0.98016  -0.95389
 Alpha  occ. eigenvalues --   -0.90060  -0.85913  -0.79353  -0.78090  -0.74559
 Alpha  occ. eigenvalues --   -0.52242  -0.49781  -0.48275  -0.47561  -0.47374
 Alpha  occ. eigenvalues --   -0.44108  -0.44030  -0.42145  -0.40538  -0.38830
 Alpha  occ. eigenvalues --   -0.37651  -0.34785  -0.33238  -0.31465  -0.30096
 Alpha  occ. eigenvalues --   -0.29345  -0.28829  -0.26587  -0.25870  -0.23947
 Alpha  occ. eigenvalues --   -0.22429
 Alpha virt. eigenvalues --    0.04776   0.09771   0.09897   0.10889   0.11007
 Alpha virt. eigenvalues --    0.12362   0.12625   0.13116   0.14112   0.15036
 Alpha virt. eigenvalues --    0.19960   0.20635   0.21597   0.22070   0.23501

 Mulliken charges:
               1
     1  C   -0.737027
     2  C   -1.292611
     3  F    0.460495
     4  F    0.367385
     5  F    0.568727
     6  C   -2.319178
     7  F    0.417883
     8  F    0.385067
     9  F    0.354432
    10  F    0.494413
    11  H    1.300415
 Sum of Mulliken charges =  -0.00000

 Dipole moment (field-independent basis, Debye):
    X=             -0.1939    Y=             -0.2683    Z=              1.4501  Tot=              1.4874

 Test job not archived.
 1\1\GINC-SE339\SP\RHF\Aug-CC-pVDZ\C3H1F7\OHZDE\08-Apr-2025\0\\#t hf au
 g-cc-pvdz iop(5/13=1,5/36=2,99/5=2) pseudo=read geom=check guess=(read
 ,tcheck) scf=(maxcycle=1)\\title\\0,1\C,0,1.196451,0.182962,-0.060004\
 C,0,-0.187874,-0.494444,0.098058\F,0,1.316617,1.229863,0.757633\F,0,1.
 33984,0.609479,-1.329736\F,0,2.170804,-0.687952,0.208791\C,0,-1.364305
 ,0.33678,-0.449102\F,0,-0.380111,-0.770095,1.405215\F,0,-0.155814,-1.6
 60918,-0.5957\F,0,-1.400605,1.537625,0.181017\F,0,-2.511994,-0.329498,
 -0.183679\H,0,-1.274252,0.491678,-1.525572\\Version=ES64L-G16RevC.01\S

 Normal termination of Gaussian 16 at Tue Apr  8 22:43:52 2025.
