 Gaussian 16, Revision C.01,

 ----------------------------------------------------------------------
 #t hf aug-cc-pvdz symm=none int=(grid=ultrafine) guess=(read,tcheck) s
 table=(opt,rrhf)
 ----------------------------------------------------------------------
 -----
 title
 -----
 Symbolic Z-matrix:
 Charge =  0 Multiplicity = 1

 SCF Done:  E(RHF) =  -593.569188022     A.U. after   16 cycles
 Normal termination of Gaussian 16 at Wed Apr  9 00:42:43 2025.
 Gaussian 16:  ES64L-G16RevC.01  3-Jul-2019

 ----------------------------------------------------------------------
 #t hf aug-cc-pvdz iop(5/13=1,5/36=2,99/5=2) pseudo=read geom=check gue
 ss=(read,tcheck) scf=(maxcycle=1)
 ----------------------------------------------------------------------
 -----
 title
 -----
 Structure from the checkpoint file:  "BDE49_nonexpt_660_mol1.chk"
 Charge =  0 Multiplicity = 1

                         Standard orientation:
 ---------------------------------------------------------------------
 Center     Atomic      Atomic             Coordinates (Angstroms)
 Number     Number       Type             X           Y           Z
 ---------------------------------------------------------------------
      1          6           0       -3.633863    0.498672    0.000014
      2          6           0       -2.665425    1.501532   -0.000005
      3          6           0       -1.315186    1.167500   -0.000019
      4          6           0       -3.253770   -0.843838    0.000019
      5          6           0       -1.906845   -1.183282    0.000005
      6          6           0       -0.931805   -0.178616   -0.000015
      7          1           0       -4.685503    0.762784    0.000025
      8          1           0       -2.962899    2.543706   -0.000009
      9          1           0       -0.554370    1.936426   -0.000034
     10          1           0       -4.007866   -1.622255    0.000034
     11          1           0       -1.588616   -2.218177    0.000008
     12          6           0        0.495914   -0.585380   -0.000032
     13          8           0        1.347857    0.461229   -0.000014
     14          5           0        2.755466    0.327369    0.000005
     15          8           0        3.417483    1.511733    0.000030
     16          8           0        0.862694   -1.745528    0.000000
     17          1           0        4.370262    1.379622    0.000043
     18          8           0        3.393435   -0.863580    0.000000
     19          1           0        2.745793   -1.589314   -0.000026
 ---------------------------------------------------------------------

 SCF Done:  E(RHF) =  -596.128910359     A.U. after    2 cycles

 The electronic state is 1-A.
 Alpha  occ. eigenvalues --  -21.07948 -21.06370 -21.06183 -21.05035 -11.56255
 Alpha  occ. eigenvalues --  -11.53360 -11.45258 -11.44864 -11.43186 -11.42408
 Alpha  occ. eigenvalues --  -11.38258  -7.67888  -1.92833  -1.77178  -1.67911
 Alpha  occ. eigenvalues --   -1.65979  -1.35626  -1.13339  -1.10882  -0.94379
 Alpha  occ. eigenvalues --   -0.88374  -0.83468  -0.76044  -0.72552  -0.67776
 Alpha  occ. eigenvalues --   -0.63531  -0.61536  -0.61430  -0.60412  -0.59821
 Alpha  occ. eigenvalues --   -0.56614  -0.52092  -0.52010  -0.48197  -0.47818
 Alpha  occ. eigenvalues --   -0.45867  -0.44928  -0.36956  -0.36668  -0.35758
 Alpha  occ. eigenvalues --   -0.34521  -0.33467  -0.30128
 Alpha virt. eigenvalues --    0.02761   0.04056   0.04767   0.05267   0.05632
 Alpha virt. eigenvalues --    0.05960   0.06710   0.07444   0.07897   0.07941
 Alpha virt. eigenvalues --    0.09040   0.09951   0.10872   0.11442   0.11857

 Mulliken charges:
               1
     1  C   -3.333055
     2  C   -1.243631
     3  C   -1.689740
     4  C   -1.306309
     5  C   -2.248160
     6  C    2.833283
     7  H    1.541657
     8  H    1.496620
     9  H    1.889256
    10  H    1.487969
    11  H    1.748779
    12  C    6.861413
    13  O   -9.434721
    14  B    9.551989
    15  O   -3.224909
    16  O   -3.798496
    17  H    0.880098
    18  O   -4.066229
    19  H    2.054188
 Sum of Mulliken charges =  -0.00000

 Dipole moment (field-independent basis, Debye):
    X=             -1.7921    Y=              0.1261    Z=              0.0000  Tot=              1.7965

 Test job not archived.
 1\1\GINC-SE457\SP\RHF\Aug-CC-pVDZ\C7H7B1O4\OHZDE\09-Apr-2025\0\\#t hf
 aug-cc-pvdz iop(5/13=1,5/36=2,99/5=2) pseudo=read geom=check guess=(re
 ad,tcheck) scf=(maxcycle=1)\\title\\0,1\C,0,-3.633863,0.498672,0.00001
 4\C,0,-2.665425,1.501532,-0.000005\C,0,-1.315186,1.1675,-0.000019\C,0,
 -3.25377,-0.843838,0.000019\C,0,-1.906845,-1.183282,0.000005\C,0,-0.93
 1805,-0.178616,-0.000015\H,0,-4.685503,0.762784,0.000025\H,0,-2.962899
 ,2.543706,-0.000009\H,0,-0.55437,1.936426,-0.000034\H,0,-4.007866,-1.6
 22255,0.000034\H,0,-1.588616,-2.218177,0.000008\C,0,0.495914,-0.58538,

 Normal termination of Gaussian 16 at Wed Apr  9 00:42:54 2025.
