 Gaussian 16, Revision C.01,

 ----------------------------------------------------------------------
 #t hf aug-cc-pvdz symm=none int=(grid=ultrafine) guess=(read,tcheck) s
 table=(opt,rrhf)
 ----------------------------------------------------------------------
 -----
 title
 -----
 Symbolic Z-matrix:
 Charge =  0 Multiplicity = 1

 SCF Done:  E(RHF) =  -1825.53127032     A.U. after   14 cycles

 1\1\GINC-SE015\Stability\RHF\Aug-CC-pVDZ\C6H14S4\OHZDE\08-Apr-2025\0\\
 #t hf aug-cc-pvdz symm=none int=(grid=ultrafine) guess=(read,tcheck) s
 table=(opt,rrhf)\\title\\0,1\S,0,1.63019,0.582606,-1.044026\S,0,0.8351
 82,-1.281382,-0.590198\C,0,3.008831,0.847524,0.179268\S,0,-0.692539,-1
 .081964,0.880001\S,0,-2.541091,-1.066651,-0.062445\C,0,-3.03062,0.7186
 22,-0.246934\C,0,4.125334,-0.182797,0.023549\H,0,3.77167,-1.181929,0.2
 89438\H,0,4.958329,0.066181,0.688876\H,0,4.49972,-0.213131,-1.001179\C
 ,0,-3.106254,1.446138,1.0935\H,0,-2.114657,1.534697,1.544052\H,0,-3.75

 Normal termination of Gaussian 16 at Tue Apr  8 23:05:17 2025.
 Gaussian 16:  ES64L-G16RevC.01  3-Jul-2019

 ----------------------------------------------------------------------
 #t hf aug-cc-pvdz iop(5/13=1,5/36=2,99/5=2) pseudo=read geom=check gue
 ss=(read,tcheck) scf=(maxcycle=1)
 ----------------------------------------------------------------------
 -----
 title
 -----
 Structure from the checkpoint file:  "BDE49_expt_1969_mol1.chk"
 Charge =  0 Multiplicity = 1

                         Standard orientation:
 ---------------------------------------------------------------------
 Center     Atomic      Atomic             Coordinates (Angstroms)
 Number     Number       Type             X           Y           Z
 ---------------------------------------------------------------------
      1         16           0        1.630190    0.582606   -1.044026
      2         16           0        0.835182   -1.281382   -0.590198
      3          6           0        3.008831    0.847524    0.179268
      4         16           0       -0.692539   -1.081964    0.880001
      5         16           0       -2.541091   -1.066651   -0.062445
      6          6           0       -3.030620    0.718622   -0.246934
      7          6           0        4.125334   -0.182797    0.023549
      8          1           0        3.771670   -1.181929    0.289438
      9          1           0        4.958329    0.066181    0.688876
     10          1           0        4.499720   -0.213131   -1.001179
     11          6           0       -3.106254    1.446138    1.093500
     12          1           0       -2.114657    1.534697    1.544052
     13          1           0       -3.757240    0.923129    1.796349
     14          1           0       -3.497935    2.457751    0.946365
     15          6           0        2.509390    0.974432    1.616374
     16          1           0        3.366932    1.825260   -0.166287
     17          1           0        1.726994    1.729947    1.705955
     18          1           0        3.338703    1.255919    2.273300
     19          1           0        2.109603    0.023474    1.976698
     20          6           0       -2.192698    1.460945   -1.284897
     21          1           0       -4.046452    0.575763   -0.637112
     22          1           0       -1.165628    1.592763   -0.937254
     23          1           0       -2.617532    2.454544   -1.462446
     24          1           0       -2.164279    0.924698   -2.235234
 ---------------------------------------------------------------------

 SCF Done:  E(RHF) =  -1827.67756095     A.U. after    2 cycles

 The electronic state is 1-A.
 Alpha  occ. eigenvalues --  -75.72840 -75.72676 -75.70508 -75.70265 -13.18304
 Alpha  occ. eigenvalues --  -13.14698 -13.13861 -13.13141 -13.10591 -13.10344
 Alpha  occ. eigenvalues --  -13.09442 -13.08888 -13.07580 -13.07435 -13.06900
 Alpha  occ. eigenvalues --  -13.05590 -11.44232 -11.43850 -11.39029 -11.38639
 Alpha  occ. eigenvalues --  -11.36850 -11.36451  -8.06455  -8.06383  -8.04373
 Alpha  occ. eigenvalues --   -8.04138  -1.30663  -1.27492  -1.19714  -1.11803
 Alpha  occ. eigenvalues --   -1.01479  -1.01345  -1.00808  -0.92149  -0.82188
 Alpha  occ. eigenvalues --   -0.80207  -0.64264  -0.63799  -0.60566  -0.60009
 Alpha  occ. eigenvalues --   -0.57354  -0.56940  -0.54579  -0.54178  -0.49761
 Alpha  occ. eigenvalues --   -0.49157  -0.47839  -0.47416  -0.44084  -0.42659
 Alpha  occ. eigenvalues --   -0.41687  -0.36751  -0.36401  -0.27333  -0.24305
 Alpha  occ. eigenvalues --   -0.23763  -0.21011
 Alpha virt. eigenvalues --    0.02859   0.02961   0.04079   0.04691   0.05834
 Alpha virt. eigenvalues --    0.06012   0.06282   0.06466   0.06572   0.07075
 Alpha virt. eigenvalues --    0.07234   0.07824   0.08171   0.08774   0.09898

 Mulliken charges:
               1
     1  S    0.070284
     2  S   -0.551951
     3  C   -0.854481
     4  S   -0.113264
     5  S   -0.135635
     6  C   -0.994193
     7  C   -4.375057
     8  H    1.439498
     9  H    1.215069
    10  H    1.371294
    11  C   -4.407281
    12  H    1.654548
    13  H    1.302618
    14  H    1.195154
    15  C   -4.489002
    16  H    1.779141
    17  H    1.391565
    18  H    1.201096
    19  H    1.563517
    20  C   -4.176581
    21  H    1.736229
    22  H    1.592296
    23  H    1.234365
    24  H    1.350770
 Sum of Mulliken charges =   0.00000

 Dipole moment (field-independent basis, Debye):
    X=             -0.2092    Y=              0.2470    Z=             -0.3134  Tot=              0.4505

 Test job not archived.
 1\1\GINC-SE015\SP\RHF\Aug-CC-pVDZ\C6H14S4\OHZDE\08-Apr-2025\0\\#t hf a
 ug-cc-pvdz iop(5/13=1,5/36=2,99/5=2) pseudo=read geom=check guess=(rea
 d,tcheck) scf=(maxcycle=1)\\title\\0,1\S,0,1.63019,0.582606,-1.044026\
 S,0,0.835182,-1.281382,-0.590198\C,0,3.008831,0.847524,0.179268\S,0,-0
 .692539,-1.081964,0.880001\S,0,-2.541091,-1.066651,-0.062445\C,0,-3.03
 062,0.718622,-0.246934\C,0,4.125334,-0.182797,0.023549\H,0,3.77167,-1.
 181929,0.289438\H,0,4.958329,0.066181,0.688876\H,0,4.49972,-0.213131,-
 1.001179\C,0,-3.106254,1.446138,1.0935\H,0,-2.114657,1.534697,1.544052

 Normal termination of Gaussian 16 at Tue Apr  8 23:05:35 2025.
