 Gaussian 16, Revision C.01,

 ----------------------------------------------------------------------
 #t hf aug-cc-pvdz symm=none int=(grid=ultrafine) guess=(read,tcheck) s
 table=(opt,rrhf)
 ----------------------------------------------------------------------
 -----
 title
 -----
 Symbolic Z-matrix:
 Charge =  0 Multiplicity = 1

 SCF Done:  E(RHF) =  -612.048999805     A.U. after   13 cycles
 Normal termination of Gaussian 16 at Tue Apr  8 23:59:58 2025.
 Gaussian 16:  ES64L-G16RevC.01  3-Jul-2019

 ----------------------------------------------------------------------
 #t hf aug-cc-pvdz iop(5/13=1,5/36=2,99/5=2) pseudo=read geom=check gue
 ss=(read,tcheck) scf=(maxcycle=1)
 ----------------------------------------------------------------------
 -----
 title
 -----
 Structure from the checkpoint file:  "BDE49_nonexpt_2079_mol1.chk"
 Charge =  0 Multiplicity = 1

                         Standard orientation:
 ---------------------------------------------------------------------
 Center     Atomic      Atomic             Coordinates (Angstroms)
 Number     Number       Type             X           Y           Z
 ---------------------------------------------------------------------
      1         14           0        2.427219    0.117617    0.000000
      2          8           0        0.807115    0.611546   -0.000004
      3          6           0       -0.146395   -0.361151   -0.000006
      4          8           0        0.158573   -1.541380    0.000001
      5          7           0       -1.413955    0.125410   -0.000005
      6          6           0       -1.744585    1.542789    0.000001
      7          1           0       -0.835194    2.134601   -0.000021
      8          1           0       -2.335921    1.794264    0.887657
      9          1           0       -2.335960    1.794258   -0.887630
     10          6           0       -2.528225   -0.810848    0.000007
     11          1           0       -3.151449   -0.662892    0.888695
     12          1           0       -2.135900   -1.824205    0.000000
     13          1           0       -3.151468   -0.662888   -0.888667
     14          1           0        3.146609    1.406538    0.000002
     15          1           0        2.752820   -0.645125   -1.218568
     16          1           0        2.752813   -0.645125    1.218570
 ---------------------------------------------------------------------

 SCF Done:  E(RHF) =  -613.648718197     A.U. after    2 cycles

 The electronic state is 1-A.
 Alpha  occ. eigenvalues --  -76.24461 -21.07859 -21.02577 -15.75330 -11.51934
 Alpha  occ. eigenvalues --  -11.40683 -11.39689  -5.57865  -2.24105  -2.19758
 Alpha  occ. eigenvalues --   -2.19510  -1.81751  -1.64080  -1.43138  -1.05640
 Alpha  occ. eigenvalues --   -1.00020  -0.80014  -0.71458  -0.67660  -0.66778
 Alpha  occ. eigenvalues --   -0.63422  -0.56575  -0.55996  -0.55234  -0.53003
 Alpha  occ. eigenvalues --   -0.50263  -0.47902  -0.47514  -0.41146  -0.36659
 Alpha  occ. eigenvalues --   -0.30381  -0.29818
 Alpha virt. eigenvalues --    0.03338   0.04830   0.05432   0.05452   0.05989
 Alpha virt. eigenvalues --    0.06121   0.07147   0.07436   0.07680   0.08903
 Alpha virt. eigenvalues --    0.10409   0.10535   0.11534   0.13304   0.13588

 Mulliken charges:
               1
     1  Si   5.958126
     2  O   -3.075041
     3  C    5.962013
     4  O   -2.703301
     5  N   -2.923533
     6  C   -3.490848
     7  H    1.691593
     8  H    1.426045
     9  H    1.426050
    10  C   -3.460433
    11  H    1.407092
    12  H    1.424341
    13  H    1.407091
    14  H   -1.694486
    15  H   -1.677356
    16  H   -1.677353
 Sum of Mulliken charges =  -0.00000

 Dipole moment (field-independent basis, Debye):
    X=             -1.9317    Y=              1.6701    Z=              0.0000  Tot=              2.5536

 Test job not archived.
 1\1\GINC-SE364\SP\RHF\Aug-CC-pVDZ\C3H9N1O2Si1\OHZDE\09-Apr-2025\0\\#t
 hf aug-cc-pvdz iop(5/13=1,5/36=2,99/5=2) pseudo=read geom=check guess=
 (read,tcheck) scf=(maxcycle=1)\\title\\0,1\Si,0,2.427219,0.117617,0.\O
 ,0,0.807115,0.611546,-0.000004\C,0,-0.146395,-0.361151,-0.000006\O,0,0
 .158573,-1.54138,0.000001\N,0,-1.413955,0.12541,-0.000005\C,0,-1.74458
 5,1.542789,0.000001\H,0,-0.835194,2.134601,-0.000021\H,0,-2.335921,1.7
 94264,0.887657\H,0,-2.33596,1.794258,-0.88763\C,0,-2.528225,-0.810848,
 0.000007\H,0,-3.151449,-0.662892,0.888695\H,0,-2.1359,-1.824205,0.\H,0

 Normal termination of Gaussian 16 at Wed Apr  9 00:00:04 2025.
