 Gaussian 16, Revision C.01,

 ----------------------------------------------------------------------
 #t hf aug-cc-pvdz symm=none int=(grid=ultrafine) guess=(read,tcheck) s
 table=(opt,rrhf)
 ----------------------------------------------------------------------
 -----
 title
 -----
 Symbolic Z-matrix:
 Charge =  0 Multiplicity = 1

 SCF Done:  E(RHF) =  -2064.54129772     A.U. after   14 cycles
 Normal termination of Gaussian 16 at Tue Apr  8 23:11:07 2025.
 Gaussian 16:  ES64L-G16RevC.01  3-Jul-2019

 ----------------------------------------------------------------------
 #t hf aug-cc-pvdz iop(5/13=1,5/36=2,99/5=2) pseudo=read geom=check gue
 ss=(read,tcheck) scf=(maxcycle=1)
 ----------------------------------------------------------------------
 -----
 title
 -----
 Structure from the checkpoint file:  "BDE49_expt_626_mol1.chk"
 Charge =  0 Multiplicity = 1

                         Standard orientation:
 ---------------------------------------------------------------------
 Center     Atomic      Atomic             Coordinates (Angstroms)
 Number     Number       Type             X           Y           Z
 ---------------------------------------------------------------------
      1          6           0       -0.596354    0.090418    0.189401
      2          8           0       -1.146714    1.367090    0.234610
      3          8           0       -1.266085    1.876418   -1.119184
      4          1           0       -2.196037    1.668210   -1.304062
      5          6           0        0.747863    0.051721   -0.587442
      6         17           0       -0.430736   -0.347134    1.897821
      7         17           0        1.491817   -1.569381   -0.583216
      8          1           0        0.543799    0.317330   -1.618108
      9         17           0        1.877190    1.278978    0.053559
     10         17           0       -1.759120   -1.055783   -0.639515
 ---------------------------------------------------------------------

 SCF Done:  E(RHF) =  -2066.49214687     A.U. after    2 cycles

 The electronic state is 1-A.
 Alpha  occ. eigenvalues --  -99.92314 -99.92010 -99.91494 -99.91216 -21.16634
 Alpha  occ. eigenvalues --  -21.15800 -11.58939 -11.52050 -10.49760 -10.49319
 Alpha  occ. eigenvalues --  -10.48882 -10.48510  -9.69717  -9.69238  -9.68811
 Alpha  occ. eigenvalues --   -9.68758  -9.68706  -9.68482  -9.68457  -9.68427
 Alpha  occ. eigenvalues --   -9.67934  -9.67867  -9.67656  -9.67582  -2.00743
 Alpha  occ. eigenvalues --   -1.54257  -1.42167  -1.35137  -1.31540  -1.30139
 Alpha  occ. eigenvalues --   -1.08556  -0.90895  -0.76427  -0.74556  -0.71527
 Alpha  occ. eigenvalues --   -0.67505  -0.65221  -0.61382  -0.56280  -0.55589
 Alpha  occ. eigenvalues --   -0.54442  -0.53276  -0.51693  -0.51391  -0.50708
 Alpha  occ. eigenvalues --   -0.49765  -0.47821  -0.38539  -0.37898
 Alpha virt. eigenvalues --    0.02808   0.03371   0.04331   0.05724   0.06813
 Alpha virt. eigenvalues --    0.07739   0.08059   0.09622   0.10873   0.12088
 Alpha virt. eigenvalues --    0.12786   0.13226   0.14332   0.14997   0.15721

 Mulliken charges:
               1
     1  C    2.096168
     2  O   -1.759717
     3  O   -0.870905
     4  H    0.885820
     5  C   -2.905159
     6  Cl   0.041719
     7  Cl   0.196302
     8  H    2.125657
     9  Cl   0.224080
    10  Cl  -0.033966
 Sum of Mulliken charges =  -0.00000

 Dipole moment (field-independent basis, Debye):
    X=             -1.4016    Y=              2.2220    Z=             -1.5081  Tot=              3.0292

 Test job not archived.
 1\1\GINC-SE453\SP\RHF\Aug-CC-pVDZ\C2H2Cl4O2\OHZDE\08-Apr-2025\0\\#t hf
  aug-cc-pvdz iop(5/13=1,5/36=2,99/5=2) pseudo=read geom=check guess=(r
 ead,tcheck) scf=(maxcycle=1)\\title\\0,1\C,0,-0.596354,0.090418,0.1894
 01\O,0,-1.146713,1.367091,0.23461\O,0,-1.266084,1.876419,-1.119184\H,0
 ,-2.196036,1.668211,-1.304062\C,0,0.747863,0.051721,-0.587442\Cl,0,-0.
 430736,-0.347134,1.897821\Cl,0,1.491816,-1.569382,-0.583216\H,0,0.5437
 99,0.31733,-1.618108\Cl,0,1.877191,1.278977,0.053559\Cl,0,-1.75912,-1.
 055782,-0.639515\\Version=ES64L-G16RevC.01\State=1-A\HF=-2066.4921469\

 Normal termination of Gaussian 16 at Tue Apr  8 23:11:12 2025.
