 Gaussian 16, Revision C.01,

 ----------------------------------------------------------------------
 #t hf aug-cc-pvdz symm=none int=(grid=ultrafine) guess=(read,tcheck) s
 table=(opt,rrhf)
 ----------------------------------------------------------------------
 -----
 title
 -----
 Symbolic Z-matrix:
 Charge =  0 Multiplicity = 1

 SCF Done:  E(RHF) =  -663.782271266     A.U. after   16 cycles
 Normal termination of Gaussian 16 at Tue Apr  8 23:33:52 2025.
 Gaussian 16:  ES64L-G16RevC.01  3-Jul-2019

 ----------------------------------------------------------------------
 #t hf aug-cc-pvdz iop(5/13=1,5/36=2,99/5=2) pseudo=read geom=check gue
 ss=(read,tcheck) scf=(maxcycle=1)
 ----------------------------------------------------------------------
 -----
 title
 -----
 Structure from the checkpoint file:  "BDE49_nonexpt_1422_mol1.chk"
 Charge =  0 Multiplicity = 1

                         Standard orientation:
 ---------------------------------------------------------------------
 Center     Atomic      Atomic             Coordinates (Angstroms)
 Number     Number       Type             X           Y           Z
 ---------------------------------------------------------------------
      1          6           0        0.186711    2.076333    0.004671
      2          6           0       -1.033450    1.402703   -0.017580
      3          6           0       -1.084686    0.002946   -0.012517
      4          6           0        1.378657    1.364560    0.011973
      5          6           0        1.343833   -0.037297    0.001295
      6          6           0        0.115655   -0.711750   -0.006783
      7          1           0        0.206130    3.159757    0.006202
      8          1           0       -1.956519    1.971804   -0.044358
      9         15           0       -2.750731   -0.806792   -0.048629
     10          1           0        2.332226    1.877365    0.020254
     11          6           0        2.565265   -0.784123    0.002298
     12          7           0        3.550344   -1.387284    0.003259
     13          1           0        0.111867   -1.794610   -0.006888
     14          1           0       -2.797836   -1.197394    1.316191
     15          1           0       -2.319218   -2.084293   -0.484928
 ---------------------------------------------------------------------

 SCF Done:  E(RHF) =  -665.472045105     A.U. after    2 cycles

 The electronic state is 1-A.
 Alpha  occ. eigenvalues -- -105.20129 -15.76533 -11.55362 -11.48381 -11.46865
 Alpha  occ. eigenvalues --  -11.45288 -11.44263 -11.43883 -11.39801  -2.76972
 Alpha  occ. eigenvalues --   -1.52140  -1.46791  -1.45481  -1.38539  -1.29056
 Alpha  occ. eigenvalues --   -1.13890  -1.11424  -0.92764  -0.88952  -0.78898
 Alpha  occ. eigenvalues --   -0.71651  -0.70121  -0.62629  -0.61601  -0.55687
 Alpha  occ. eigenvalues --   -0.54125  -0.52706  -0.48403  -0.47187  -0.44120
 Alpha  occ. eigenvalues --   -0.36914  -0.34614  -0.26942  -0.25352  -0.04340
 Alpha virt. eigenvalues --    0.02819   0.05091   0.05374   0.06193   0.06759
 Alpha virt. eigenvalues --    0.07125   0.07770   0.08310   0.08961   0.10354
 Alpha virt. eigenvalues --    0.10756   0.11026   0.11635   0.12445   0.12484

 Mulliken charges:
               1
     1  C   -0.700295
     2  C   -4.767166
     3  C    3.096449
     4  C   -2.838575
     5  C    5.591942
     6  C   -3.755184
     7  H    1.526409
     8  H    1.907659
     9  P    0.589631
    10  H    1.696918
    11  C   -0.724488
    12  N   -2.255653
    13  H    1.994405
    14  H   -0.489749
    15  H   -0.872303
 Sum of Mulliken charges =   0.00000

 Dipole moment (field-independent basis, Debye):
    X=             -4.0613    Y=              3.9075    Z=             -1.3624  Tot=              5.7982

 Test job not archived.
 1\1\GINC-SE284\SP\RHF\Aug-CC-pVDZ\C7H6N1P1\OHZDE\08-Apr-2025\0\\#t hf
 aug-cc-pvdz iop(5/13=1,5/36=2,99/5=2) pseudo=read geom=check guess=(re
 ad,tcheck) scf=(maxcycle=1)\\title\\0,1\C,0,0.186711,2.076333,0.004671
 \C,0,-1.03345,1.402703,-0.01758\C,0,-1.084686,0.002946,-0.012517\C,0,1
 .378657,1.36456,0.011973\C,0,1.343833,-0.037297,0.001295\C,0,0.115655,
 -0.71175,-0.006783\H,0,0.20613,3.159757,0.006202\H,0,-1.956519,1.97180
 4,-0.044358\P,0,-2.750731,-0.806792,-0.048629\H,0,2.332226,1.877365,0.
 020254\C,0,2.565265,-0.784123,0.002298\N,0,3.550344,-1.387284,0.003259

 Normal termination of Gaussian 16 at Tue Apr  8 23:33:58 2025.
