 Gaussian 16, Revision C.01,

 ----------------------------------------------------------------------
 #t hf aug-cc-pvdz symm=none int=(grid=ultrafine) guess=(read,tcheck) s
 table=(opt,rrhf)
 ----------------------------------------------------------------------
 -----
 title
 -----
 Symbolic Z-matrix:
 Charge =  0 Multiplicity = 1

 SCF Done:  E(RHF) =  -718.166947405     A.U. after   15 cycles
 Normal termination of Gaussian 16 at Tue Apr  8 23:17:04 2025.
 Gaussian 16:  ES64L-G16RevC.01  3-Jul-2019

 ----------------------------------------------------------------------
 #t hf aug-cc-pvdz iop(5/13=1,5/36=2,99/5=2) pseudo=read geom=check gue
 ss=(read,tcheck) scf=(maxcycle=1)
 ----------------------------------------------------------------------
 -----
 title
 -----
 Structure from the checkpoint file:  "BDE49_nonexpt_1005_mol1.chk"
 Charge =  0 Multiplicity = 1

                         Standard orientation:
 ---------------------------------------------------------------------
 Center     Atomic      Atomic             Coordinates (Angstroms)
 Number     Number       Type             X           Y           Z
 ---------------------------------------------------------------------
      1          6           0        1.214228   -0.891867    0.000099
      2          6           0        0.785622    0.560347   -0.000050
      3         16           0       -1.009205    0.939176   -0.000125
      4          8           0        1.527702    1.500926   -0.000193
      5          7           0       -1.733912   -0.824458   -0.000062
      6          8           0       -2.901724   -0.865038    0.000280
      7          6           0        2.733975   -1.052141    0.000125
      8          1           0        0.758967   -1.377688   -0.868485
      9          1           0        0.758957   -1.377526    0.868768
     10          1           0        3.179871   -0.586692   -0.880375
     11          1           0        2.996233   -2.112317    0.000227
     12          1           0        3.179856   -0.586528    0.880546
 ---------------------------------------------------------------------

 SCF Done:  E(RHF) =  -719.808672862     A.U. after    2 cycles

 The electronic state is 1-A.
 Alpha  occ. eigenvalues --  -75.73271 -21.18793 -21.08515 -15.93915 -13.16059
 Alpha  occ. eigenvalues --  -13.12262 -13.04705 -11.52929 -11.43388 -11.38533
 Alpha  occ. eigenvalues --   -8.07213  -1.92715  -1.74546  -1.23658  -1.16571
 Alpha  occ. eigenvalues --   -0.98218  -0.93638  -0.75298  -0.68263  -0.65363
 Alpha  occ. eigenvalues --   -0.61226  -0.59131  -0.58677  -0.54934  -0.52733
 Alpha  occ. eigenvalues --   -0.51306  -0.47308  -0.46759  -0.29324  -0.27782
 Alpha  occ. eigenvalues --   -0.25684
 Alpha virt. eigenvalues --    0.03175   0.05559   0.05828   0.05990   0.06934
 Alpha virt. eigenvalues --    0.07856   0.08763   0.09461   0.10953   0.12708
 Alpha virt. eigenvalues --    0.12871   0.12924   0.13813   0.13965   0.14847

 Mulliken charges:
               1
     1  C   -4.033584
     2  C    2.523251
     3  S    1.537060
     4  O   -2.984337
     5  N    1.217345
     6  O   -1.901247
     7  C   -3.238423
     8  H    1.705005
     9  H    1.704995
    10  H    1.212097
    11  H    1.045750
    12  H    1.212089
 Sum of Mulliken charges =   0.00000

 Dipole moment (field-independent basis, Debye):
    X=             -0.3593    Y=              0.3949    Z=              0.0001  Tot=              0.5339

 Test job not archived.
 1\1\GINC-SE220\SP\RHF\Aug-CC-pVDZ\C3H5N1O2S1\OHZDE\08-Apr-2025\0\\#t h
 f aug-cc-pvdz iop(5/13=1,5/36=2,99/5=2) pseudo=read geom=check guess=(
 read,tcheck) scf=(maxcycle=1)\\title\\0,1\C,0,1.214228,-0.891867,0.000
 099\C,0,0.785622,0.560347,-0.00005\S,0,-1.009205,0.939176,-0.000125\O,
 0,1.527702,1.500926,-0.000193\N,0,-1.733912,-0.824458,-0.000062\O,0,-2
 .901724,-0.865039,0.00028\C,0,2.733975,-1.05214,0.000125\H,0,0.758967,
 -1.377688,-0.868485\H,0,0.758957,-1.377526,0.868768\H,0,3.179871,-0.58
 6691,-0.880375\H,0,2.996233,-2.112316,0.000227\H,0,3.179856,-0.586527,

 Normal termination of Gaussian 16 at Tue Apr  8 23:17:09 2025.
