 Gaussian 16, Revision C.01,

 ----------------------------------------------------------------------
 #t hf aug-cc-pvdz symm=none int=(grid=ultrafine) guess=(read,tcheck) s
 table=(opt,rrhf)
 ----------------------------------------------------------------------
 -----
 title
 -----
 Symbolic Z-matrix:
 Charge =  0 Multiplicity = 1

 SCF Done:  E(RHF) =  -685.971132481     A.U. after   16 cycles
 Normal termination of Gaussian 16 at Tue Apr  8 23:36:13 2025.
 Gaussian 16:  ES64L-G16RevC.01  3-Jul-2019

 ----------------------------------------------------------------------
 #t hf aug-cc-pvdz iop(5/13=1,5/36=2,99/5=2) pseudo=read geom=check gue
 ss=(read,tcheck) scf=(maxcycle=1)
 ----------------------------------------------------------------------
 -----
 title
 -----
 Structure from the checkpoint file:  "BDE49_nonexpt_1485_mol1.chk"
 Charge =  0 Multiplicity = 1

                         Standard orientation:
 ---------------------------------------------------------------------
 Center     Atomic      Atomic             Coordinates (Angstroms)
 Number     Number       Type             X           Y           Z
 ---------------------------------------------------------------------
      1          6           0       -1.633591    1.180176   -0.103604
      2          6           0       -0.250113    1.351826   -0.082133
      3          6           0       -2.201493   -0.091767   -0.007795
      4          6           0       -1.340280   -1.190967    0.115857
      5          6           0        0.038281   -1.025200    0.154708
      6          6           0        0.601097    0.253921    0.063560
      7         15           0        2.418795    0.537986    0.098835
      8          8           0        3.008290   -0.988797   -0.270970
      9          1           0        3.416309   -0.975766   -1.141747
     10          1           0       -2.278208    2.046897   -0.209720
     11          1           0        0.166134    2.349759   -0.183524
     12          1           0       -1.759497   -2.190183    0.188079
     13          1           0        0.691180   -1.885681    0.246100
     14          6           0       -3.697197   -0.288794   -0.056997
     15          1           0       -4.226809    0.664518   -0.006904
     16          1           0       -4.042706   -0.910910    0.773703
     17          1           0       -3.999086   -0.789278   -0.982965
     18          1           0        2.584211    0.396063    1.500643
 ---------------------------------------------------------------------

 SCF Done:  E(RHF) =  -687.785539506     A.U. after    2 cycles

 The electronic state is 1-A.
 Alpha  occ. eigenvalues -- -105.20978 -21.08347 -11.50713 -11.43363 -11.43034
 Alpha  occ. eigenvalues --  -11.41652 -11.40506 -11.38859 -11.35855  -2.78632
 Alpha  occ. eigenvalues --   -1.78024  -1.52302  -1.46455  -1.36943  -1.33446
 Alpha  occ. eigenvalues --   -1.13298  -1.09040  -0.98498  -0.86612  -0.82284
 Alpha  occ. eigenvalues --   -0.72991  -0.65164  -0.61960  -0.60664  -0.57727
 Alpha  occ. eigenvalues --   -0.57661  -0.53816  -0.51836  -0.49232  -0.47065
 Alpha  occ. eigenvalues --   -0.43788  -0.38691  -0.32975  -0.32746  -0.27512
 Alpha  occ. eigenvalues --   -0.22741  -0.02222
 Alpha virt. eigenvalues --    0.03835   0.04794   0.05367   0.06103   0.06278
 Alpha virt. eigenvalues --    0.06790   0.07599   0.07850   0.08149   0.09236
 Alpha virt. eigenvalues --    0.10089   0.10617   0.11793   0.11971   0.13205

 Mulliken charges:
               1
     1  C   -0.450813
     2  C   -5.338710
     3  C    2.632036
     4  C   -0.435944
     5  C   -3.513497
     6  C    1.676516
     7  P    2.775245
     8  O   -2.398100
     9  H    0.854450
    10  H    1.879684
    11  H    1.798660
    12  H    1.875411
    13  H    1.908233
    14  C   -5.774585
    15  H    1.206336
    16  H    0.992427
    17  H    1.100693
    18  H   -0.788040
 Sum of Mulliken charges =  -0.00000

 Dipole moment (field-independent basis, Debye):
    X=             -1.3015    Y=             -0.6248    Z=             -0.4906  Tot=              1.5248

 Test job not archived.
 1\1\GINC-SE460\SP\RHF\Aug-CC-pVDZ\C7H9O1P1\OHZDE\08-Apr-2025\0\\#t hf
 aug-cc-pvdz iop(5/13=1,5/36=2,99/5=2) pseudo=read geom=check guess=(re
 ad,tcheck) scf=(maxcycle=1)\\title\\0,1\C,0,-1.633591,1.180176,-0.1036
 04\C,0,-0.250113,1.351826,-0.082133\C,0,-2.201493,-0.091767,-0.007795\
 C,0,-1.34028,-1.190967,0.115857\C,0,0.038281,-1.0252,0.154708\C,0,0.60
 1097,0.253921,0.06356\P,0,2.418795,0.537986,0.098835\O,0,3.00829,-0.98
 8797,-0.27097\H,0,3.416309,-0.975766,-1.141747\H,0,-2.278208,2.046897,
 -0.20972\H,0,0.166134,2.349759,-0.183524\H,0,-1.759497,-2.190183,0.188

 Normal termination of Gaussian 16 at Tue Apr  8 23:36:21 2025.
