 Gaussian 16, Revision C.01,

 ----------------------------------------------------------------------
 #t hf aug-cc-pvdz symm=none int=(grid=ultrafine) guess=(read,tcheck) s
 table=(opt,rrhf)
 ----------------------------------------------------------------------
 -----
 title
 -----
 Symbolic Z-matrix:
 Charge =  0 Multiplicity = 1

 SCF Done:  E(RHF) =  -776.585427627     A.U. after   11 cycles
 Normal termination of Gaussian 16 at Tue Apr  8 23:13:57 2025.
 Gaussian 16:  ES64L-G16RevC.01  3-Jul-2019

 ----------------------------------------------------------------------
 #t hf aug-cc-pvdz iop(5/13=1,5/36=2,99/5=2) pseudo=read geom=check gue
 ss=(read,tcheck) scf=(maxcycle=1)
 ----------------------------------------------------------------------
 -----
 title
 -----
 Structure from the checkpoint file:  "BDE49_expt_803_mol1.chk"
 Charge =  0 Multiplicity = 1

                         Standard orientation:
 ---------------------------------------------------------------------
 Center     Atomic      Atomic             Coordinates (Angstroms)
 Number     Number       Type             X           Y           Z
 ---------------------------------------------------------------------
      1         14           0        0.239954   -0.983273   -0.000000
      2         14           0       -0.758296    1.168294    0.000000
      3          6           0       -0.298472   -1.943062    1.539306
      4          6           0        2.127851   -0.839861   -0.000000
      5          6           0       -0.298472   -1.943062   -1.539306
      6          6           0       -0.298472    2.158448   -1.546501
      7          6           0       -0.298472    2.158448    1.546501
      8          1           0       -2.240220    0.989865    0.000000
      9          1           0       -1.385618   -2.058934   -1.577402
     10          1           0        0.143253   -2.945292   -1.545551
     11          1           0        0.014610   -1.437983   -2.457877
     12          1           0        0.014610   -1.437983    2.457877
     13          1           0        0.143253   -2.945292    1.545551
     14          1           0       -1.385618   -2.058934    1.577402
     15          1           0        0.780765    2.329420    1.602390
     16          1           0       -0.601974    1.636605    2.458316
     17          1           0       -0.790723    3.135802    1.543259
     18          1           0        0.780765    2.329420   -1.602390
     19          1           0       -0.790723    3.135802   -1.543259
     20          1           0       -0.601974    1.636605   -2.458316
     21          1           0        2.490738   -0.306259    0.883519
     22          1           0        2.490738   -0.306259   -0.883519
     23          1           0        2.591119   -1.832342   -0.000000
 ---------------------------------------------------------------------

 SCF Done:  E(RHF) =  -777.972896776     A.U. after    2 cycles

 The electronic state is 1-A'.
 Alpha  occ. eigenvalues --  -76.18505 -76.18127 -11.34257 -11.34254 -11.34168
 Alpha  occ. eigenvalues --  -11.34089 -11.33887  -5.52290  -5.52121  -2.16018
 Alpha  occ. eigenvalues --   -2.15680  -2.15668  -2.15294  -2.14619  -2.13314
 Alpha  occ. eigenvalues --   -1.07086  -1.04954  -1.00526  -1.00302  -0.99931
 Alpha  occ. eigenvalues --   -0.70748  -0.61828  -0.56859  -0.56107  -0.55925
 Alpha  occ. eigenvalues --   -0.55789  -0.55167  -0.54361  -0.54077  -0.53848
 Alpha  occ. eigenvalues --   -0.53466  -0.52681  -0.42545  -0.39833  -0.38597
 Alpha  occ. eigenvalues --   -0.38009  -0.30244
 Alpha virt. eigenvalues --    0.03209   0.04522   0.04850   0.05476   0.06119
 Alpha virt. eigenvalues --    0.06122   0.06392   0.06465   0.06604   0.07381
 Alpha virt. eigenvalues --    0.07445   0.07916   0.08073   0.08616   0.08657

 Mulliken charges:
               1
     1  Si   8.623032
     2  Si   5.945320
     3  C   -6.328690
     4  C   -6.361740
     5  C   -6.328690
     6  C   -5.444015
     7  C   -5.444015
     8  H   -2.454657
     9  H    1.167209
    10  H    1.116124
    11  H    1.103581
    12  H    1.103581
    13  H    1.116124
    14  H    1.167209
    15  H    1.360398
    16  H    1.321778
    17  H    1.186997
    18  H    1.360398
    19  H    1.186997
    20  H    1.321778
    21  H    1.108894
    22  H    1.108894
    23  H    1.063493
 Sum of Mulliken charges =  -0.00000

 Dipole moment (field-independent basis, Debye):
    X=              0.7074    Y=             -0.0249    Z=             -0.0000  Tot=              0.7079

 Test job not archived.
 1\1\GINC-SE367\SP\RHF\Aug-CC-pVDZ\C5H16Si2\OHZDE\08-Apr-2025\0\\#t hf
 aug-cc-pvdz iop(5/13=1,5/36=2,99/5=2) pseudo=read geom=check guess=(re
 ad,tcheck) scf=(maxcycle=1)\\title\\0,1\Si,0,0.239954,-0.983273,0.\Si,
 0,-0.758296,1.168294,0.\C,0,-0.298472,-1.943062,1.539306\C,0,2.127851,
 -0.839861,0.\C,0,-0.298472,-1.943062,-1.539306\C,0,-0.298472,2.158448,
 -1.546501\C,0,-0.298472,2.158448,1.546501\H,0,-2.24022,0.989865,0.\H,0
 ,-1.385618,-2.058934,-1.577402\H,0,0.143253,-2.945292,-1.545551\H,0,0.
 01461,-1.437983,-2.457877\H,0,0.01461,-1.437983,2.457877\H,0,0.143253,

 Normal termination of Gaussian 16 at Tue Apr  8 23:14:04 2025.
