 Gaussian 16, Revision C.01,

 ----------------------------------------------------------------------
 #t hf aug-cc-pvdz symm=none int=(grid=ultrafine) guess=(read,tcheck) s
 table=opt
 ----------------------------------------------------------------------
 -----
 title
 -----
 Symbolic Z-matrix:
 Charge =  0 Multiplicity = 2

 SCF Done:  E(UHF) =  -468.891929035     A.U. after   16 cycles
 Normal termination of Gaussian 16 at Wed Apr  9 00:14:28 2025.
 Gaussian 16:  ES64L-G16RevC.01  3-Jul-2019

 ----------------------------------------------------------------------
 #t hf aug-cc-pvdz iop(5/13=1,5/36=2,99/5=2) pseudo=read geom=check gue
 ss=(read,tcheck) scf=(maxcycle=1)
 ----------------------------------------------------------------------
 -----
 title
 -----
 Structure from the checkpoint file:  "BDE49_nonexpt_2457_mol2.chk"
 Charge =  0 Multiplicity = 2

                         Standard orientation:
 ---------------------------------------------------------------------
 Center     Atomic      Atomic             Coordinates (Angstroms)
 Number     Number       Type             X           Y           Z
 ---------------------------------------------------------------------
      1         14           0        1.176731   -1.171540   -0.057871
      2          5           0        0.130272    0.550869    0.003444
      3          1           0        2.634763   -1.103692    0.198837
      4          1           0        0.635403   -2.465662    0.425833
      5          8           0       -1.225158    0.592627   -0.003448
      6          6           0        0.900221    1.925437    0.013425
      7          1           0        1.731802    1.945130   -0.698538
      8          1           0        1.345796    2.101463    1.000727
      9          1           0        0.231147    2.763051   -0.204181
     10          6           0       -2.068270   -0.557665    0.001858
     11          1           0       -3.079014   -0.223945   -0.232914
     12          1           0       -2.067683   -1.030009    0.987882
     13          1           0       -1.748242   -1.286774   -0.748782
 ---------------------------------------------------------------------

 SCF Done:  E(UHF) =  -469.862032434     A.U. after    2 cycles

 The electronic state is 2-A.
 Alpha  occ. eigenvalues --  -76.20767 -21.03503 -11.41423 -11.32912  -7.62298
 Alpha  occ. eigenvalues --   -5.54341  -2.17552  -2.16650  -2.14620  -1.76944
 Alpha  occ. eigenvalues --   -1.07996  -0.98209  -0.79579  -0.65891  -0.61864
 Alpha  occ. eigenvalues --   -0.61261  -0.56158  -0.54590  -0.48688  -0.46792
 Alpha  occ. eigenvalues --   -0.44139  -0.39247  -0.33169  -0.24507
 Alpha virt. eigenvalues --    0.03495   0.03992   0.04487   0.05292   0.06871
 Alpha virt. eigenvalues --    0.07421   0.07607   0.07902   0.08825   0.09209
 Alpha virt. eigenvalues --    0.09839   0.09994   0.10631   0.11090   0.11652

  Beta  occ. eigenvalues --  -76.20270 -21.03433 -11.41425 -11.32917  -7.62367
  Beta  occ. eigenvalues --   -5.53603  -2.16963  -2.16000  -2.11028  -1.76802
  Beta  occ. eigenvalues --   -1.07880  -0.98183  -0.75804  -0.64896  -0.61713
  Beta  occ. eigenvalues --   -0.61224  -0.56027  -0.54379  -0.48610  -0.46873
  Beta  occ. eigenvalues --   -0.44225  -0.38564  -0.32175
  Beta virt. eigenvalues --    0.02863   0.03608   0.04065   0.04641   0.06319
  Beta virt. eigenvalues --    0.06932   0.07524   0.07822   0.08011   0.09186
  Beta virt. eigenvalues --    0.09571   0.09975   0.10980   0.11081   0.11516

 Mulliken charges and spin densities:
               1          2
     1  Si   4.381339   1.137133
     2  B    3.861456  -0.001089
     3  H   -1.515559  -0.070020
     4  H   -1.548764  -0.078793
     5  O   -5.099674   0.038065
     6  C   -5.560254   0.001992
     7  H    0.967322  -0.003318
     8  H    0.872338   0.012142
     9  H    1.350592  -0.002990
    10  C   -2.101729   0.001992
    11  H    1.326073  -0.002114
    12  H    1.546852  -0.011618
    13  H    1.520008  -0.021381
 Sum of Mulliken charges =  -0.00000   1.00000

 Dipole moment (field-independent basis, Debye):
    X=             -1.1294    Y=              0.0032    Z=             -0.0004  Tot=              1.1294
                          Isotropic Fermi Contact Couplings
        Atom                 a.u.       MegaHertz       Gauss      10(-4) cm-1
     1  Si(29)             0.24060    -213.82765     -76.29902     -71.32523
     2  B(11)             -0.00869     -12.46764      -4.44876      -4.15876
     3  H(1)              -0.00890     -39.78813     -14.19739     -13.27189
     4  H(1)              -0.00886     -39.62336     -14.13860     -13.21693
     5  O(17)              0.00491      -2.97628      -1.06201      -0.99278
     6  C(13)             -0.00105      -1.17899      -0.42069      -0.39327
     7  H(1)              -0.00009      -0.41411      -0.14776      -0.13813
     8  H(1)               0.00149       6.64267       2.37027       2.21576

 1\1\GINC-SE273\SP\UHF\Aug-CC-pVDZ\C2H8B1O1Si1(2)\OHZDE\09-Apr-2025\0\\
 #t hf aug-cc-pvdz iop(5/13=1,5/36=2,99/5=2) pseudo=read geom=check gue
 ss=(read,tcheck) scf=(maxcycle=1)\\title\\0,2\Si,0,1.176732,-1.171538,
 -0.057871\B,0,0.130271,0.550869,0.003444\H,0,2.634764,-1.103689,0.1988
 37\H,0,0.635406,-2.465661,0.425833\O,0,-1.225159,0.592626,-0.003448\C,
 0,0.900218,1.925438,0.013425\H,0,1.731799,1.945132,-0.698538\H,0,1.345
 793,2.101465,1.000727\H,0,0.231143,2.763051,-0.204181\C,0,-2.068269,-0
 .557667,0.001858\H,0,-3.079014,-0.223949,-0.232914\H,0,-2.067682,-1.03

 Normal termination of Gaussian 16 at Wed Apr  9 00:14:33 2025.
