 Gaussian 16, Revision C.01,

 ----------------------------------------------------------------------
 #t hf aug-cc-pvdz symm=none int=(grid=ultrafine) guess=(read,tcheck) s
 table=(opt,rrhf)
 ----------------------------------------------------------------------
 -----
 title
 -----
 Symbolic Z-matrix:
 Charge =  0 Multiplicity = 1

 SCF Done:  E(RHF) =  -1208.45001185     A.U. after   14 cycles
 Normal termination of Gaussian 16 at Tue Apr  8 23:24:33 2025.
 Gaussian 16:  ES64L-G16RevC.01  3-Jul-2019

 ----------------------------------------------------------------------
 #t hf aug-cc-pvdz iop(5/13=1,5/36=2,99/5=2) pseudo=read geom=check gue
 ss=(read,tcheck) scf=(maxcycle=1)
 ----------------------------------------------------------------------
 -----
 title
 -----
 Structure from the checkpoint file:  "BDE49_nonexpt_1224_mol1.chk"
 Charge =  0 Multiplicity = 1

                         Standard orientation:
 ---------------------------------------------------------------------
 Center     Atomic      Atomic             Coordinates (Angstroms)
 Number     Number       Type             X           Y           Z
 ---------------------------------------------------------------------
      1          8           0        0.660935   -0.861683   -0.704747
      2         16           0        2.201556   -1.091258   -0.046498
      3          6           0        2.762139    0.587433   -0.125060
      4          6           0       -0.300014   -0.372944    0.133280
      5          8           0       -1.422970   -0.329331   -0.637638
      6          8           0       -0.186733   -0.061810    1.269751
      7          8           0        2.181450    1.551374   -0.466333
      8          9           0        4.044598    0.576371    0.300179
      9          6           0       -2.595627    0.140819   -0.062856
     10          9           0       -2.977717   -0.620223    0.960672
     11          9           0       -3.516899    0.084076   -1.014972
     12          9           0       -2.470575    1.397542    0.352289
 ---------------------------------------------------------------------

 SCF Done:  E(RHF) =  -1211.67329962     A.U. after    2 cycles

 The electronic state is 1-A.
 Alpha  occ. eigenvalues --  -75.81319 -29.35097 -29.34462 -29.34283 -29.34224
 Alpha  occ. eigenvalues --  -21.17094 -21.16891 -21.12932 -21.11290 -13.28660
 Alpha  occ. eigenvalues --  -13.22091 -13.16471 -11.64957 -11.61010 -11.59795
 Alpha  occ. eigenvalues --   -8.15150  -1.99643  -1.84031  -1.79936  -1.74429
 Alpha  occ. eigenvalues --   -1.38458  -1.23905  -1.03630  -0.96850  -0.95643
 Alpha  occ. eigenvalues --   -0.89095  -0.75003  -0.71422  -0.67252  -0.65901
 Alpha  occ. eigenvalues --   -0.63052  -0.61093  -0.56639  -0.50675  -0.49613
 Alpha  occ. eigenvalues --   -0.47802  -0.46808  -0.46499  -0.46165  -0.41190
 Alpha  occ. eigenvalues --   -0.40216  -0.36583  -0.35661  -0.34317  -0.33405
 Alpha  occ. eigenvalues --   -0.32521  -0.30873  -0.30088  -0.28109  -0.27882
 Alpha  occ. eigenvalues --   -0.24190
 Alpha virt. eigenvalues --    0.05387   0.07649   0.08451   0.09307   0.10534
 Alpha virt. eigenvalues --    0.10954   0.11763   0.11828   0.12311   0.13242
 Alpha virt. eigenvalues --    0.14245   0.14374   0.15466   0.15879   0.17062

 Mulliken charges:
               1
     1  O   -2.410678
     2  S    1.448071
     3  C    1.000868
     4  C    4.894763
     5  O   -2.994453
     6  O   -2.208794
     7  O   -2.615783
     8  F    0.888388
     9  C    0.646592
    10  F    0.431448
    11  F    0.481093
    12  F    0.438484
 Sum of Mulliken charges =  -0.00000

 Dipole moment (field-independent basis, Debye):
    X=              1.5420    Y=             -1.1042    Z=              1.8309  Tot=              2.6362

 Test job not archived.
 1\1\GINC-SE424\SP\RHF\Aug-CC-pVDZ\C3F4O4S1\OHZDE\08-Apr-2025\0\\#t hf
 aug-cc-pvdz iop(5/13=1,5/36=2,99/5=2) pseudo=read geom=check guess=(re
 ad,tcheck) scf=(maxcycle=1)\\title\\0,1\O,0,0.660935,-0.861683,-0.7047
 47\S,0,2.201556,-1.091258,-0.046498\C,0,2.762139,0.587433,-0.12506\C,0
 ,-0.300014,-0.372944,0.13328\O,0,-1.42297,-0.329331,-0.637638\O,0,-0.1
 86733,-0.06181,1.269751\O,0,2.18145,1.551374,-0.466333\F,0,4.044598,0.
 576371,0.300179\C,0,-2.595627,0.140819,-0.062856\F,0,-2.977717,-0.6202
 23,0.960672\F,0,-3.516899,0.084076,-1.014972\F,0,-2.470575,1.397542,0.

 Normal termination of Gaussian 16 at Tue Apr  8 23:24:41 2025.
