 Gaussian 16, Revision C.01,

 ----------------------------------------------------------------------
 #t hf aug-cc-pvdz symm=none int=(grid=ultrafine) guess=(read,tcheck) s
 table=(opt,rrhf)
 ----------------------------------------------------------------------
 -----
 title
 -----
 Symbolic Z-matrix:
 Charge =  0 Multiplicity = 1

 SCF Done:  E(RHF) =  -1423.48506805     A.U. after   13 cycles
 Normal termination of Gaussian 16 at Tue Apr  8 23:26:00 2025.
 Gaussian 16:  ES64L-G16RevC.01  3-Jul-2019

 ----------------------------------------------------------------------
 #t hf aug-cc-pvdz iop(5/13=1,5/36=2,99/5=2) pseudo=read geom=check gue
 ss=(read,tcheck) scf=(maxcycle=1)
 ----------------------------------------------------------------------
 -----
 title
 -----
 Structure from the checkpoint file:  "BDE49_nonexpt_1256_mol1.chk"
 Charge =  0 Multiplicity = 1

                         Standard orientation:
 ---------------------------------------------------------------------
 Center     Atomic      Atomic             Coordinates (Angstroms)
 Number     Number       Type             X           Y           Z
 ---------------------------------------------------------------------
      1         16           0       -1.062478   -0.037606    0.106184
      2         17           0        2.219676   -0.450498    0.009564
      3          8           0       -0.964799   -1.094290   -1.128143
      4          8           0       -2.051246    0.931890   -0.276902
      5          8           0       -1.139523   -0.799186    1.325567
      6         15           0        0.829008    1.108759    0.059549
      7          1           0       -0.638451   -1.936299   -0.774907
      8          1           0        0.713031    1.257760   -1.344040
 ---------------------------------------------------------------------

 SCF Done:  E(RHF) =  -1425.10173656     A.U. after    2 cycles

 The electronic state is 1-A.
 Alpha  occ. eigenvalues -- -105.29172 -99.93221 -75.93665 -21.15143 -21.08276
 Alpha  occ. eigenvalues --  -21.08226 -13.56764 -13.45402 -13.37705 -10.50475
 Alpha  occ. eigenvalues --   -9.70303  -9.69673  -9.69556  -8.28764  -2.86505
 Alpha  occ. eigenvalues --   -1.91662  -1.73777  -1.68686  -1.55672  -1.54209
 Alpha  occ. eigenvalues --   -1.52156  -1.26526  -0.95997  -0.79087  -0.67348
 Alpha  occ. eigenvalues --   -0.59596  -0.58823  -0.56808  -0.55745  -0.47763
 Alpha  occ. eigenvalues --   -0.45788  -0.42833  -0.42182  -0.40169  -0.38370
 Alpha  occ. eigenvalues --   -0.23705  -0.08957
 Alpha virt. eigenvalues --    0.03778   0.04872   0.06397   0.08906   0.09737
 Alpha virt. eigenvalues --    0.11608   0.12145   0.12456   0.13589   0.14505
 Alpha virt. eigenvalues --    0.15435   0.15553   0.16844   0.18163   0.18928

 Mulliken charges:
               1
     1  S    5.383739
     2  Cl  -1.267024
     3  O   -2.334377
     4  O   -2.514308
     5  O   -2.504779
     6  P    2.719485
     7  H    0.799948
     8  H   -0.282683
 Sum of Mulliken charges =  -0.00000

 Dipole moment (field-independent basis, Debye):
    X=              2.2162    Y=              4.5611    Z=              1.9272  Tot=              5.4248

 Test job not archived.
 1\1\GINC-SE368\SP\RHF\Aug-CC-pVDZ\Cl1H2O3P1S1\OHZDE\08-Apr-2025\0\\#t
 hf aug-cc-pvdz iop(5/13=1,5/36=2,99/5=2) pseudo=read geom=check guess=
 (read,tcheck) scf=(maxcycle=1)\\title\\0,1\S,0,-1.062478,-0.037606,0.1
 06184\Cl,0,2.219676,-0.450498,0.009564\O,0,-0.964799,-1.09429,-1.12814
 3\O,0,-2.051246,0.93189,-0.276902\O,0,-1.139523,-0.799186,1.325567\P,0
 ,0.829008,1.108759,0.059549\H,0,-0.638451,-1.936299,-0.774907\H,0,0.71
 3031,1.25776,-1.34404\\Version=ES64L-G16RevC.01\State=1-A\HF=-1425.101
 7366\RMSD=1.304e-01\Dipole=0.8719348,1.7944585,0.7582014\Quadrupole=-5

 Normal termination of Gaussian 16 at Tue Apr  8 23:26:02 2025.
