 Gaussian 16, Revision C.01,

 ----------------------------------------------------------------------
 #t hf aug-cc-pvdz symm=none int=(grid=ultrafine) guess=(read,tcheck) s
 table=(opt,rrhf)
 ----------------------------------------------------------------------
 -----
 title
 -----
 Symbolic Z-matrix:
 Charge =  0 Multiplicity = 1

 SCF Done:  E(RHF) =  -1315.46483665     A.U. after   15 cycles
 Normal termination of Gaussian 16 at Tue Apr  8 23:49:10 2025.
 Gaussian 16:  ES64L-G16RevC.01  3-Jul-2019

 ----------------------------------------------------------------------
 #t hf aug-cc-pvdz iop(5/13=1,5/36=2,99/5=2) pseudo=read geom=check gue
 ss=(read,tcheck) scf=(maxcycle=1)
 ----------------------------------------------------------------------
 -----
 title
 -----
 Structure from the checkpoint file:  "BDE49_nonexpt_1775_mol1.chk"
 Charge =  0 Multiplicity = 1

                         Standard orientation:
 ---------------------------------------------------------------------
 Center     Atomic      Atomic             Coordinates (Angstroms)
 Number     Number       Type             X           Y           Z
 ---------------------------------------------------------------------
      1          6           0        0.903724    1.857374    0.109864
      2          6           0       -0.320315    2.419344   -0.242628
      3          6           0       -1.458284    1.622434   -0.313115
      4          6           0       -1.366096    0.259578   -0.029914
      5          6           0       -0.141011   -0.303942    0.319902
      6          6           0        1.014034    0.487357    0.393155
      7          1           0        1.780983    2.494052    0.162386
      8          1           0       -0.388923    3.478042   -0.463364
      9         14           0        2.655694   -0.269619    0.854212
     10          1           0       -0.092343   -1.366176    0.529017
     11         17           0        3.746111   -0.776988   -0.852464
     12          1           0       -2.412595    2.051520   -0.592350
     13          6           0       -2.610302   -0.587295   -0.051840
     14          9           0       -3.463659   -0.203273   -1.025975
     15          9           0       -3.290519   -0.501734    1.115547
     16          9           0       -2.335370   -1.893579   -0.248764
     17          1           0        2.446227   -1.515215    1.615227
     18          1           0        3.478487    0.699417    1.602174
 ---------------------------------------------------------------------

 SCF Done:  E(RHF) =  -1318.13443964     A.U. after    2 cycles

 The electronic state is 1-A.
 Alpha  occ. eigenvalues --  -99.88522 -76.27009 -29.31148 -29.31012 -29.30644
 Alpha  occ. eigenvalues --  -11.62142 -11.54071 -11.46675 -11.46322 -11.44952
 Alpha  occ. eigenvalues --  -11.43397 -11.39344 -10.45900  -9.65825  -9.65217
 Alpha  occ. eigenvalues --   -9.65178  -5.60580  -2.25119  -2.23677  -2.22654
 Alpha  occ. eigenvalues --   -1.46122  -1.33075  -1.28702  -1.12779  -1.11964
 Alpha  occ. eigenvalues --   -0.92967  -0.91487  -0.87977  -0.85222  -0.80571
 Alpha  occ. eigenvalues --   -0.73812  -0.71238  -0.63129  -0.60307  -0.57735
 Alpha  occ. eigenvalues --   -0.56515  -0.55383  -0.53198  -0.52490  -0.50798
 Alpha  occ. eigenvalues --   -0.47955  -0.47099  -0.44013  -0.43534  -0.42479
 Alpha  occ. eigenvalues --   -0.39808  -0.36990  -0.35516  -0.33247  -0.30283
 Alpha  occ. eigenvalues --   -0.25642  -0.24646  -0.21447
 Alpha virt. eigenvalues --    0.03122   0.04699   0.05071   0.05357   0.05982
 Alpha virt. eigenvalues --    0.06475   0.07678   0.08348   0.08840   0.09378
 Alpha virt. eigenvalues --    0.09726   0.10710   0.10954   0.11404   0.12238

 Mulliken charges:
               1
     1  C   -4.130210
     2  C    0.059421
     3  C   -3.217626
     4  C    2.768033
     5  C   -2.918598
     6  C   -0.176332
     7  H    1.890081
     8  H    1.491598
     9  Si   4.532665
    10  H    2.042168
    11  Cl  -0.968021
    12  H    1.800672
    13  C   -0.534164
    14  F    0.200905
    15  F    0.125783
    16  F    0.342189
    17  H   -1.667438
    18  H   -1.641125
 Sum of Mulliken charges =   0.00000

 Dipole moment (field-independent basis, Debye):
    X=             -2.8493    Y=              0.5931    Z=              0.8443  Tot=              3.0304

 Test job not archived.
 1\1\GINC-SE339\SP\RHF\Aug-CC-pVDZ\C7H6Cl1F3Si1\OHZDE\08-Apr-2025\0\\#t
  hf aug-cc-pvdz iop(5/13=1,5/36=2,99/5=2) pseudo=read geom=check guess
 =(read,tcheck) scf=(maxcycle=1)\\title\\0,1\C,0,0.903724,1.857374,0.10
 9864\C,0,-0.320315,2.419344,-0.242628\C,0,-1.458284,1.622434,-0.313115
 \C,0,-1.366096,0.259578,-0.029914\C,0,-0.141011,-0.303942,0.319902\C,0
 ,1.014034,0.487357,0.393155\H,0,1.780983,2.494052,0.162386\H,0,-0.3889
 23,3.478042,-0.463364\Si,0,2.655694,-0.269619,0.854212\H,0,-0.092343,-
 1.366176,0.529017\Cl,0,3.746111,-0.776988,-0.852464\H,0,-2.412595,2.05

 Normal termination of Gaussian 16 at Tue Apr  8 23:49:22 2025.
