 Gaussian 16, Revision C.01,

 ----------------------------------------------------------------------
 #t hf aug-cc-pvdz symm=none int=(grid=ultrafine) guess=(read,tcheck) s
 table=(opt,rrhf)
 ----------------------------------------------------------------------
 -----
 title
 -----
 Symbolic Z-matrix:
 Charge =  0 Multiplicity = 1

 SCF Done:  E(RHF) =  -444.175180995     A.U. after   12 cycles
 Normal termination of Gaussian 16 at Tue Apr  8 23:51:21 2025.
 Gaussian 16:  ES64L-G16RevC.01  3-Jul-2019

 ----------------------------------------------------------------------
 #t hf aug-cc-pvdz iop(5/13=1,5/36=2,99/5=2) pseudo=read geom=check gue
 ss=(read,tcheck) scf=(maxcycle=1)
 ----------------------------------------------------------------------
 -----
 title
 -----
 Structure from the checkpoint file:  "BDE49_nonexpt_1883_mol1.chk"
 Charge =  0 Multiplicity = 1

                         Standard orientation:
 ---------------------------------------------------------------------
 Center     Atomic      Atomic             Coordinates (Angstroms)
 Number     Number       Type             X           Y           Z
 ---------------------------------------------------------------------
      1          6           0       -0.045893    0.618300    0.000004
      2         14           0        1.702278   -0.109992    0.000003
      3          1           0        2.680046    1.006127    0.000013
      4          1           0        1.914356   -0.938448   -1.208000
      5          1           0        1.914350   -0.938467    1.207993
      6          8           0       -0.966728   -0.463692   -0.000005
      7          6           0       -2.318182   -0.045158   -0.000005
      8          1           0       -2.935385   -0.944331   -0.000012
      9          1           0       -2.553691    0.552029   -0.892713
     10          1           0       -2.553694    0.552016    0.892710
     11          1           0       -0.189800    1.260830   -0.884211
     12          1           0       -0.189804    1.260818    0.884228
 ---------------------------------------------------------------------

 SCF Done:  E(RHF) =  -445.060612764     A.U. after    2 cycles

 The electronic state is 1-A.
 Alpha  occ. eigenvalues --  -76.20877 -21.04831 -11.40221 -11.38422  -5.54444
 Alpha  occ. eigenvalues --   -2.18276  -2.16721  -2.16622  -1.74629  -1.03108
 Alpha  occ. eigenvalues --   -0.92383  -0.75290  -0.63996  -0.60613  -0.57855
 Alpha  occ. eigenvalues --   -0.56515  -0.46612  -0.46244  -0.42547  -0.37479
 Alpha  occ. eigenvalues --   -0.30216
 Alpha virt. eigenvalues --    0.03842   0.04906   0.05566   0.05745   0.06356
 Alpha virt. eigenvalues --    0.06508   0.07270   0.08961   0.09009   0.10274
 Alpha virt. eigenvalues --    0.10820   0.12640   0.14860   0.15820   0.16151

 Mulliken charges:
               1
     1  C   -2.545231
     2  Si   5.811002
     3  H   -1.630572
     4  H   -1.677125
     5  H   -1.677125
     6  O   -2.617844
     7  C   -2.651511
     8  H    1.292340
     9  H    1.317772
    10  H    1.317773
    11  H    1.530261
    12  H    1.530260
 Sum of Mulliken charges =   0.00000

 Dipole moment (field-independent basis, Debye):
    X=             -0.8404    Y=              0.5377    Z=              0.0000  Tot=              0.9977

 Test job not archived.
 1\1\GINC-SE454\SP\RHF\Aug-CC-pVDZ\C2H8O1Si1\OHZDE\08-Apr-2025\0\\#t hf
  aug-cc-pvdz iop(5/13=1,5/36=2,99/5=2) pseudo=read geom=check guess=(r
 ead,tcheck) scf=(maxcycle=1)\\title\\0,1\C,0,0.045893,0.6183,-0.000004
 \Si,0,-1.702278,-0.109992,-0.000003\H,0,-2.680046,1.006127,-0.000013\H
 ,0,-1.914356,-0.938448,1.208\H,0,-1.91435,-0.938467,-1.207993\O,0,0.96
 6728,-0.463692,0.000005\C,0,2.318182,-0.045158,0.000005\H,0,2.935385,-
 0.944331,0.000012\H,0,2.553691,0.552029,0.892713\H,0,2.553694,0.552016
 ,-0.89271\H,0,0.1898,1.26083,0.884211\H,0,0.189804,1.260818,-0.884228\

 Normal termination of Gaussian 16 at Tue Apr  8 23:51:24 2025.
