 Gaussian 16, Revision C.01,

 ----------------------------------------------------------------------
 #t hf aug-cc-pvdz symm=none int=(grid=ultrafine) guess=(read,tcheck) s
 table=(opt,rrhf)
 ----------------------------------------------------------------------
 -----
 title
 -----
 Symbolic Z-matrix:
 Charge =  0 Multiplicity = 1

 SCF Done:  E(RHF) =  -505.438305811     A.U. after   11 cycles
 Normal termination of Gaussian 16 at Tue Apr  8 23:55:24 2025.
 Gaussian 16:  ES64L-G16RevC.01  3-Jul-2019

 ----------------------------------------------------------------------
 #t hf aug-cc-pvdz iop(5/13=1,5/36=2,99/5=2) pseudo=read geom=check gue
 ss=(read,tcheck) scf=(maxcycle=1)
 ----------------------------------------------------------------------
 -----
 title
 -----
 Structure from the checkpoint file:  "BDE49_nonexpt_1960_mol1.chk"
 Charge =  0 Multiplicity = 1

                         Standard orientation:
 ---------------------------------------------------------------------
 Center     Atomic      Atomic             Coordinates (Angstroms)
 Number     Number       Type             X           Y           Z
 ---------------------------------------------------------------------
      1         14           0       -1.829808    0.000001   -0.270104
      2          6           0       -0.356400   -0.000010    0.906466
      3          5           0        1.022453   -0.000001    0.163496
      4          1           0       -1.811326    1.201100   -1.139571
      5          1           0       -3.104822   -0.000020    0.488796
      6          8           0        1.589274   -1.208472   -0.155909
      7          8           0        1.589263    1.208479   -0.155899
      8          1           0       -1.811311   -1.201068   -1.139613
      9          1           0        2.421415   -1.162050   -0.635281
     10          1           0        2.421406    1.162067   -0.635271
     11          1           0       -0.450103   -0.887328    1.540280
     12          1           0       -0.450105    0.887297    1.540298
 ---------------------------------------------------------------------

 SCF Done:  E(RHF) =  -506.535390271     A.U. after    2 cycles

 The electronic state is 1-A.
 Alpha  occ. eigenvalues --  -76.20631 -21.06395 -21.06352 -11.32005  -7.63474
 Alpha  occ. eigenvalues --   -5.54061  -2.17825  -2.16213  -2.16180  -1.81614
 Alpha  occ. eigenvalues --   -1.66065  -1.06275  -0.76340  -0.72352  -0.67751
 Alpha  occ. eigenvalues --   -0.55623  -0.54593  -0.51259  -0.46795  -0.45444
 Alpha  occ. eigenvalues --   -0.43103  -0.38957  -0.37106  -0.36667
 Alpha virt. eigenvalues --    0.02552   0.04520   0.04636   0.05111   0.06730
 Alpha virt. eigenvalues --    0.07282   0.07977   0.08897   0.09122   0.09398
 Alpha virt. eigenvalues --    0.09921   0.10033   0.11587   0.12105   0.15527

 Mulliken charges:
               1
     1  Si   5.593684
     2  C   -6.012192
     3  B    8.592408
     4  H   -1.691590
     5  H   -1.747003
     6  O   -3.728860
     7  O   -3.728859
     8  H   -1.691581
     9  H    0.996098
    10  H    0.996094
    11  H    1.210904
    12  H    1.210896
 Sum of Mulliken charges =   0.00000

 Dipole moment (field-independent basis, Debye):
    X=              1.8454    Y=              0.0000    Z=              0.0659  Tot=              1.8466

 Test job not archived.
 1\1\GINC-SE419\SP\RHF\Aug-CC-pVDZ\C1H7B1O2Si1\OHZDE\08-Apr-2025\0\\#t
 hf aug-cc-pvdz iop(5/13=1,5/36=2,99/5=2) pseudo=read geom=check guess=
 (read,tcheck) scf=(maxcycle=1)\\title\\0,1\Si,0,-1.829808,0.000001,-0.
 270104\C,0,-0.3564,-0.00001,0.906466\B,0,1.022453,-0.000001,0.163496\H
 ,0,-1.811326,1.2011,-1.139571\H,0,-3.104822,-0.00002,0.488796\O,0,1.58
 9274,-1.208472,-0.155909\O,0,1.589263,1.208479,-0.155899\H,0,-1.811311
 ,-1.201068,-1.139613\H,0,2.421415,-1.16205,-0.635281\H,0,2.421406,1.16
 2067,-0.635271\H,0,-0.450103,-0.887328,1.54028\H,0,-0.450105,0.887297,

 Normal termination of Gaussian 16 at Tue Apr  8 23:55:27 2025.
