 Gaussian 16, Revision C.01,

 ----------------------------------------------------------------------
 #t hf aug-cc-pvdz symm=none int=(grid=ultrafine) guess=(read,tcheck) s
 table=opt
 ----------------------------------------------------------------------
 -----
 title
 -----
 Symbolic Z-matrix:
 Charge =  0 Multiplicity = 2

 SCF Done:  E(UHF) =  -192.504751151     A.U. after   16 cycles
 Normal termination of Gaussian 16 at Tue Apr  8 22:53:42 2025.
 Gaussian 16:  ES64L-G16RevC.01  3-Jul-2019

 ----------------------------------------------------------------------
 #t hf aug-cc-pvdz iop(5/13=1,5/36=2,99/5=2) pseudo=read geom=check gue
 ss=(read,tcheck) scf=(maxcycle=1)
 ----------------------------------------------------------------------
 -----
 title
 -----
 Structure from the checkpoint file:  "BDE49_expt_175_mol2.chk"
 Charge =  0 Multiplicity = 2

                         Standard orientation:
 ---------------------------------------------------------------------
 Center     Atomic      Atomic             Coordinates (Angstroms)
 Number     Number       Type             X           Y           Z
 ---------------------------------------------------------------------
      1          6           0       -1.853667    0.032187    0.033039
      2          8           0       -0.589418   -0.457524    0.009273
      3          1           0       -2.024311    1.041562   -0.331752
      4          1           0       -2.613695   -0.731477   -0.056084
      5          6           0        0.451936    0.522554    0.049896
      6          6           0        1.784732   -0.194799   -0.034628
      7          1           0        0.368396    1.096552    0.980703
      8          1           0        0.323686    1.217840   -0.790661
      9          1           0        1.900757   -0.886916    0.802078
     10          1           0        2.605387    0.526590   -0.004160
     11          1           0        1.857123   -0.763611   -0.964151
 ---------------------------------------------------------------------

 SCF Done:  E(UHF) =  -193.395360198     A.U. after    2 cycles

 The electronic state is 2-A.
 Alpha  occ. eigenvalues --  -21.06392 -11.43176 -11.39634 -11.36495  -1.77304
 Alpha  occ. eigenvalues --   -1.13166  -0.94964  -0.86499  -0.65406  -0.63481
 Alpha  occ. eigenvalues --   -0.61658  -0.52891  -0.51745  -0.47853  -0.45842
 Alpha  occ. eigenvalues --   -0.39177  -0.23432
 Alpha virt. eigenvalues --    0.03971   0.05215   0.05935   0.06081   0.06328
 Alpha virt. eigenvalues --    0.06757   0.07242   0.11464   0.12527   0.13347
 Alpha virt. eigenvalues --    0.14367   0.15475   0.15897   0.16822   0.17883

  Beta  occ. eigenvalues --  -21.05783 -11.43202 -11.37490 -11.36438  -1.75632
  Beta  occ. eigenvalues --   -1.12708  -0.90600  -0.84064  -0.64689  -0.62293
  Beta  occ. eigenvalues --   -0.61083  -0.52135  -0.50895  -0.47447  -0.39373
  Beta  occ. eigenvalues --   -0.35437
  Beta virt. eigenvalues --    0.04017   0.05328   0.05913   0.06083   0.06152
  Beta virt. eigenvalues --    0.06729   0.07215   0.10522   0.11587   0.13123
  Beta virt. eigenvalues --    0.14346   0.15567   0.15788   0.16612   0.18012

 Mulliken charges and spin densities:
               1          2
     1  C   -1.575026   1.089918
     2  O   -2.824602   0.065283
     3  H    1.387608  -0.075052
     4  H    1.486613  -0.072600
     5  C   -1.530633   0.013414
     6  C   -3.597636   0.002393
     7  H    1.517913  -0.027038
     8  H    1.532653   0.006265
     9  H    1.246340  -0.001367
    10  H    1.123189  -0.001365
    11  H    1.233580   0.000149
 Sum of Mulliken charges =  -0.00000   1.00000

 Dipole moment (field-independent basis, Debye):
    X=              0.6666    Y=              0.3356    Z=             -0.3643  Tot=              0.8304
                          Isotropic Fermi Contact Couplings
        Atom                 a.u.       MegaHertz       Gauss      10(-4) cm-1
     1  C(13)              0.13841     155.59442      55.51996      51.90071
     2  O(17)              0.04695     -28.46236     -10.15608      -9.49402
     3  H(1)              -0.01339     -59.86122     -21.35997     -19.96755
     4  H(1)              -0.01468     -65.61563     -23.41329     -21.88702
     5  C(13)             -0.00006      -0.07010      -0.02501      -0.02338
     6  C(13)             -0.00153      -1.71567      -0.61219      -0.57229
     7  H(1)               0.00102       4.54114       1.62039       1.51476
     8  H(1)               0.00138       6.17791       2.20443       2.06073

 Normal termination of Gaussian 16 at Tue Apr  8 22:53:45 2025.
