 Gaussian 16, Revision C.01,

 ----------------------------------------------------------------------
 #t hf aug-cc-pvdz symm=none int=(grid=ultrafine) guess=(read,tcheck) s
 table=(opt,rrhf)
 ----------------------------------------------------------------------
 -----
 title
 -----
 Symbolic Z-matrix:
 Charge =  0 Multiplicity = 1

 SCF Done:  E(RHF) =  -595.695127299     A.U. after   13 cycles
 Normal termination of Gaussian 16 at Wed Apr  9 00:42:11 2025.
 Gaussian 16:  ES64L-G16RevC.01  3-Jul-2019

 ----------------------------------------------------------------------
 #t hf aug-cc-pvdz iop(5/13=1,5/36=2,99/5=2) pseudo=read geom=check gue
 ss=(read,tcheck) scf=(maxcycle=1)
 ----------------------------------------------------------------------
 -----
 title
 -----
 Structure from the checkpoint file:  "BDE49_nonexpt_690_mol1.chk"
 Charge =  0 Multiplicity = 1

                         Standard orientation:
 ---------------------------------------------------------------------
 Center     Atomic      Atomic             Coordinates (Angstroms)
 Number     Number       Type             X           Y           Z
 ---------------------------------------------------------------------
      1         15           0        0.762392   -0.032099   -0.619009
      2          5           0       -1.095638    0.012601   -0.055919
      3          8           0       -1.755280   -1.174263    0.058729
      4          8           0       -1.807184    1.166486    0.152884
      5          6           0        1.387818   -1.469516    0.387708
      6          1           0        1.262903   -1.325111    1.463641
      7          1           0        2.444890   -1.637452    0.170737
      8          6           0        1.463019    1.419210    0.329517
      9          1           0        2.549314    1.426261    0.214753
     10          1           0        1.226369    1.402755    1.396784
     11          1           0        1.097864    2.355638   -0.102892
     12          1           0        0.831249   -2.360277    0.091523
     13          1           0       -2.689354   -1.047993    0.266043
     14          1           0       -1.286238    1.968709    0.067883
 ---------------------------------------------------------------------

 SCF Done:  E(RHF) =  -597.031560038     A.U. after    2 cycles

 The electronic state is 1-A.
 Alpha  occ. eigenvalues -- -105.14673 -21.06776 -21.05702 -11.37471 -11.36615
 Alpha  occ. eigenvalues --   -7.64215  -2.73040  -1.81790  -1.65838  -1.46235
 Alpha  occ. eigenvalues --   -1.45798  -1.41938  -1.03576  -0.96414  -0.75166
 Alpha  occ. eigenvalues --   -0.66536  -0.61510  -0.57239  -0.56559  -0.55318
 Alpha  occ. eigenvalues --   -0.54704  -0.49514  -0.48405  -0.42482  -0.36824
 Alpha  occ. eigenvalues --   -0.20257  -0.14972  -0.00695
 Alpha virt. eigenvalues --    0.03724   0.04708   0.05098   0.05851   0.07029
 Alpha virt. eigenvalues --    0.07383   0.07705   0.08062   0.08523   0.08936
 Alpha virt. eigenvalues --    0.09521   0.10553   0.11850   0.12401   0.13242

 Mulliken charges:
               1
     1  P    4.863244
     2  B    5.359478
     3  O   -3.763682
     4  O   -3.935794
     5  C   -6.201711
     6  H    1.160826
     7  H    1.115974
     8  C   -5.931953
     9  H    1.133922
    10  H    1.186832
    11  H    1.062716
    12  H    1.245760
    13  H    1.173587
    14  H    1.530801
 Sum of Mulliken charges =  -0.00000

 Dipole moment (field-independent basis, Debye):
    X=             -0.1859    Y=              0.1000    Z=             -0.5216  Tot=              0.5627

 Test job not archived.
 1\1\GINC-SE074\SP\RHF\Aug-CC-pVDZ\C2H8B1O2P1\OHZDE\09-Apr-2025\0\\#t h
 f aug-cc-pvdz iop(5/13=1,5/36=2,99/5=2) pseudo=read geom=check guess=(
 read,tcheck) scf=(maxcycle=1)\\title\\0,1\P,0,0.762392,-0.032099,-0.61
 9009\B,0,-1.095638,0.012601,-0.055919\O,0,-1.75528,-1.174263,0.058729\
 O,0,-1.807184,1.166486,0.152884\C,0,1.387818,-1.469515,0.387708\H,0,1.
 262903,-1.325111,1.463641\H,0,2.44489,-1.637451,0.170737\C,0,1.463019,
 1.419211,0.329517\H,0,2.549314,1.426262,0.214753\H,0,1.226369,1.402755
 ,1.396784\H,0,1.097863,2.355638,-0.102892\H,0,0.831249,-2.360277,0.091

 Normal termination of Gaussian 16 at Wed Apr  9 00:42:15 2025.
