 Gaussian 16, Revision C.01,

 ----------------------------------------------------------------------
 #t hf aug-cc-pvdz symm=none int=(grid=ultrafine) guess=(read,tcheck) s
 table=(opt,rrhf)
 ----------------------------------------------------------------------
 -----
 title
 -----
 Symbolic Z-matrix:
 Charge =  0 Multiplicity = 1

 SCF Done:  E(RHF) =  -1323.69403266     A.U. after   14 cycles
 Normal termination of Gaussian 16 at Wed Apr  9 00:51:49 2025.
 Gaussian 16:  ES64L-G16RevC.01  3-Jul-2019

 ----------------------------------------------------------------------
 #t hf aug-cc-pvdz iop(5/13=1,5/36=2,99/5=2) pseudo=read geom=check gue
 ss=(read,tcheck) scf=(maxcycle=1)
 ----------------------------------------------------------------------
 -----
 title
 -----
 Structure from the checkpoint file:  "BDE49_nonexpt_921_mol1.chk"
 Charge =  0 Multiplicity = 1

                         Standard orientation:
 ---------------------------------------------------------------------
 Center     Atomic      Atomic             Coordinates (Angstroms)
 Number     Number       Type             X           Y           Z
 ---------------------------------------------------------------------
      1         17           0        4.291812    0.165001   -0.000005
      2          7           0        0.452777    0.430916   -0.000019
      3          7           0        1.884988   -1.473726    0.000036
      4          1           0        2.794555   -1.901826    0.000049
      5          1           0        1.039604   -2.024499    0.000048
      6          7           0        2.660654    0.801147   -0.000021
      7          6           0        1.763876   -0.137982    0.000002
      8         17           0       -4.291812   -0.165001   -0.000009
      9          7           0       -0.452777   -0.430916   -0.000008
     10          7           0       -1.884988    1.473726    0.000032
     11          1           0       -2.794555    1.901826    0.000003
     12          1           0       -1.039604    2.024499    0.000008
     13          7           0       -2.660654   -0.801147   -0.000010
     14          6           0       -1.763876    0.137982    0.000006
 ---------------------------------------------------------------------

 SCF Done:  E(RHF) =  -1325.99420840     A.U. after    2 cycles

 The electronic state is 1-A.
 Alpha  occ. eigenvalues --  -99.91209 -99.91204 -15.85774 -15.85024 -15.80861
 Alpha  occ. eigenvalues --  -15.80833 -15.79099 -15.79089 -11.52053 -11.51238
 Alpha  occ. eigenvalues --  -10.48393 -10.48389  -9.68310  -9.68301  -9.67481
 Alpha  occ. eigenvalues --   -9.67453  -9.67199  -9.67194  -1.66133  -1.52867
 Alpha  occ. eigenvalues --   -1.45172  -1.37224  -1.34851  -1.24182  -1.19639
 Alpha  occ. eigenvalues --   -1.05446  -0.85812  -0.82009  -0.78250  -0.75964
 Alpha  occ. eigenvalues --   -0.73198  -0.67251  -0.65821  -0.61723  -0.60337
 Alpha  occ. eigenvalues --   -0.60325  -0.56119  -0.56072  -0.54586  -0.51954
 Alpha  occ. eigenvalues --   -0.46590  -0.43753  -0.43682  -0.40446  -0.36631
 Alpha  occ. eigenvalues --   -0.35861
 Alpha virt. eigenvalues --    0.03380   0.03401   0.04290   0.05725   0.06039
 Alpha virt. eigenvalues --    0.07247   0.08210   0.09075   0.09706   0.09981
 Alpha virt. eigenvalues --    0.10766   0.11910   0.12526   0.13714   0.14872

 Mulliken charges:
               1
     1  Cl   0.353128
     2  N   -1.456934
     3  N   -2.323789
     4  H    0.675215
     5  H    0.846766
     6  N   -2.508786
     7  C    4.414400
     8  Cl   0.353128
     9  N   -1.456934
    10  N   -2.323789
    11  H    0.675215
    12  H    0.846766
    13  N   -2.508786
    14  C    4.414400
 Sum of Mulliken charges =  -0.00000

 Dipole moment (field-independent basis, Debye):
    X=             -0.0000    Y=             -0.0000    Z=              0.0001  Tot=              0.0001

 Test job not archived.
 1\1\GINC-SE457\SP\RHF\Aug-CC-pVDZ\C2H4Cl2N6\OHZDE\09-Apr-2025\0\\#t hf
  aug-cc-pvdz iop(5/13=1,5/36=2,99/5=2) pseudo=read geom=check guess=(r
 ead,tcheck) scf=(maxcycle=1)\\title\\0,1\Cl,0,4.291812,0.165001,-0.000
 005\N,0,0.452777,0.430916,-0.000019\N,0,1.884988,-1.473726,0.000036\H,
 0,2.794555,-1.901826,0.000049\H,0,1.039604,-2.024499,0.000048\N,0,2.66
 0654,0.801147,-0.000021\C,0,1.763876,-0.137982,0.000002\Cl,0,-4.291812
 ,-0.165001,-0.000009\N,0,-0.452777,-0.430916,-0.000008\N,0,-1.884988,1
 .473726,0.000032\H,0,-2.794555,1.901826,0.000003\H,0,-1.039604,2.02449

 Normal termination of Gaussian 16 at Wed Apr  9 00:51:55 2025.
