 Gaussian 16, Revision C.01,

 ----------------------------------------------------------------------
 #t hf aug-cc-pvdz symm=none int=(grid=ultrafine) guess=(read,tcheck) s
 table=(opt,rrhf)
 ----------------------------------------------------------------------
 -----
 title
 -----
 Symbolic Z-matrix:
 Charge =  0 Multiplicity = 1

 SCF Done:  E(RHF) =  -1064.36253731     A.U. after   15 cycles
 Normal termination of Gaussian 16 at Wed Apr  9 00:19:43 2025.
 Gaussian 16:  ES64L-G16RevC.01  3-Jul-2019

 ----------------------------------------------------------------------
 #t hf aug-cc-pvdz iop(5/13=1,5/36=2,99/5=2) pseudo=read geom=check gue
 ss=(read,tcheck) scf=(maxcycle=1)
 ----------------------------------------------------------------------
 -----
 title
 -----
 Structure from the checkpoint file:  "BDE49_nonexpt_2584_mol1.chk"
 Charge =  0 Multiplicity = 1

                         Standard orientation:
 ---------------------------------------------------------------------
 Center     Atomic      Atomic             Coordinates (Angstroms)
 Number     Number       Type             X           Y           Z
 ---------------------------------------------------------------------
      1         17           0        2.237905    0.271006   -0.447620
      2         16           0        0.749352   -0.834147    0.533606
      3          6           0       -0.719596    0.067190    0.127558
      4          7           0       -1.633561   -0.719979   -0.307671
      5          8           0       -2.873889   -0.082816   -0.380376
      6          1           0       -3.435802   -0.768888   -0.756669
      7          6           0       -0.859125    1.524191    0.443316
      8          1           0        0.091620    2.040312    0.312637
      9          1           0       -1.174138    1.647194    1.484197
     10          1           0       -1.617330    1.974731   -0.196866
 ---------------------------------------------------------------------

 SCF Done:  E(RHF) =  -1065.75073797     A.U. after    2 cycles

 The electronic state is 1-A.
 Alpha  occ. eigenvalues --  -99.91287 -75.75530 -21.11930 -15.80731 -13.20036
 Alpha  occ. eigenvalues --  -13.12055 -13.08128 -11.47317 -11.39616 -10.48367
 Alpha  occ. eigenvalues --   -9.68133  -9.67573  -9.67396  -8.09358  -1.81332
 Alpha  occ. eigenvalues --   -1.37033  -1.29237  -1.09450  -1.06924  -0.76155
 Alpha  occ. eigenvalues --   -0.68328  -0.62739  -0.62385  -0.57268  -0.55705
 Alpha  occ. eigenvalues --   -0.55137  -0.54008  -0.51536  -0.43917  -0.36382
 Alpha  occ. eigenvalues --   -0.34354  -0.25548
 Alpha virt. eigenvalues --    0.03209   0.04305   0.05331   0.06598   0.07149
 Alpha virt. eigenvalues --    0.07420   0.10017   0.11610   0.12472   0.13167
 Alpha virt. eigenvalues --    0.14155   0.14689   0.15135   0.15870   0.16779

 Mulliken charges:
               1
     1  Cl  -0.382905
     2  S    1.014593
     3  C    1.466401
     4  N   -0.793887
     5  O   -2.293625
     6  H    0.887874
     7  C   -3.814996
     8  H    1.344765
     9  H    1.235500
    10  H    1.336282
 Sum of Mulliken charges =   0.00000

 Dipole moment (field-independent basis, Debye):
    X=             -3.0901    Y=             -1.1099    Z=              1.4966  Tot=              3.6083

 Test job not archived.
 1\1\GINC-SE127\SP\RHF\Aug-CC-pVDZ\C2H4Cl1N1O1S1\OHZDE\09-Apr-2025\0\\#
 t hf aug-cc-pvdz iop(5/13=1,5/36=2,99/5=2) pseudo=read geom=check gues
 s=(read,tcheck) scf=(maxcycle=1)\\title\\0,1\Cl,0,2.237905,0.271006,-0
 .44762\S,0,0.749352,-0.834147,0.533606\C,0,-0.719596,0.06719,0.127558\
 N,0,-1.633561,-0.719979,-0.307671\O,0,-2.873889,-0.082816,-0.380376\H,
 0,-3.435802,-0.768888,-0.756669\C,0,-0.859125,1.524191,0.443316\H,0,0.
 09162,2.040312,0.312637\H,0,-1.174138,1.647194,1.484197\H,0,-1.61733,1
 .974731,-0.196866\\Version=ES64L-G16RevC.01\State=1-A\HF=-1065.750738\

 Normal termination of Gaussian 16 at Wed Apr  9 00:19:46 2025.
