 Gaussian 16, Revision C.01,

 ----------------------------------------------------------------------
 #t hf aug-cc-pvdz symm=none int=(grid=ultrafine) guess=(read,tcheck) s
 table=opt
 ----------------------------------------------------------------------
 -----
 title
 -----
 Symbolic Z-matrix:
 Charge =  0 Multiplicity = 2

 SCF Done:  E(UHF) =  -462.373541872     A.U. after   17 cycles
 Normal termination of Gaussian 16 at Tue Apr  8 23:16:50 2025.
 Gaussian 16:  ES64L-G16RevC.01  3-Jul-2019

 ----------------------------------------------------------------------
 #t hf aug-cc-pvdz iop(5/13=1,5/36=2,99/5=2) pseudo=read geom=check gue
 ss=(read,tcheck) scf=(maxcycle=1)
 ----------------------------------------------------------------------
 -----
 title
 -----
 Structure from the checkpoint file:  "BDE49_nonexpt_100_mol2.chk"
 Charge =  0 Multiplicity = 2

                         Standard orientation:
 ---------------------------------------------------------------------
 Center     Atomic      Atomic             Coordinates (Angstroms)
 Number     Number       Type             X           Y           Z
 ---------------------------------------------------------------------
      1          5           0       -1.536857    0.596677   -0.000003
      2         16           0       -0.246431   -0.546849    0.000002
      3          6           0        1.368561    0.387347   -0.000001
      4          1           0        1.925000    0.103183    0.892593
      5          1           0        1.173804    1.457355   -0.000006
      6          1           0        1.925001    0.103175   -0.892593
      7          1           0       -1.607994    1.778407   -0.000008
 ---------------------------------------------------------------------

 SCF Done:  E(UHF) =  -462.903137198     A.U. after    2 cycles

 The electronic state is 2-A.
 Alpha  occ. eigenvalues --  -75.68982 -13.13630 -13.07784 -13.02603 -11.40811
 Alpha  occ. eigenvalues --   -8.03067  -7.64341  -1.21223  -0.98663  -0.72826
 Alpha  occ. eigenvalues --   -0.59566  -0.59499  -0.50329  -0.34819  -0.30190
 Alpha  occ. eigenvalues --   -0.29999
 Alpha virt. eigenvalues --    0.02287   0.03401   0.03714   0.05120   0.07502
 Alpha virt. eigenvalues --    0.07875   0.09390   0.11606   0.12091   0.12933
 Alpha virt. eigenvalues --    0.14339   0.15925   0.16014   0.16671   0.17824

  Beta  occ. eigenvalues --  -75.69095 -13.13923 -13.08095 -13.02948 -11.40456
  Beta  occ. eigenvalues --   -8.03159  -7.62494  -1.20419  -0.97284  -0.68678
  Beta  occ. eigenvalues --   -0.59355  -0.58976  -0.46496  -0.33795  -0.29312
  Beta virt. eigenvalues --    0.01276   0.03378   0.03744   0.04297   0.07675
  Beta virt. eigenvalues --    0.07916   0.08797   0.09547   0.12091   0.13137
  Beta virt. eigenvalues --    0.13355   0.15535   0.16466   0.16938   0.17342

 Mulliken charges and spin densities:
               1          2
     1  B    1.989663   1.028604
     2  S   -0.206928  -0.196511
     3  C   -4.623222   0.191024
     4  H    1.399259  -0.009257
     5  H    1.218218   0.009236
     6  H    1.399258  -0.009257
     7  H   -1.176248  -0.013838
 Sum of Mulliken charges =  -0.00000   1.00000

 Dipole moment (field-independent basis, Debye):
    X=              2.2448    Y=             -0.9561    Z=              0.0000  Tot=              2.4399
                          Isotropic Fermi Contact Couplings
        Atom                 a.u.       MegaHertz       Gauss      10(-4) cm-1
     1  B(11)              0.16134     231.42032      82.57652      77.19351
     2  S(33)              0.32084     110.20140      39.32260      36.75923
     3  C(13)              0.06131      68.92859      24.59543      22.99210
     4  H(1)              -0.00099      -4.42990      -1.58070      -1.47765
     5  H(1)              -0.00145      -6.46449      -2.30669      -2.15632
     6  H(1)              -0.00099      -4.42990      -1.58070      -1.47766
     7  H(1)               0.00099       4.43479       1.58244       1.47929
 --------------------------------------------------------

 Normal termination of Gaussian 16 at Tue Apr  8 23:16:52 2025.
