 Gaussian 16, Revision C.01,

 ----------------------------------------------------------------------
 #t hf aug-cc-pvdz symm=none int=(grid=ultrafine) guess=(read,tcheck) s
 table=(opt,rrhf)
 ----------------------------------------------------------------------
 -----
 title
 -----
 Symbolic Z-matrix:
 Charge =  0 Multiplicity = 1

 SCF Done:  E(RHF) =  -673.819721525     A.U. after   15 cycles
 Normal termination of Gaussian 16 at Wed Apr  9 00:04:40 2025.
 Gaussian 16:  ES64L-G16RevC.01  3-Jul-2019

 ----------------------------------------------------------------------
 #t hf aug-cc-pvdz iop(5/13=1,5/36=2,99/5=2) pseudo=read geom=check gue
 ss=(read,tcheck) scf=(maxcycle=1)
 ----------------------------------------------------------------------
 -----
 title
 -----
 Structure from the checkpoint file:  "BDE49_nonexpt_2164_mol1.chk"
 Charge =  0 Multiplicity = 1

                         Standard orientation:
 ---------------------------------------------------------------------
 Center     Atomic      Atomic             Coordinates (Angstroms)
 Number     Number       Type             X           Y           Z
 ---------------------------------------------------------------------
      1          6           0        2.210610    2.105742   -0.030771
      2          8           0        2.291893    0.716527   -0.318102
      3          6           0       -0.441667   -0.188116    0.159748
      4          6           0       -1.315043   -0.096679    1.254393
      5          6           0       -0.990957   -0.070915   -1.128846
      6          6           0       -2.356393    0.126205   -1.315484
      7          6           0       -3.205947    0.208365   -0.212543
      8          6           0       -2.683922    0.096532    1.073719
      9          1           0       -0.920350   -0.177161    2.262730
     10          1           0       -3.340733    0.162614    1.934334
     11          1           0       -0.344261   -0.129920   -1.999375
     12          1           0       -2.759689    0.214799   -2.318487
     13          1           0       -4.270056    0.360445   -0.356543
     14          1           0        2.930573    2.623747   -0.666921
     15          1           0        1.209574    2.500381   -0.238471
     16          1           0        2.459305    2.312758    1.017231
     17         14           0        1.398362   -0.469230    0.411329
     18          6           0        1.981684   -2.073509   -0.340478
     19          1           0        1.471210   -2.923297    0.121872
     20          1           0        3.058094   -2.199196   -0.196792
     21          1           0        1.777453   -2.100148   -1.414307
     22          1           0        1.626482   -0.453758    1.882518
 ---------------------------------------------------------------------

 SCF Done:  E(RHF) =  -675.811686925     A.U. after    2 cycles

 The electronic state is 1-A.
 Alpha  occ. eigenvalues --  -76.21237 -21.03285 -11.51280 -11.42932 -11.42311
 Alpha  occ. eigenvalues --  -11.40638 -11.40291 -11.40119 -11.35856 -11.34317
 Alpha  occ. eigenvalues --   -5.55411  -2.22759  -2.19584  -2.18540  -1.68531
 Alpha  occ. eigenvalues --   -1.33384  -1.08958  -1.08890  -1.03547  -0.96798
 Alpha  occ. eigenvalues --   -0.86008  -0.85299  -0.73209  -0.68277  -0.63237
 Alpha  occ. eigenvalues --   -0.60415  -0.59650  -0.58232  -0.56717  -0.56046
 Alpha  occ. eigenvalues --   -0.55301  -0.52558  -0.50277  -0.49701  -0.44565
 Alpha  occ. eigenvalues --   -0.42823  -0.40427  -0.34900  -0.33986  -0.32899
 Alpha  occ. eigenvalues --   -0.32312
 Alpha virt. eigenvalues --    0.03273   0.04912   0.05087   0.05232   0.05527
 Alpha virt. eigenvalues --    0.06055   0.06400   0.06504   0.07157   0.07459
 Alpha virt. eigenvalues --    0.07971   0.09325   0.09780   0.10405   0.11040

 Mulliken charges:
               1
     1  C   -2.873451
     2  O   -3.650810
     3  C   -0.672752
     4  C   -3.065779
     5  C   -1.840181
     6  C   -1.094150
     7  C   -2.029232
     8  C   -0.994600
     9  H    1.841242
    10  H    1.586854
    11  H    1.814880
    12  H    1.533088
    13  H    1.549598
    14  H    1.331286
    15  H    1.383539
    16  H    1.439261
    17  Si   7.610135
    18  C   -5.358476
    19  H    1.133403
    20  H    1.290567
    21  H    1.399011
    22  H   -2.333435
 Sum of Mulliken charges =   0.00000

 Dipole moment (field-independent basis, Debye):
    X=             -0.6212    Y=              0.3076    Z=             -0.6010  Tot=              0.9175

 Test job not archived.
 1\1\GINC-SE368\SP\RHF\Aug-CC-pVDZ\C8H12O1Si1\OHZDE\09-Apr-2025\0\\#t h
 f aug-cc-pvdz iop(5/13=1,5/36=2,99/5=2) pseudo=read geom=check guess=(
 read,tcheck) scf=(maxcycle=1)\\title\\0,1\C,0,-2.21061,2.105742,0.0307
 71\O,0,-2.291893,0.716527,0.318102\C,0,0.441667,-0.188116,-0.159748\C,
 0,1.315043,-0.096679,-1.254393\C,0,0.990957,-0.070915,1.128846\C,0,2.3
 56393,0.126205,1.315484\C,0,3.205947,0.208365,0.212543\C,0,2.683922,0.
 096532,-1.073719\H,0,0.92035,-0.177161,-2.26273\H,0,3.340733,0.162614,
 -1.934334\H,0,0.344261,-0.12992,1.999375\H,0,2.759689,0.214799,2.31848

 Normal termination of Gaussian 16 at Wed Apr  9 00:04:51 2025.
