 Gaussian 16, Revision C.01,

 ----------------------------------------------------------------------
 #t hf aug-cc-pvdz symm=none int=(grid=ultrafine) guess=(read,tcheck) s
 table=(opt,rrhf)
 ----------------------------------------------------------------------
 -----
 title
 -----
 Symbolic Z-matrix:
 Charge =  0 Multiplicity = 1

 SCF Done:  E(RHF) =  -268.781199905     A.U. after   17 cycles
 Normal termination of Gaussian 16 at Tue Apr  8 23:19:50 2025.
 Gaussian 16:  ES64L-G16RevC.01  3-Jul-2019

 ----------------------------------------------------------------------
 #t hf aug-cc-pvdz iop(5/13=1,5/36=2,99/5=2) pseudo=read geom=check gue
 ss=(read,tcheck) scf=(maxcycle=1)
 ----------------------------------------------------------------------
 -----
 title
 -----
 Structure from the checkpoint file:  "BDE49_nonexpt_1103_mol1.chk"
 Charge =  0 Multiplicity = 1

                         Standard orientation:
 ---------------------------------------------------------------------
 Center     Atomic      Atomic             Coordinates (Angstroms)
 Number     Number       Type             X           Y           Z
 ---------------------------------------------------------------------
      1          9           0       -1.538762    0.568676    0.112837
      2          7           0        0.554542   -0.581229    0.260456
      3          8           0       -0.531526   -0.700371   -0.359246
      4          6           0        1.451054    0.512367   -0.103676
      5          1           0        0.519995   -0.846825    1.246527
      6          1           0        1.014307    1.459076    0.223862
      7          1           0        1.560832    0.517102   -1.187101
      8          1           0        2.417810    0.349928    0.374008
 ---------------------------------------------------------------------

 SCF Done:  E(RHF) =  -269.899249496     A.U. after    2 cycles

 The electronic state is 1-A.
 Alpha  occ. eigenvalues --  -29.17625 -21.22149 -15.85905 -11.42833  -1.90839
 Alpha  occ. eigenvalues --   -1.26317  -0.99187  -0.75921  -0.69856  -0.65115
 Alpha  occ. eigenvalues --   -0.59041  -0.54915  -0.43039  -0.41933  -0.23163
 Alpha  occ. eigenvalues --   -0.19936  -0.18828
 Alpha virt. eigenvalues --    0.02905   0.04853   0.05753   0.06706   0.10528
 Alpha virt. eigenvalues --    0.13310   0.13527   0.14609   0.16045   0.17475
 Alpha virt. eigenvalues --    0.18617   0.22630   0.22958   0.25598   0.27472

 Mulliken charges:
               1
     1  F   -0.381597
     2  N    0.566176
     3  O   -1.841633
     4  C   -2.957993
     5  H    0.730999
     6  H    1.303128
     7  H    1.342185
     8  H    1.238735
 Sum of Mulliken charges =  -0.00000

 Dipole moment (field-independent basis, Debye):
    X=              1.1915    Y=              0.8074    Z=              0.8862  Tot=              1.6903

 Test job not archived.
 1\1\GINC-SE334\SP\RHF\Aug-CC-pVDZ\C1H4F1N1O1\OHZDE\08-Apr-2025\0\\#t h
 f aug-cc-pvdz iop(5/13=1,5/36=2,99/5=2) pseudo=read geom=check guess=(
 read,tcheck) scf=(maxcycle=1)\\title\\0,1\F,0,-1.538762,0.568677,0.112
 837\N,0,0.554542,-0.581229,0.260456\O,0,-0.531526,-0.700371,-0.359246\
 C,0,1.451054,0.512367,-0.103676\H,0,0.519995,-0.846825,1.246527\H,0,1.
 014307,1.459076,0.223862\H,0,1.560832,0.517102,-1.187101\H,0,2.41781,0
 .349927,0.374008\\Version=ES64L-G16RevC.01\State=1-A\HF=-269.8992495\R
 MSD=5.984e-02\Dipole=0.4687865,0.3176627,0.348656\Quadrupole=-0.023347

 Normal termination of Gaussian 16 at Tue Apr  8 23:19:52 2025.
