 Gaussian 16, Revision C.01,

 ----------------------------------------------------------------------
 #t hf aug-cc-pvdz symm=none int=(grid=ultrafine) guess=(read,tcheck) s
 table=(opt,rrhf)
 ----------------------------------------------------------------------
 -----
 title
 -----
 Symbolic Z-matrix:
 Charge =  0 Multiplicity = 1

 SCF Done:  E(RHF) =  -996.102268254     A.U. after   13 cycles

 1\1\GINC-SE096\Stability\RHF\Aug-CC-pVDZ\C8H20P2\OHZDE\08-Apr-2025\0\\
 #t hf aug-cc-pvdz symm=none int=(grid=ultrafine) guess=(read,tcheck) s
 table=(opt,rrhf)\\title\\0,1\P,0,0.984278,0.540065,-0.701023\P,0,-0.98
 4275,-0.540077,-0.701016\C,0,2.137905,-0.886269,-1.087687\C,0,1.392783
 ,0.914679,1.090145\C,0,-2.137901,0.88625,-1.08771\C,0,-1.392786,-0.914
 659,1.090157\C,0,2.780684,1.552442,1.245189\H,0,1.313471,0.024078,1.71
 8667\H,0,0.628078,1.615024,1.43789\H,0,3.577714,0.864115,0.95195\H,0,2
 .961524,1.837451,2.286052\H,0,2.876196,2.450688,0.629316\C,0,2.166318,

 Normal termination of Gaussian 16 at Tue Apr  8 23:06:48 2025.
 Gaussian 16:  ES64L-G16RevC.01  3-Jul-2019

 ----------------------------------------------------------------------
 #t hf aug-cc-pvdz iop(5/13=1,5/36=2,99/5=2) pseudo=read geom=check gue
 ss=(read,tcheck) scf=(maxcycle=1)
 ----------------------------------------------------------------------
 -----
 title
 -----
 Structure from the checkpoint file:  "BDE49_expt_1950_mol1.chk"
 Charge =  0 Multiplicity = 1

                         Standard orientation:
 ---------------------------------------------------------------------
 Center     Atomic      Atomic             Coordinates (Angstroms)
 Number     Number       Type             X           Y           Z
 ---------------------------------------------------------------------
      1         15           0        0.984278    0.540065   -0.701023
      2         15           0       -0.984275   -0.540077   -0.701016
      3          6           0        2.137905   -0.886269   -1.087687
      4          6           0        1.392783    0.914679    1.090145
      5          6           0       -2.137901    0.886250   -1.087710
      6          6           0       -1.392786   -0.914659    1.090157
      7          6           0        2.780684    1.552442    1.245189
      8          1           0        1.313471    0.024078    1.718667
      9          1           0        0.628078    1.615024    1.437890
     10          1           0        3.577714    0.864115    0.951950
     11          1           0        2.961524    1.837451    2.286052
     12          1           0        2.876196    2.450688    0.629316
     13          6           0        2.166318   -2.103492   -0.158907
     14          1           0        3.137750   -0.445419   -1.166055
     15          1           0        1.869763   -1.194783   -2.102781
     16          1           0        2.440907   -1.832126    0.863769
     17          1           0        2.899131   -2.838086   -0.507762
     18          1           0        1.193720   -2.601150   -0.128030
     19          6           0       -2.780688   -1.552419    1.245207
     20          1           0       -1.313477   -0.024047    1.718663
     21          1           0       -0.628082   -1.614998    1.437916
     22          1           0       -3.577717   -0.864098    0.951953
     23          1           0       -2.961531   -1.837410    2.286075
     24          1           0       -2.876198   -2.450676    0.629350
     25          6           0       -2.166318    2.103488   -0.158950
     26          1           0       -3.137746    0.445398   -1.166074
     27          1           0       -1.869755    1.194747   -2.102809
     28          1           0       -2.440911    1.832140    0.863729
     29          1           0       -2.899130    2.838077   -0.507821
     30          1           0       -1.193720    2.601147   -0.128079
 ---------------------------------------------------------------------

 SCF Done:  E(RHF) =  -998.167395772     A.U. after    2 cycles

 The electronic state is 1-A.
 Alpha  occ. eigenvalues -- -105.15824-105.15370 -11.40968 -11.40505 -11.40322
 Alpha  occ. eigenvalues --  -11.39954 -11.36587 -11.36221 -11.35727 -11.35590
 Alpha  occ. eigenvalues --   -2.73973  -2.73130  -1.52153  -1.47517  -1.47355
 Alpha  occ. eigenvalues --   -1.44908  -1.43811  -1.31488  -1.15247  -1.12920
 Alpha  occ. eigenvalues --   -1.10983  -1.10929  -0.89756  -0.88078  -0.85833
 Alpha  occ. eigenvalues --   -0.85785  -0.68393  -0.62423  -0.62377  -0.60378
 Alpha  occ. eigenvalues --   -0.59795  -0.59611  -0.56852  -0.56314  -0.54119
 Alpha  occ. eigenvalues --   -0.51358  -0.50670  -0.50085  -0.49759  -0.49231
 Alpha  occ. eigenvalues --   -0.48987  -0.47973  -0.47788  -0.47444  -0.18637
 Alpha  occ. eigenvalues --   -0.17933  -0.05898  -0.01257   0.04105
 Alpha virt. eigenvalues --    0.04605   0.05023   0.05483   0.05784   0.05954
 Alpha virt. eigenvalues --    0.06321   0.06392   0.06520   0.06941   0.06991
 Alpha virt. eigenvalues --    0.07340   0.07542   0.07779   0.08264   0.08746

 Mulliken charges:
               1
     1  P    6.552299
     2  P    6.552295
     3  C   -4.568370
     4  C   -4.704886
     5  C   -4.568370
     6  C   -4.704893
     7  C   -3.846303
     8  H    2.032581
     9  H    1.824269
    10  H    1.015988
    11  H   -0.052797
    12  H    0.561425
    13  C   -4.126972
    14  H    1.118208
    15  H    1.339043
    16  H    1.143714
    17  H    0.443903
    18  H    1.267898
    19  C   -3.846296
    20  H    2.032583
    21  H    1.824271
    22  H    1.015989
    23  H   -0.052797
    24  H    0.561425
    25  C   -4.126969
    26  H    1.118208
    27  H    1.339041
    28  H    1.143714
    29  H    0.443903
    30  H    1.267898
 Sum of Mulliken charges =   0.00000

 Dipole moment (field-independent basis, Debye):
    X=              0.0000    Y=             -0.0002    Z=            -20.1269  Tot=             20.1269

 Test job not archived.
 1\1\GINC-SE096\SP\RHF\Aug-CC-pVDZ\C8H20P2\OHZDE\08-Apr-2025\0\\#t hf a
 ug-cc-pvdz iop(5/13=1,5/36=2,99/5=2) pseudo=read geom=check guess=(rea
 d,tcheck) scf=(maxcycle=1)\\title\\0,1\P,0,0.984278,0.540065,-0.701023
 \P,0,-0.984275,-0.540077,-0.701016\C,0,2.137905,-0.886269,-1.087687\C,
 0,1.392783,0.914679,1.090145\C,0,-2.137901,0.88625,-1.08771\C,0,-1.392
 786,-0.914659,1.090157\C,0,2.780684,1.552442,1.245189\H,0,1.313471,0.0
 24078,1.718667\H,0,0.628078,1.615024,1.43789\H,0,3.577714,0.864115,0.9
 5195\H,0,2.961524,1.837451,2.286052\H,0,2.876196,2.450688,0.629316\C,0

 Normal termination of Gaussian 16 at Tue Apr  8 23:07:15 2025.
