 Gaussian 16, Revision C.01,

 ----------------------------------------------------------------------
 #t hf aug-cc-pvdz symm=none int=(grid=ultrafine) guess=(read,tcheck) s
 table=(opt,rrhf)
 ----------------------------------------------------------------------
 -----
 title
 -----
 Symbolic Z-matrix:
 Charge =  0 Multiplicity = 1

 SCF Done:  E(RHF) =  -2076.02617482     A.U. after   18 cycles
 Normal termination of Gaussian 16 at Tue Apr  8 23:41:15 2025.
 Gaussian 16:  ES64L-G16RevC.01  3-Jul-2019

 ----------------------------------------------------------------------
 #t hf aug-cc-pvdz iop(5/13=1,5/36=2,99/5=2) pseudo=read geom=check gue
 ss=(read,tcheck) scf=(maxcycle=1)
 ----------------------------------------------------------------------
 -----
 title
 -----
 Structure from the checkpoint file:  "BDE49_nonexpt_1194_mol1.chk"
 Charge =  0 Multiplicity = 1

                         Standard orientation:
 ---------------------------------------------------------------------
 Center     Atomic      Atomic             Coordinates (Angstroms)
 Number     Number       Type             X           Y           Z
 ---------------------------------------------------------------------
      1          6           0       -3.770247    0.180939    0.867517
      2          6           0       -3.826489    1.475291    1.367842
      3          6           0       -2.947968    2.451376    0.900959
      4          6           0       -2.011597    2.111419   -0.070703
      5          6           0       -1.923633    0.818464   -0.572238
      6          6           0       -2.808206   -0.152381   -0.093349
      7          1           0       -4.459670   -0.580690    1.208116
      8          1           0       -4.560964    1.734498    2.121046
      9          6           0       -2.839216   -1.539579   -0.630174
     10          8           0       -3.841715   -2.200971   -0.747772
     11         16           0       -1.364122   -2.406246   -1.202214
     12          8           0        0.009913   -1.488011   -0.758853
     13          6           0        0.433778   -1.547460    0.557911
     14          8           0       -0.214249   -2.035752    1.438834
     15          6           0        1.770736   -0.912198    0.719634
     16          6           0        2.289146   -0.822996    2.015919
     17          6           0        2.502416   -0.425846   -0.369009
     18          6           0        3.747469    0.144724   -0.138936
     19          6           0        3.536221   -0.246696    2.222028
     20          6           0        4.274740    0.241683    1.145896
     21          1           0        1.704420   -1.209318    2.840470
     22          1           0        3.942111   -0.174628    3.223976
     23         17           0       -0.920338    3.341468   -0.681260
     24         17           0        4.675006    0.754182   -1.496972
     25          1           0       -1.190630    0.580763   -1.329284
     26          1           0        2.108710   -0.495544   -1.372374
     27          1           0       -2.989381    3.464640    1.279093
     28          1           0        5.247516    0.691600    1.296869
 ---------------------------------------------------------------------

 SCF Done:  E(RHF) =  -2080.15571530     A.U. after    2 cycles

 The electronic state is 1-A.
 Alpha  occ. eigenvalues --  -99.90805 -99.90727 -75.76600 -21.12694 -21.08540
 Alpha  occ. eigenvalues --  -21.07790 -13.25339 -13.19383 -13.12748 -11.56909
 Alpha  occ. eigenvalues --  -11.55299 -11.54838 -11.53693 -11.48747 -11.48594
 Alpha  occ. eigenvalues --  -11.47603 -11.47454 -11.45692 -11.45602 -11.45122
 Alpha  occ. eigenvalues --  -11.44929 -11.40493 -11.40451 -10.48137 -10.48067
 Alpha  occ. eigenvalues --   -9.68196  -9.68115  -9.67335  -9.67217  -9.67135
 Alpha  occ. eigenvalues --   -9.67029  -8.10270  -1.86200  -1.74781  -1.69533
 Alpha  occ. eigenvalues --   -1.42048  -1.41768  -1.30189  -1.30032  -1.17672
 Alpha  occ. eigenvalues --   -1.14859  -1.11170  -1.10748  -1.10561  -0.95551
 Alpha  occ. eigenvalues --   -0.93802  -0.89525  -0.89076  -0.81764  -0.78801
 Alpha  occ. eigenvalues --   -0.74740  -0.72912  -0.69090  -0.66616  -0.65174
 Alpha  occ. eigenvalues --   -0.64867  -0.63361  -0.62235  -0.61998  -0.60971
 Alpha  occ. eigenvalues --   -0.60346  -0.59314  -0.58000  -0.55907  -0.54581
 Alpha  occ. eigenvalues --   -0.53693  -0.52132  -0.51394  -0.50206  -0.49423
 Alpha  occ. eigenvalues --   -0.48850  -0.48544  -0.48218  -0.47849  -0.43011
 Alpha  occ. eigenvalues --   -0.38987  -0.36134  -0.35882  -0.35314  -0.34554
 Alpha  occ. eigenvalues --   -0.32385  -0.28649  -0.26112
 Alpha virt. eigenvalues --    0.02606   0.04097   0.04716   0.05070   0.05532
 Alpha virt. eigenvalues --    0.06063   0.06117   0.06639   0.07109   0.07452
 Alpha virt. eigenvalues --    0.07460   0.07553   0.08096   0.08914   0.09225

 Mulliken charges:
               1
     1  C   -4.078644
     2  C   -0.133968
     3  C   -3.225849
     4  C   -1.485139
     5  C    0.468338
     6  C    4.270100
     7  H    1.750696
     8  H    1.527908
     9  C    0.736743
    10  O   -3.326103
    11  S    0.935670
    12  O   -2.813175
    13  C    4.913407
    14  O   -3.811642
    15  C    3.090101
    16  C   -3.431374
    17  C    0.326248
    18  C   -1.856377
    19  C   -0.006074
    20  C   -3.036474
    21  H    1.832163
    22  H    1.520125
    23  Cl  -0.859905
    24  Cl  -0.872870
    25  H    2.079451
    26  H    1.984119
    27  H    1.762012
    28  H    1.740512
 Sum of Mulliken charges =  -0.00000

 Dipole moment (field-independent basis, Debye):
    X=             -0.7366    Y=             -1.1055    Z=              2.7701  Tot=              3.0722

 Test job not archived.
 1\1\GINC-SE141\SP\RHF\Aug-CC-pVDZ\C14H8Cl2O3S1\OHZDE\08-Apr-2025\0\\#t
  hf aug-cc-pvdz iop(5/13=1,5/36=2,99/5=2) pseudo=read geom=check guess
 =(read,tcheck) scf=(maxcycle=1)\\title\\0,1\C,0,-3.770247,0.180939,0.8
 67517\C,0,-3.826489,1.475291,1.367842\C,0,-2.947968,2.451376,0.900959\
 C,0,-2.011597,2.111419,-0.070703\C,0,-1.923633,0.818464,-0.572238\C,0,
 -2.808206,-0.152381,-0.093349\H,0,-4.45967,-0.58069,1.208116\H,0,-4.56
 0964,1.734498,2.121046\C,0,-2.839216,-1.539579,-0.630174\O,0,-3.841715
 ,-2.200971,-0.747772\S,0,-1.364122,-2.406246,-1.202214\O,0,0.009913,-1

 Normal termination of Gaussian 16 at Tue Apr  8 23:42:05 2025.
