 Gaussian 16, Revision C.01,

 ----------------------------------------------------------------------
 #t hf aug-cc-pvdz symm=none int=(grid=ultrafine) guess=(read,tcheck) s
 table=(opt,rrhf)
 ----------------------------------------------------------------------
 -----
 title
 -----
 Symbolic Z-matrix:
 Charge =  0 Multiplicity = 1

 SCF Done:  E(RHF) =  -1347.71809135     A.U. after   16 cycles
 Normal termination of Gaussian 16 at Wed Apr  9 00:50:41 2025.
 Gaussian 16:  ES64L-G16RevC.01  3-Jul-2019

 ----------------------------------------------------------------------
 #t hf aug-cc-pvdz iop(5/13=1,5/36=2,99/5=2) pseudo=read geom=check gue
 ss=(read,tcheck) scf=(maxcycle=1)
 ----------------------------------------------------------------------
 -----
 title
 -----
 Structure from the checkpoint file:  "BDE49_nonexpt_871_mol1.chk"
 Charge =  0 Multiplicity = 1

                         Standard orientation:
 ---------------------------------------------------------------------
 Center     Atomic      Atomic             Coordinates (Angstroms)
 Number     Number       Type             X           Y           Z
 ---------------------------------------------------------------------
      1          9           0        0.188000    2.000406   -0.456520
      2          9           0        3.836160   -0.847196    0.176255
      3          9           0        2.820349    1.600647   -0.385592
      4         16           0       -2.757692    1.369771    0.549659
      5         16           0       -2.807466   -1.537543   -0.536357
      6          6           0        1.997366    0.575210   -0.141400
      7          6           0       -0.283955   -0.282682    0.067371
      8          6           0        0.283930   -1.542657    0.345913
      9          1           0       -0.373537   -2.378647    0.547959
     10          6           0        0.620458    0.756390   -0.171436
     11          6           0        1.656405   -1.750326    0.394323
     12          1           0        2.080363   -2.720566    0.618595
     13          6           0        2.507176   -0.685285    0.144894
     14          5           0       -1.839476   -0.104372    0.036057
     15          1           0       -1.718156    2.151314    0.882159
     16          1           0       -4.037606   -1.054491   -0.287106
 ---------------------------------------------------------------------

 SCF Done:  E(RHF) =  -1350.34216356     A.U. after    2 cycles

 The electronic state is 1-A.
 Alpha  occ. eigenvalues --  -75.70410 -75.70209 -29.31716 -29.31531 -29.31381
 Alpha  occ. eigenvalues --  -13.18404 -13.17926 -13.12118 -13.10465 -13.06773
 Alpha  occ. eigenvalues --  -13.04849 -11.58558 -11.52829 -11.49553 -11.48348
 Alpha  occ. eigenvalues --  -11.44744 -11.41333  -8.04546  -8.03997  -7.70730
 Alpha  occ. eigenvalues --   -1.44715  -1.25625  -1.21948  -1.17848  -1.10760
 Alpha  occ. eigenvalues --   -1.01390  -0.98944  -0.85947  -0.79486  -0.72404
 Alpha  occ. eigenvalues --   -0.71932  -0.67143  -0.63600  -0.60869  -0.55718
 Alpha  occ. eigenvalues --   -0.54056  -0.51372  -0.49009  -0.45497  -0.43341
 Alpha  occ. eigenvalues --   -0.41932  -0.41840  -0.39523  -0.36720  -0.35267
 Alpha  occ. eigenvalues --   -0.34917  -0.30306  -0.29989  -0.28357  -0.25083
 Alpha  occ. eigenvalues --   -0.24992  -0.22088
 Alpha virt. eigenvalues --    0.02473   0.03007   0.03754   0.04144   0.05936
 Alpha virt. eigenvalues --    0.07341   0.08372   0.08669   0.09577   0.10921
 Alpha virt. eigenvalues --    0.11160   0.11474   0.11812   0.12254   0.12818

 Mulliken charges:
               1
     1  F    0.802776
     2  F    0.857829
     3  F    1.185057
     4  S   -3.071342
     5  S   -2.993458
     6  C   -1.962698
     7  C   -6.998017
     8  C    1.478945
     9  H    1.778432
    10  C    4.634556
    11  C   -5.065737
    12  H    1.667675
    13  C    2.542904
    14  B    3.365554
    15  H    0.964780
    16  H    0.812741
 Sum of Mulliken charges =  -0.00000

 Dipole moment (field-independent basis, Debye):
    X=              2.6490    Y=              2.3784    Z=             -1.5001  Tot=              3.8632

 Test job not archived.
 1\1\GINC-SE069\SP\RHF\Aug-CC-pVDZ\C6H4B1F3S2\OHZDE\09-Apr-2025\0\\#t h
 f aug-cc-pvdz iop(5/13=1,5/36=2,99/5=2) pseudo=read geom=check guess=(
 read,tcheck) scf=(maxcycle=1)\\title\\0,1\F,0,0.188,2.000406,-0.45652\
 F,0,3.83616,-0.847196,0.176255\F,0,2.820349,1.600647,-0.385592\S,0,-2.
 757692,1.369771,0.549659\S,0,-2.807466,-1.537543,-0.536357\C,0,1.99736
 6,0.57521,-0.1414\C,0,-0.283955,-0.282682,0.067371\C,0,0.28393,-1.5426
 57,0.345913\H,0,-0.373537,-2.378647,0.547959\C,0,0.620458,0.75639,-0.1
 71436\C,0,1.656405,-1.750326,0.394323\H,0,2.080363,-2.720566,0.618595\

 Normal termination of Gaussian 16 at Wed Apr  9 00:50:51 2025.
