 Gaussian 16, Revision C.01,

 ----------------------------------------------------------------------
 #t hf aug-cc-pvdz symm=none int=(grid=ultrafine) guess=(read,tcheck) s
 table=(opt,rrhf)
 ----------------------------------------------------------------------
 -----
 title
 -----
 Symbolic Z-matrix:
 Charge =  0 Multiplicity = 1

 SCF Done:  E(RHF) =  -728.309474211     A.U. after   15 cycles
 Normal termination of Gaussian 16 at Wed Apr  9 00:24:43 2025.
 Gaussian 16:  ES64L-G16RevC.01  3-Jul-2019

 ----------------------------------------------------------------------
 #t hf aug-cc-pvdz iop(5/13=1,5/36=2,99/5=2) pseudo=read geom=check gue
 ss=(read,tcheck) scf=(maxcycle=1)
 ----------------------------------------------------------------------
 -----
 title
 -----
 Structure from the checkpoint file:  "BDE49_nonexpt_2707_mol1.chk"
 Charge =  0 Multiplicity = 1

                         Standard orientation:
 ---------------------------------------------------------------------
 Center     Atomic      Atomic             Coordinates (Angstroms)
 Number     Number       Type             X           Y           Z
 ---------------------------------------------------------------------
      1          9           0       -2.980794    0.467693   -0.440591
      2          6           0       -0.743427    0.165043    0.251480
      3          6           0       -2.152678   -0.326373    0.357020
      4          1           0       -2.517576   -0.239824    1.386568
      5          1           0       -2.221573   -1.363766    0.024479
      6          7           0        0.204764   -0.650380    0.000054
      7         16           0        1.776224   -0.517989   -0.147502
      8          9           0        2.183550    1.108189    0.095510
      9          1           0       -0.561957    1.229112    0.403343
 ---------------------------------------------------------------------

 SCF Done:  E(RHF) =  -729.823367550     A.U. after    2 cycles

 The electronic state is 1-A.
 Alpha  occ. eigenvalues --  -75.79338 -29.27168 -29.26938 -15.80734 -13.32375
 Alpha  occ. eigenvalues --  -13.19878 -13.10303 -11.49762 -11.44817  -8.13541
 Alpha  occ. eigenvalues --   -1.48068  -1.24349  -1.10928  -0.88007  -0.74387
 Alpha  occ. eigenvalues --   -0.70010  -0.67781  -0.62480  -0.54127  -0.52927
 Alpha  occ. eigenvalues --   -0.46760  -0.39285  -0.37665  -0.32061  -0.30767
 Alpha  occ. eigenvalues --   -0.27225  -0.26471  -0.18689
 Alpha virt. eigenvalues --    0.03979   0.05387   0.06244   0.07008   0.08594
 Alpha virt. eigenvalues --    0.09648   0.11705   0.12692   0.12819   0.15027
 Alpha virt. eigenvalues --    0.15970   0.16411   0.17300   0.17961   0.19573

 Mulliken charges:
               1
     1  F    0.288817
     2  C   -0.249655
     3  C   -2.417972
     4  H    1.314897
     5  H    1.364902
     6  N   -3.023127
     7  S    1.520500
     8  F   -0.265089
     9  H    1.466728
 Sum of Mulliken charges =  -0.00000

 Dipole moment (field-independent basis, Debye):
    X=              0.9466    Y=              3.1377    Z=             -0.1897  Tot=              3.2829

 Test job not archived.
 1\1\GINC-SE332\SP\RHF\Aug-CC-pVDZ\C2H3F2N1S1\OHZDE\09-Apr-2025\0\\#t h
 f aug-cc-pvdz iop(5/13=1,5/36=2,99/5=2) pseudo=read geom=check guess=(
 read,tcheck) scf=(maxcycle=1)\\title\\0,1\F,0,-2.980794,0.467693,-0.44
 0591\C,0,-0.743427,0.165043,0.25148\C,0,-2.152678,-0.326373,0.35702\H,
 0,-2.517576,-0.239824,1.386568\H,0,-2.221573,-1.363766,0.024479\N,0,0.
 204764,-0.65038,0.000054\S,0,1.776224,-0.517989,-0.147502\F,0,2.18355,
 1.108189,0.09551\H,0,-0.561957,1.229112,0.403343\\Version=ES64L-G16Rev
 C.01\State=1-A\HF=-729.8233675\RMSD=1.787e-01\Dipole=0.3724157,1.23448

 Normal termination of Gaussian 16 at Wed Apr  9 00:24:45 2025.
