 Gaussian 16, Revision C.01,

 ----------------------------------------------------------------------
 #t hf aug-cc-pvdz symm=none int=(grid=ultrafine) guess=(read,tcheck) s
 table=(opt,rrhf)
 ----------------------------------------------------------------------
 -----
 title
 -----
 Symbolic Z-matrix:
 Charge =  0 Multiplicity = 1

 SCF Done:  E(RHF) =  -615.051439558     A.U. after   14 cycles

 1\1\GINC-SE457\Stability\RHF\Aug-CC-pVDZ\C4H7Cl1\OHZDE\08-Apr-2025\0\\
 #t hf aug-cc-pvdz symm=none int=(grid=ultrafine) guess=(read,tcheck) s
 table=(opt,rrhf)\\title\\0,1\C,0,-0.526465,0.199425,0.78396\C,0,0.4950
 78,0.946929,0.00251\C,0,1.718737,0.515283,-0.31456\Cl,0,-1.955082,-0.2
 87078,-0.27327\H,0,-0.968753,0.812654,1.567392\H,0,-0.156264,-0.726349
 ,1.214178\H,0,2.350096,1.199605,-0.877345\H,0,0.190293,1.935224,-0.328
 942\C,0,2.349081,-0.807842,0.002476\H,0,1.680468,-1.493385,0.523964\H,
 0,3.244049,-0.67142,0.619567\H,0,2.677918,-1.298766,-0.919533\\Version

 Normal termination of Gaussian 16 at Tue Apr  8 22:48:35 2025.
 Gaussian 16:  ES64L-G16RevC.01  3-Jul-2019

 ----------------------------------------------------------------------
 #t hf aug-cc-pvdz iop(5/13=1,5/36=2,99/5=2) pseudo=read geom=check gue
 ss=(read,tcheck) scf=(maxcycle=1)
 ----------------------------------------------------------------------
 -----
 title
 -----
 Structure from the checkpoint file:  "BDE49_expt_1652_mol1.chk"
 Charge =  0 Multiplicity = 1

                         Standard orientation:
 ---------------------------------------------------------------------
 Center     Atomic      Atomic             Coordinates (Angstroms)
 Number     Number       Type             X           Y           Z
 ---------------------------------------------------------------------
      1          6           0       -0.526465    0.199425    0.783960
      2          6           0        0.495078    0.946929    0.002510
      3          6           0        1.718737    0.515283   -0.314560
      4         17           0       -1.955082   -0.287078   -0.273270
      5          1           0       -0.968753    0.812654    1.567392
      6          1           0       -0.156264   -0.726349    1.214178
      7          1           0        2.350096    1.199605   -0.877345
      8          1           0        0.190293    1.935224   -0.328942
      9          6           0        2.349081   -0.807842    0.002476
     10          1           0        1.680468   -1.493385    0.523964
     11          1           0        3.244049   -0.671420    0.619567
     12          1           0        2.677918   -1.298766   -0.919533
 ---------------------------------------------------------------------

 SCF Done:  E(RHF) =  -616.085116412     A.U. after    2 cycles

 The electronic state is 1-A.
 Alpha  occ. eigenvalues --  -99.87048 -11.46203 -11.44035 -11.40279 -11.37640
 Alpha  occ. eigenvalues --  -10.44226  -9.64133  -9.63418  -9.63408  -1.32964
 Alpha  occ. eigenvalues --   -1.20976  -1.06133  -0.94900  -0.77338  -0.68792
 Alpha  occ. eigenvalues --   -0.61145  -0.60033  -0.57661  -0.56556  -0.51852
 Alpha  occ. eigenvalues --   -0.49484  -0.46736  -0.45082  -0.35039
 Alpha virt. eigenvalues --    0.02873   0.05241   0.05592   0.05984   0.06254
 Alpha virt. eigenvalues --    0.06468   0.07273   0.08778   0.11343   0.11526
 Alpha virt. eigenvalues --    0.12652   0.13467   0.14373   0.14904   0.15786

 Mulliken charges:
               1
     1  C   -4.671142
     2  C   -0.198129
     3  C   -0.119090
     4  Cl   0.067063
     5  H    1.335790
     6  H    1.548041
     7  H    1.402655
     8  H    1.418121
     9  C   -4.556395
    10  H    1.398432
    11  H    1.202171
    12  H    1.172483
 Sum of Mulliken charges =  -0.00000

 Dipole moment (field-independent basis, Debye):
    X=              2.7101    Y=              0.4590    Z=              1.1004  Tot=              2.9607

 Test job not archived.
 1\1\GINC-SE457\SP\RHF\Aug-CC-pVDZ\C4H7Cl1\OHZDE\08-Apr-2025\0\\#t hf a
 ug-cc-pvdz iop(5/13=1,5/36=2,99/5=2) pseudo=read geom=check guess=(rea
 d,tcheck) scf=(maxcycle=1)\\title\\0,1\C,0,-0.526465,0.199425,0.78396\
 C,0,0.495078,0.946929,0.00251\C,0,1.718737,0.515283,-0.31456\Cl,0,-1.9
 55082,-0.287078,-0.27327\H,0,-0.968753,0.812654,1.567392\H,0,-0.156264
 ,-0.726349,1.214178\H,0,2.350096,1.199605,-0.877345\H,0,0.190293,1.935
 224,-0.328942\C,0,2.349081,-0.807842,0.002476\H,0,1.680468,-1.493385,0
 .523964\H,0,3.244049,-0.67142,0.619567\H,0,2.677918,-1.298766,-0.91953

 Normal termination of Gaussian 16 at Tue Apr  8 22:48:38 2025.
