 Gaussian 16, Revision C.01,

 ----------------------------------------------------------------------
 #t hf aug-cc-pvdz symm=none int=(grid=ultrafine) guess=(read,tcheck) s
 table=(opt,rrhf)
 ----------------------------------------------------------------------
 -----
 title
 -----
 Symbolic Z-matrix:
 Charge =  0 Multiplicity = 1

 SCF Done:  E(RHF) =  -648.679167441     A.U. after   16 cycles
 Normal termination of Gaussian 16 at Tue Apr  8 23:19:51 2025.
 Gaussian 16:  ES64L-G16RevC.01  3-Jul-2019

 ----------------------------------------------------------------------
 #t hf aug-cc-pvdz iop(5/13=1,5/36=2,99/5=2) pseudo=read geom=check gue
 ss=(read,tcheck) scf=(maxcycle=1)
 ----------------------------------------------------------------------
 -----
 title
 -----
 Structure from the checkpoint file:  "BDE49_nonexpt_1091_mol1.chk"
 Charge =  0 Multiplicity = 1

                         Standard orientation:
 ---------------------------------------------------------------------
 Center     Atomic      Atomic             Coordinates (Angstroms)
 Number     Number       Type             X           Y           Z
 ---------------------------------------------------------------------
      1          8           0        0.040517   -0.798785    0.354592
      2         17           0        1.455605    0.262409   -0.048901
      3          8           0       -1.048689   -0.502401   -0.449346
      4          6           0       -1.789262    0.574826    0.136818
      5          1           0       -2.667037    0.677728   -0.501903
      6          1           0       -1.197132    1.493682    0.111078
      7          1           0       -2.080171    0.328163    1.159262
 ---------------------------------------------------------------------

 SCF Done:  E(RHF) =  -649.738566287     A.U. after    2 cycles

 The electronic state is 1-A.
 Alpha  occ. eigenvalues --  -99.94289 -21.16883 -21.12752 -11.42543 -10.50906
 Alpha  occ. eigenvalues --   -9.70672  -9.70039  -9.69927  -2.01499  -1.48082
 Alpha  occ. eigenvalues --   -1.22900  -0.98338  -0.66610  -0.66466  -0.61867
 Alpha  occ. eigenvalues --   -0.58148  -0.56524  -0.52318  -0.44419  -0.36688
 Alpha  occ. eigenvalues --   -0.34467
 Alpha virt. eigenvalues --    0.03448   0.03714   0.05954   0.06694   0.09295
 Alpha virt. eigenvalues --    0.12249   0.12868   0.14291   0.14896   0.15930
 Alpha virt. eigenvalues --    0.16648   0.18629   0.21249   0.23175   0.24699

 Mulliken charges:
               1
     1  O   -0.357542
     2  Cl   0.273080
     3  O   -1.201156
     4  C   -2.449264
     5  H    1.188592
     6  H    1.312289
     7  H    1.234001
 Sum of Mulliken charges =  -0.00000

 Dipole moment (field-independent basis, Debye):
    X=             -3.5102    Y=             -0.3804    Z=              0.2901  Tot=              3.5426

 Test job not archived.
 1\1\GINC-SE393\SP\RHF\Aug-CC-pVDZ\C1H3Cl1O2\OHZDE\08-Apr-2025\0\\#t hf
  aug-cc-pvdz iop(5/13=1,5/36=2,99/5=2) pseudo=read geom=check guess=(r
 ead,tcheck) scf=(maxcycle=1)\\title\\0,1\O,0,0.040517,-0.798785,0.3545
 92\Cl,0,1.455605,0.262409,-0.048901\O,0,-1.048689,-0.502401,-0.449346\
 C,0,-1.789262,0.574826,0.136818\H,0,-2.667037,0.677728,-0.501903\H,0,-
 1.197132,1.493682,0.111078\H,0,-2.080171,0.328163,1.159262\\Version=ES
 64L-G16RevC.01\State=1-A\HF=-649.7385663\RMSD=4.977e-02\Dipole=-1.3810
 176,-0.1496455,0.1141509\Quadrupole=0.7629057,-0.0029835,-0.7599222,-0

 Normal termination of Gaussian 16 at Tue Apr  8 23:19:53 2025.
