 Gaussian 16, Revision C.01,

 ----------------------------------------------------------------------
 #t hf aug-cc-pvdz symm=none int=(grid=ultrafine) guess=(read,tcheck) s
 table=(opt,rrhf)
 ----------------------------------------------------------------------
 -----
 title
 -----
 Symbolic Z-matrix:
 Charge =  0 Multiplicity = 1

 SCF Done:  E(RHF) =  -549.216439994     A.U. after   13 cycles
 Normal termination of Gaussian 16 at Tue Apr  8 23:37:13 2025.
 Gaussian 16:  ES64L-G16RevC.01  3-Jul-2019

 ----------------------------------------------------------------------
 #t hf aug-cc-pvdz iop(5/13=1,5/36=2,99/5=2) pseudo=read geom=check gue
 ss=(read,tcheck) scf=(maxcycle=1)
 ----------------------------------------------------------------------
 -----
 title
 -----
 Structure from the checkpoint file:  "BDE49_nonexpt_1510_mol1.chk"
 Charge =  0 Multiplicity = 1

                         Standard orientation:
 ---------------------------------------------------------------------
 Center     Atomic      Atomic             Coordinates (Angstroms)
 Number     Number       Type             X           Y           Z
 ---------------------------------------------------------------------
      1         15           0        0.054729   -0.912753   -0.140451
      2          7           0       -1.454722   -0.294998    0.442846
      3          8           0       -1.838423    0.996623   -0.082589
      4          6           0        1.179093    0.531294   -0.200656
      5          6           0        2.442242    0.437937    0.214065
      6          1           0        0.786222    1.471790   -0.577250
      7          1           0        2.847522   -0.492549    0.601767
      8          1           0        3.122812    1.283720    0.177759
      9          1           0       -2.648345    0.790359   -0.562496
     10          1           0       -0.322889   -0.901326   -1.505532
     11          1           0       -1.443836   -0.184084    1.452853
 ---------------------------------------------------------------------

 SCF Done:  E(RHF) =  -550.344335351     A.U. after    2 cycles

 The electronic state is 1-A.
 Alpha  occ. eigenvalues -- -105.18916 -21.09559 -15.76810 -11.41902 -11.37544
 Alpha  occ. eigenvalues --   -2.77154  -1.76259  -1.53221  -1.48077  -1.45355
 Alpha  occ. eigenvalues --   -1.13833  -1.08456  -0.81455  -0.71263  -0.62404
 Alpha  occ. eigenvalues --   -0.60316  -0.58427  -0.53323  -0.39756  -0.38365
 Alpha  occ. eigenvalues --   -0.36188  -0.25896  -0.22577  -0.02005
 Alpha virt. eigenvalues --    0.04166   0.05536   0.06530   0.06611   0.07141
 Alpha virt. eigenvalues --    0.07421   0.09750   0.10031   0.10585   0.13137
 Alpha virt. eigenvalues --    0.14459   0.16041   0.16405   0.17598   0.18740

 Mulliken charges:
               1
     1  P    3.634885
     2  N   -0.466032
     3  O   -2.024195
     4  C   -2.198770
     5  C   -3.374855
     6  H    1.130149
     7  H    1.324556
     8  H    1.195380
     9  H    0.812106
    10  H   -0.630039
    11  H    0.596815
 Sum of Mulliken charges =   0.00000

 Dipole moment (field-independent basis, Debye):
    X=             -0.1040    Y=              1.1980    Z=             -0.1299  Tot=              1.2095

 Test job not archived.
 1\1\GINC-SE116\SP\RHF\Aug-CC-pVDZ\C2H6N1O1P1\OHZDE\08-Apr-2025\0\\#t h
 f aug-cc-pvdz iop(5/13=1,5/36=2,99/5=2) pseudo=read geom=check guess=(
 read,tcheck) scf=(maxcycle=1)\\title\\0,1\P,0,0.054729,-0.912753,-0.14
 0451\N,0,-1.454722,-0.294998,0.442846\O,0,-1.838423,0.996623,-0.082589
 \C,0,1.179093,0.531294,-0.200656\C,0,2.442242,0.437937,0.214065\H,0,0.
 786222,1.47179,-0.57725\H,0,2.847522,-0.492549,0.601767\H,0,3.122812,1
 .28372,0.177759\H,0,-2.648345,0.790359,-0.562496\H,0,-0.322889,-0.9013
 26,-1.505532\H,0,-1.443836,-0.184084,1.452853\\Version=ES64L-G16RevC.0

 Normal termination of Gaussian 16 at Tue Apr  8 23:37:18 2025.
