 Gaussian 16, Revision C.01,

 ----------------------------------------------------------------------
 #t hf aug-cc-pvdz symm=none int=(grid=ultrafine) guess=(read,tcheck) s
 table=(opt,rrhf)
 ----------------------------------------------------------------------
 -----
 title
 -----
 Symbolic Z-matrix:
 Charge =  0 Multiplicity = 1

 SCF Done:  E(RHF) =  -1007.94181168     A.U. after   15 cycles
 Normal termination of Gaussian 16 at Tue Apr  8 23:19:55 2025.
 Gaussian 16:  ES64L-G16RevC.01  3-Jul-2019

 ----------------------------------------------------------------------
 #t hf aug-cc-pvdz iop(5/13=1,5/36=2,99/5=2) pseudo=read geom=check gue
 ss=(read,tcheck) scf=(maxcycle=1)
 ----------------------------------------------------------------------
 -----
 title
 -----
 Structure from the checkpoint file:  "BDE49_expt_499_mol1.chk"
 Charge =  0 Multiplicity = 1

                         Standard orientation:
 ---------------------------------------------------------------------
 Center     Atomic      Atomic             Coordinates (Angstroms)
 Number     Number       Type             X           Y           Z
 ---------------------------------------------------------------------
      1          6           0        2.824741    0.398992   -1.364663
      2          6           0        1.542773    0.221675   -0.852036
      3          6           0        3.943335    0.364508   -0.535427
      4          6           0        3.765233    0.147785    0.829413
      5          6           0        2.490802   -0.029846    1.355099
      6          6           0        1.364120    0.005373    0.521241
      7          1           0        0.686449    0.246512   -1.512010
      8          1           0        2.945119    0.564643   -2.429652
      9          1           0        4.622182    0.116320    1.493132
     10          1           0        2.361723   -0.196859    2.420076
     11          7           0        0.091207   -0.176420    1.093315
     12         15           0       -1.434691   -0.173149    0.405202
     13          8           0       -2.423414   -0.407451    1.463645
     14          1           0        0.069910   -0.342907    2.088939
     15          8           0       -1.428220   -1.175161   -0.827025
     16          8           0       -1.540298    1.163301   -0.450875
     17          6           0       -1.751426   -2.582255   -0.653269
     18          6           0       -0.492616   -3.430512   -0.630495
     19          1           0       -2.382104   -2.833655   -1.506950
     20          1           0       -2.340794   -2.699438    0.258499
     21          1           0        0.098061   -3.271433   -1.534874
     22          1           0       -0.764275   -4.488910   -0.576956
     23          1           0        0.130649   -3.192792    0.233742
     24          6           0       -1.559620    2.449234    0.221149
     25          6           0       -1.775163    3.518262   -0.829973
     26          1           0       -0.606619    2.587946    0.740112
     27          1           0       -2.364756    2.444568    0.960080
     28          1           0       -0.968788    3.504704   -1.566023
     29          1           0       -1.796479    4.503913   -0.357169
     30          1           0       -2.722651    3.361679   -1.349258
     31          1           0        4.936679    0.503083   -0.945106
 ---------------------------------------------------------------------

 SCF Done:  E(RHF) =  -1011.24954448     A.U. after    2 cycles

 The electronic state is 1-A.
 Alpha  occ. eigenvalues -- -105.30775 -21.06968 -21.06889 -21.01056 -15.75696
 Alpha  occ. eigenvalues --  -11.53458 -11.46694 -11.45286 -11.44894 -11.43607
 Alpha  occ. eigenvalues --  -11.40988 -11.40804 -11.37542 -11.37403 -11.36696
 Alpha  occ. eigenvalues --   -2.93445  -2.00041  -1.91161  -1.82608  -1.62678
 Alpha  occ. eigenvalues --   -1.43090  -1.37834  -1.28410  -1.22192  -1.11576
 Alpha  occ. eigenvalues --   -1.10465  -1.09601  -1.04337  -0.88669  -0.87578
 Alpha  occ. eigenvalues --   -0.87402  -0.84439  -0.72364  -0.70080  -0.67674
 Alpha  occ. eigenvalues --   -0.65821  -0.64796  -0.60878  -0.59879  -0.58424
 Alpha  occ. eigenvalues --   -0.57498  -0.55705  -0.55366  -0.54196  -0.53758
 Alpha  occ. eigenvalues --   -0.51734  -0.51465  -0.49077  -0.46487  -0.45887
 Alpha  occ. eigenvalues --   -0.44856  -0.44595  -0.38556  -0.36975  -0.35040
 Alpha  occ. eigenvalues --   -0.33835  -0.33152  -0.28952  -0.28642  -0.24785
 Alpha  occ. eigenvalues --   -0.15296
 Alpha virt. eigenvalues --    0.03470   0.04383   0.05026   0.05102   0.05236
 Alpha virt. eigenvalues --    0.05549   0.05792   0.06264   0.06683   0.07045
 Alpha virt. eigenvalues --    0.07424   0.07838   0.08047   0.08123   0.08889

 Mulliken charges:
               1
     1  C   -0.472151
     2  C   -1.368363
     3  C   -3.854207
     4  C   -0.365672
     5  C   -6.130806
     6  C    6.168802
     7  H    2.141908
     8  H    1.563353
     9  H    1.616788
    10  H    1.871827
    11  N   -5.568115
    12  P   11.054656
    13  O   -3.160607
    14  H    0.695603
    15  O   -3.369784
    16  O   -4.125311
    17  C   -2.232250
    18  C   -4.038775
    19  H    1.368302
    20  H    1.695129
    21  H    1.460598
    22  H    1.201755
    23  H    1.467126
    24  C   -2.376834
    25  C   -4.122797
    26  H    1.868543
    27  H    1.597558
    28  H    1.329548
    29  H    1.119704
    30  H    1.349011
    31  H    1.615458
 Sum of Mulliken charges =   0.00000

 Dipole moment (field-independent basis, Debye):
    X=              1.8873    Y=              0.2396    Z=             -1.8223  Tot=              2.6344

 Test job not archived.
 1\1\GINC-SE222\SP\RHF\Aug-CC-pVDZ\C10H16N1O3P1\OHZDE\08-Apr-2025\0\\#t
  hf aug-cc-pvdz iop(5/13=1,5/36=2,99/5=2) pseudo=read geom=check guess
 =(read,tcheck) scf=(maxcycle=1)\\title\\0,1\C,0,-2.824741,-0.398992,-1
 .364663\C,0,-1.542773,-0.221675,-0.852036\C,0,-3.943335,-0.364508,-0.5
 35427\C,0,-3.765233,-0.147785,0.829413\C,0,-2.490802,0.029846,1.355099
 \C,0,-1.36412,-0.005373,0.521241\H,0,-0.686449,-0.246512,-1.51201\H,0,
 -2.945119,-0.564643,-2.429652\H,0,-4.622182,-0.11632,1.493132\H,0,-2.3
 61723,0.196859,2.420076\N,0,-0.091207,0.17642,1.093315\P,0,1.434691,0.

 Normal termination of Gaussian 16 at Tue Apr  8 23:20:35 2025.
