 Gaussian 16, Revision C.01,

 ----------------------------------------------------------------------
 #t hf aug-cc-pvdz symm=none int=(grid=ultrafine) guess=(read,tcheck) s
 table=opt
 ----------------------------------------------------------------------
 -----
 title
 -----
 Symbolic Z-matrix:
 Charge =  0 Multiplicity = 2

 SCF Done:  E(UHF) =  -616.732622478     A.U. after   19 cycles
 Normal termination of Gaussian 16 at Wed Apr  9 00:19:16 2025.
 Gaussian 16:  ES64L-G16RevC.01  3-Jul-2019

 ----------------------------------------------------------------------
 #t hf aug-cc-pvdz iop(5/13=1,5/36=2,99/5=2) pseudo=read geom=check gue
 ss=(read,tcheck) scf=(maxcycle=1)
 ----------------------------------------------------------------------
 -----
 title
 -----
 Structure from the checkpoint file:  "BDE49_nonexpt_257_mol2.chk"
 Charge =  0 Multiplicity = 2

                         Standard orientation:
 ---------------------------------------------------------------------
 Center     Atomic      Atomic             Coordinates (Angstroms)
 Number     Number       Type             X           Y           Z
 ---------------------------------------------------------------------
      1          5           0        0.681666    0.148021    0.000053
      2         17           0        2.361133   -0.144612   -0.000068
      3          7           0       -0.552257    0.372440    0.000087
      4          6           0       -1.867769    0.579806    0.000058
      5          6           0       -2.833120   -0.561596    0.000001
      6          1           0       -2.697460   -1.203009    0.880736
      7          1           0       -2.697194   -1.203157   -0.880582
      8          1           0       -3.862472   -0.198383   -0.000185
      9          1           0       -2.219326    1.606497   -0.000033
 ---------------------------------------------------------------------

 SCF Done:  E(UHF) =  -617.695470498     A.U. after    2 cycles

 The electronic state is 2-A.
 Alpha  occ. eigenvalues --  -99.92694 -15.68474 -11.42089 -11.36575 -10.49894
 Alpha  occ. eigenvalues --   -9.69938  -9.69284  -9.69247  -7.70499  -1.38235
 Alpha  occ. eigenvalues --   -1.34666  -1.09563  -0.90421  -0.74276  -0.68043
 Alpha  occ. eigenvalues --   -0.61624  -0.60823  -0.57823  -0.56266  -0.52270
 Alpha  occ. eigenvalues --   -0.46247  -0.38060  -0.25638
 Alpha virt. eigenvalues --    0.03515   0.03785   0.04240   0.04527   0.06468
 Alpha virt. eigenvalues --    0.06893   0.07865   0.09503   0.11622   0.13133
 Alpha virt. eigenvalues --    0.13889   0.14669   0.14826   0.15388   0.16313

  Beta  occ. eigenvalues --  -99.92685 -15.69658 -11.40509 -11.36295 -10.49886
  Beta  occ. eigenvalues --   -9.70060  -9.69227  -9.69138  -7.69770  -1.37836
  Beta  occ. eigenvalues --   -1.34751  -1.08132  -0.86998  -0.73616  -0.67247
  Beta  occ. eigenvalues --   -0.60607  -0.60095  -0.55620  -0.55065  -0.52033
  Beta  occ. eigenvalues --   -0.45166  -0.39209
  Beta virt. eigenvalues --    0.03595   0.03857   0.04241   0.04523   0.06482
  Beta virt. eigenvalues --    0.06922   0.07653   0.09273   0.09589   0.11868
  Beta virt. eigenvalues --    0.13245   0.14800   0.15078   0.15156   0.15571

 Mulliken charges and spin densities:
               1          2
     1  B    1.122368   0.429899
     2  Cl  -1.107549   0.044665
     3  N   -3.557420  -0.472371
     4  C    1.905569   1.386475
     5  C   -3.669778  -0.372942
     6  H    1.231443   0.021583
     7  H    1.231427   0.021582
     8  H    1.273726   0.003866
     9  H    1.570213  -0.062757
 Sum of Mulliken charges =  -0.00000   1.00000

 Dipole moment (field-independent basis, Debye):
    X=             -0.6553    Y=              0.0254    Z=             -0.0001  Tot=              0.6558
                          Isotropic Fermi Contact Couplings
        Atom                 a.u.       MegaHertz       Gauss      10(-4) cm-1
     1  B(11)              0.04303      61.71994      22.02321      20.58756
     2  Cl(35)             0.01399       6.13491       2.18909       2.04639
     3  N(14)             -0.13521     -43.68656     -15.58845     -14.57227
     4  C(13)              0.12107     136.10706      48.56638      45.40043
     5  C(13)             -0.03602     -40.49219     -14.44862     -13.50674
     6  H(1)               0.01404      62.74622      22.38941      20.92989
     7  H(1)               0.01403      62.73315      22.38475      20.92553
     8  H(1)               0.00131       5.87014       2.09461       1.95807

 1\1\GINC-SE103\SP\UHF\Aug-CC-pVDZ\C2H4B1Cl1N1(2)\OHZDE\09-Apr-2025\0\\
 #t hf aug-cc-pvdz iop(5/13=1,5/36=2,99/5=2) pseudo=read geom=check gue
 ss=(read,tcheck) scf=(maxcycle=1)\\title\\0,2\B,0,0.681666,0.148021,0.
 000053\Cl,0,2.361133,-0.144612,-0.000068\N,0,-0.552257,0.37244,0.00008
 7\C,0,-1.867769,0.579806,0.000058\C,0,-2.83312,-0.561596,0.000001\H,0,
 -2.69746,-1.203009,0.880736\H,0,-2.697194,-1.203157,-0.880582\H,0,-3.8
 62472,-0.198383,-0.000185\H,0,-2.219326,1.606497,-0.000033\\Version=ES
 64L-G16RevC.01\State=2-A\HF=-617.6954705\S2=0.80707\S2-1=0.\S2A=0.7517

 Normal termination of Gaussian 16 at Wed Apr  9 00:19:19 2025.
