 Gaussian 16, Revision C.01,

 ----------------------------------------------------------------------
 #t hf aug-cc-pvdz symm=none int=(grid=ultrafine) guess=(read,tcheck) s
 table=(opt,rrhf)
 ----------------------------------------------------------------------
 -----
 title
 -----
 Symbolic Z-matrix:
 Charge =  0 Multiplicity = 1

 SCF Done:  E(RHF) =  -1107.67406666     A.U. after   14 cycles
 Normal termination of Gaussian 16 at Tue Apr  8 23:10:48 2025.
 Gaussian 16:  ES64L-G16RevC.01  3-Jul-2019

 ----------------------------------------------------------------------
 #t hf aug-cc-pvdz iop(5/13=1,5/36=2,99/5=2) pseudo=read geom=check gue
 ss=(read,tcheck) scf=(maxcycle=1)
 ----------------------------------------------------------------------
 -----
 title
 -----
 Structure from the checkpoint file:  "BDE49_expt_620_mol1.chk"
 Charge =  0 Multiplicity = 1

                         Standard orientation:
 ---------------------------------------------------------------------
 Center     Atomic      Atomic             Coordinates (Angstroms)
 Number     Number       Type             X           Y           Z
 ---------------------------------------------------------------------
      1          6           0        0.041054   -0.096510    0.630425
      2          8           0       -0.143207    1.256001    0.716002
      3          8           0       -0.186429    1.851292   -0.599366
      4          1           0       -1.145062    1.892264   -0.744687
      5         17           0        1.569338   -0.575766   -0.178676
      6          1           0        0.084760   -0.436963    1.660668
      7         17           0       -1.366333   -0.938033   -0.152596
 ---------------------------------------------------------------------

 SCF Done:  E(RHF) =  -1108.94183984     A.U. after    2 cycles

 The electronic state is 1-A.
 Alpha  occ. eigenvalues --  -99.91146 -99.90808 -21.15569 -21.15067 -11.54212
 Alpha  occ. eigenvalues --  -10.48463 -10.48144  -9.68282  -9.67959  -9.67570
 Alpha  occ. eigenvalues --   -9.67499  -9.67199  -9.67156  -1.99798  -1.51616
 Alpha  occ. eigenvalues --   -1.35373  -1.29772  -0.95969  -0.74691  -0.70983
 Alpha  occ. eigenvalues --   -0.66745  -0.61699  -0.54767  -0.52949  -0.50486
 Alpha  occ. eigenvalues --   -0.50286  -0.46992  -0.37587  -0.37433
 Alpha virt. eigenvalues --    0.02699   0.03803   0.05967   0.07526   0.09045
 Alpha virt. eigenvalues --    0.11683   0.12089   0.13542   0.14257   0.15293
 Alpha virt. eigenvalues --    0.15994   0.16528   0.18354   0.19686   0.19885

 Mulliken charges:
               1
     1  C   -1.333848
     2  O   -1.287668
     3  O   -0.701943
     4  H    0.840968
     5  Cl   0.299254
     6  H    1.901978
     7  Cl   0.281260
 Sum of Mulliken charges =  -0.00000

 Dipole moment (field-independent basis, Debye):
    X=             -0.7515    Y=              1.7809    Z=              0.7362  Tot=              2.0684

 Test job not archived.
 1\1\GINC-SE232\SP\RHF\Aug-CC-pVDZ\C1H2Cl2O2\OHZDE\08-Apr-2025\0\\#t hf
  aug-cc-pvdz iop(5/13=1,5/36=2,99/5=2) pseudo=read geom=check guess=(r
 ead,tcheck) scf=(maxcycle=1)\\title\\0,1\C,0,0.041054,-0.09651,0.63042
 5\O,0,-0.143208,1.256001,0.716002\O,0,-0.18643,1.851292,-0.599366\H,0,
 -1.145063,1.892263,-0.744687\Cl,0,1.569338,-0.575766,-0.178676\H,0,0.0
 8476,-0.436963,1.660668\Cl,0,-1.366333,-0.938034,-0.152596\\Version=ES
 64L-G16RevC.01\State=1-A\HF=-1108.9418398\RMSD=5.376e-02\Dipole=-0.295
 653,0.7006771,0.2896404\Quadrupole=-0.3479082,-0.386723,0.7346313,-1.6

 Normal termination of Gaussian 16 at Tue Apr  8 23:10:50 2025.
