 Gaussian 16, Revision C.01,

 ----------------------------------------------------------------------
 #t hf aug-cc-pvdz symm=none int=(grid=ultrafine) guess=(read,tcheck) s
 table=(opt,rrhf)
 ----------------------------------------------------------------------
 -----
 title
 -----
 Symbolic Z-matrix:
 Charge =  0 Multiplicity = 1

 SCF Done:  E(RHF) =  -1982.95650457     A.U. after   13 cycles
 Normal termination of Gaussian 16 at Tue Apr  8 23:29:12 2025.
 Gaussian 16:  ES64L-G16RevC.01  3-Jul-2019

 ----------------------------------------------------------------------
 #t hf aug-cc-pvdz iop(5/13=1,5/36=2,99/5=2) pseudo=read geom=check gue
 ss=(read,tcheck) scf=(maxcycle=1)
 ----------------------------------------------------------------------
 -----
 title
 -----
 Structure from the checkpoint file:  "BDE49_nonexpt_1330_mol1.chk"
 Charge =  0 Multiplicity = 1

                         Standard orientation:
 ---------------------------------------------------------------------
 Center     Atomic      Atomic             Coordinates (Angstroms)
 Number     Number       Type             X           Y           Z
 ---------------------------------------------------------------------
      1          6           0       -0.593601   -0.004744    0.007332
      2         15           0        1.274164   -0.139018    0.136318
      3         17           0       -1.191116   -1.414697   -0.929387
      4         17           0       -1.058080    1.516265   -0.847745
      5         17           0       -1.294305   -0.011016    1.644363
      6          8           0        1.689406   -1.316443    0.883105
      7          8           0        1.744567   -0.013030   -1.385737
      8          1           0        1.842704   -0.866652   -1.825771
      9          8           0        1.713945    1.258995    0.736245
     10          1           0        1.662613    2.004826    0.125181
 ---------------------------------------------------------------------

 SCF Done:  E(RHF) =  -1985.00409384     A.U. after    2 cycles

 The electronic state is 1-A.
 Alpha  occ. eigenvalues -- -105.33694 -99.93457 -99.93297 -99.92902 -21.14546
 Alpha  occ. eigenvalues --  -21.14379 -21.04743 -11.55910 -10.50848 -10.50537
 Alpha  occ. eigenvalues --  -10.50184  -9.70653  -9.70483  -9.70124  -9.69915
 Alpha  occ. eigenvalues --   -9.69828  -9.69727  -9.69619  -9.69301  -9.69246
 Alpha  occ. eigenvalues --   -2.96615  -2.03048  -1.94252  -1.81855  -1.58574
 Alpha  occ. eigenvalues --   -1.43594  -1.42882  -1.32365  -1.31962  -1.27207
 Alpha  occ. eigenvalues --   -0.96370  -0.75489  -0.71754  -0.71673  -0.65032
 Alpha  occ. eigenvalues --   -0.63260  -0.57893  -0.57506  -0.53304  -0.52953
 Alpha  occ. eigenvalues --   -0.52744  -0.51272  -0.46706  -0.44448  -0.39563
 Alpha  occ. eigenvalues --   -0.37827  -0.31490  -0.30273  -0.17879
 Alpha virt. eigenvalues --   -0.00428   0.03358   0.04727   0.05497   0.05983
 Alpha virt. eigenvalues --    0.07291   0.09856   0.10166   0.10841   0.11681
 Alpha virt. eigenvalues --    0.12131   0.13720   0.14500   0.16039   0.16246

 Mulliken charges:
               1
     1  C   -2.832609
     2  P    9.521467
     3  Cl   0.163573
     4  Cl   0.043621
     5  Cl   0.171516
     6  O   -3.044823
     7  O   -2.909717
     8  H    0.916850
     9  O   -2.865178
    10  H    0.835302
 Sum of Mulliken charges =  -0.00000

 Dipole moment (field-independent basis, Debye):
    X=              1.3497    Y=              2.2057    Z=             -2.0025  Tot=              3.2706

 Test job not archived.
 1\1\GINC-SE343\SP\RHF\Aug-CC-pVDZ\C1H2Cl3O3P1\OHZDE\08-Apr-2025\0\\#t
 hf aug-cc-pvdz iop(5/13=1,5/36=2,99/5=2) pseudo=read geom=check guess=
 (read,tcheck) scf=(maxcycle=1)\\title\\0,1\C,0,0.593601,0.004744,0.007
 332\P,0,-1.274164,0.139018,0.136318\Cl,0,1.191116,1.414697,-0.929387\C
 l,0,1.05808,-1.516265,-0.847745\Cl,0,1.294305,0.011016,1.644363\O,0,-1
 .689406,1.316443,0.883105\O,0,-1.744567,0.01303,-1.385737\H,0,-1.84270
 4,0.866652,-1.825771\O,0,-1.713945,-1.258995,0.736245\H,0,-1.662613,-2
 .004826,0.125181\\Version=ES64L-G16RevC.01\State=1-A\HF=-1985.0040938\

 Normal termination of Gaussian 16 at Tue Apr  8 23:29:18 2025.
