 Gaussian 16, Revision C.01,

 ----------------------------------------------------------------------
 #t hf aug-cc-pvdz symm=none int=(grid=ultrafine) guess=(read,tcheck) s
 table=(opt,rrhf)
 ----------------------------------------------------------------------
 -----
 title
 -----
 Symbolic Z-matrix:
 Charge =  0 Multiplicity = 1

 SCF Done:  E(RHF) =  -435.346120266     A.U. after   13 cycles
 Normal termination of Gaussian 16 at Tue Apr  8 23:31:59 2025.
 Gaussian 16:  ES64L-G16RevC.01  3-Jul-2019

 ----------------------------------------------------------------------
 #t hf aug-cc-pvdz iop(5/13=1,5/36=2,99/5=2) pseudo=read geom=check gue
 ss=(read,tcheck) scf=(maxcycle=1)
 ----------------------------------------------------------------------
 -----
 title
 -----
 Structure from the checkpoint file:  "BDE49_nonexpt_1398_mol1.chk"
 Charge =  0 Multiplicity = 1

                         Standard orientation:
 ---------------------------------------------------------------------
 Center     Atomic      Atomic             Coordinates (Angstroms)
 Number     Number       Type             X           Y           Z
 ---------------------------------------------------------------------
      1         15           0        0.845998   -0.050361   -0.116373
      2          7           0       -0.709392    0.797457    0.189139
      3          6           0       -0.898368   -0.630647   -0.017542
      4          1           0       -1.222955   -1.174772    0.862957
      5          1           0       -1.335901   -0.978284   -0.950324
      6          1           0       -0.964251    1.329999   -0.639411
      7          1           0        1.189085   -0.219834    1.253650
 ---------------------------------------------------------------------

 SCF Done:  E(RHF) =  -435.978360377     A.U. after    2 cycles

 The electronic state is 1-A.
 Alpha  occ. eigenvalues -- -105.18766 -15.74772 -11.40863  -2.76841  -1.59130
 Alpha  occ. eigenvalues --   -1.44270  -1.41119  -1.22395  -0.90167  -0.70033
 Alpha  occ. eigenvalues --   -0.64259  -0.55728  -0.42480  -0.27889  -0.14768
 Alpha  occ. eigenvalues --   -0.05465
 Alpha virt. eigenvalues --    0.04390   0.05964   0.06094   0.06743   0.09358
 Alpha virt. eigenvalues --    0.10117   0.11727   0.12150   0.16070   0.17082
 Alpha virt. eigenvalues --    0.17391   0.19238   0.20162   0.22035   0.24390

 Mulliken charges:
               1
     1  P    3.509334
     2  N   -2.188843
     3  C   -3.572141
     4  H    1.207019
     5  H    1.161270
     6  H    0.611543
     7  H   -0.728183
 Sum of Mulliken charges =  -0.00000

 Dipole moment (field-independent basis, Debye):
    X=              4.8272    Y=             -0.4091    Z=             -2.6469  Tot=              5.5205

 Test job not archived.
 1\1\GINC-SE250\SP\RHF\Aug-CC-pVDZ\C1H4N1P1\OHZDE\08-Apr-2025\0\\#t hf
 aug-cc-pvdz iop(5/13=1,5/36=2,99/5=2) pseudo=read geom=check guess=(re
 ad,tcheck) scf=(maxcycle=1)\\title\\0,1\P,0,0.845998,-0.050362,-0.1163
 73\N,0,-0.709391,0.797457,0.189139\C,0,-0.898368,-0.630647,-0.017542\H
 ,0,-1.222956,-1.174771,0.862957\H,0,-1.335901,-0.978283,-0.950324\H,0,
 -0.96425,1.329999,-0.639411\H,0,1.189085,-0.219835,1.25365\\Version=ES
 64L-G16RevC.01\State=1-A\HF=-435.9783604\RMSD=2.997e-01\Dipole=1.89916
 97,-0.1609386,-1.0413755\Quadrupole=-1.6494889,2.8355159,-1.186027,0.5

 Normal termination of Gaussian 16 at Tue Apr  8 23:32:01 2025.
