 Gaussian 16, Revision C.01,

 ----------------------------------------------------------------------
 #t hf aug-cc-pvdz symm=none int=(grid=ultrafine) guess=(read,tcheck) s
 table=(opt,rrhf)
 ----------------------------------------------------------------------
 -----
 title
 -----
 Symbolic Z-matrix:
 Charge =  0 Multiplicity = 1

 SCF Done:  E(RHF) =  -1332.74046162     A.U. after   12 cycles
 Normal termination of Gaussian 16 at Tue Apr  8 22:31:32 2025.
 Gaussian 16:  ES64L-G16RevC.01  3-Jul-2019

 ----------------------------------------------------------------------
 #t hf aug-cc-pvdz iop(5/13=1,5/36=2,99/5=2) pseudo=read geom=check gue
 ss=(read,tcheck) scf=(maxcycle=1)
 ----------------------------------------------------------------------
 -----
 title
 -----
 Structure from the checkpoint file:  "BDE49_expt_1024_mol1.chk"
 Charge =  0 Multiplicity = 1

                         Standard orientation:
 ---------------------------------------------------------------------
 Center     Atomic      Atomic             Coordinates (Angstroms)
 Number     Number       Type             X           Y           Z
 ---------------------------------------------------------------------
      1          6           0        1.621344   -0.180901   -0.024460
      2          9           0        1.855684    1.099082   -0.354022
      3          9           0        2.586786   -0.928073   -0.598557
      4          9           0        1.770270   -0.287608    1.316575
      5          6           0        0.257475   -0.682326   -0.468520
      6          6           0       -0.917787   -0.106994    0.311780
      7          1           0        0.265688   -1.763521   -0.317825
      8         17           0       -1.211160    1.624522   -0.060129
      9         17           0       -2.396205   -1.078052   -0.041019
     10          1           0        0.142056   -0.486993   -1.535261
     11          1           0       -0.763390   -0.168757    1.383835
 ---------------------------------------------------------------------

 SCF Done:  E(RHF) =  -1334.78783538     A.U. after    2 cycles

 The electronic state is 1-A.
 Alpha  occ. eigenvalues --  -99.91399 -99.90989 -29.32074 -29.31964 -29.31798
 Alpha  occ. eigenvalues --  -11.62496 -11.53353 -11.44819 -10.48693 -10.48304
 Alpha  occ. eigenvalues --   -9.68622  -9.68209  -9.67839  -9.67747  -9.67443
 Alpha  occ. eigenvalues --   -9.67381  -1.47339  -1.39035  -1.29703  -1.13965
 Alpha  occ. eigenvalues --   -0.96368  -0.90272  -0.88957  -0.76128  -0.70812
 Alpha  occ. eigenvalues --   -0.66021  -0.62764  -0.58771  -0.53684  -0.53343
 Alpha  occ. eigenvalues --   -0.51054  -0.50491  -0.47911  -0.44727  -0.43973
 Alpha  occ. eigenvalues --   -0.37166  -0.36866  -0.31180  -0.26770  -0.26459
 Alpha  occ. eigenvalues --   -0.22473
 Alpha virt. eigenvalues --    0.03285   0.04566   0.05696   0.06407   0.06965
 Alpha virt. eigenvalues --    0.08965   0.10402   0.10713   0.12508   0.12824
 Alpha virt. eigenvalues --    0.13333   0.14462   0.15535   0.16296   0.16741

 Mulliken charges:
               1
     1  C    0.465253
     2  F    0.352578
     3  F    0.393798
     4  F    0.317707
     5  C   -3.233529
     6  C   -3.391095
     7  H    1.406156
     8  Cl   0.225522
     9  Cl   0.168543
    10  H    1.414449
    11  H    1.880617
 Sum of Mulliken charges =   0.00000

 Dipole moment (field-independent basis, Debye):
    X=              3.3150    Y=             -0.2082    Z=              0.8224  Tot=              3.4218

 Test job not archived.
 1\1\GINC-SE457\SP\RHF\Aug-CC-pVDZ\C3H3Cl2F3\OHZDE\08-Apr-2025\0\\#t hf
  aug-cc-pvdz iop(5/13=1,5/36=2,99/5=2) pseudo=read geom=check guess=(r
 ead,tcheck) scf=(maxcycle=1)\\title\\0,1\C,0,1.621344,-0.180901,-0.024
 46\F,0,1.855684,1.099082,-0.354022\F,0,2.586786,-0.928073,-0.598557\F,
 0,1.77027,-0.287608,1.316575\C,0,0.257475,-0.682326,-0.46852\C,0,-0.91
 7787,-0.106994,0.31178\H,0,0.265688,-1.763521,-0.317825\Cl,0,-1.21116,
 1.624522,-0.060129\Cl,0,-2.396205,-1.078052,-0.041019\H,0,0.142056,-0.
 486993,-1.535261\H,0,-0.76339,-0.168757,1.383835\\Version=ES64L-G16Rev

 Normal termination of Gaussian 16 at Tue Apr  8 22:31:37 2025.
