 Gaussian 16, Revision C.01,

 ----------------------------------------------------------------------
 #t hf aug-cc-pvdz symm=none int=(grid=ultrafine) guess=(read,tcheck) s
 table=(opt,rrhf)
 ----------------------------------------------------------------------
 -----
 title
 -----
 Symbolic Z-matrix:
 Charge =  0 Multiplicity = 1

 SCF Done:  E(RHF) =  -463.439505729     A.U. after   12 cycles
 Normal termination of Gaussian 16 at Wed Apr  9 00:00:43 2025.
 Gaussian 16:  ES64L-G16RevC.01  3-Jul-2019

 ----------------------------------------------------------------------
 #t hf aug-cc-pvdz iop(5/13=1,5/36=2,99/5=2) pseudo=read geom=check gue
 ss=(read,tcheck) scf=(maxcycle=1)
 ----------------------------------------------------------------------
 -----
 title
 -----
 Structure from the checkpoint file:  "BDE49_nonexpt_2098_mol1.chk"
 Charge =  0 Multiplicity = 1

                         Standard orientation:
 ---------------------------------------------------------------------
 Center     Atomic      Atomic             Coordinates (Angstroms)
 Number     Number       Type             X           Y           Z
 ---------------------------------------------------------------------
      1          7           0        2.130404    0.989671   -0.179336
      2         14           0        1.355088   -0.516241    0.151894
      3          1           0        2.306530    1.299585   -1.123467
      4          1           0        2.034960    1.771109    0.451392
      5          6           0       -2.863903    0.224903   -0.098431
      6          6           0       -0.461733   -0.654974   -0.339686
      7          6           0       -1.400354    0.360170    0.335588
      8          1           0       -0.788676   -1.678844   -0.109100
      9          1           0       -0.535536   -0.560302   -1.431763
     10          1           0       -1.052722    1.376880    0.117082
     11          1           0       -1.335860    0.247239    1.424524
     12          1           0       -3.254170   -0.769520    0.139350
     13          1           0       -2.968612    0.370577   -1.178142
     14          1           0       -3.500110    0.961616    0.401163
     15          1           0        1.466501   -0.717660    1.618276
     16          1           0        2.099571   -1.581597   -0.565315
 ---------------------------------------------------------------------

 SCF Done:  E(RHF) =  -464.496615296     A.U. after    2 cycles

 The electronic state is 1-A.
 Alpha  occ. eigenvalues --  -76.20491 -15.72217 -11.40783 -11.36779 -11.33568
 Alpha  occ. eigenvalues --   -5.54361  -2.19807  -2.17187  -2.16478  -1.24819
 Alpha  occ. eigenvalues --   -1.19628  -0.99087  -0.84350  -0.72862  -0.64395
 Alpha  occ. eigenvalues --   -0.63129  -0.57251  -0.53663  -0.52764  -0.49181
 Alpha  occ. eigenvalues --   -0.46670  -0.45852  -0.44076  -0.41538  -0.34516
 Alpha virt. eigenvalues --    0.03812   0.05007   0.05405   0.05614   0.06165
 Alpha virt. eigenvalues --    0.06444   0.06619   0.06671   0.07567   0.08935
 Alpha virt. eigenvalues --    0.09497   0.10050   0.10158   0.11807   0.12906

 Mulliken charges:
               1
     1  N   -2.264449
     2  Si   5.606157
     3  H    0.665744
     4  H    0.651811
     5  C   -3.769008
     6  C   -4.048955
     7  C   -2.656608
     8  H    1.431443
     9  H    1.520069
    10  H    1.491835
    11  H    1.498177
    12  H    1.254750
    13  H    1.241742
    14  H    1.138503
    15  H   -1.881703
    16  H   -1.879508
 Sum of Mulliken charges =  -0.00000

 Dipole moment (field-independent basis, Debye):
    X=             -0.6120    Y=              1.2595    Z=             -0.5674  Tot=              1.5109

 Test job not archived.
 1\1\GINC-SE453\SP\RHF\Aug-CC-pVDZ\C3H11N1Si1\OHZDE\09-Apr-2025\0\\#t h
 f aug-cc-pvdz iop(5/13=1,5/36=2,99/5=2) pseudo=read geom=check guess=(
 read,tcheck) scf=(maxcycle=1)\\title\\0,1\N,0,2.130404,0.989671,-0.179
 336\Si,0,1.355088,-0.516241,0.151894\H,0,2.30653,1.299585,-1.123467\H,
 0,2.03496,1.771109,0.451392\C,0,-2.863903,0.224903,-0.098431\C,0,-0.46
 1733,-0.654974,-0.339686\C,0,-1.400354,0.36017,0.335588\H,0,-0.788676,
 -1.678844,-0.1091\H,0,-0.535536,-0.560302,-1.431763\H,0,-1.052722,1.37
 688,0.117082\H,0,-1.33586,0.247239,1.424524\H,0,-3.25417,-0.76952,0.13

 Normal termination of Gaussian 16 at Wed Apr  9 00:00:47 2025.
