 Gaussian 16, Revision C.01,

 ----------------------------------------------------------------------
 #t hf aug-cc-pvdz symm=none int=(grid=ultrafine) guess=(read,tcheck) s
 table=(opt,rrhf)
 ----------------------------------------------------------------------
 -----
 title
 -----
 Symbolic Z-matrix:
 Charge =  0 Multiplicity = 1

 SCF Done:  E(RHF) =  -702.469755154     A.U. after   15 cycles
 Normal termination of Gaussian 16 at Wed Apr  9 00:41:21 2025.
 Gaussian 16:  ES64L-G16RevC.01  3-Jul-2019

 ----------------------------------------------------------------------
 #t hf aug-cc-pvdz iop(5/13=1,5/36=2,99/5=2) pseudo=read geom=check gue
 ss=(read,tcheck) scf=(maxcycle=1)
 ----------------------------------------------------------------------
 -----
 title
 -----
 Structure from the checkpoint file:  "BDE49_nonexpt_633_mol1.chk"
 Charge =  0 Multiplicity = 1

                         Standard orientation:
 ---------------------------------------------------------------------
 Center     Atomic      Atomic             Coordinates (Angstroms)
 Number     Number       Type             X           Y           Z
 ---------------------------------------------------------------------
      1          9           0        0.431874   -2.354205    0.000004
      2          9           0        0.378614    2.382859   -0.000008
      3          9           0       -3.621410   -0.020881    0.000012
      4          8           0        2.793662    1.199366   -0.000010
      5          8           0        2.865501   -1.132857   -0.000003
      6          6           0        0.543719    0.019134   -0.000003
      7          6           0       -0.217842   -1.153894    0.000003
      8          6           0       -2.278006   -0.008498    0.000007
      9          6           0       -0.230623    1.189808   -0.000003
     10          6           0       -1.599631   -1.217407    0.000008
     11          1           0       -2.121142   -2.163949    0.000012
     12          6           0       -1.618680    1.208789    0.000002
     13          1           0       -2.160295    2.144326    0.000001
     14          5           0        2.125852    0.014888   -0.000009
     15          1           0        2.337547   -1.936242    0.000002
     16          1           0        3.746012    1.051805   -0.000010
 ---------------------------------------------------------------------

 SCF Done:  E(RHF) =  -705.258792049     A.U. after    2 cycles

 The electronic state is 1-A.
 Alpha  occ. eigenvalues --  -29.31784 -29.31366 -29.29990 -21.06075 -21.05533
 Alpha  occ. eigenvalues --  -11.57720 -11.54111 -11.53432 -11.44535 -11.43619
 Alpha  occ. eigenvalues --  -11.41592  -7.67869  -1.82679  -1.65992  -1.43456
 Alpha  occ. eigenvalues --   -1.22102  -1.21753  -1.00187  -0.98648  -0.88605
 Alpha  occ. eigenvalues --   -0.80298  -0.70803  -0.70566  -0.69300  -0.68002
 Alpha  occ. eigenvalues --   -0.61706  -0.61075  -0.55713  -0.54799  -0.51275
 Alpha  occ. eigenvalues --   -0.49093  -0.46704  -0.45382  -0.43793  -0.41018
 Alpha  occ. eigenvalues --   -0.39788  -0.39516  -0.36771  -0.31066  -0.30172
 Alpha  occ. eigenvalues --   -0.29433  -0.26360  -0.25302  -0.25136
 Alpha virt. eigenvalues --    0.04118   0.04833   0.05490   0.05709   0.06320
 Alpha virt. eigenvalues --    0.06786   0.08605   0.09761   0.10650   0.11239
 Alpha virt. eigenvalues --    0.11776   0.12194   0.12773   0.13108   0.13497

 Mulliken charges:
               1
     1  F    0.889706
     2  F    0.863357
     3  F    0.775004
     4  O   -3.998722
     5  O   -4.366081
     6  C   -9.040736
     7  C    6.383882
     8  C    4.510777
     9  C    6.912535
    10  C   -7.087852
    11  H    1.737874
    12  C   -7.130881
    13  H    1.786327
    14  B    5.074891
    15  H    1.558803
    16  H    1.131114
 Sum of Mulliken charges =  -0.00000

 Dipole moment (field-independent basis, Debye):
    X=             -1.1284    Y=             -0.5140    Z=              0.0000  Tot=              1.2399

 Test job not archived.
 1\1\GINC-SE343\SP\RHF\Aug-CC-pVDZ\C6H4B1F3O2\OHZDE\09-Apr-2025\0\\#t h
 f aug-cc-pvdz iop(5/13=1,5/36=2,99/5=2) pseudo=read geom=check guess=(
 read,tcheck) scf=(maxcycle=1)\\title\\0,1\F,0,-0.431874,-2.354205,-0.0
 00004\F,0,-0.378614,2.382859,0.000008\F,0,3.62141,-0.020881,-0.000012\
 O,0,-2.793662,1.199366,0.00001\O,0,-2.865501,-1.132857,0.000003\C,0,-0
 .543719,0.019134,0.000003\C,0,0.217842,-1.153894,-0.000003\C,0,2.27800
 6,-0.008498,-0.000007\C,0,0.230623,1.189808,0.000003\C,0,1.599631,-1.2
 17407,-0.000008\H,0,2.121142,-2.163949,-0.000012\C,0,1.61868,1.208789,

 Normal termination of Gaussian 16 at Wed Apr  9 00:41:30 2025.
