 Gaussian 16, Revision C.01,

 ----------------------------------------------------------------------
 #t hf aug-cc-pvdz symm=none int=(grid=ultrafine) guess=(read,tcheck) s
 table=(opt,rrhf)
 ----------------------------------------------------------------------
 -----
 title
 -----
 Symbolic Z-matrix:
 Charge =  0 Multiplicity = 1

 SCF Done:  E(RHF) =  -251.832488477     A.U. after   13 cycles
 Normal termination of Gaussian 16 at Tue Apr  8 23:02:38 2025.
 Gaussian 16:  ES64L-G16RevC.01  3-Jul-2019

 ----------------------------------------------------------------------
 #t hf aug-cc-pvdz iop(5/13=1,5/36=2,99/5=2) pseudo=read geom=check gue
 ss=(read,tcheck) scf=(maxcycle=1)
 ----------------------------------------------------------------------
 -----
 title
 -----
 Structure from the checkpoint file:  "BDE49_expt_218_mol1.chk"
 Charge =  0 Multiplicity = 1

                         Standard orientation:
 ---------------------------------------------------------------------
 Center     Atomic      Atomic             Coordinates (Angstroms)
 Number     Number       Type             X           Y           Z
 ---------------------------------------------------------------------
      1          6           0       -1.368158   -0.045654   -0.000008
      2          6           0        0.125210   -0.143317   -0.000046
      3          1           0       -1.696652    0.511891    0.879943
      4          1           0       -1.804767   -1.041784   -0.000099
      5          1           0       -1.696685    0.512073   -0.879831
      6          8           0        0.816162   -1.101876   -0.000071
      7          9           0        0.680722    1.107406    0.000098
 ---------------------------------------------------------------------

 SCF Done:  E(RHF) =  -252.840071562     A.U. after    2 cycles

 The electronic state is 1-A.
 Alpha  occ. eigenvalues --  -29.29782 -21.09006 -11.55963 -11.41835  -1.76468
 Alpha  occ. eigenvalues --   -1.18664  -0.95721  -0.69790  -0.64186  -0.61581
 Alpha  occ. eigenvalues --   -0.55561  -0.50584  -0.43008  -0.30900  -0.29748
 Alpha  occ. eigenvalues --   -0.27370
 Alpha virt. eigenvalues --    0.03368   0.05726   0.06052   0.09675   0.11605
 Alpha virt. eigenvalues --    0.11797   0.12206   0.13748   0.15231   0.16536
 Alpha virt. eigenvalues --    0.17943   0.21122   0.23280   0.25423   0.26122

 Mulliken charges:
               1
     1  C   -3.657565
     2  C    2.032050
     3  H    1.255333
     4  H    1.219838
     5  H    1.255338
     6  O   -2.816626
     7  F    0.711632
 Sum of Mulliken charges =  -0.00000

 Dipole moment (field-independent basis, Debye):
    X=             -0.7733    Y=              2.9626    Z=              0.0003  Tot=              3.0618

 Test job not archived.
 1\1\GINC-SE044\SP\RHF\Aug-CC-pVDZ\C2H3F1O1\OHZDE\08-Apr-2025\0\\#t hf
 aug-cc-pvdz iop(5/13=1,5/36=2,99/5=2) pseudo=read geom=check guess=(re
 ad,tcheck) scf=(maxcycle=1)\\title\\0,1\C,0,-1.368158,-0.045654,-0.000
 008\C,0,0.12521,-0.143317,-0.000046\H,0,-1.696652,0.511891,0.879943\H,
 0,-1.804767,-1.041784,-0.000099\H,0,-1.696685,0.512073,-0.879831\O,0,0
 .816162,-1.101876,-0.000071\F,0,0.680722,1.107406,0.000098\\Version=ES
 64L-G16RevC.01\State=1-A\HF=-252.8400716\RMSD=1.654e-01\Dipole=-0.3042
 46,1.1655705,0.0001143\Quadrupole=-0.0479859,-0.5979081,0.645894,1.762

 Normal termination of Gaussian 16 at Tue Apr  8 23:02:40 2025.
