 Gaussian 16, Revision C.01,

 ----------------------------------------------------------------------
 #t hf aug-cc-pvdz symm=none int=(grid=ultrafine) guess=(read,tcheck) s
 table=(opt,rrhf)
 ----------------------------------------------------------------------
 -----
 title
 -----
 Symbolic Z-matrix:
 Charge =  0 Multiplicity = 1

 SCF Done:  E(RHF) =  -920.767367795     A.U. after   15 cycles
 Normal termination of Gaussian 16 at Wed Apr  9 00:15:24 2025.
 Gaussian 16:  ES64L-G16RevC.01  3-Jul-2019

 ----------------------------------------------------------------------
 #t hf aug-cc-pvdz iop(5/13=1,5/36=2,99/5=2) pseudo=read geom=check gue
 ss=(read,tcheck) scf=(maxcycle=1)
 ----------------------------------------------------------------------
 -----
 title
 -----
 Structure from the checkpoint file:  "BDE49_nonexpt_2462_mol1.chk"
 Charge =  0 Multiplicity = 1

                         Standard orientation:
 ---------------------------------------------------------------------
 Center     Atomic      Atomic             Coordinates (Angstroms)
 Number     Number       Type             X           Y           Z
 ---------------------------------------------------------------------
      1         14           0        2.706438   -1.104727    0.218336
      2         14           0        1.632953    0.821562   -0.621825
      3          1           0        4.079372   -1.169242   -0.337218
      4          1           0        1.960476   -2.316268   -0.193098
      5          1           0        2.779795   -1.046786    1.695640
      6          6           0       -0.126342    0.931757    0.152417
      7          1           0        1.511698    0.744273   -2.095343
      8          1           0        2.345543    2.056048   -0.230818
      9          8           0       -0.438740    1.607872    1.084960
     10          8           0       -1.025513    0.099779   -0.528452
     11          6           0       -2.179259   -0.410130    0.094114
     12          8           0       -2.233153   -0.649091    1.258418
     13          6           0       -3.249429   -0.640689   -0.934812
     14          1           0       -2.851900   -1.223404   -1.768038
     15          1           0       -3.576685    0.322039   -1.336125
     16          1           0       -4.090343   -1.156464   -0.475865
 ---------------------------------------------------------------------

 SCF Done:  E(RHF) =  -922.517089318     A.U. after    2 cycles

 The electronic state is 1-A.
 Alpha  occ. eigenvalues --  -76.24018 -76.23162 -21.11022 -21.07891 -21.07229
 Alpha  occ. eigenvalues --  -11.54352 -11.50266 -11.40691  -5.57643  -5.56551
 Alpha  occ. eigenvalues --   -2.21370  -2.20103  -2.19052  -2.18653  -2.18627
 Alpha  occ. eigenvalues --   -2.17545  -1.86861  -1.72703  -1.66213  -1.12732
 Alpha  occ. eigenvalues --   -0.91857  -0.82458  -0.75679  -0.68802  -0.64040
 Alpha  occ. eigenvalues --   -0.63056  -0.61209  -0.57768  -0.54685  -0.51832
 Alpha  occ. eigenvalues --   -0.50057  -0.48809  -0.47593  -0.47445  -0.43753
 Alpha  occ. eigenvalues --   -0.37085  -0.33859  -0.32046  -0.27016
 Alpha virt. eigenvalues --    0.03336   0.04128   0.04695   0.05416   0.05918
 Alpha virt. eigenvalues --    0.06500   0.06695   0.07882   0.07953   0.08428
 Alpha virt. eigenvalues --    0.08655   0.09081   0.09426   0.09746   0.10781

 Mulliken charges:
               1
     1  Si   4.689265
     2  Si   3.989332
     3  H   -1.560876
     4  H   -1.466727
     5  H   -1.468563
     6  C    2.984090
     7  H   -1.565988
     8  H   -1.748895
     9  O   -2.418379
    10  O   -3.110521
    11  C    5.218744
    12  O   -2.979775
    13  C   -4.432729
    14  H    1.317135
    15  H    1.321670
    16  H    1.232217
 Sum of Mulliken charges =   0.00000

 Dipole moment (field-independent basis, Debye):
    X=              0.0267    Y=             -0.4300    Z=             -1.2843  Tot=              1.3547

 Test job not archived.
 1\1\GINC-SE105\SP\RHF\Aug-CC-pVDZ\C3H8O3Si2\OHZDE\09-Apr-2025\0\\#t hf
  aug-cc-pvdz iop(5/13=1,5/36=2,99/5=2) pseudo=read geom=check guess=(r
 ead,tcheck) scf=(maxcycle=1)\\title\\0,1\Si,0,2.706438,-1.104727,0.218
 336\Si,0,1.632953,0.821562,-0.621825\H,0,4.079372,-1.169242,-0.337218\
 H,0,1.960476,-2.316268,-0.193098\H,0,2.779795,-1.046786,1.69564\C,0,-0
 .126342,0.931757,0.152417\H,0,1.511698,0.744273,-2.095343\H,0,2.345543
 ,2.056048,-0.230818\O,0,-0.43874,1.607872,1.08496\O,0,-1.025513,0.0997
 79,-0.528452\C,0,-2.179259,-0.41013,0.094114\O,0,-2.233153,-0.649091,1

 Normal termination of Gaussian 16 at Wed Apr  9 00:15:31 2025.
