 Gaussian 16, Revision C.01,

 ----------------------------------------------------------------------
 #t hf aug-cc-pvdz symm=none int=(grid=ultrafine) guess=(read,tcheck) s
 table=(opt,rrhf)
 ----------------------------------------------------------------------
 -----
 title
 -----
 Symbolic Z-matrix:
 Charge =  0 Multiplicity = 1

 SCF Done:  E(RHF) =  -1076.30525206     A.U. after   13 cycles
 Normal termination of Gaussian 16 at Wed Apr  9 00:02:33 2025.
 Gaussian 16:  ES64L-G16RevC.01  3-Jul-2019

 ----------------------------------------------------------------------
 #t hf aug-cc-pvdz iop(5/13=1,5/36=2,99/5=2) pseudo=read geom=check gue
 ss=(read,tcheck) scf=(maxcycle=1)
 ----------------------------------------------------------------------
 -----
 title
 -----
 Structure from the checkpoint file:  "BDE49_nonexpt_214_mol1.chk"
 Charge =  0 Multiplicity = 1

                         Standard orientation:
 ---------------------------------------------------------------------
 Center     Atomic      Atomic             Coordinates (Angstroms)
 Number     Number       Type             X           Y           Z
 ---------------------------------------------------------------------
      1         17           0        1.640074   -1.079114   -0.000002
      2         17           0        0.643336    1.771341    0.000019
      3          5           0        0.285509    0.049508   -0.000006
      4          6           0       -1.205037   -0.482576   -0.000049
      5          6           0       -2.347624    0.505046    0.000025
      6          7           0       -1.485869   -1.732758   -0.000033
      7          1           0       -2.302410    1.157170    0.877620
      8          1           0       -3.292455   -0.037885    0.000032
      9          1           0       -2.302457    1.157227   -0.877529
     10          1           0       -0.631142   -2.297433   -0.000007
 ---------------------------------------------------------------------

 SCF Done:  E(RHF) =  -1077.52759871     A.U. after    2 cycles

 The electronic state is 1-A.
 Alpha  occ. eigenvalues --  -99.91480 -99.91370 -15.76367 -11.44040 -11.37736
 Alpha  occ. eigenvalues --  -10.48872 -10.48611  -9.68834  -9.68552  -9.68322
 Alpha  occ. eigenvalues --   -9.68169  -9.68095  -9.67964  -7.73324  -1.43259
 Alpha  occ. eigenvalues --   -1.34631  -1.31198  -1.08397  -0.89463  -0.76333
 Alpha  occ. eigenvalues --   -0.69416  -0.65112  -0.60418  -0.57645  -0.56501
 Alpha  occ. eigenvalues --   -0.53848  -0.53250  -0.51799  -0.50226  -0.42484
 Alpha  occ. eigenvalues --   -0.38267
 Alpha virt. eigenvalues --    0.02448   0.03109   0.04093   0.04101   0.04246
 Alpha virt. eigenvalues --    0.07240   0.08234   0.08414   0.08758   0.10962
 Alpha virt. eigenvalues --    0.12121   0.14171   0.14655   0.15075   0.15873

 Mulliken charges:
               1
     1  Cl  -1.277022
     2  Cl  -1.146447
     3  B    2.804760
     4  C    0.907871
     5  C   -2.784769
     6  N   -2.955043
     7  H    1.197966
     8  H    1.236600
     9  H    1.197973
    10  H    0.818111
 Sum of Mulliken charges =  -0.00000

 Dipole moment (field-independent basis, Debye):
    X=             -0.0952    Y=              0.4583    Z=              0.0001  Tot=              0.4680

 Test job not archived.
 1\1\GINC-SE253\SP\RHF\Aug-CC-pVDZ\C2H4B1Cl2N1\OHZDE\09-Apr-2025\0\\#t
 hf aug-cc-pvdz iop(5/13=1,5/36=2,99/5=2) pseudo=read geom=check guess=
 (read,tcheck) scf=(maxcycle=1)\\title\\0,1\Cl,0,1.640075,-1.079112,-0.
 000002\Cl,0,0.643334,1.771342,0.000019\B,0,0.285509,0.049509,-0.000006
 \C,0,-1.205036,-0.482577,-0.000049\C,0,-2.347624,0.505044,0.000025\N,0
 ,-1.485867,-1.732759,-0.000033\H,0,-2.302411,1.157168,0.87762\H,0,-3.2
 92455,-0.037888,0.000032\H,0,-2.302458,1.157225,-0.877529\H,0,-0.63114
 ,-2.297433,-0.000007\\Version=ES64L-G16RevC.01\State=1-A\HF=-1077.5275

 Normal termination of Gaussian 16 at Wed Apr  9 00:02:37 2025.
