 Gaussian 16, Revision C.01,

 ----------------------------------------------------------------------
 #t hf aug-cc-pvdz symm=none int=(grid=ultrafine) guess=(read,tcheck) s
 table=(opt,rrhf)
 ----------------------------------------------------------------------
 -----
 title
 -----
 Symbolic Z-matrix:
 Charge =  0 Multiplicity = 1

 SCF Done:  E(RHF) =  -740.059459056     A.U. after   15 cycles
 Normal termination of Gaussian 16 at Wed Apr  9 00:21:40 2025.
 Gaussian 16:  ES64L-G16RevC.01  3-Jul-2019

 ----------------------------------------------------------------------
 #t hf aug-cc-pvdz iop(5/13=1,5/36=2,99/5=2) pseudo=read geom=check gue
 ss=(read,tcheck) scf=(maxcycle=1)
 ----------------------------------------------------------------------
 -----
 title
 -----
 Structure from the checkpoint file:  "BDE49_nonexpt_2632_mol1.chk"
 Charge =  0 Multiplicity = 1

                         Standard orientation:
 ---------------------------------------------------------------------
 Center     Atomic      Atomic             Coordinates (Angstroms)
 Number     Number       Type             X           Y           Z
 ---------------------------------------------------------------------
      1          9           0        1.797617   -0.182730    1.084867
      2         16           0        1.431180    0.172227   -0.499880
      3          6           0       -0.119354   -0.666923   -0.593120
      4          7           0       -1.337652    0.067270    0.019110
      5          1           0       -0.090768   -1.642145   -0.111674
      6          1           0       -0.358950   -0.781086   -1.653434
      7          8           0       -2.258340   -0.669738    0.325348
      8          8           0       -1.310163    1.275090    0.102694
 ---------------------------------------------------------------------

 SCF Done:  E(RHF) =  -741.652941980     A.U. after    2 cycles

 The electronic state is 1-A.
 Alpha  occ. eigenvalues --  -75.79669 -29.29988 -21.11814 -21.11264 -16.01351
 Alpha  occ. eigenvalues --  -13.23694 -13.20943 -13.11444 -11.49534  -8.13715
 Alpha  occ. eigenvalues --   -2.01440  -1.71205  -1.31760  -1.12922  -0.88944
 Alpha  occ. eigenvalues --   -0.75144  -0.71950  -0.70483  -0.62455  -0.60436
 Alpha  occ. eigenvalues --   -0.53436  -0.43905  -0.37831  -0.36501  -0.33618
 Alpha  occ. eigenvalues --   -0.33042  -0.30528  -0.20594
 Alpha virt. eigenvalues --    0.02665   0.04793   0.06398   0.10103   0.10549
 Alpha virt. eigenvalues --    0.12046   0.12453   0.13254   0.14750   0.15823
 Alpha virt. eigenvalues --    0.16183   0.18333   0.19097   0.20060   0.22286

 Mulliken charges:
               1
     1  F   -0.272015
     2  S    1.386501
     3  C   -3.567903
     4  N    4.736878
     5  H    1.533177
     6  H    1.569148
     7  O   -2.679340
     8  O   -2.706446
 Sum of Mulliken charges =  -0.00000

 Dipole moment (field-independent basis, Debye):
    X=              3.1118    Y=             -0.3662    Z=              1.1978  Tot=              3.3545

 Test job not archived.
 1\1\GINC-SE343\SP\RHF\Aug-CC-pVDZ\C1H2F1N1O2S1\OHZDE\09-Apr-2025\0\\#t
  hf aug-cc-pvdz iop(5/13=1,5/36=2,99/5=2) pseudo=read geom=check guess
 =(read,tcheck) scf=(maxcycle=1)\\title\\0,1\F,0,1.797617,0.18273,-1.08
 4867\S,0,1.43118,-0.172227,0.49988\C,0,-0.119354,0.666923,0.59312\N,0,
 -1.337652,-0.06727,-0.01911\H,0,-0.090768,1.642145,0.111674\H,0,-0.358
 95,0.781086,1.653434\O,0,-2.25834,0.669738,-0.325348\O,0,-1.310163,-1.
 27509,-0.102694\\Version=ES64L-G16RevC.01\State=1-A\HF=-741.652942\RMS
 D=9.345e-02\Dipole=1.2242938,0.1440801,-0.4712595\Quadrupole=-0.285198

 Normal termination of Gaussian 16 at Wed Apr  9 00:21:43 2025.
