 Gaussian 16, Revision C.01,

 ----------------------------------------------------------------------
 #t hf aug-cc-pvdz symm=none int=(grid=ultrafine) guess=(read,tcheck) s
 table=(opt,rrhf)
 ----------------------------------------------------------------------
 -----
 title
 -----
 Symbolic Z-matrix:
 Charge =  0 Multiplicity = 1

 SCF Done:  E(RHF) =  -733.361789823     A.U. after   12 cycles
 Normal termination of Gaussian 16 at Tue Apr  8 22:51:03 2025.
 Gaussian 16:  ES64L-G16RevC.01  3-Jul-2019

 ----------------------------------------------------------------------
 #t hf aug-cc-pvdz iop(5/13=1,5/36=2,99/5=2) pseudo=read geom=check gue
 ss=(read,tcheck) scf=(maxcycle=1)
 ----------------------------------------------------------------------
 -----
 title
 -----
 Structure from the checkpoint file:  "BDE49_expt_1667_mol1.chk"
 Charge =  0 Multiplicity = 1

                         Standard orientation:
 ---------------------------------------------------------------------
 Center     Atomic      Atomic             Coordinates (Angstroms)
 Number     Number       Type             X           Y           Z
 ---------------------------------------------------------------------
      1          6           0       -1.939256    0.408905    0.374776
      2          6           0       -0.566644    0.782060   -0.176812
      3          6           0        0.602838   -0.052608    0.353442
      4          1           0       -0.402192    1.836644    0.082935
      5          1           0       -0.600926    0.733592   -1.270890
      6          6           0       -3.045530    1.362572   -0.049020
      7          1           0       -2.825022    2.366641    0.327937
      8          1           0       -4.011394    1.050010    0.349985
      9          1           0       -3.121110    1.412152   -1.137665
     10         17           0       -2.396642   -1.295675   -0.166010
     11          1           0       -1.901281    0.326194    1.462158
     12          6           0        1.958669    0.400291   -0.200151
     13          1           0        0.439465   -1.105342    0.103281
     14          1           0        0.620361    0.005926    1.449418
     15          6           0        3.138430   -0.426367    0.324002
     16          1           0        2.121468    1.457632    0.047182
     17          1           0        1.938751    0.344364   -1.296184
     18          6           0        4.490057    0.027385   -0.234570
     19          1           0        2.975995   -1.481974    0.076035
     20          1           0        3.158737   -0.371457    1.419169
     21          1           0        4.512967   -0.049924   -1.326070
     22          1           0        5.308952   -0.581406    0.158056
     23          1           0        4.696761    1.069991    0.026822
 ---------------------------------------------------------------------

 SCF Done:  E(RHF) =  -735.049693192     A.U. after    2 cycles

 The electronic state is 1-A.
 Alpha  occ. eigenvalues --  -99.86304 -11.46850 -11.42854 -11.41601 -11.39427
 Alpha  occ. eigenvalues --  -11.38188 -11.36653 -11.34459 -10.43551  -9.63513
 Alpha  occ. eigenvalues --   -9.62955  -9.62751  -1.34936  -1.24664  -1.16239
 Alpha  occ. eigenvalues --   -1.08709  -0.99458  -0.89841  -0.83625  -0.82431
 Alpha  occ. eigenvalues --   -0.68102  -0.64346  -0.62057  -0.60403  -0.58610
 Alpha  occ. eigenvalues --   -0.57075  -0.53872  -0.52843  -0.51550  -0.50311
 Alpha  occ. eigenvalues --   -0.48580  -0.47348  -0.46406  -0.45203  -0.45040
 Alpha  occ. eigenvalues --   -0.44562  -0.39097
 Alpha virt. eigenvalues --    0.04002   0.04556   0.04756   0.05597   0.05634
 Alpha virt. eigenvalues --    0.05920   0.06173   0.06960   0.07217   0.07547
 Alpha virt. eigenvalues --    0.07958   0.08274   0.09220   0.10058   0.10273

 Mulliken charges:
               1
     1  C   -2.767483
     2  C   -2.174840
     3  C   -2.031596
     4  H    1.609341
     5  H    1.557198
     6  C   -4.373309
     7  H    1.305485
     8  H    1.200373
     9  H    1.333638
    10  Cl  -0.000847
    11  H    1.835349
    12  C   -2.494153
    13  H    1.568525
    14  H    1.499236
    15  C   -3.281137
    16  H    1.560043
    17  H    1.595360
    18  C   -4.649329
    19  H    1.460477
    20  H    1.482047
    21  H    1.346905
    22  H    1.080650
    23  H    1.338069
 Sum of Mulliken charges =  -0.00000

 Dipole moment (field-independent basis, Debye):
    X=              0.8951    Y=              2.3704    Z=              0.6878  Tot=              2.6255

 Test job not archived.
 1\1\GINC-SE143\SP\RHF\Aug-CC-pVDZ\C7H15Cl1\OHZDE\08-Apr-2025\0\\#t hf
 aug-cc-pvdz iop(5/13=1,5/36=2,99/5=2) pseudo=read geom=check guess=(re
 ad,tcheck) scf=(maxcycle=1)\\title\\0,1\C,0,-1.939256,0.408905,0.37477
 6\C,0,-0.566644,0.78206,-0.176812\C,0,0.602838,-0.052608,0.353442\H,0,
 -0.402192,1.836644,0.082935\H,0,-0.600926,0.733592,-1.27089\C,0,-3.045
 53,1.362572,-0.04902\H,0,-2.825022,2.366641,0.327937\H,0,-4.011394,1.0
 5001,0.349985\H,0,-3.12111,1.412152,-1.137665\Cl,0,-2.396642,-1.295675
 ,-0.16601\H,0,-1.901281,0.326194,1.462158\C,0,1.958669,0.400291,-0.200

 Normal termination of Gaussian 16 at Tue Apr  8 22:51:15 2025.
