 Gaussian 16, Revision C.01,

 ----------------------------------------------------------------------
 #t hf aug-cc-pvdz symm=none int=(grid=ultrafine) guess=(read,tcheck) s
 table=(opt,rrhf)
 ----------------------------------------------------------------------
 -----
 title
 -----
 Symbolic Z-matrix:
 Charge =  0 Multiplicity = 1

 SCF Done:  E(RHF) =  -682.075730459     A.U. after   15 cycles
 Normal termination of Gaussian 16 at Tue Apr  8 23:39:11 2025.
 Gaussian 16:  ES64L-G16RevC.01  3-Jul-2019

 ----------------------------------------------------------------------
 #t hf aug-cc-pvdz iop(5/13=1,5/36=2,99/5=2) pseudo=read geom=check gue
 ss=(read,tcheck) scf=(maxcycle=1)
 ----------------------------------------------------------------------
 -----
 title
 -----
 Structure from the checkpoint file:  "BDE49_nonexpt_1553_mol1.chk"
 Charge =  0 Multiplicity = 1

                         Standard orientation:
 ---------------------------------------------------------------------
 Center     Atomic      Atomic             Coordinates (Angstroms)
 Number     Number       Type             X           Y           Z
 ---------------------------------------------------------------------
      1          7           0       -1.239410    0.384276    0.000006
      2          6           0        0.156660    0.153787   -0.000003
      3          6           0        1.060860    1.229210   -0.000028
      4          6           0        0.672215   -1.152072    0.000010
      5          6           0        2.047725   -1.368729   -0.000003
      6          6           0        2.940090   -0.301921   -0.000029
      7          6           0        2.430650    0.995372   -0.000041
      8          1           0        4.009497   -0.476371   -0.000038
      9          1           0        3.107063    1.843471   -0.000061
     10          1           0        0.669433    2.235301   -0.000037
     11          1           0        0.007757   -2.004524    0.000032
     12          1           0        2.417809   -2.388250    0.000008
     13          7           0       -1.642643    1.745946    0.000024
     14         15           0       -2.492653   -0.799018    0.000020
     15          1           0       -2.201433    1.940705    0.824657
     16          1           0       -2.201481    1.940711   -0.824574
     17          1           0       -2.046838   -1.675597    1.030102
     18          1           0       -2.046832   -1.675615   -1.030042
 ---------------------------------------------------------------------

 SCF Done:  E(RHF) =  -683.902785945     A.U. after    2 cycles

 The electronic state is 1-A.
 Alpha  occ. eigenvalues -- -105.21022 -15.76950 -15.75147 -11.51477 -11.44609
 Alpha  occ. eigenvalues --  -11.42190 -11.39779 -11.39348 -11.35306  -2.77826
 Alpha  occ. eigenvalues --   -1.61047  -1.47318  -1.45308  -1.41672  -1.31283
 Alpha  occ. eigenvalues --   -1.14939  -1.08406  -1.00062  -0.86604  -0.83392
 Alpha  occ. eigenvalues --   -0.74270  -0.69733  -0.68590  -0.64957  -0.58517
 Alpha  occ. eigenvalues --   -0.57179  -0.55529  -0.51870  -0.47979  -0.44026
 Alpha  occ. eigenvalues --   -0.43540  -0.42039  -0.32528  -0.27930  -0.27184
 Alpha  occ. eigenvalues --   -0.25866  -0.04012
 Alpha virt. eigenvalues --    0.03727   0.05200   0.05617   0.06027   0.06259
 Alpha virt. eigenvalues --    0.06324   0.07868   0.08362   0.08367   0.09500
 Alpha virt. eigenvalues --    0.11205   0.12345   0.12453   0.12916   0.13400

 Mulliken charges:
               1
     1  N   -2.606172
     2  C    4.507749
     3  C   -2.159880
     4  C   -3.836227
     5  C   -0.207675
     6  C   -3.071111
     7  C   -0.015632
     8  H    1.566066
     9  H    1.496569
    10  H    1.792854
    11  H    2.051506
    12  H    1.526091
    13  N   -2.263638
    14  P    2.207777
    15  H    0.750562
    16  H    0.750568
    17  H   -1.244694
    18  H   -1.244713
 Sum of Mulliken charges =  -0.00000

 Dipole moment (field-independent basis, Debye):
    X=             -2.4045    Y=              1.6015    Z=              0.0000  Tot=              2.8890

 Test job not archived.
 1\1\GINC-SE340\SP\RHF\Aug-CC-pVDZ\C6H9N2P1\OHZDE\08-Apr-2025\0\\#t hf
 aug-cc-pvdz iop(5/13=1,5/36=2,99/5=2) pseudo=read geom=check guess=(re
 ad,tcheck) scf=(maxcycle=1)\\title\\0,1\N,0,-1.23941,0.384276,0.000006
 \C,0,0.15666,0.153787,-0.000003\C,0,1.06086,1.22921,-0.000028\C,0,0.67
 2215,-1.152072,0.00001\C,0,2.047725,-1.368729,-0.000003\C,0,2.94009,-0
 .301921,-0.000029\C,0,2.43065,0.995372,-0.000041\H,0,4.009497,-0.47637
 1,-0.000038\H,0,3.107063,1.843471,-0.000061\H,0,0.669433,2.235301,-0.0
 00037\H,0,0.007757,-2.004524,0.000032\H,0,2.417809,-2.38825,0.000008\N

 Normal termination of Gaussian 16 at Tue Apr  8 23:39:18 2025.
