 Gaussian 16, Revision C.01,

 ----------------------------------------------------------------------
 #t hf aug-cc-pvdz symm=none int=(grid=ultrafine) guess=(read,tcheck) s
 table=(opt,rrhf)
 ----------------------------------------------------------------------
 -----
 title
 -----
 Symbolic Z-matrix:
 Charge =  0 Multiplicity = 1

 SCF Done:  E(RHF) =  -1232.80279736     A.U. after   13 cycles
 Normal termination of Gaussian 16 at Tue Apr  8 23:00:39 2025.
 Gaussian 16:  ES64L-G16RevC.01  3-Jul-2019

 ----------------------------------------------------------------------
 #t hf aug-cc-pvdz iop(5/13=1,5/36=2,99/5=2) pseudo=read geom=check gue
 ss=(read,tcheck) scf=(maxcycle=1)
 ----------------------------------------------------------------------
 -----
 title
 -----
 Structure from the checkpoint file:  "BDE49_expt_1964_mol1.chk"
 Charge =  0 Multiplicity = 1

                         Standard orientation:
 ---------------------------------------------------------------------
 Center     Atomic      Atomic             Coordinates (Angstroms)
 Number     Number       Type             X           Y           Z
 ---------------------------------------------------------------------
      1         16           0       -1.311048   -0.384382   -0.550352
      2         16           0        0.437485   -0.794687    0.493212
      3         16           0        1.912911    0.578819   -0.123861
      4          1           0        2.349261   -0.092786   -1.207372
      5          6           0       -2.053996    0.988638    0.399954
      6          1           0       -3.027509    1.177482   -0.058552
      7          1           0       -1.437780    1.883594    0.320104
      8          1           0       -2.189559    0.703881    1.442110
 ---------------------------------------------------------------------

 SCF Done:  E(RHF) =  -1233.69188050     A.U. after    2 cycles

 The electronic state is 1-A.
 Alpha  occ. eigenvalues --  -75.73489 -75.72124 -75.71156 -13.14829 -13.14650
 Alpha  occ. eigenvalues --  -13.11372 -13.09392 -13.08434 -13.06742 -13.05799
 Alpha  occ. eigenvalues --  -13.04204 -13.02675 -11.40521  -8.07177  -8.05858
 Alpha  occ. eigenvalues --   -8.05060  -1.27052  -1.15205  -1.01569  -0.88995
 Alpha  occ. eigenvalues --   -0.60098  -0.59754  -0.53200  -0.45897  -0.40654
 Alpha  occ. eigenvalues --   -0.39122  -0.26606  -0.25042  -0.23866
 Alpha virt. eigenvalues --    0.02527   0.02807   0.04485   0.05153   0.07783
 Alpha virt. eigenvalues --    0.07848   0.10704   0.12704   0.12986   0.13720
 Alpha virt. eigenvalues --    0.13901   0.15518   0.15871   0.16418   0.17786

 Mulliken charges:
               1
     1  S    0.421795
     2  S   -0.345593
     3  S   -1.080616
     4  H    1.227717
     5  C   -4.468591
     6  H    1.362491
     7  H    1.417342
     8  H    1.465455
 Sum of Mulliken charges =  -0.00000

 Dipole moment (field-independent basis, Debye):
    X=             -0.6427    Y=              0.1295    Z=              0.4563  Tot=              0.7988

 Test job not archived.
 1\1\GINC-SE461\SP\RHF\Aug-CC-pVDZ\C1H4S3\OHZDE\08-Apr-2025\0\\#t hf au
 g-cc-pvdz iop(5/13=1,5/36=2,99/5=2) pseudo=read geom=check guess=(read
 ,tcheck) scf=(maxcycle=1)\\title\\0,1\S,0,-1.311048,-0.384382,-0.55035
 2\S,0,0.437485,-0.794687,0.493212\S,0,1.912911,0.578819,-0.123861\H,0,
 2.349261,-0.092786,-1.207372\C,0,-2.053996,0.988638,0.399954\H,0,-3.02
 7509,1.177482,-0.058552\H,0,-1.43778,1.883594,0.320104\H,0,-2.189559,0
 .703881,1.44211\\Version=ES64L-G16RevC.01\State=1-A\HF=-1233.6918805\R
 MSD=7.870e-02\Dipole=-0.2528449,0.050933,0.1795368\Quadrupole=0.945414

 Normal termination of Gaussian 16 at Tue Apr  8 23:00:42 2025.
