 Gaussian 16, Revision C.01,

 ----------------------------------------------------------------------
 #t hf aug-cc-pvdz symm=none int=(grid=ultrafine) guess=(read,tcheck) s
 table=(opt,rrhf)
 ----------------------------------------------------------------------
 -----
 title
 -----
 Symbolic Z-matrix:
 Charge =  0 Multiplicity = 1

 SCF Done:  E(RHF) =  -508.575204662     A.U. after   12 cycles
 Normal termination of Gaussian 16 at Wed Apr  9 00:47:31 2025.
 Gaussian 16:  ES64L-G16RevC.01  3-Jul-2019

 ----------------------------------------------------------------------
 #t hf aug-cc-pvdz iop(5/13=1,5/36=2,99/5=2) pseudo=read geom=check gue
 ss=(read,tcheck) scf=(maxcycle=1)
 ----------------------------------------------------------------------
 -----
 title
 -----
 Structure from the checkpoint file:  "BDE49_nonexpt_827_mol1.chk"
 Charge =  0 Multiplicity = 1

                         Standard orientation:
 ---------------------------------------------------------------------
 Center     Atomic      Atomic             Coordinates (Angstroms)
 Number     Number       Type             X           Y           Z
 ---------------------------------------------------------------------
      1         14           0        0.380133   -0.011037    0.000005
      2          5           0       -1.497197   -0.798830   -0.000006
      3          8           0       -2.564062    0.042671   -0.000037
      4          6           0        1.310146   -0.618066   -1.535478
      5          1           0        0.831279   -0.274130   -2.457414
      6          1           0        1.350990   -1.711031   -1.570686
      7          6           0        1.310100   -0.618003    1.535542
      8          1           0        1.350943   -1.710966    1.570796
      9          1           0        0.831206   -0.274028    2.457449
     10          1           0        2.340307   -0.246967    1.539726
     11          1           0        2.340354   -0.247031   -1.539646
     12          6           0        0.340706    1.877534   -0.000034
     13          1           0        1.351015    2.299276   -0.000026
     14          1           0       -0.182700    2.259859    0.881308
     15          1           0       -0.182672    2.259823   -0.881408
     16          1           0       -3.414899   -0.409895   -0.000041
     17          1           0       -1.704920   -1.986392    0.000011
 ---------------------------------------------------------------------

 SCF Done:  E(RHF) =  -509.793743383     A.U. after    2 cycles

 The electronic state is 1-A.
 Alpha  occ. eigenvalues --  -76.16788 -21.06874 -11.33563 -11.33551 -11.33186
 Alpha  occ. eigenvalues --   -7.61429  -5.50937  -2.14557  -2.14410  -2.13729
 Alpha  occ. eigenvalues --   -1.73756  -1.06857  -0.99585  -0.99418  -0.78607
 Alpha  occ. eigenvalues --   -0.62423  -0.62205  -0.55974  -0.55234  -0.54996
 Alpha  occ. eigenvalues --   -0.53439  -0.53111  -0.52158  -0.43119  -0.42434
 Alpha  occ. eigenvalues --   -0.38027  -0.37797  -0.32813
 Alpha virt. eigenvalues --    0.03114   0.03505   0.04088   0.04379   0.06700
 Alpha virt. eigenvalues --    0.06819   0.06885   0.07563   0.07758   0.08535
 Alpha virt. eigenvalues --    0.08555   0.09060   0.09944   0.09992   0.10816

 Mulliken charges:
               1
     1  Si   8.409339
     2  B    3.740554
     3  O   -3.768618
     4  C   -5.764413
     5  H    1.134935
     6  H    1.208804
     7  C   -5.764413
     8  H    1.208805
     9  H    1.134935
    10  H    1.122157
    11  H    1.122157
    12  C   -5.973931
    13  H    1.114558
    14  H    1.109869
    15  H    1.109870
    16  H    1.351321
    17  H   -2.495929
 Sum of Mulliken charges =  -0.00000

 Dipole moment (field-independent basis, Debye):
    X=             -0.9773    Y=              0.0635    Z=             -0.0000  Tot=              0.9794

 Test job not archived.
 1\1\GINC-SE044\SP\RHF\Aug-CC-pVDZ\C3H11B1O1Si1\OHZDE\09-Apr-2025\0\\#t
  hf aug-cc-pvdz iop(5/13=1,5/36=2,99/5=2) pseudo=read geom=check guess
 =(read,tcheck) scf=(maxcycle=1)\\title\\0,1\Si,0,0.380133,-0.011037,0.
 000005\B,0,-1.497197,-0.79883,-0.000006\O,0,-2.564062,0.042671,-0.0000
 37\C,0,1.310146,-0.618066,-1.535478\H,0,0.831279,-0.27413,-2.457414\H,
 0,1.35099,-1.711031,-1.570686\C,0,1.3101,-0.618003,1.535542\H,0,1.3509
 43,-1.710966,1.570796\H,0,0.831206,-0.274028,2.457449\H,0,2.340307,-0.
 246967,1.539726\H,0,2.340354,-0.247031,-1.539646\C,0,0.340706,1.877534

 Normal termination of Gaussian 16 at Wed Apr  9 00:47:37 2025.
