 Gaussian 16, Revision C.01,

 ----------------------------------------------------------------------
 #t hf aug-cc-pvdz symm=none int=(grid=ultrafine) guess=(read,tcheck) s
 table=(opt,rrhf)
 ----------------------------------------------------------------------
 -----
 title
 -----
 Symbolic Z-matrix:
 Charge =  0 Multiplicity = 1

 SCF Done:  E(RHF) =  -144.537669564     A.U. after   13 cycles
 Normal termination of Gaussian 16 at Wed Apr  9 00:41:19 2025.
 Gaussian 16:  ES64L-G16RevC.01  3-Jul-2019

 ----------------------------------------------------------------------
 #t hf aug-cc-pvdz iop(5/13=1,5/36=2,99/5=2) pseudo=read geom=check gue
 ss=(read,tcheck) scf=(maxcycle=1)
 ----------------------------------------------------------------------
 -----
 title
 -----
 Structure from the checkpoint file:  "BDE49_nonexpt_66_mol1.chk"
 Charge =  0 Multiplicity = 1

                         Standard orientation:
 ---------------------------------------------------------------------
 Center     Atomic      Atomic             Coordinates (Angstroms)
 Number     Number       Type             X           Y           Z
 ---------------------------------------------------------------------
      1          5           0       -1.892976   -0.376144   -0.139855
      2          5           0       -0.654973    0.586492    0.328697
      3          6           0        0.806335    0.450416   -0.224154
      4          7           0        1.589817   -0.532295    0.021562
      5          1           0        1.109412   -1.259765    0.562960
      6          1           0        1.239067    1.273142   -0.809758
      7          1           0       -0.828689    1.442820    1.151406
      8          1           0       -2.091006   -1.454118    0.338340
      9          1           0       -2.655774   -0.030249   -0.993172
 ---------------------------------------------------------------------

 SCF Done:  E(RHF) =  -145.198161500     A.U. after    2 cycles

 The electronic state is 1-A.
 Alpha  occ. eigenvalues --  -15.74766 -11.39544  -7.61165  -7.60535  -1.33486
 Alpha  occ. eigenvalues --   -0.98366  -0.85347  -0.73062  -0.57528  -0.56117
 Alpha  occ. eigenvalues --   -0.49444  -0.46327  -0.38089  -0.35298
 Alpha virt. eigenvalues --    0.02048   0.02247   0.02579   0.03860   0.06630
 Alpha virt. eigenvalues --    0.07423   0.08102   0.08707   0.09697   0.10300
 Alpha virt. eigenvalues --    0.10903   0.11348   0.12404   0.13065   0.13980

 Mulliken charges:
               1
     1  B    4.921356
     2  B    4.140128
     3  C   -0.887908
     4  N   -2.584385
     5  H    0.784300
     6  H    1.453688
     7  H   -2.653213
     8  H   -2.569912
     9  H   -2.604053
 Sum of Mulliken charges =   0.00000

 Dipole moment (field-independent basis, Debye):
    X=             -1.5208    Y=              0.5226    Z=              0.1333  Tot=              1.6136

 Test job not archived.
 1\1\GINC-SE106\SP\RHF\Aug-CC-pVDZ\C1H5B2N1\OHZDE\09-Apr-2025\0\\#t hf
 aug-cc-pvdz iop(5/13=1,5/36=2,99/5=2) pseudo=read geom=check guess=(re
 ad,tcheck) scf=(maxcycle=1)\\title\\0,1\B,0,-1.892976,-0.376144,-0.139
 855\B,0,-0.654973,0.586492,0.328697\C,0,0.806335,0.450416,-0.224154\N,
 0,1.589817,-0.532295,0.021562\H,0,1.109412,-1.259765,0.56296\H,0,1.239
 067,1.273142,-0.809758\H,0,-0.828689,1.44282,1.151406\H,0,-2.091006,-1
 .454118,0.33834\H,0,-2.655774,-0.030249,-0.993172\\Version=ES64L-G16Re
 vC.01\State=1-A\HF=-145.1981615\RMSD=1.328e-01\Dipole=-0.5983189,0.205

 Normal termination of Gaussian 16 at Wed Apr  9 00:41:22 2025.
