 Gaussian 16, Revision C.01,

 ----------------------------------------------------------------------
 #t hf aug-cc-pvdz symm=none int=(grid=ultrafine) guess=(read,tcheck) s
 table=(opt,rrhf)
 ----------------------------------------------------------------------
 -----
 title
 -----
 Symbolic Z-matrix:
 Charge =  0 Multiplicity = 1

 SCF Done:  E(RHF) =  -118.156717247     A.U. after   12 cycles
 Normal termination of Gaussian 16 at Wed Apr  9 00:27:55 2025.
 Gaussian 16:  ES64L-G16RevC.01  3-Jul-2019

 ----------------------------------------------------------------------
 #t hf aug-cc-pvdz iop(5/13=1,5/36=2,99/5=2) pseudo=read geom=check gue
 ss=(read,tcheck) scf=(maxcycle=1)
 ----------------------------------------------------------------------
 -----
 title
 -----
 Structure from the checkpoint file:  "BDE49_nonexpt_294_mol1.chk"
 Charge =  0 Multiplicity = 1

                         Standard orientation:
 ---------------------------------------------------------------------
 Center     Atomic      Atomic             Coordinates (Angstroms)
 Number     Number       Type             X           Y           Z
 ---------------------------------------------------------------------
      1          5           0        1.338050   -0.000000   -0.000035
      2          6           0       -0.185518   -0.000000   -0.000003
      3          7           0       -1.343005    0.000000    0.000021
      4          1           0        1.911946    1.036593    0.000021
      5          1           0        1.911947   -1.036592    0.000021
 ---------------------------------------------------------------------

 SCF Done:  E(RHF) =  -118.678938330     A.U. after    2 cycles

 The electronic state is 1-A.
 Alpha  occ. eigenvalues --  -15.78791 -11.40382  -7.68111  -1.31887  -0.98245
 Alpha  occ. eigenvalues --   -0.63576  -0.56050  -0.51685  -0.47236  -0.44178
 Alpha virt. eigenvalues --    0.01816   0.03482   0.04042   0.04874   0.06423
 Alpha virt. eigenvalues --    0.09775   0.10641   0.13129   0.15734   0.15736
 Alpha virt. eigenvalues --    0.16620   0.17411   0.21463   0.21665   0.22014

 Mulliken charges:
               1
     1  B    7.232550
     2  C   -0.215699
     3  N   -1.952703
     4  H   -2.532073
     5  H   -2.532075
 Sum of Mulliken charges =   0.00000

 Dipole moment (field-independent basis, Debye):
    X=              2.1512    Y=             -0.0000    Z=             -0.0002  Tot=              2.1512

 Test job not archived.
 1\1\GINC-SE187\SP\RHF\Aug-CC-pVDZ\C1H2B1N1\OHZDE\09-Apr-2025\0\\#t hf
 aug-cc-pvdz iop(5/13=1,5/36=2,99/5=2) pseudo=read geom=check guess=(re
 ad,tcheck) scf=(maxcycle=1)\\title\\0,1\B,0,-1.33805,0.,0.000035\C,0,0
 .185518,0.,0.000003\N,0,1.343005,0.,-0.000021\H,0,-1.911946,1.036593,-
 0.000021\H,0,-1.911947,-1.036592,-0.000021\\Version=ES64L-G16RevC.01\S
 tate=1-A\HF=-118.6789383\RMSD=1.585e-01\Dipole=-0.8463326,-0.0000005,0
 .000064\Quadrupole=-1.4998079,-0.1631163,1.6629242,0.0000013,-0.000110
 1,0.\PG=C01 [X(C1H2B1N1)]\\@

 Normal termination of Gaussian 16 at Wed Apr  9 00:27:57 2025.
