 Gaussian 16, Revision C.01,

 ----------------------------------------------------------------------
 #t hf aug-cc-pvdz symm=none int=(grid=ultrafine) guess=(read,tcheck) s
 table=(opt,rrhf)
 ----------------------------------------------------------------------
 -----
 title
 -----
 Symbolic Z-matrix:
 Charge =  0 Multiplicity = 1

 SCF Done:  E(RHF) =  -559.860862875     A.U. after   14 cycles
 Normal termination of Gaussian 16 at Tue Apr  8 23:14:44 2025.
 Gaussian 16:  ES64L-G16RevC.01  3-Jul-2019

 ----------------------------------------------------------------------
 #t hf aug-cc-pvdz iop(5/13=1,5/36=2,99/5=2) pseudo=read geom=check gue
 ss=(read,tcheck) scf=(maxcycle=1)
 ----------------------------------------------------------------------
 -----
 title
 -----
 Structure from the checkpoint file:  "BDE49_expt_811_mol1.chk"
 Charge =  0 Multiplicity = 1

                         Standard orientation:
 ---------------------------------------------------------------------
 Center     Atomic      Atomic             Coordinates (Angstroms)
 Number     Number       Type             X           Y           Z
 ---------------------------------------------------------------------
      1          6           0        2.689043    0.000000   -0.391613
      2          6           0        2.021005   -1.202623   -0.172163
      3          6           0        0.697912   -1.201242    0.261829
      4          6           0        2.021005    1.202623   -0.172163
      5          6           0        0.697912    1.201242    0.261829
      6          6           0        0.014627    0.000000    0.488308
      7          1           0        3.719756    0.000000   -0.727296
      8          1           0        2.531422   -2.145442   -0.335651
      9          1           0        0.188975   -2.144667    0.432701
     10          1           0        2.531421    2.145442   -0.335651
     11          1           0        0.188975    2.144666    0.432702
     12          6           0       -1.428167   -0.000001    0.935151
     13         14           0       -2.656765    0.000000   -0.510817
     14          1           0       -2.460076    1.205606   -1.349183
     15          1           0       -4.047622   -0.000001    0.007558
     16          1           0       -2.460074   -1.205604   -1.349185
     17          1           0       -1.639049    0.877920    1.554191
     18          1           0       -1.639048   -0.877922    1.554190
 ---------------------------------------------------------------------

 SCF Done:  E(RHF) =  -561.349143885     A.U. after    2 cycles

 The electronic state is 1-A.
 Alpha  occ. eigenvalues --  -76.21216 -11.51198 -11.43661 -11.42648 -11.40360
 Alpha  occ. eigenvalues --  -11.40129 -11.38174 -11.35622  -5.54682  -2.18415
 Alpha  occ. eigenvalues --   -2.16993  -2.16953  -1.34765  -1.14403  -1.08726
 Alpha  occ. eigenvalues --   -0.99494  -0.86003  -0.83277  -0.74911  -0.70178
 Alpha  occ. eigenvalues --   -0.64376  -0.61147  -0.57513  -0.56256  -0.52318
 Alpha  occ. eigenvalues --   -0.51543  -0.47137  -0.46429  -0.44577  -0.43720
 Alpha  occ. eigenvalues --   -0.41723  -0.32738  -0.30284
 Alpha virt. eigenvalues --    0.03433   0.04877   0.04970   0.05178   0.05739
 Alpha virt. eigenvalues --    0.06323   0.06604   0.07366   0.07583   0.08021
 Alpha virt. eigenvalues --    0.09162   0.10214   0.10705   0.12011   0.12099

 Mulliken charges:
               1
     1  C   -2.910954
     2  C   -1.511929
     3  C   -2.312970
     4  C   -1.511925
     5  C   -2.312971
     6  C    4.565904
     7  H    1.531983
     8  H    1.493387
     9  H    1.799836
    10  H    1.493388
    11  H    1.799836
    12  C   -5.406013
    13  Si   6.252438
    14  H   -1.819603
    15  H   -1.749886
    16  H   -1.819603
    17  H    1.209541
    18  H    1.209542
 Sum of Mulliken charges =   0.00000

 Dipole moment (field-independent basis, Debye):
    X=              0.2970    Y=             -0.0000    Z=              0.6586  Tot=              0.7225

 Test job not archived.
 1\1\GINC-SE227\SP\RHF\Aug-CC-pVDZ\C7H10Si1\OHZDE\08-Apr-2025\0\\#t hf
 aug-cc-pvdz iop(5/13=1,5/36=2,99/5=2) pseudo=read geom=check guess=(re
 ad,tcheck) scf=(maxcycle=1)\\title\\0,1\C,0,2.689043,0.,-0.391613\C,0,
 2.021005,-1.202623,-0.172163\C,0,0.697912,-1.201242,0.261829\C,0,2.021
 005,1.202623,-0.172163\C,0,0.697912,1.201242,0.261829\C,0,0.014627,0.,
 0.488308\H,0,3.719756,0.,-0.727296\H,0,2.531422,-2.145442,-0.335651\H,
 0,0.188975,-2.144667,0.432701\H,0,2.531421,2.145442,-0.335651\H,0,0.18
 8975,2.144666,0.432702\C,0,-1.428167,-0.000001,0.935151\Si,0,-2.656765

 Normal termination of Gaussian 16 at Tue Apr  8 23:14:52 2025.
