 Gaussian 16, Revision C.01,

 ----------------------------------------------------------------------
 #t hf aug-cc-pvdz symm=none int=(grid=ultrafine) guess=(read,tcheck) s
 table=(opt,rrhf)
 ----------------------------------------------------------------------
 -----
 title
 -----
 Symbolic Z-matrix:
 Charge =  0 Multiplicity = 1

 SCF Done:  E(RHF) =  -460.950112727     A.U. after   14 cycles
 Normal termination of Gaussian 16 at Wed Apr  9 00:40:04 2025.
 Gaussian 16:  ES64L-G16RevC.01  3-Jul-2019

 ----------------------------------------------------------------------
 #t hf aug-cc-pvdz iop(5/13=1,5/36=2,99/5=2) pseudo=read geom=check gue
 ss=(read,tcheck) scf=(maxcycle=1)
 ----------------------------------------------------------------------
 -----
 title
 -----
 Structure from the checkpoint file:  "BDE49_nonexpt_595_mol1.chk"
 Charge =  0 Multiplicity = 1

                         Standard orientation:
 ---------------------------------------------------------------------
 Center     Atomic      Atomic             Coordinates (Angstroms)
 Number     Number       Type             X           Y           Z
 ---------------------------------------------------------------------
      1          6           0        2.055442    1.303861   -0.250968
      2          6           0        0.713485    0.951998   -0.376916
      3          6           0        3.014982    0.349848    0.075445
      4          6           0        2.614279   -0.971403    0.271697
      5          6           0        1.275388   -1.328138    0.167693
      6          6           0        0.298854   -0.371036   -0.150626
      7          1           0        0.971436   -2.355248    0.342803
      8          1           0        4.058540    0.626971    0.164338
      9          1           0        3.348739   -1.730639    0.517147
     10          1           0        2.351377    2.331140   -0.433548
     11          1           0       -0.005299    1.693377   -0.705958
     12          5           0       -2.230854    0.003366    0.040079
     13          8           0       -2.239201    1.269264    0.572715
     14          8           0       -3.428402   -0.611309   -0.221222
     15          1           0       -4.169432   -0.065144    0.055288
     16          1           0       -1.372757    1.576402    0.854423
     17          7           0       -1.046935   -0.748560   -0.253473
     18          1           0       -1.193544   -1.728194   -0.450467
 ---------------------------------------------------------------------

 SCF Done:  E(RHF) =  -463.021073241     A.U. after    2 cycles

 The electronic state is 1-A.
 Alpha  occ. eigenvalues --  -21.05662 -21.04959 -15.72271 -11.53134 -11.45659
 Alpha  occ. eigenvalues --  -11.43279 -11.40712 -11.40648 -11.36535  -7.65190
 Alpha  occ. eigenvalues --   -1.82397  -1.65617  -1.41991  -1.27885  -1.09646
 Alpha  occ. eigenvalues --   -1.06695  -0.87637  -0.86645  -0.77735  -0.71834
 Alpha  occ. eigenvalues --   -0.68483  -0.66385  -0.61698  -0.58514  -0.57507
 Alpha  occ. eigenvalues --   -0.57088  -0.52816  -0.49451  -0.48030  -0.45364
 Alpha  occ. eigenvalues --   -0.43109  -0.39882  -0.39319  -0.36186  -0.33632
 Alpha  occ. eigenvalues --   -0.28232
 Alpha virt. eigenvalues --    0.03093   0.04394   0.04676   0.05326   0.05659
 Alpha virt. eigenvalues --    0.05739   0.06820   0.07889   0.08189   0.08535
 Alpha virt. eigenvalues --    0.09281   0.09870   0.11164   0.12236   0.12509

 Mulliken charges:
               1
     1  C   -0.648939
     2  C   -2.078101
     3  C   -2.603168
     4  C   -0.122363
     5  C   -3.033511
     6  C    5.021209
     7  H    1.742241
     8  H    1.560449
     9  H    1.516211
    10  H    1.488725
    11  H    1.792344
    12  B    6.965613
    13  O   -4.288645
    14  O   -4.193658
    15  H    0.981051
    16  H    1.510377
    17  N   -6.719505
    18  H    1.109670
 Sum of Mulliken charges =   0.00000

 Dipole moment (field-independent basis, Debye):
    X=              0.4499    Y=             -0.0744    Z=              0.2456  Tot=              0.5179

 Test job not archived.
 1\1\GINC-SE344\SP\RHF\Aug-CC-pVDZ\C6H8B1N1O2\OHZDE\09-Apr-2025\0\\#t h
 f aug-cc-pvdz iop(5/13=1,5/36=2,99/5=2) pseudo=read geom=check guess=(
 read,tcheck) scf=(maxcycle=1)\\title\\0,1\C,0,2.055442,1.303861,-0.250
 968\C,0,0.713485,0.951998,-0.376916\C,0,3.014982,0.349848,0.075445\C,0
 ,2.614279,-0.971403,0.271697\C,0,1.275388,-1.328138,0.167693\C,0,0.298
 854,-0.371036,-0.150626\H,0,0.971436,-2.355248,0.342803\H,0,4.05854,0.
 626971,0.164338\H,0,3.348739,-1.730639,0.517147\H,0,2.351377,2.33114,-
 0.433548\H,0,-0.005299,1.693377,-0.705958\B,0,-2.230854,0.003366,0.040

 Normal termination of Gaussian 16 at Wed Apr  9 00:40:13 2025.
