 Gaussian 16, Revision C.01,

 ----------------------------------------------------------------------
 #t hf aug-cc-pvdz symm=none int=(grid=ultrafine) guess=(read,tcheck) s
 table=(opt,rrhf)
 ----------------------------------------------------------------------
 -----
 title
 -----
 Symbolic Z-matrix:
 Charge =  0 Multiplicity = 1

 SCF Done:  E(RHF) =  -970.343988005     A.U. after   14 cycles
 Normal termination of Gaussian 16 at Wed Apr  9 00:17:33 2025.
 Gaussian 16:  ES64L-G16RevC.01  3-Jul-2019

 ----------------------------------------------------------------------
 #t hf aug-cc-pvdz iop(5/13=1,5/36=2,99/5=2) pseudo=read geom=check gue
 ss=(read,tcheck) scf=(maxcycle=1)
 ----------------------------------------------------------------------
 -----
 title
 -----
 Structure from the checkpoint file:  "BDE49_nonexpt_2554_mol1.chk"
 Charge =  0 Multiplicity = 1

                         Standard orientation:
 ---------------------------------------------------------------------
 Center     Atomic      Atomic             Coordinates (Angstroms)
 Number     Number       Type             X           Y           Z
 ---------------------------------------------------------------------
      1         17           0        1.700857   -0.335855   -0.000003
      2         16           0       -0.046183    0.776316    0.000003
      3          6           0       -1.288970   -0.529813    0.000002
      4          8           0       -2.448326   -0.248422   -0.000003
      5          1           0       -0.855206   -1.545268    0.000006
 ---------------------------------------------------------------------

 SCF Done:  E(RHF) =  -971.273903688     A.U. after    2 cycles

 The electronic state is 1-A.
 Alpha  occ. eigenvalues --  -99.93476 -75.77078 -21.10909 -13.16270 -13.12856
 Alpha  occ. eigenvalues --  -13.08108 -11.53008 -10.50605  -9.70323  -9.69706
 Alpha  occ. eigenvalues --   -9.69573  -8.11022  -1.75760  -1.36809  -1.13654
 Alpha  occ. eigenvalues --   -0.87221  -0.67531  -0.59601  -0.58110  -0.55191
 Alpha  occ. eigenvalues --   -0.51508  -0.49944  -0.31051  -0.28188
 Alpha virt. eigenvalues --    0.03153   0.03817   0.06024   0.09717   0.11409
 Alpha virt. eigenvalues --    0.11579   0.11812   0.12563   0.13729   0.14742
 Alpha virt. eigenvalues --    0.15348   0.16872   0.18240   0.20883   0.22220

 Mulliken charges:
               1
     1  Cl  -0.437935
     2  S    0.989839
     3  C    0.181569
     4  O   -2.269592
     5  H    1.536120
 Sum of Mulliken charges =   0.00000

 Dipole moment (field-independent basis, Debye):
    X=             -1.4258    Y=              1.8471    Z=              0.0000  Tot=              2.3334

 Test job not archived.
 1\1\GINC-SE074\SP\RHF\Aug-CC-pVDZ\C1H1Cl1O1S1\OHZDE\09-Apr-2025\0\\#t
 hf aug-cc-pvdz iop(5/13=1,5/36=2,99/5=2) pseudo=read geom=check guess=
 (read,tcheck) scf=(maxcycle=1)\\title\\0,1\Cl,0,1.700857,-0.335855,-0.
 000003\S,0,-0.046183,0.776316,0.000003\C,0,-1.28897,-0.529813,0.000002
 \O,0,-2.448326,-0.248422,-0.000003\H,0,-0.855206,-1.545268,0.000006\\V
 ersion=ES64L-G16RevC.01\State=1-A\HF=-971.2739037\RMSD=5.808e-02\Dipol
 e=-0.5609625,0.7267017,0.0000038\Quadrupole=-1.9466688,3.1807628,-1.23
 4094,-0.2139849,-0.0000102,0.0000105\PG=C01 [X(C1H1Cl1O1S1)]\\@

 Normal termination of Gaussian 16 at Wed Apr  9 00:17:35 2025.
