 Gaussian 16, Revision C.01,

 ----------------------------------------------------------------------
 #t hf aug-cc-pvdz symm=none int=(grid=ultrafine) guess=(read,tcheck) s
 table=(opt,rrhf)
 ----------------------------------------------------------------------
 -----
 title
 -----
 Symbolic Z-matrix:
 Charge =  0 Multiplicity = 1

 SCF Done:  E(RHF) =  -935.845692216     A.U. after   16 cycles
 Normal termination of Gaussian 16 at Tue Apr  8 22:57:59 2025.
 Gaussian 16:  ES64L-G16RevC.01  3-Jul-2019

 ----------------------------------------------------------------------
 #t hf aug-cc-pvdz iop(5/13=1,5/36=2,99/5=2) pseudo=read geom=check gue
 ss=(read,tcheck) scf=(maxcycle=1)
 ----------------------------------------------------------------------
 -----
 title
 -----
 Structure from the checkpoint file:  "BDE49_expt_1587_mol1.chk"
 Charge =  0 Multiplicity = 1

                         Standard orientation:
 ---------------------------------------------------------------------
 Center     Atomic      Atomic             Coordinates (Angstroms)
 Number     Number       Type             X           Y           Z
 ---------------------------------------------------------------------
      1          6           0       -3.324443   -1.054237    0.285546
      2          6           0       -2.009199   -1.402190   -0.004482
      3          6           0       -3.785775    0.253705    0.097988
      4          6           0       -2.883892    1.204808   -0.388582
      5          6           0       -1.565567    0.865635   -0.682213
      6          6           0       -1.112079   -0.443050   -0.488513
      7          1           0       -1.670639   -2.421895    0.137735
      8          1           0       -4.005189   -1.812247    0.660509
      9          6           0       -5.223256    0.616183    0.381515
     10          1           0       -3.216992    2.226381   -0.542951
     11          1           0       -0.880664    1.612543   -1.064273
     12         16           0        0.573884   -0.892572   -0.887207
     13          6           0        1.429813   -0.589501    0.782304
     14          6           0        1.543645    0.857932    1.151788
     15          6           0        2.749927   -1.296343    0.763717
     16          1           0        0.774797   -1.086920    1.496547
     17          6           0        3.857730   -0.889906    0.110704
     18          6           0        2.380730    1.765887    0.607732
     19          6           0        3.426449    1.531818   -0.355357
     20          6           0        4.071627    0.358937   -0.580375
     21          1           0        0.850509    1.202736    1.913451
     22          1           0        2.262210    2.797800    0.929059
     23          1           0        2.782530   -2.250238    1.281377
     24          1           0        4.702573   -1.574275    0.106728
     25          1           0        3.788531    2.407399   -0.886649
     26          1           0        4.904134    0.375549   -1.277892
     27          1           0       -5.861922    0.387029   -0.478653
     28          1           0       -5.331456    1.681861    0.594694
     29          1           0       -5.614825    0.057362    1.234988
 ---------------------------------------------------------------------

 SCF Done:  E(RHF) =  -938.694292374     A.U. after    2 cycles

 The electronic state is 1-A.
 Alpha  occ. eigenvalues --  -75.67158 -13.19010 -13.10278 -13.07272 -11.51397
 Alpha  occ. eigenvalues --  -11.48100 -11.46880 -11.43980 -11.43765 -11.43298
 Alpha  occ. eigenvalues --  -11.43059 -11.42813 -11.40877 -11.40698 -11.40159
 Alpha  occ. eigenvalues --  -11.38973 -11.36897 -11.36140  -8.01077  -1.36780
 Alpha  occ. eigenvalues --   -1.31992  -1.19519  -1.14107  -1.13812  -1.09107
 Alpha  occ. eigenvalues --   -1.05525  -0.97520  -0.92463  -0.91142  -0.86805
 Alpha  occ. eigenvalues --   -0.81455  -0.73243  -0.71472  -0.71207  -0.67017
 Alpha  occ. eigenvalues --   -0.63838  -0.61884  -0.61713  -0.60844  -0.57818
 Alpha  occ. eigenvalues --   -0.57622  -0.53436  -0.52473  -0.51760  -0.50434
 Alpha  occ. eigenvalues --   -0.49233  -0.48630  -0.46490  -0.45578  -0.44008
 Alpha  occ. eigenvalues --   -0.40879  -0.36952  -0.35311  -0.33049  -0.32124
 Alpha  occ. eigenvalues --   -0.25156  -0.22093
 Alpha virt. eigenvalues --    0.03275   0.04413   0.04667   0.05249   0.05378
 Alpha virt. eigenvalues --    0.05596   0.05756   0.06064   0.06324   0.06906
 Alpha virt. eigenvalues --    0.07337   0.07692   0.08161   0.08458   0.08983

 Mulliken charges:
               1
     1  C   -1.412716
     2  C   -4.179940
     3  C    2.515839
     4  C   -1.153905
     5  C   -4.804118
     6  C    2.768541
     7  H    1.981146
     8  H    1.894042
     9  C   -5.737381
    10  H    1.897480
    11  H    2.045053
    12  S    0.175699
    13  C    0.486154
    14  C   -2.501172
    15  C   -2.366163
    16  H    1.488330
    17  C   -0.833150
    18  C   -1.596675
    19  C   -0.904602
    20  C   -1.509319
    21  H    1.379607
    22  H    1.431880
    23  H    1.267470
    24  H    1.417285
    25  H    1.408609
    26  H    1.381929
    27  H    1.157889
    28  H    1.187065
    29  H    1.115121
 Sum of Mulliken charges =  -0.00000

 Dipole moment (field-independent basis, Debye):
    X=             -0.6865    Y=              0.0899    Z=             -0.1299  Tot=              0.7044

 Test job not archived.
 1\1\GINC-SE094\SP\RHF\Aug-CC-pVDZ\C14H14S1\OHZDE\08-Apr-2025\0\\#t hf
 aug-cc-pvdz iop(5/13=1,5/36=2,99/5=2) pseudo=read geom=check guess=(re
 ad,tcheck) scf=(maxcycle=1)\\title\\0,1\C,0,-3.324443,-1.054237,0.2855
 46\C,0,-2.009199,-1.40219,-0.004482\C,0,-3.785775,0.253705,0.097988\C,
 0,-2.883892,1.204808,-0.388582\C,0,-1.565567,0.865635,-0.682213\C,0,-1
 .112079,-0.44305,-0.488513\H,0,-1.670639,-2.421895,0.137735\H,0,-4.005
 189,-1.812247,0.660509\C,0,-5.223256,0.616183,0.381515\H,0,-3.216992,2
 .226381,-0.542951\H,0,-0.880664,1.612543,-1.064273\S,0,0.573884,-0.892

 Normal termination of Gaussian 16 at Tue Apr  8 22:58:33 2025.
