 Gaussian 16, Revision C.01,

 ----------------------------------------------------------------------
 #t hf aug-cc-pvdz symm=none int=(grid=ultrafine) guess=(read,tcheck) s
 table=opt
 ----------------------------------------------------------------------
 -----
 title
 -----
 Symbolic Z-matrix:
 Charge =  0 Multiplicity = 2

 SCF Done:  E(UHF) =  -429.872540219     A.U. after   16 cycles
 Normal termination of Gaussian 16 at Wed Apr  9 00:14:01 2025.
 Gaussian 16:  ES64L-G16RevC.01  3-Jul-2019

 ----------------------------------------------------------------------
 #t hf aug-cc-pvdz iop(5/13=1,5/36=2,99/5=2) pseudo=read geom=check gue
 ss=(read,tcheck) scf=(maxcycle=1)
 ----------------------------------------------------------------------
 -----
 title
 -----
 Structure from the checkpoint file:  "BDE49_nonexpt_2456_mol2.chk"
 Charge =  0 Multiplicity = 2

                         Standard orientation:
 ---------------------------------------------------------------------
 Center     Atomic      Atomic             Coordinates (Angstroms)
 Number     Number       Type             X           Y           Z
 ---------------------------------------------------------------------
      1         14           0        1.492422   -0.167764   -0.063428
      2          5           0       -0.501638    0.112839    0.007254
      3          1           0        2.076151   -1.461817    0.361079
      4          1           0        2.383143    0.957227    0.326771
      5          8           0       -1.020641    1.374880    0.008556
      6          6           0       -1.508410   -1.093812    0.005232
      7          1           0       -0.368041    2.081301    0.022801
      8          1           0       -1.425055   -1.666324    0.937094
      9          1           0       -1.291511   -1.803226   -0.800879
     10          1           0       -2.544823   -0.758831   -0.094988
 ---------------------------------------------------------------------

 SCF Done:  E(UHF) =  -430.638082672     A.U. after    2 cycles

 The electronic state is 2-A.
 Alpha  occ. eigenvalues --  -76.21173 -21.07064 -11.33187  -7.62612  -5.54763
 Alpha  occ. eigenvalues --   -2.17867  -2.16895  -2.15011  -1.74118  -1.06380
 Alpha  occ. eigenvalues --   -0.79734  -0.70078  -0.57465  -0.55232  -0.52899
 Alpha  occ. eigenvalues --   -0.47944  -0.45538  -0.43144  -0.34459  -0.24843
 Alpha virt. eigenvalues --    0.03400   0.04145   0.04389   0.05267   0.07399
 Alpha virt. eigenvalues --    0.08325   0.08869   0.09110   0.09251   0.09373
 Alpha virt. eigenvalues --    0.09983   0.10681   0.11132   0.13150   0.15190

  Beta  occ. eigenvalues --  -76.20667 -21.06970 -11.33190  -7.62671  -5.54009
  Beta  occ. eigenvalues --   -2.17266  -2.16236  -2.11379  -1.73928  -1.06266
  Beta  occ. eigenvalues --   -0.75994  -0.69194  -0.57196  -0.54991  -0.52816
  Beta  occ. eigenvalues --   -0.47903  -0.45678  -0.42275  -0.33416
  Beta virt. eigenvalues --    0.02870   0.03555   0.04232   0.04522   0.06536
  Beta virt. eigenvalues --    0.07504   0.08483   0.09003   0.09541   0.09679
  Beta virt. eigenvalues --    0.10044   0.10423   0.11155   0.11547   0.15445

 Mulliken charges and spin densities:
               1          2
     1  Si   4.247400   1.114837
     2  B    3.493715  -0.001211
     3  H   -1.437329  -0.075246
     4  H   -1.500413  -0.069079
     5  O   -4.169838   0.045115
     6  C   -5.539100  -0.005233
     7  H    1.543119  -0.005538
     8  H    0.942528   0.009203
     9  H    0.995372  -0.008702
    10  H    1.424548  -0.004145
 Sum of Mulliken charges =   0.00000   1.00000

 Dipole moment (field-independent basis, Debye):
    X=             -0.2544    Y=              0.5997    Z=             -0.0333  Tot=              0.6523
                          Isotropic Fermi Contact Couplings
        Atom                 a.u.       MegaHertz       Gauss      10(-4) cm-1
     1  Si(29)             0.26002    -231.09110     -82.45905     -77.08369
     2  B(11)             -0.00662      -9.50027      -3.38993      -3.16895
     3  H(1)              -0.00819     -36.62129     -13.06739     -12.21555
     4  H(1)              -0.00780     -34.86113     -12.43932     -11.62842
     5  O(17)              0.00684      -4.14479      -1.47896      -1.38255
     6  C(13)             -0.00168      -1.89248      -0.67528      -0.63126
     7  H(1)              -0.00050      -2.25407      -0.80431      -0.75188
     8  H(1)               0.00128       5.70482       2.03562       1.90292

 1\1\GINC-SE102\SP\UHF\Aug-CC-pVDZ\C1H6B1O1Si1(2)\OHZDE\09-Apr-2025\0\\
 #t hf aug-cc-pvdz iop(5/13=1,5/36=2,99/5=2) pseudo=read geom=check gue
 ss=(read,tcheck) scf=(maxcycle=1)\\title\\0,2\Si,0,1.492422,-0.167764,
 -0.063428\B,0,-0.501638,0.112839,0.007254\H,0,2.076151,-1.461817,0.361
 079\H,0,2.383143,0.957226,0.326771\O,0,-1.020641,1.37488,0.008556\C,0,
 -1.50841,-1.093812,0.005232\H,0,-0.368041,2.081301,0.022801\H,0,-1.425
 055,-1.666324,0.937094\H,0,-1.291511,-1.803226,-0.800879\H,0,-2.544823
 ,-0.758831,-0.094988\\Version=ES64L-G16RevC.01\State=2-A\HF=-430.63808

 Normal termination of Gaussian 16 at Wed Apr  9 00:14:05 2025.
