 Gaussian 16, Revision C.01,

 ----------------------------------------------------------------------
 #t hf aug-cc-pvdz symm=none int=(grid=ultrafine) guess=(read,tcheck) s
 table=(opt,rrhf)
 ----------------------------------------------------------------------
 -----
 title
 -----
 Symbolic Z-matrix:
 Charge =  0 Multiplicity = 1

 SCF Done:  E(RHF) =  -453.877611261     A.U. after   14 cycles
 Normal termination of Gaussian 16 at Wed Apr  9 00:34:37 2025.
 Gaussian 16:  ES64L-G16RevC.01  3-Jul-2019

 ----------------------------------------------------------------------
 #t hf aug-cc-pvdz iop(5/13=1,5/36=2,99/5=2) pseudo=read geom=check gue
 ss=(read,tcheck) scf=(maxcycle=1)
 ----------------------------------------------------------------------
 -----
 title
 -----
 Structure from the checkpoint file:  "BDE49_nonexpt_430_mol1.chk"
 Charge =  0 Multiplicity = 1

                         Standard orientation:
 ---------------------------------------------------------------------
 Center     Atomic      Atomic             Coordinates (Angstroms)
 Number     Number       Type             X           Y           Z
 ---------------------------------------------------------------------
      1          9           0       -2.434884    1.129729   -0.000264
      2          9           0       -2.434884   -1.129729   -0.000265
      3          5           0       -1.731250    0.000000    0.000331
      4          6           0       -0.189596    0.000000    0.000192
      5          6           0        0.527606   -1.207864    0.000133
      6          1           0       -0.013593   -2.147488    0.000178
      7          6           0        1.918211   -1.209309    0.000026
      8          1           0        2.461641   -2.147328   -0.000016
      9          6           0        2.613048    0.000000   -0.000029
     10          6           0        0.527606    1.207864    0.000134
     11          1           0       -0.013593    2.147488    0.000179
     12          6           0        1.918211    1.209309    0.000026
     13          1           0        2.461641    2.147328   -0.000015
     14          1           0        3.697542    0.000000   -0.000114
 ---------------------------------------------------------------------

 SCF Done:  E(RHF) =  -455.757285362     A.U. after    2 cycles

 The electronic state is 1-A.
 Alpha  occ. eigenvalues --  -29.25213 -29.25108 -11.52713 -11.44145 -11.43866
 Alpha  occ. eigenvalues --  -11.41502 -11.41442 -11.36973  -7.71851  -1.36378
 Alpha  occ. eigenvalues --   -1.17892  -1.10350  -1.05375  -0.88094  -0.86335
 Alpha  occ. eigenvalues --   -0.73549  -0.72908  -0.66909  -0.60050  -0.59412
 Alpha  occ. eigenvalues --   -0.57327  -0.53682  -0.48383  -0.47714  -0.46728
 Alpha  occ. eigenvalues --   -0.44296  -0.42934  -0.34141  -0.33778  -0.33394
 Alpha  occ. eigenvalues --   -0.32299  -0.26232
 Alpha virt. eigenvalues --    0.02956   0.04950   0.05017   0.05082   0.05225
 Alpha virt. eigenvalues --    0.05589   0.07222   0.09275   0.09436   0.09523
 Alpha virt. eigenvalues --    0.10733   0.10997   0.13542   0.13893   0.14068

 Mulliken charges:
               1
     1  F   -0.742098
     2  F   -0.742098
     3  B    0.134369
     4  C   -2.486100
     5  C   -0.891666
     6  H    2.003308
     7  C   -0.462922
     8  H    1.551342
     9  C   -2.049634
    10  C   -0.891665
    11  H    2.003308
    12  C   -0.462922
    13  H    1.551342
    14  H    1.485438
 Sum of Mulliken charges =   0.00000

 Dipole moment (field-independent basis, Debye):
    X=             -1.3195    Y=              0.0000    Z=             -0.0016  Tot=              1.3195

 Test job not archived.
 1\1\GINC-SE099\SP\RHF\Aug-CC-pVDZ\C6H5B1F2\OHZDE\09-Apr-2025\0\\#t hf
 aug-cc-pvdz iop(5/13=1,5/36=2,99/5=2) pseudo=read geom=check guess=(re
 ad,tcheck) scf=(maxcycle=1)\\title\\0,1\F,0,-2.434884,-1.129729,0.0002
 64\F,0,-2.434884,1.129729,0.000265\B,0,-1.73125,0.,-0.000331\C,0,-0.18
 9596,0.,-0.000192\C,0,0.527606,1.207864,-0.000133\H,0,-0.013593,2.1474
 88,-0.000178\C,0,1.918211,1.209309,-0.000026\H,0,2.461641,2.147328,0.0
 00016\C,0,2.613048,0.,0.000029\C,0,0.527606,-1.207864,-0.000134\H,0,-0
 .013593,-2.147488,-0.000179\C,0,1.918211,-1.209309,-0.000026\H,0,2.461

 Normal termination of Gaussian 16 at Wed Apr  9 00:34:43 2025.
