 Gaussian 16, Revision C.01,

 ----------------------------------------------------------------------
 #t hf aug-cc-pvdz symm=none int=(grid=ultrafine) guess=(read,tcheck) s
 table=(opt,rrhf)
 ----------------------------------------------------------------------
 -----
 title
 -----
 Symbolic Z-matrix:
 Charge =  0 Multiplicity = 1

 SCF Done:  E(RHF) =  -229.745671818     A.U. after   15 cycles
 Normal termination of Gaussian 16 at Tue Apr  8 23:19:49 2025.
 Gaussian 16:  ES64L-G16RevC.01  3-Jul-2019

 ----------------------------------------------------------------------
 #t hf aug-cc-pvdz iop(5/13=1,5/36=2,99/5=2) pseudo=read geom=check gue
 ss=(read,tcheck) scf=(maxcycle=1)
 ----------------------------------------------------------------------
 -----
 title
 -----
 Structure from the checkpoint file:  "BDE49_nonexpt_1102_mol1.chk"
 Charge =  0 Multiplicity = 1

                         Standard orientation:
 ---------------------------------------------------------------------
 Center     Atomic      Atomic             Coordinates (Angstroms)
 Number     Number       Type             X           Y           Z
 ---------------------------------------------------------------------
      1          9           0       -1.249907   -0.238091    0.000005
      2          7           0        1.106730   -0.195801    0.000003
      3          8           0        0.126581    0.618739   -0.000008
      4          1           0        1.244712   -0.718243    0.863676
      5          1           0        1.244694   -0.718246   -0.863672
 ---------------------------------------------------------------------

 SCF Done:  E(RHF) =  -230.659228740     A.U. after    2 cycles

 The electronic state is 1-A.
 Alpha  occ. eigenvalues --  -29.21983 -21.22383 -15.85902  -1.90106  -1.18732
 Alpha  occ. eigenvalues --   -0.77631  -0.74082  -0.60500  -0.45698  -0.43828
 Alpha  occ. eigenvalues --   -0.26598  -0.22256  -0.21086
 Alpha virt. eigenvalues --    0.03449   0.05216   0.11585   0.14702   0.17623
 Alpha virt. eigenvalues --    0.19003   0.19011   0.23303   0.24816   0.26776
 Alpha virt. eigenvalues --    0.28111   0.30463   0.33964   0.34851   0.35910

 Mulliken charges:
               1
     1  F   -0.201921
     2  N    0.362835
     3  O   -1.633431
     4  H    0.736262
     5  H    0.736254
 Sum of Mulliken charges =  -0.00000

 Dipole moment (field-independent basis, Debye):
    X=              0.3143    Y=             -1.5816    Z=              0.0000  Tot=              1.6125

 Test job not archived.
 1\1\GINC-SE253\SP\RHF\Aug-CC-pVDZ\F1H2N1O1\OHZDE\08-Apr-2025\0\\#t hf
 aug-cc-pvdz iop(5/13=1,5/36=2,99/5=2) pseudo=read geom=check guess=(re
 ad,tcheck) scf=(maxcycle=1)\\title\\0,1\F,0,-1.249907,-0.238091,0.0000
 05\N,0,1.10673,-0.195801,0.000003\O,0,0.126581,0.618739,-0.000008\H,0,
 1.244712,-0.718243,0.863676\H,0,1.244694,-0.718246,-0.863672\\Version=
 ES64L-G16RevC.01\State=1-A\HF=-230.6592287\RMSD=5.027e-02\Dipole=0.123
 671,-0.6222391,0.0000074\Quadrupole=-0.9594966,-0.0732741,1.0327707,-1
 .7967422,0.0000389,-0.0000049\PG=C01 [X(F1H2N1O1)]\\@

 Normal termination of Gaussian 16 at Tue Apr  8 23:19:50 2025.
