 Gaussian 16, Revision C.01,

 ----------------------------------------------------------------------
 #t hf aug-cc-pvdz symm=none int=(grid=ultrafine) guess=(read,tcheck) s
 table=(opt,rrhf)
 ----------------------------------------------------------------------
 -----
 title
 -----
 Symbolic Z-matrix:
 Charge =  0 Multiplicity = 1

 SCF Done:  E(RHF) =  -719.293765354     A.U. after   15 cycles
 Normal termination of Gaussian 16 at Tue Apr  8 23:17:16 2025.
 Gaussian 16:  ES64L-G16RevC.01  3-Jul-2019

 ----------------------------------------------------------------------
 #t hf aug-cc-pvdz iop(5/13=1,5/36=2,99/5=2) pseudo=read geom=check gue
 ss=(read,tcheck) scf=(maxcycle=1)
 ----------------------------------------------------------------------
 -----
 title
 -----
 Structure from the checkpoint file:  "BDE49_nonexpt_1009_mol1.chk"
 Charge =  0 Multiplicity = 1

                         Standard orientation:
 ---------------------------------------------------------------------
 Center     Atomic      Atomic             Coordinates (Angstroms)
 Number     Number       Type             X           Y           Z
 ---------------------------------------------------------------------
      1          6           0       -0.972118   -0.559903   -0.534782
      2         16           0        0.665952   -1.141812    0.002253
      3          7           0        1.597155    0.435275   -0.008069
      4          8           0        1.031236    1.446281   -0.367697
      5          8           0        2.747812    0.322777    0.352782
      6          6           0       -1.821451    0.083883    0.561652
      7          1           0       -1.442370   -1.468810   -0.927048
      8          1           0       -0.810804    0.116341   -1.376402
      9          6           0       -3.195902    0.512521    0.037068
     10          1           0       -1.288279    0.951947    0.956415
     11          1           0       -1.938033   -0.622823    1.388848
     12          1           0       -3.101987    1.244914   -0.769844
     13          1           0       -3.787873    0.970137    0.833150
     14          1           0       -3.761533   -0.341109   -0.348999
 ---------------------------------------------------------------------

 SCF Done:  E(RHF) =  -720.984107747     A.U. after    2 cycles

 The electronic state is 1-A.
 Alpha  occ. eigenvalues --  -75.75596 -21.10950 -21.10779 -16.01257 -13.20120
 Alpha  occ. eigenvalues --  -13.17693 -13.09105 -11.45362 -11.41365 -11.37312
 Alpha  occ. eigenvalues --   -8.09448  -2.00655  -1.70986  -1.29061  -1.16945
 Alpha  occ. eigenvalues --   -1.02020  -0.89379  -0.84026  -0.71661  -0.67888
 Alpha  occ. eigenvalues --   -0.65610  -0.62455  -0.59997  -0.57107  -0.55190
 Alpha  occ. eigenvalues --   -0.49688  -0.49126  -0.42018  -0.32895  -0.32703
 Alpha  occ. eigenvalues --   -0.32117  -0.27705
 Alpha virt. eigenvalues --    0.03055   0.04378   0.05095   0.05788   0.06168
 Alpha virt. eigenvalues --    0.06670   0.07091   0.08097   0.10356   0.11621
 Alpha virt. eigenvalues --    0.12441   0.13038   0.14093   0.14611   0.15103

 Mulliken charges:
               1
     1  C   -3.774033
     2  S    1.434207
     3  N    4.276244
     4  O   -2.565392
     5  O   -2.645605
     6  C   -3.041974
     7  H    1.437490
     8  H    1.654063
     9  C   -3.521977
    10  H    1.564860
    11  H    1.475870
    12  H    1.260506
    13  H    1.198227
    14  H    1.247515
 Sum of Mulliken charges =  -0.00000

 Dipole moment (field-independent basis, Debye):
    X=             -2.2188    Y=             -2.2426    Z=             -0.0110  Tot=              3.1548

 Test job not archived.
 1\1\GINC-SE328\SP\RHF\Aug-CC-pVDZ\C3H7N1O2S1\OHZDE\08-Apr-2025\0\\#t h
 f aug-cc-pvdz iop(5/13=1,5/36=2,99/5=2) pseudo=read geom=check guess=(
 read,tcheck) scf=(maxcycle=1)\\title\\0,1\C,0,-0.972118,-0.559903,-0.5
 34782\S,0,0.665952,-1.141812,0.002253\N,0,1.597155,0.435275,-0.008069\
 O,0,1.031236,1.446281,-0.367697\O,0,2.747812,0.322777,0.352782\C,0,-1.
 821451,0.083883,0.561652\H,0,-1.44237,-1.46881,-0.927048\H,0,-0.810804
 ,0.116341,-1.376402\C,0,-3.195902,0.512521,0.037068\H,0,-1.288279,0.95
 1947,0.956415\H,0,-1.938033,-0.622823,1.388848\H,0,-3.101987,1.244914,

 Normal termination of Gaussian 16 at Tue Apr  8 23:17:21 2025.
