 Gaussian 16, Revision C.01,

 ----------------------------------------------------------------------
 #t hf aug-cc-pvdz symm=none int=(grid=ultrafine) guess=(read,tcheck) s
 table=opt
 ----------------------------------------------------------------------
 -----
 title
 -----
 Symbolic Z-matrix:
 Charge =  0 Multiplicity = 2

 SCF Done:  E(UHF) =  -778.822844868     A.U. after   25 cycles
 Normal termination of Gaussian 16 at Wed Apr  9 00:25:21 2025.
 Gaussian 16:  ES64L-G16RevC.01  3-Jul-2019

 ----------------------------------------------------------------------
 #t hf aug-cc-pvdz iop(5/13=1,5/36=2,99/5=2) pseudo=read geom=check gue
 ss=(read,tcheck) scf=(maxcycle=1)
 ----------------------------------------------------------------------
 -----
 title
 -----
 Structure from the checkpoint file:  "BDE49_nonexpt_2678_mol2.chk"
 Charge =  0 Multiplicity = 2

                         Standard orientation:
 ---------------------------------------------------------------------
 Center     Atomic      Atomic             Coordinates (Angstroms)
 Number     Number       Type             X           Y           Z
 ---------------------------------------------------------------------
      1         16           0        1.060509   -1.157669   -1.079767
      2          6           0        0.028146    0.053698   -0.105580
      3          8           0       -1.100213    0.248442   -0.878051
      4          8           0        0.654084    1.266921    0.086618
      5          8           0       -0.235484   -0.495045    1.156990
      6          6           0       -1.893449    1.408862   -0.564111
      7          1           0       -2.817508    1.281854   -1.125717
      8          1           0       -1.385813    2.321984   -0.875061
      9          1           0       -2.110937    1.457829    0.505802
     10          6           0        1.816977    1.276146    0.915961
     11          1           0        2.194208    2.296932    0.883418
     12          1           0        2.573361    0.592414    0.517768
     13          1           0        1.568713    0.999077    1.941788
     14          6           0       -1.172604   -1.577701    1.214045
     15          1           0       -1.100782   -1.975351    2.225330
     16          1           0       -0.921481   -2.355309    0.489918
     17          1           0       -2.189433   -1.225292    1.026671
 ---------------------------------------------------------------------

 SCF Done:  E(UHF) =  -780.711674846     A.U. after    2 cycles

 The electronic state is 2-A.
 Alpha  occ. eigenvalues --  -75.70192 -21.06505 -21.06316 -21.06224 -13.15721
 Alpha  occ. eigenvalues --  -13.07492 -13.06496 -11.51784 -11.41458 -11.41033
 Alpha  occ. eigenvalues --  -11.40793  -8.03828  -1.89601  -1.71774  -1.70982
 Alpha  occ. eigenvalues --   -1.13988  -1.03387  -0.99251  -0.98804  -0.78246
 Alpha  occ. eigenvalues --   -0.67530  -0.66636  -0.65435  -0.61749  -0.60198
 Alpha  occ. eigenvalues --   -0.59281  -0.57409  -0.55184  -0.51101  -0.45596
 Alpha  occ. eigenvalues --   -0.41370  -0.38017  -0.33742  -0.32431  -0.28868
 Alpha  occ. eigenvalues --   -0.27485  -0.24874
 Alpha virt. eigenvalues --    0.03638   0.05033   0.05204   0.05419   0.05788
 Alpha virt. eigenvalues --    0.05991   0.06515   0.06774   0.08749   0.09221
 Alpha virt. eigenvalues --    0.11172   0.12743   0.13161   0.14370   0.15374

  Beta  occ. eigenvalues --  -75.69190 -21.06429 -21.06236 -21.06234 -13.15100
  Beta  occ. eigenvalues --  -13.06206 -13.01155 -11.51919 -11.41455 -11.41032
  Beta  occ. eigenvalues --  -11.40789  -8.02707  -1.89547  -1.71627  -1.70947
  Beta  occ. eigenvalues --   -1.09428  -1.00790  -0.98953  -0.97775  -0.77307
  Beta  occ. eigenvalues --   -0.67350  -0.66314  -0.64847  -0.61669  -0.60049
  Beta  occ. eigenvalues --   -0.59241  -0.57229  -0.55123  -0.50752  -0.45232
  Beta  occ. eigenvalues --   -0.41082  -0.37966  -0.33301  -0.30778  -0.28079
  Beta  occ. eigenvalues --   -0.23449
  Beta virt. eigenvalues --    0.03251   0.04836   0.05111   0.05218   0.05521
  Beta virt. eigenvalues --    0.05821   0.06004   0.06549   0.06964   0.08764
  Beta virt. eigenvalues --    0.09875   0.11220   0.13138   0.13714   0.14679

 Mulliken charges and spin densities:
               1          2
     1  S    0.557759   1.170750
     2  C    6.994426  -0.000275
     3  O   -2.987254  -0.088311
     4  O   -3.638053   0.015296
     5  O   -3.572074  -0.021482
     6  C   -3.433477  -0.021172
     7  H    1.261647   0.000672
     8  H    1.431945  -0.000401
     9  H    1.365957   0.001343
    10  C   -3.278180  -0.004288
    11  H    1.299596   0.000878
    12  H    1.506222  -0.022837
    13  H    1.431845  -0.000148
    14  C   -3.201994   0.001757
    15  H    1.300610   0.001561
    16  H    1.571217  -0.036950
    17  H    1.389809   0.003608
 Sum of Mulliken charges =  -0.00000   1.00000

 Dipole moment (field-independent basis, Debye):
    X=             -0.2196    Y=              0.2343    Z=              0.4374  Tot=              0.5426
                          Isotropic Fermi Contact Couplings
        Atom                 a.u.       MegaHertz       Gauss      10(-4) cm-1
     1  S(33)              0.26635      91.48498      32.64412      30.51610
     2  C(13)             -0.01644     -18.48559      -6.59612      -6.16613
     3  O(17)              0.02908     -17.62555      -6.28923      -5.87925
     4  O(17)             -0.00220       1.33511       0.47640       0.44534
     5  O(17)              0.01073      -6.50480      -2.32107      -2.16977
     6  C(13)              0.00450       5.06357       1.80681       1.68903
     7  H(1)               0.00004       0.18106       0.06461       0.06040
     8  H(1)              -0.00001      -0.02263      -0.00807      -0.00755

 Normal termination of Gaussian 16 at Wed Apr  9 00:25:29 2025.
