 Gaussian 16, Revision C.01,

 ----------------------------------------------------------------------
 #t hf aug-cc-pvdz symm=none int=(grid=ultrafine) guess=(read,tcheck) s
 table=opt
 ----------------------------------------------------------------------
 -----
 title
 -----
 Symbolic Z-matrix:
 Charge =  0 Multiplicity = 2

 SCF Done:  E(UHF) =  -388.372804463     A.U. after   18 cycles
 Normal termination of Gaussian 16 at Wed Apr  9 00:33:56 2025.
 Gaussian 16:  ES64L-G16RevC.01  3-Jul-2019

 ----------------------------------------------------------------------
 #t hf aug-cc-pvdz iop(5/13=1,5/36=2,99/5=2) pseudo=read geom=check gue
 ss=(read,tcheck) scf=(maxcycle=1)
 ----------------------------------------------------------------------
 -----
 title
 -----
 Structure from the checkpoint file:  "BDE49_nonexpt_414_mol2.chk"
 Charge =  0 Multiplicity = 2

                         Standard orientation:
 ---------------------------------------------------------------------
 Center     Atomic      Atomic             Coordinates (Angstroms)
 Number     Number       Type             X           Y           Z
 ---------------------------------------------------------------------
      1          9           0       -2.151609   -0.107593   -0.039475
      2          5           0       -1.032368   -0.768355   -0.196555
      3          6           0        0.398000   -0.038063   -0.028480
      4          8           0        1.435141   -0.670465   -0.711329
      5          1           0        1.336004   -1.617943   -0.566665
      6          8           0        0.615415   -0.014085    1.363218
      7          1           0        1.518765    0.310068    1.496909
      8          8           0        0.387578    1.255540   -0.574444
      9          1           0       -0.221527    1.778448   -0.040870
 ---------------------------------------------------------------------

 SCF Done:  E(UHF) =  -389.876751921     A.U. after    2 cycles

 The electronic state is 2-A.
 Alpha  occ. eigenvalues --  -29.28292 -21.09824 -21.09734 -21.09376 -11.47644
 Alpha  occ. eigenvalues --   -7.70203  -1.87036  -1.68335  -1.67178  -1.06085
 Alpha  occ. eigenvalues --   -0.87389  -0.73944  -0.64498  -0.60068  -0.54756
 Alpha  occ. eigenvalues --   -0.53733  -0.49141  -0.45224  -0.44042  -0.39425
 Alpha  occ. eigenvalues --   -0.37570  -0.33803  -0.31777  -0.23273
 Alpha virt. eigenvalues --    0.03916   0.04218   0.04431   0.05433   0.06346
 Alpha virt. eigenvalues --    0.08390   0.11742   0.12639   0.14371   0.16229
 Alpha virt. eigenvalues --    0.16377   0.18530   0.19728   0.20733   0.21473

  Beta  occ. eigenvalues --  -29.28020 -21.09834 -21.09761 -21.09288 -11.47274
  Beta  occ. eigenvalues --   -7.68333  -1.86848  -1.68293  -1.67068  -1.02770
  Beta  occ. eigenvalues --   -0.86071  -0.73226  -0.63748  -0.59181  -0.54349
  Beta  occ. eigenvalues --   -0.52304  -0.44747  -0.43748  -0.43041  -0.38958
  Beta  occ. eigenvalues --   -0.36511  -0.32134  -0.31090
  Beta virt. eigenvalues --    0.03088   0.04117   0.04581   0.05425   0.06299
  Beta virt. eigenvalues --    0.07581   0.09834   0.12589   0.14598   0.15065
  Beta virt. eigenvalues --    0.16340   0.17792   0.19065   0.19932   0.21428

 Mulliken charges and spin densities:
               1          2
     1  F   -0.610345  -0.073433
     2  B    0.690725   1.022276
     3  C    6.596924  -0.007132
     4  O   -3.132991   0.015129
     5  H    1.014774  -0.040056
     6  O   -2.798811   0.025556
     7  H    0.538691   0.003003
     8  O   -3.117707   0.051082
     9  H    0.818741   0.003575
 Sum of Mulliken charges =   0.00000   1.00000

 Dipole moment (field-independent basis, Debye):
    X=             -2.8263    Y=              1.8918    Z=              0.8182  Tot=              3.4980
                          Isotropic Fermi Contact Couplings
        Atom                 a.u.       MegaHertz       Gauss      10(-4) cm-1
     1  F(19)              0.05520     232.27089      82.88003      77.47723
     2  B(11)              0.19528     280.10600      99.94879      93.43330
     3  C(13)              0.06929      77.89883      27.79624      25.98425
     4  O(17)              0.00180      -1.09346      -0.39017      -0.36474
     5  H(1)              -0.00008      -0.37366      -0.13333      -0.12464
     6  O(17)              0.00185      -1.12409      -0.40110      -0.37496
     7  H(1)               0.00098       4.39604       1.56862       1.46636
     8  O(17)              0.00522      -3.16567      -1.12959      -1.05595

 Normal termination of Gaussian 16 at Wed Apr  9 00:33:59 2025.
