 Gaussian 16, Revision C.01,

 ----------------------------------------------------------------------
 #t hf aug-cc-pvdz symm=none int=(grid=ultrafine) guess=(read,tcheck) s
 table=(opt,rrhf)
 ----------------------------------------------------------------------
 -----
 title
 -----
 Symbolic Z-matrix:
 Charge =  0 Multiplicity = 1

 SCF Done:  E(RHF) =  -1729.56097142     A.U. after   15 cycles
 Normal termination of Gaussian 16 at Wed Apr  9 00:19:03 2025.
 Gaussian 16:  ES64L-G16RevC.01  3-Jul-2019

 ----------------------------------------------------------------------
 #t hf aug-cc-pvdz iop(5/13=1,5/36=2,99/5=2) pseudo=read geom=check gue
 ss=(read,tcheck) scf=(maxcycle=1)
 ----------------------------------------------------------------------
 -----
 title
 -----
 Structure from the checkpoint file:  "BDE49_nonexpt_2576_mol1.chk"
 Charge =  0 Multiplicity = 1

                         Standard orientation:
 ---------------------------------------------------------------------
 Center     Atomic      Atomic             Coordinates (Angstroms)
 Number     Number       Type             X           Y           Z
 ---------------------------------------------------------------------
      1         17           0       -2.508100   -0.635141    0.000089
      2         16           0       -1.186498    1.015972   -0.000002
      3          6           0        0.427384    0.386322   -0.000133
      4         16           0        1.507904    1.634402    0.000055
      5         16           0        0.701985   -1.326287   -0.000095
      6          6           0        2.517743   -1.399444   -0.000011
      7          1           0        2.758302   -2.463165    0.000014
      8          1           0        2.917147   -0.923035    0.893750
      9          1           0        2.917226   -0.923058   -0.893750
 ---------------------------------------------------------------------

 SCF Done:  E(RHF) =  -1730.86228161     A.U. after    2 cycles

 The electronic state is 1-A.
 Alpha  occ. eigenvalues --  -99.91958 -75.78043 -75.73819 -75.68252 -13.20906
 Alpha  occ. eigenvalues --  -13.17242 -13.15629 -13.13888 -13.13063 -13.09112
 Alpha  occ. eigenvalues --  -13.06586 -13.04202 -12.99852 -11.51574 -11.42271
 Alpha  occ. eigenvalues --  -10.49006  -9.68758  -9.68239  -9.68044  -8.11848
 Alpha  occ. eigenvalues --   -8.08085  -8.02390  -1.38570  -1.29659  -1.18306
 Alpha  occ. eigenvalues --   -1.07137  -1.00017  -0.76337  -0.64413  -0.61543
 Alpha  occ. eigenvalues --   -0.58804  -0.57935  -0.56290  -0.50351  -0.47322
 Alpha  occ. eigenvalues --   -0.44801  -0.39571  -0.26756  -0.24442  -0.23588
 Alpha virt. eigenvalues --    0.01735   0.04171   0.04441   0.04679   0.06604
 Alpha virt. eigenvalues --    0.07495   0.07803   0.08296   0.10505   0.12357
 Alpha virt. eigenvalues --    0.13043   0.14063   0.14219   0.14871   0.15084

 Mulliken charges:
               1
     1  Cl  -0.434962
     2  S    1.159450
     3  C   -2.488578
     4  S    0.993600
     5  S    1.411598
     6  C   -4.801138
     7  H    1.250463
     8  H    1.454814
     9  H    1.454753
 Sum of Mulliken charges =  -0.00000

 Dipole moment (field-independent basis, Debye):
    X=              3.3809    Y=              1.1986    Z=              0.0006  Tot=              3.5871

 Test job not archived.
 1\1\GINC-SE058\SP\RHF\Aug-CC-pVDZ\C2H3Cl1S3\OHZDE\09-Apr-2025\0\\#t hf
  aug-cc-pvdz iop(5/13=1,5/36=2,99/5=2) pseudo=read geom=check guess=(r
 ead,tcheck) scf=(maxcycle=1)\\title\\0,1\Cl,0,2.5081,-0.63514,-0.00008
 9\S,0,1.186498,1.015972,0.000002\C,0,-0.427384,0.386322,0.000133\S,0,-
 1.507904,1.634402,-0.000055\S,0,-0.701985,-1.326287,0.000095\C,0,-2.51
 7743,-1.399445,0.000011\H,0,-2.758301,-2.463166,-0.000014\H,0,-2.91714
 7,-0.923036,-0.89375\H,0,-2.917226,-0.923059,0.89375\\Version=ES64L-G1
 6RevC.01\State=1-A\HF=-1730.8622816\RMSD=1.243e-01\Dipole=-1.3301573,0

 Normal termination of Gaussian 16 at Wed Apr  9 00:19:07 2025.
