 Gaussian 16, Revision C.01,

 ----------------------------------------------------------------------
 #t hf aug-cc-pvdz symm=none int=(grid=ultrafine) guess=(read,tcheck) s
 table=(opt,rrhf)
 ----------------------------------------------------------------------
 -----
 title
 -----
 Symbolic Z-matrix:
 Charge =  0 Multiplicity = 1

 SCF Done:  E(RHF) =  -611.761877026     A.U. after   14 cycles
 Normal termination of Gaussian 16 at Tue Apr  8 23:18:49 2025.
 Gaussian 16:  ES64L-G16RevC.01  3-Jul-2019

 ----------------------------------------------------------------------
 #t hf aug-cc-pvdz iop(5/13=1,5/36=2,99/5=2) pseudo=read geom=check gue
 ss=(read,tcheck) scf=(maxcycle=1)
 ----------------------------------------------------------------------
 -----
 title
 -----
 Structure from the checkpoint file:  "BDE49_nonexpt_1050_mol1.chk"
 Charge =  0 Multiplicity = 1

                         Standard orientation:
 ---------------------------------------------------------------------
 Center     Atomic      Atomic             Coordinates (Angstroms)
 Number     Number       Type             X           Y           Z
 ---------------------------------------------------------------------
      1         17           0       -1.332912   -0.165675    0.000000
      2          8           0        0.000000    0.947428    0.000000
      3          6           0        1.248021    0.376347    0.000000
      4          6           0        1.610339   -0.896902    0.000000
      5          1           0        1.949617    1.206450    0.000000
      6          1           0        0.895748   -1.707709    0.000000
      7          1           0        2.663974   -1.138358    0.000000
 ---------------------------------------------------------------------

 SCF Done:  E(RHF) =  -612.690135350     A.U. after    2 cycles

 The electronic state is 1-A'.
 Alpha  occ. eigenvalues --  -99.94862 -21.14059 -11.46274 -11.38644 -10.51600
 Alpha  occ. eigenvalues --   -9.71455  -9.70704  -9.70478  -1.81150  -1.27129
 Alpha  occ. eigenvalues --   -1.11293  -0.83270  -0.69070  -0.63452  -0.60686
 Alpha  occ. eigenvalues --   -0.56106  -0.53766  -0.47632  -0.45430  -0.31077
 Alpha virt. eigenvalues --    0.03064   0.03991   0.05675   0.06396   0.09824
 Alpha virt. eigenvalues --    0.10576   0.12716   0.12889   0.14057   0.15138
 Alpha virt. eigenvalues --    0.15342   0.16070   0.17104   0.19212   0.20271

 Mulliken charges:
               1
     1  Cl   0.452815
     2  O   -2.413156
     3  C    0.504429
     4  C   -2.692645
     5  H    1.403965
     6  H    1.402153
     7  H    1.342437
 Sum of Mulliken charges =  -0.00000

 Dipole moment (field-independent basis, Debye):
    X=              1.9691    Y=              1.0323    Z=              0.0000  Tot=              2.2233

 Test job not archived.
 1\1\GINC-SE150\SP\RHF\Aug-CC-pVDZ\C2H3Cl1O1\OHZDE\08-Apr-2025\0\\#t hf
  aug-cc-pvdz iop(5/13=1,5/36=2,99/5=2) pseudo=read geom=check guess=(r
 ead,tcheck) scf=(maxcycle=1)\\title\\0,1\Cl,0,-1.332912,-0.165675,0.\O
 ,0,0.,0.947428,0.\C,0,1.248021,0.376347,0.\C,0,1.610339,-0.896902,0.\H
 ,0,1.949617,1.20645,0.\H,0,0.895748,-1.707709,0.\H,0,2.663974,-1.13835
 8,0.\\Version=ES64L-G16RevC.01\State=1-A'\HF=-612.6901354\RMSD=3.349e-
 01\Dipole=0.7747222,0.4061475,0.\Quadrupole=1.3946982,1.2537234,-2.648
 4216,1.7134663,0.,0.\PG=CS [SG(C2H3Cl1O1)]\\@

 Normal termination of Gaussian 16 at Tue Apr  8 23:18:51 2025.
