 Gaussian 16, Revision C.01,

 ----------------------------------------------------------------------
 #t hf aug-cc-pvdz symm=none int=(grid=ultrafine) guess=(read,tcheck) s
 table=(opt,rrhf)
 ----------------------------------------------------------------------
 -----
 title
 -----
 Symbolic Z-matrix:
 Charge =  0 Multiplicity = 1

 SCF Done:  E(RHF) =  -540.363267689     A.U. after   12 cycles
 Normal termination of Gaussian 16 at Wed Apr  9 00:02:19 2025.
 Gaussian 16:  ES64L-G16RevC.01  3-Jul-2019

 ----------------------------------------------------------------------
 #t hf aug-cc-pvdz iop(5/13=1,5/36=2,99/5=2) pseudo=read geom=check gue
 ss=(read,tcheck) scf=(maxcycle=1)
 ----------------------------------------------------------------------
 -----
 title
 -----
 Structure from the checkpoint file:  "BDE49_nonexpt_2128_mol1.chk"
 Charge =  0 Multiplicity = 1

                         Standard orientation:
 ---------------------------------------------------------------------
 Center     Atomic      Atomic             Coordinates (Angstroms)
 Number     Number       Type             X           Y           Z
 ---------------------------------------------------------------------
      1         14           0        0.294352   -1.205542    0.000000
      2          6           0       -0.415735   -0.315156    1.497370
      3          6           0       -0.415735    1.217894    1.295320
      4          6           0       -1.112508    1.673742   -0.000000
      5          6           0       -0.415735    1.217894   -1.295320
      6          6           0       -0.415735   -0.315156   -1.497370
      7          7           0        2.017246   -1.004061   -0.000000
      8          1           0        2.545628   -1.243083    0.828003
      9          1           0        2.545628   -1.243083   -0.828003
     10          1           0        0.125024   -0.581213    2.413107
     11          1           0       -1.445211   -0.667928    1.643443
     12          1           0        0.618009    1.582449    1.285258
     13          1           0       -0.902963    1.701202    2.149952
     14          1           0       -1.172307    2.767576   -0.000000
     15          1           0       -2.149885    1.311851    0.000000
     16          1           0        0.618009    1.582449   -1.285258
     17          1           0       -0.902963    1.701202   -2.149952
     18          1           0       -1.445211   -0.667928   -1.643443
     19          1           0        0.125024   -0.581213   -2.413107
     20          1           0       -0.147742   -2.631573    0.000000
 ---------------------------------------------------------------------

 SCF Done:  E(RHF) =  -541.804397495     A.U. after    2 cycles

 The electronic state is 1-A'.
 Alpha  occ. eigenvalues --  -76.18859 -15.71702 -11.41956 -11.40415 -11.36818
 Alpha  occ. eigenvalues --  -11.34071 -11.32923  -5.53127  -2.18330  -2.16999
 Alpha  occ. eigenvalues --   -2.16015  -1.26184  -1.23002  -1.10161  -0.99297
 Alpha  occ. eigenvalues --   -0.86497  -0.80479  -0.69863  -0.63957  -0.63107
 Alpha  occ. eigenvalues --   -0.59837  -0.59133  -0.55806  -0.52900  -0.49196
 Alpha  occ. eigenvalues --   -0.46889  -0.44885  -0.44105  -0.43981  -0.39130
 Alpha  occ. eigenvalues --   -0.35998  -0.34553
 Alpha virt. eigenvalues --    0.03792   0.05259   0.05410   0.05818   0.05958
 Alpha virt. eigenvalues --    0.05991   0.06085   0.06137   0.06818   0.08243
 Alpha virt. eigenvalues --    0.08373   0.08725   0.08805   0.09247   0.10211

 Mulliken charges:
               1
     1  Si   6.056236
     2  C   -3.693290
     3  C   -2.636372
     4  C   -3.198224
     5  C   -2.636372
     6  C   -3.693290
     7  N   -2.454849
     8  H    0.704577
     9  H    0.704577
    10  H    1.307819
    11  H    1.277265
    12  H    1.419538
    13  H    1.248034
    14  H    1.266959
    15  H    1.497018
    16  H    1.419538
    17  H    1.248034
    18  H    1.277265
    19  H    1.307819
    20  H   -2.422282
 Sum of Mulliken charges =  -0.00000

 Dipole moment (field-independent basis, Debye):
    X=              0.7547    Y=              0.1647    Z=              0.0000  Tot=              0.7725

 Test job not archived.
 1\1\GINC-SE335\SP\RHF\Aug-CC-pVDZ\C5H13N1Si1\OHZDE\09-Apr-2025\0\\#t h
 f aug-cc-pvdz iop(5/13=1,5/36=2,99/5=2) pseudo=read geom=check guess=(
 read,tcheck) scf=(maxcycle=1)\\title\\0,1\Si,0,-0.294352,1.205542,0.\C
 ,0,0.415735,0.315156,1.49737\C,0,0.415735,-1.217894,1.29532\C,0,1.1125
 08,-1.673742,0.\C,0,0.415735,-1.217894,-1.29532\C,0,0.415735,0.315156,
 -1.49737\N,0,-2.017246,1.004061,0.\H,0,-2.545628,1.243083,0.828003\H,0
 ,-2.545628,1.243083,-0.828003\H,0,-0.125024,0.581213,2.413107\H,0,1.44
 5211,0.667928,1.643443\H,0,-0.618009,-1.582449,1.285258\H,0,0.902963,-

 Normal termination of Gaussian 16 at Wed Apr  9 00:02:25 2025.
