 Gaussian 16, Revision C.01,

 ----------------------------------------------------------------------
 #t hf aug-cc-pvdz symm=none int=(grid=ultrafine) guess=(read,tcheck) s
 table=(opt,rrhf)
 ----------------------------------------------------------------------
 -----
 title
 -----
 Symbolic Z-matrix:
 Charge =  0 Multiplicity = 1

 SCF Done:  E(RHF) =  -1749.25574901     A.U. after   17 cycles
 Normal termination of Gaussian 16 at Wed Apr  9 00:30:19 2025.
 Gaussian 16:  ES64L-G16RevC.01  3-Jul-2019

 ----------------------------------------------------------------------
 #t hf aug-cc-pvdz iop(5/13=1,5/36=2,99/5=2) pseudo=read geom=check gue
 ss=(read,tcheck) scf=(maxcycle=1)
 ----------------------------------------------------------------------
 -----
 title
 -----
 Structure from the checkpoint file:  "BDE49_nonexpt_2721_mol1.chk"
 Charge =  0 Multiplicity = 1

                         Standard orientation:
 ---------------------------------------------------------------------
 Center     Atomic      Atomic             Coordinates (Angstroms)
 Number     Number       Type             X           Y           Z
 ---------------------------------------------------------------------
      1          6           0        3.690911   -0.711502    0.581384
      2          8           0        3.033803   -0.867294    1.564241
      3         16           0        3.285507    0.531303   -0.723104
      4         16           0        1.546651    1.365932    0.004588
      5          6           0        0.317838    0.069937   -0.459135
      6          8           0        0.653533   -0.981117   -0.928337
      7          6           0        4.916423   -1.512504    0.205911
      8          1           0        5.601624   -0.950589   -0.430925
      9          1           0        4.586609   -2.399926   -0.342083
     10          1           0        5.422677   -1.833167    1.116938
     11          6           0       -1.100206    0.430840   -0.154420
     12          6           0       -1.509459    1.726225    0.177476
     13          6           0       -2.851430    1.982151    0.440519
     14          6           0       -3.792421    0.958345    0.375910
     15          6           0       -3.373347   -0.327211    0.039254
     16          6           0       -2.041733   -0.603183   -0.229510
     17          1           0       -3.171085    2.985569    0.694737
     18          1           0       -0.793737    2.537599    0.218407
     19          1           0       -4.837819    1.149736    0.580590
     20          1           0       -1.717478   -1.600195   -0.494599
     21         17           0       -4.555497   -1.619770   -0.046964
 ---------------------------------------------------------------------

 SCF Done:  E(RHF) =  -1752.18307185     A.U. after    2 cycles

 The electronic state is 1-A.
 Alpha  occ. eigenvalues --  -99.90442 -75.73099 -75.72737 -21.07979 -21.07914
 Alpha  occ. eigenvalues --  -13.20858 -13.15699 -13.14447 -13.12272 -13.07177
 Alpha  occ. eigenvalues --  -13.06376 -11.54546 -11.53617 -11.52033 -11.48040
 Alpha  occ. eigenvalues --  -11.46826 -11.45729 -11.44677 -11.40884 -11.40382
 Alpha  occ. eigenvalues --  -10.47784  -9.67821  -9.66930  -9.66742  -8.07106
 Alpha  occ. eigenvalues --   -8.06788  -1.74385  -1.73517  -1.41801  -1.30407
 Alpha  occ. eigenvalues --   -1.25189  -1.15625  -1.13011  -1.10497  -1.03342
 Alpha  occ. eigenvalues --   -0.93535  -0.89220  -0.80012  -0.75196  -0.73152
 Alpha  occ. eigenvalues --   -0.66501  -0.63983  -0.63052  -0.61837  -0.61601
 Alpha  occ. eigenvalues --   -0.60741  -0.59003  -0.57711  -0.54964  -0.54137
 Alpha  occ. eigenvalues --   -0.50701  -0.50108  -0.49551  -0.47800  -0.47447
 Alpha  occ. eigenvalues --   -0.45722  -0.37690  -0.35613  -0.34883  -0.29960
 Alpha  occ. eigenvalues --   -0.29137  -0.26598  -0.25382
 Alpha virt. eigenvalues --    0.02779   0.02917   0.05171   0.05285   0.06068
 Alpha virt. eigenvalues --    0.06436   0.06792   0.07194   0.07567   0.08030
 Alpha virt. eigenvalues --    0.08467   0.09423   0.09968   0.10427   0.11084

 Mulliken charges:
               1
     1  C    3.242063
     2  O   -2.981493
     3  S   -0.105913
     4  S   -0.111864
     5  C    1.053166
     6  O   -3.610109
     7  C   -4.342772
     8  H    1.479329
     9  H    1.325595
    10  H    1.247037
    11  C    4.371890
    12  C   -0.257010
    13  C   -2.312307
    14  C   -2.670528
    15  C   -1.778143
    16  C   -0.859889
    17  H    1.589019
    18  H    2.090118
    19  H    1.767837
    20  H    1.718100
    21  Cl  -0.854127
 Sum of Mulliken charges =   0.00000

 Dipole moment (field-independent basis, Debye):
    X=              1.3337    Y=              2.5772    Z=             -0.1701  Tot=              2.9069

 Test job not archived.
 1\1\GINC-SE125\SP\RHF\Aug-CC-pVDZ\C9H7Cl1O2S2\OHZDE\09-Apr-2025\0\\#t
 hf aug-cc-pvdz iop(5/13=1,5/36=2,99/5=2) pseudo=read geom=check guess=
 (read,tcheck) scf=(maxcycle=1)\\title\\0,1\C,0,3.690911,-0.711502,0.58
 1384\O,0,3.033803,-0.867294,1.564241\S,0,3.285507,0.531303,-0.723104\S
 ,0,1.546651,1.365932,0.004588\C,0,0.317838,0.069937,-0.459135\O,0,0.65
 3533,-0.981117,-0.928337\C,0,4.916423,-1.512504,0.205911\H,0,5.601624,
 -0.950589,-0.430925\H,0,4.586609,-2.399926,-0.342083\H,0,5.422677,-1.8
 33167,1.116938\C,0,-1.100206,0.43084,-0.15442\C,0,-1.509459,1.726225,0

 Normal termination of Gaussian 16 at Wed Apr  9 00:30:37 2025.
