 Gaussian 16, Revision C.01,

 ----------------------------------------------------------------------
 #t hf aug-cc-pvdz symm=none int=(grid=ultrafine) guess=(read,tcheck) s
 table=(opt,rrhf)
 ----------------------------------------------------------------------
 -----
 title
 -----
 Symbolic Z-matrix:
 Charge =  0 Multiplicity = 1

 SCF Done:  E(RHF) =  -469.248461164     A.U. after   13 cycles
 Normal termination of Gaussian 16 at Wed Apr  9 00:36:05 2025.
 Gaussian 16:  ES64L-G16RevC.01  3-Jul-2019

 ----------------------------------------------------------------------
 #t hf aug-cc-pvdz iop(5/13=1,5/36=2,99/5=2) pseudo=read geom=check gue
 ss=(read,tcheck) scf=(maxcycle=1)
 ----------------------------------------------------------------------
 -----
 title
 -----
 Structure from the checkpoint file:  "BDE49_nonexpt_440_mol1.chk"
 Charge =  0 Multiplicity = 1

                         Standard orientation:
 ---------------------------------------------------------------------
 Center     Atomic      Atomic             Coordinates (Angstroms)
 Number     Number       Type             X           Y           Z
 ---------------------------------------------------------------------
      1          5           0       -0.000001    1.378821   -0.015111
      2          9           0       -0.000000    2.694935    0.213605
      3          8           0       -1.204424    0.760555   -0.120573
      4          8           0        1.204424    0.760556   -0.120574
      5          6           0        0.000001   -1.337455    0.158700
      6          6           0        1.262101   -0.658498   -0.373032
      7          6           0       -1.262101   -0.658498   -0.373032
      8          6           0       -2.544990   -1.186330    0.248346
      9          1           0       -2.524011   -1.055805    1.333303
     10          1           0       -2.673984   -2.248808    0.024801
     11          1           0       -3.404558   -0.640470   -0.145003
     12          1           0       -1.307882   -0.788355   -1.461740
     13          1           0        0.000000   -1.295386    1.254687
     14          1           0       -0.000000   -2.392488   -0.131091
     15          6           0        2.544989   -1.186330    0.248346
     16          1           0        1.307882   -0.788356   -1.461740
     17          1           0        2.524010   -1.055803    1.333303
     18          1           0        3.404558   -0.640470   -0.145003
     19          1           0        2.673985   -2.248807    0.024802
 ---------------------------------------------------------------------

 SCF Done:  E(RHF) =  -471.285489129     A.U. after    2 cycles

 The electronic state is 1-A.
 Alpha  occ. eigenvalues --  -29.22204 -21.02825 -21.02787 -11.47897 -11.46673
 Alpha  occ. eigenvalues --  -11.42290 -11.39109 -11.36938  -7.67541  -1.87204
 Alpha  occ. eigenvalues --   -1.71383  -1.25679  -1.11661  -1.02619  -0.94014
 Alpha  occ. eigenvalues --   -0.88188  -0.79447  -0.68210  -0.65513  -0.65146
 Alpha  occ. eigenvalues --   -0.63242  -0.57060  -0.55613  -0.53882  -0.53772
 Alpha  occ. eigenvalues --   -0.52095  -0.51775  -0.50162  -0.46846  -0.42773
 Alpha  occ. eigenvalues --   -0.41155  -0.33833  -0.33083  -0.31662  -0.25205
 Alpha virt. eigenvalues --    0.03217   0.04425   0.04737   0.04767   0.05327
 Alpha virt. eigenvalues --    0.05664   0.05839   0.06005   0.06239   0.07323
 Alpha virt. eigenvalues --    0.07871   0.08385   0.08841   0.09027   0.13096

 Mulliken charges:
               1
     1  B    5.225342
     2  F   -1.477695
     3  O   -4.114390
     4  O   -4.114380
     5  C   -3.572920
     6  C    1.280267
     7  C    1.280270
     8  C   -4.113879
     9  H    1.228530
    10  H    1.257252
    11  H    1.159083
    12  H    1.768301
    13  H    1.388103
    14  H    1.506830
    15  C   -4.113879
    16  H    1.768300
    17  H    1.228529
    18  H    1.159082
    19  H    1.257253
 Sum of Mulliken charges =   0.00000

 Dipole moment (field-independent basis, Debye):
    X=              0.0000    Y=             -0.3611    Z=             -0.0480  Tot=              0.3643

 Test job not archived.
 1\1\GINC-SE132\SP\RHF\Aug-CC-pVDZ\C5H10B1F1O2\OHZDE\09-Apr-2025\0\\#t
 hf aug-cc-pvdz iop(5/13=1,5/36=2,99/5=2) pseudo=read geom=check guess=
 (read,tcheck) scf=(maxcycle=1)\\title\\0,1\B,0,0.,1.378821,-0.015111\F
 ,0,0.000001,2.694935,0.213605\O,0,-1.204424,0.760556,-0.120573\O,0,1.2
 04424,0.760556,-0.120574\C,0,0.,-1.337455,0.1587\C,0,1.262101,-0.65849
 8,-0.373032\C,0,-1.262101,-0.658497,-0.373032\C,0,-2.54499,-1.186329,0
 .248346\H,0,-2.524011,-1.055804,1.333303\H,0,-2.673985,-2.248807,0.024
 801\H,0,-3.404558,-0.640469,-0.145003\H,0,-1.307882,-0.788354,-1.46174

 Normal termination of Gaussian 16 at Wed Apr  9 00:36:14 2025.
