 Gaussian 16, Revision C.01,

 ----------------------------------------------------------------------
 #t hf aug-cc-pvdz symm=none int=(grid=ultrafine) guess=(read,tcheck) s
 table=(opt,rrhf)
 ----------------------------------------------------------------------
 -----
 title
 -----
 Symbolic Z-matrix:
 Charge =  0 Multiplicity = 1

 SCF Done:  E(RHF) =  -806.989742185     A.U. after   14 cycles
 Normal termination of Gaussian 16 at Tue Apr  8 23:21:29 2025.
 Gaussian 16:  ES64L-G16RevC.01  3-Jul-2019

 ----------------------------------------------------------------------
 #t hf aug-cc-pvdz iop(5/13=1,5/36=2,99/5=2) pseudo=read geom=check gue
 ss=(read,tcheck) scf=(maxcycle=1)
 ----------------------------------------------------------------------
 -----
 title
 -----
 Structure from the checkpoint file:  "BDE49_nonexpt_1094_mol1.chk"
 Charge =  0 Multiplicity = 1

                         Standard orientation:
 ---------------------------------------------------------------------
 Center     Atomic      Atomic             Coordinates (Angstroms)
 Number     Number       Type             X           Y           Z
 ---------------------------------------------------------------------
      1          6           0        0.648671   -0.984811    0.644411
      2          6           0        1.907384   -1.493269   -0.071640
      3          6           0        3.016643   -0.432144   -0.083782
      4          6           0        2.520129    0.891595   -0.682193
      5          6           0        1.256642    1.398048    0.029378
      6          6           0       -1.087664    0.865739    0.764040
      7          6           0        0.143317    0.334144    0.037105
      8          8           0       -2.184263   -0.058844    0.843303
      9         17           0       -2.965611   -0.269702   -0.699148
     10          1           0        0.878072   -0.820671    1.706707
     11          1           0       -0.144931   -1.735429    0.610189
     12          1           0        1.651668   -1.761993   -1.104625
     13          1           0        2.265057   -2.410198    0.407186
     14          1           0        3.884790   -0.795707   -0.642731
     15          1           0        3.359094   -0.257008    0.944442
     16          1           0        2.297514    0.745737   -1.746837
     17          1           0        3.306771    1.650993   -0.630397
     18          1           0        0.897957    2.315748   -0.449878
     19          1           0        1.508373    1.663651    1.065377
     20          1           0       -1.431405    1.812945    0.334438
     21          1           0       -0.870345    1.027561    1.827140
     22          1           0       -0.143859    0.144242   -1.005833
 ---------------------------------------------------------------------

 SCF Done:  E(RHF) =  -808.945463133     A.U. after    2 cycles

 The electronic state is 1-A.
 Alpha  occ. eigenvalues --  -99.92732 -21.10808 -11.45861 -11.44049 -11.43317
 Alpha  occ. eigenvalues --  -11.42219 -11.38000 -11.37459 -11.34229 -10.49490
 Alpha  occ. eigenvalues --   -9.69420  -9.68673  -9.68515  -1.77179  -1.32625
 Alpha  occ. eigenvalues --   -1.24725  -1.13034  -1.10384  -0.96618  -0.88586
 Alpha  occ. eigenvalues --   -0.85067  -0.78747  -0.67697  -0.65964  -0.62725
 Alpha  occ. eigenvalues --   -0.61808  -0.60503  -0.59516  -0.57359  -0.52681
 Alpha  occ. eigenvalues --   -0.52378  -0.51963  -0.48235  -0.47087  -0.46383
 Alpha  occ. eigenvalues --   -0.44679  -0.43466  -0.39487  -0.38076  -0.33115
 Alpha virt. eigenvalues --    0.04060   0.04327   0.04937   0.05054   0.05304
 Alpha virt. eigenvalues --    0.05486   0.06017   0.06241   0.06861   0.07225
 Alpha virt. eigenvalues --    0.08416   0.08527   0.08679   0.09342   0.11013

 Mulliken charges:
               1
     1  C   -2.977260
     2  C   -3.020644
     3  C   -2.661604
     4  C   -3.043312
     5  C   -3.517218
     6  C   -1.433392
     7  C    0.188577
     8  O   -2.115094
     9  Cl   0.355049
    10  H    1.417563
    11  H    1.463243
    12  H    1.404386
    13  H    1.240999
    14  H    1.348124
    15  H    1.388433
    16  H    1.403838
    17  H    1.262026
    18  H    1.451131
    19  H    1.379597
    20  H    1.360490
    21  H    1.270763
    22  H    1.834304
 Sum of Mulliken charges =  -0.00000

 Dipole moment (field-independent basis, Debye):
    X=              2.3321    Y=              0.8164    Z=              1.7103  Tot=              3.0050

 Test job not archived.
 1\1\GINC-SE329\SP\RHF\Aug-CC-pVDZ\C7H13Cl1O1\OHZDE\08-Apr-2025\0\\#t h
 f aug-cc-pvdz iop(5/13=1,5/36=2,99/5=2) pseudo=read geom=check guess=(
 read,tcheck) scf=(maxcycle=1)\\title\\0,1\C,0,0.648671,-0.984811,0.644
 411\C,0,1.907384,-1.493269,-0.07164\C,0,3.016643,-0.432144,-0.083782\C
 ,0,2.520129,0.891595,-0.682193\C,0,1.256642,1.398048,0.029378\C,0,-1.0
 87664,0.865739,0.76404\C,0,0.143317,0.334144,0.037105\O,0,-2.184263,-0
 .058844,0.843303\Cl,0,-2.965611,-0.269702,-0.699148\H,0,0.878072,-0.82
 0671,1.706707\H,0,-0.144931,-1.735429,0.610189\H,0,1.651668,-1.761993,

 Normal termination of Gaussian 16 at Tue Apr  8 23:21:41 2025.
