 Gaussian 16, Revision C.01,

 ----------------------------------------------------------------------
 #t hf aug-cc-pvdz symm=none int=(grid=ultrafine) guess=(read,tcheck) s
 table=(opt,rrhf)
 ----------------------------------------------------------------------
 -----
 title
 -----
 Symbolic Z-matrix:
 Charge =  0 Multiplicity = 1

 SCF Done:  E(RHF) =  -218.322133405     A.U. after   13 cycles
 Normal termination of Gaussian 16 at Wed Apr  9 00:47:56 2025.
 Gaussian 16:  ES64L-G16RevC.01  3-Jul-2019

 ----------------------------------------------------------------------
 #t hf aug-cc-pvdz iop(5/13=1,5/36=2,99/5=2) pseudo=read geom=check gue
 ss=(read,tcheck) scf=(maxcycle=1)
 ----------------------------------------------------------------------
 -----
 title
 -----
 Structure from the checkpoint file:  "BDE49_nonexpt_84_mol1.chk"
 Charge =  0 Multiplicity = 1

                         Standard orientation:
 ---------------------------------------------------------------------
 Center     Atomic      Atomic             Coordinates (Angstroms)
 Number     Number       Type             X           Y           Z
 ---------------------------------------------------------------------
      1          5           0        2.396053   -0.635817    0.000093
      2          5           0        1.325414    0.637449   -0.001668
      3          7           0       -0.083649    0.482788    0.002104
      4          6           0       -1.186091    0.014824    0.000462
      5          8           0       -2.286206   -0.379010   -0.000773
      6          1           0        2.818118   -1.107335   -1.013939
      7          1           0        2.822371   -1.099884    1.015815
      8          1           0        1.743912    1.762676   -0.005317
 ---------------------------------------------------------------------

 SCF Done:  E(RHF) =  -219.245615580     A.U. after    2 cycles

 The electronic state is 1-A.
 Alpha  occ. eigenvalues --  -21.12595 -15.75809 -11.59863  -7.64398  -7.61033
 Alpha  occ. eigenvalues --   -1.77358  -1.40058  -0.98506  -0.82440  -0.63518
 Alpha  occ. eigenvalues --   -0.62107  -0.60556  -0.56906  -0.49351  -0.45303
 Alpha  occ. eigenvalues --   -0.37902  -0.31944
 Alpha virt. eigenvalues --    0.01788   0.02417   0.02628   0.04510   0.06883
 Alpha virt. eigenvalues --    0.07476   0.08573   0.10133   0.10584   0.11277
 Alpha virt. eigenvalues --    0.12222   0.12819   0.13100   0.13559   0.13664

 Mulliken charges:
               1
     1  B    3.517712
     2  B    4.313772
     3  N   -2.332057
     4  C    4.491833
     5  O   -2.490390
     6  H   -2.170164
     7  H   -2.171105
     8  H   -3.159601
 Sum of Mulliken charges =  -0.00000

 Dipole moment (field-independent basis, Debye):
    X=             -0.1954    Y=             -0.4697    Z=             -0.0031  Tot=              0.5087

 Test job not archived.
 1\1\GINC-SE455\SP\RHF\Aug-CC-pVDZ\C1H3B2N1O1\OHZDE\09-Apr-2025\0\\#t h
 f aug-cc-pvdz iop(5/13=1,5/36=2,99/5=2) pseudo=read geom=check guess=(
 read,tcheck) scf=(maxcycle=1)\\title\\0,1\B,0,2.396053,-0.635817,0.000
 093\B,0,1.325414,0.637449,-0.001668\N,0,-0.083649,0.482788,0.002104\C,
 0,-1.186091,0.014824,0.000462\O,0,-2.286206,-0.37901,-0.000773\H,0,2.8
 18118,-1.107335,-1.013939\H,0,2.822371,-1.099884,1.015815\H,0,1.743912
 ,1.762676,-0.005317\\Version=ES64L-G16RevC.01\State=1-A\HF=-219.245615
 6\RMSD=1.723e-01\Dipole=-0.07687,-0.1847984,-0.0012354\Quadrupole=-0.0

 Normal termination of Gaussian 16 at Wed Apr  9 00:47:58 2025.
