 Gaussian 16, Revision C.01,

 ----------------------------------------------------------------------
 #t hf aug-cc-pvdz symm=none int=(grid=ultrafine) guess=(read,tcheck) s
 table=opt
 ----------------------------------------------------------------------
 -----
 title
 -----
 Symbolic Z-matrix:
 Charge =  0 Multiplicity = 2

 SCF Done:  E(UHF) =  -733.730293408     A.U. after   14 cycles
 Normal termination of Gaussian 16 at Tue Apr  8 23:23:56 2025.
 Gaussian 16:  ES64L-G16RevC.01  3-Jul-2019

 ----------------------------------------------------------------------
 #t hf aug-cc-pvdz iop(5/13=1,5/36=2,99/5=2) pseudo=read geom=check gue
 ss=(read,tcheck) scf=(maxcycle=1)
 ----------------------------------------------------------------------
 -----
 title
 -----
 Structure from the checkpoint file:  "BDE49_nonexpt_1216_mol3.chk"
 Charge =  0 Multiplicity = 2

                         Standard orientation:
 ---------------------------------------------------------------------
 Center     Atomic      Atomic             Coordinates (Angstroms)
 Number     Number       Type             X           Y           Z
 ---------------------------------------------------------------------
      1          6           0       -0.327960   -0.004434   -0.000007
      2         16           0        1.484992   -0.043140    0.000038
      3          9           0       -0.854070   -0.600744    1.079708
      4          9           0       -0.854126   -0.603414   -1.078226
      5          9           0       -0.713150    1.283807   -0.001546
 ---------------------------------------------------------------------

 SCF Done:  E(UHF) =  -735.090235560     A.U. after    2 cycles

 The electronic state is 2-A.
 Alpha  occ. eigenvalues --  -75.75848 -29.33360 -29.32913 -29.32864 -13.16852
 Alpha  occ. eigenvalues --  -13.09767 -13.07460 -11.60723  -8.09665  -1.45008
 Alpha  occ. eigenvalues --   -1.13050  -0.91493  -0.90446  -0.69299  -0.49988
 Alpha  occ. eigenvalues --   -0.45308  -0.45091  -0.42260  -0.39904  -0.33405
 Alpha  occ. eigenvalues --   -0.31254  -0.28096  -0.25529  -0.23623  -0.23100
 Alpha virt. eigenvalues --    0.06064   0.09495   0.11834   0.12685   0.13530
 Alpha virt. eigenvalues --    0.14014   0.14569   0.19013   0.21378   0.22295
 Alpha virt. eigenvalues --    0.22533   0.26767   0.26937   0.27978   0.29997

  Beta  occ. eigenvalues --  -75.74841 -29.33241 -29.32897 -29.32848 -13.16299
  Beta  occ. eigenvalues --  -13.06878 -13.03669 -11.60856  -8.08535  -1.44283
  Beta  occ. eigenvalues --   -1.05035  -0.90908  -0.90471  -0.67279  -0.49935
  Beta  occ. eigenvalues --   -0.45199  -0.45064  -0.39561  -0.39021  -0.30572
  Beta  occ. eigenvalues --   -0.28487  -0.27516  -0.23129  -0.22735
  Beta virt. eigenvalues --    0.02500   0.06290   0.09827   0.12820   0.13325
  Beta virt. eigenvalues --    0.14071   0.14852   0.15675   0.19308   0.22205
  Beta virt. eigenvalues --    0.22636   0.22656   0.27914   0.28259   0.28560

 Mulliken charges and spin densities:
               1          2
     1  C   -2.033922  -0.103629
     2  S    0.088599   1.108639
     3  F    0.648233  -0.000907
     4  F    0.648178  -0.000907
     5  F    0.648913  -0.003196
 Sum of Mulliken charges =  -0.00000   1.00000

 Dipole moment (field-independent basis, Debye):
    X=             -1.8839    Y=              0.1847    Z=             -0.0000  Tot=              1.8929
                          Isotropic Fermi Contact Couplings
        Atom                 a.u.       MegaHertz       Gauss      10(-4) cm-1
     1  C(13)             -0.01219     -13.69945      -4.88831      -4.56965
     2  S(33)              0.27454      94.29881      33.64816      31.45470
     3  F(19)              0.00044       1.83648       0.65530       0.61258
     4  F(19)              0.00044       1.83167       0.65359       0.61098
     5  F(19)              0.01661      69.90001      24.94206      23.31613
 --------------------------------------------------------
       Center         ----  Spin Dipole Couplings  ----
                      3XX-RR        3YY-RR        3ZZ-RR

 Normal termination of Gaussian 16 at Tue Apr  8 23:23:58 2025.
