 Gaussian 16, Revision C.01,

 ----------------------------------------------------------------------
 #t hf aug-cc-pvdz symm=none int=(grid=ultrafine) guess=(read,tcheck) s
 table=(opt,rrhf)
 ----------------------------------------------------------------------
 -----
 title
 -----
 Symbolic Z-matrix:
 Charge =  0 Multiplicity = 1

 SCF Done:  E(RHF) =  -884.013405727     A.U. after   13 cycles
 Normal termination of Gaussian 16 at Wed Apr  9 00:16:49 2025.
 Gaussian 16:  ES64L-G16RevC.01  3-Jul-2019

 ----------------------------------------------------------------------
 #t hf aug-cc-pvdz iop(5/13=1,5/36=2,99/5=2) pseudo=read geom=check gue
 ss=(read,tcheck) scf=(maxcycle=1)
 ----------------------------------------------------------------------
 -----
 title
 -----
 Structure from the checkpoint file:  "BDE49_nonexpt_2491_mol1.chk"
 Charge =  0 Multiplicity = 1

                         Standard orientation:
 ---------------------------------------------------------------------
 Center     Atomic      Atomic             Coordinates (Angstroms)
 Number     Number       Type             X           Y           Z
 ---------------------------------------------------------------------
      1          6           0        2.029784    1.927666    0.003443
      2         14           0        2.364358    0.080117    0.007356
      3          1           0        2.948236    2.471581    0.247983
      4          1           0        1.272486    2.200576    0.742763
      5          1           0        1.685145    2.260753   -0.978555
      6         16           0        0.699149   -1.159631   -0.577963
      7          6           0       -0.427707   -1.031466    0.893515
      8          6           0       -1.496297    0.060041    0.799620
      9          1           0        0.189646   -0.902248    1.784458
     10          1           0       -0.895123   -2.016316    0.968314
     11          6           0       -2.527375   -0.154394   -0.313086
     12          1           0       -1.015790    1.036036    0.670620
     13          1           0       -2.015246    0.096826    1.767333
     14          6           0       -3.589028    0.947705   -0.362128
     15          1           0       -3.014217   -1.126500   -0.166533
     16          1           0       -2.010643   -0.210842   -1.276159
     17          1           0       -4.142804    1.010769    0.580010
     18          1           0       -4.312979    0.765612   -1.160676
     19          1           0       -3.134387    1.926438   -0.544495
     20          1           0        2.806889   -0.329126    1.363993
     21          1           0        3.415128   -0.248426   -0.982825
 ---------------------------------------------------------------------

 SCF Done:  E(RHF) =  -885.443751139     A.U. after    2 cycles

 The electronic state is 1-A.
 Alpha  occ. eigenvalues --  -76.22815 -75.66015 -13.11180 -13.06744 -13.03263
 Alpha  occ. eigenvalues --  -11.43465 -11.40870 -11.37942 -11.35486 -11.34828
 Alpha  occ. eigenvalues --   -8.00133  -5.56327  -2.19732  -2.18375  -2.18286
 Alpha  occ. eigenvalues --   -1.26280  -1.13428  -1.04679  -1.01283  -0.89537
 Alpha  occ. eigenvalues --   -0.82194  -0.71801  -0.64612  -0.61223  -0.58710
 Alpha  occ. eigenvalues --   -0.56765  -0.56237  -0.55448  -0.51897  -0.47825
 Alpha  occ. eigenvalues --   -0.46897  -0.46055  -0.43817  -0.42910  -0.39316
 Alpha  occ. eigenvalues --   -0.31479  -0.24924
 Alpha virt. eigenvalues --    0.03624   0.04263   0.04587   0.05185   0.05574
 Alpha virt. eigenvalues --    0.05656   0.06159   0.06391   0.07103   0.07542
 Alpha virt. eigenvalues --    0.07962   0.08511   0.09042   0.09888   0.10078

 Mulliken charges:
               1
     1  C   -5.117146
     2  Si   6.291681
     3  H    1.275173
     4  H    1.476426
     5  H    1.261041
     6  S   -1.057378
     7  C   -3.698435
     8  C   -2.568882
     9  H    1.238144
    10  H    1.613857
    11  C   -3.312408
    12  H    2.057964
    13  H    1.381156
    14  C   -3.834265
    15  H    1.455484
    16  H    1.690826
    17  H    1.311759
    18  H    1.123504
    19  H    1.326305
    20  H   -1.879976
    21  H   -2.034830
 Sum of Mulliken charges =   0.00000

 Dipole moment (field-independent basis, Debye):
    X=             -1.4056    Y=             -0.2789    Z=             -0.4064  Tot=              1.4895

 Test job not archived.
 1\1\GINC-SE096\SP\RHF\Aug-CC-pVDZ\C5H14S1Si1\OHZDE\09-Apr-2025\0\\#t h
 f aug-cc-pvdz iop(5/13=1,5/36=2,99/5=2) pseudo=read geom=check guess=(
 read,tcheck) scf=(maxcycle=1)\\title\\0,1\C,0,2.029784,1.927666,0.0034
 43\Si,0,2.364358,0.080117,0.007356\H,0,2.948236,2.471581,0.247983\H,0,
 1.272486,2.200576,0.742763\H,0,1.685145,2.260753,-0.978555\S,0,0.69914
 9,-1.159631,-0.577963\C,0,-0.427707,-1.031466,0.893515\C,0,-1.496297,0
 .060041,0.79962\H,0,0.189646,-0.902248,1.784458\H,0,-0.895123,-2.01631
 6,0.968314\C,0,-2.527375,-0.154394,-0.313086\H,0,-1.01579,1.036036,0.6

 Normal termination of Gaussian 16 at Wed Apr  9 00:16:59 2025.
