 Gaussian 16, Revision C.01,

 ----------------------------------------------------------------------
 #t hf aug-cc-pvdz symm=none int=(grid=ultrafine) guess=(read,tcheck) s
 table=opt
 ----------------------------------------------------------------------
 -----
 title
 -----
 Symbolic Z-matrix:
 Charge =  0 Multiplicity = 2

 SCF Done:  E(UHF) =  -367.873572369     A.U. after   17 cycles

 1\1\GINC-SE455\Stability\UHF\Aug-CC-pVDZ\C8H18N1\OHZDE\08-Apr-2025\0\\
 #t hf aug-cc-pvdz symm=none int=(grid=ultrafine) guess=(read,tcheck) s
 table=opt\\title\\0,2\C,0,1.135284,-1.740515,0.027363\N,0,-0.219859,-1
 .401543,0.443275\C,0,-1.180895,-1.074633,-0.512247\H,0,-0.267242,-0.85
 9471,1.295458\C,0,-2.532114,-0.629887,-0.041516\H,0,-1.092664,-1.63205
 4,-1.439334\C,0,1.979492,-0.577499,-0.523497\H,0,1.054938,-2.521915,-0
 .735841\H,0,1.644918,-2.192461,0.885581\C,0,-2.581376,0.78521,0.579729
 \H,0,-2.929641,-1.34342,0.701718\H,0,-3.222456,-0.660461,-0.890905\C,0

 Normal termination of Gaussian 16 at Tue Apr  8 23:08:04 2025.
 Gaussian 16:  ES64L-G16RevC.01  3-Jul-2019

 ----------------------------------------------------------------------
 #t hf aug-cc-pvdz iop(5/13=1,5/36=2,99/5=2) pseudo=read geom=check gue
 ss=(read,tcheck) scf=(maxcycle=1)
 ----------------------------------------------------------------------
 -----
 title
 -----
 Structure from the checkpoint file:  "BDE49_expt_286_mol2.chk"
 Charge =  0 Multiplicity = 2

                         Standard orientation:
 ---------------------------------------------------------------------
 Center     Atomic      Atomic             Coordinates (Angstroms)
 Number     Number       Type             X           Y           Z
 ---------------------------------------------------------------------
      1          6           0        1.135284   -1.740515    0.027363
      2          7           0       -0.219859   -1.401543    0.443275
      3          6           0       -1.180895   -1.074633   -0.512247
      4          1           0       -0.267242   -0.859471    1.295458
      5          6           0       -2.532114   -0.629887   -0.041516
      6          1           0       -1.092664   -1.632054   -1.439334
      7          6           0        1.979492   -0.577499   -0.523497
      8          1           0        1.054938   -2.521915   -0.735841
      9          1           0        1.644918   -2.192461    0.885581
     10          6           0       -2.581376    0.785210    0.579729
     11          1           0       -2.929641   -1.343420    0.701718
     12          1           0       -3.222456   -0.660461   -0.890905
     13          6           0       -2.285791    1.903668   -0.422256
     14          1           0       -1.873347    0.845877    1.416169
     15          1           0       -3.572870    0.938251    1.020690
     16          1           0       -1.303540    1.767509   -0.881989
     17          1           0       -2.305890    2.886308    0.057487
     18          1           0       -3.027735    1.911062   -1.227415
     19          6           0        2.285981    0.514692    0.506306
     20          1           0        1.455342   -0.139467   -1.380429
     21          1           0        2.921902   -0.989943   -0.905885
     22          6           0        3.147318    1.648749   -0.056899
     23          1           0        2.793390    0.064750    1.369462
     24          1           0        1.346525    0.933372    0.884707
     25          1           0        4.111631    1.273445   -0.413405
     26          1           0        3.347148    2.412516    0.699615
     27          1           0        2.651208    2.138198   -0.900508
 ---------------------------------------------------------------------

 SCF Done:  E(UHF) =  -369.754800357     A.U. after    2 cycles

 The electronic state is 2-A.
 Alpha  occ. eigenvalues --  -15.72449 -11.43132 -11.42178 -11.40796 -11.39641
 Alpha  occ. eigenvalues --  -11.37341 -11.36612 -11.34399 -11.34046  -1.40521
 Alpha  occ. eigenvalues --   -1.22624  -1.18670  -1.06818  -1.01272  -0.91851
 Alpha  occ. eigenvalues --   -0.88208  -0.82495  -0.79717  -0.66721  -0.63753
 Alpha  occ. eigenvalues --   -0.62537  -0.60417  -0.59150  -0.58091  -0.56429
 Alpha  occ. eigenvalues --   -0.53497  -0.51887  -0.50898  -0.48885  -0.48244
 Alpha  occ. eigenvalues --   -0.45862  -0.45331  -0.44601  -0.43652  -0.42958
 Alpha  occ. eigenvalues --   -0.39018  -0.21895
 Alpha virt. eigenvalues --    0.04329   0.05013   0.05166   0.05239   0.05460
 Alpha virt. eigenvalues --    0.05549   0.05977   0.06289   0.06465   0.06877
 Alpha virt. eigenvalues --    0.07240   0.07561   0.07670   0.08726   0.09054

  Beta  occ. eigenvalues --  -15.71931 -11.43023 -11.41973 -11.40794 -11.39106
  Beta  occ. eigenvalues --  -11.37337 -11.35854 -11.34388 -11.33687  -1.38734
  Beta  occ. eigenvalues --   -1.22043  -1.18398  -1.05785  -1.00613  -0.91091
  Beta  occ. eigenvalues --   -0.86645  -0.82361  -0.77960  -0.66333  -0.62922
  Beta  occ. eigenvalues --   -0.61420  -0.59631  -0.58777  -0.57833  -0.56009
  Beta  occ. eigenvalues --   -0.52877  -0.51644  -0.50557  -0.48462  -0.46266
  Beta  occ. eigenvalues --   -0.45772  -0.44570  -0.44405  -0.43007  -0.42470
  Beta  occ. eigenvalues --   -0.33855
  Beta virt. eigenvalues --    0.04274   0.04906   0.05150   0.05222   0.05413
  Beta virt. eigenvalues --    0.05507   0.06000   0.06291   0.06477   0.06885
  Beta virt. eigenvalues --    0.07253   0.07558   0.07663   0.08616   0.09043

 Mulliken charges and spin densities:
               1          2
     1  C   -3.178857   0.002033
     2  N   -2.446469   0.076601
     3  C   -0.180361   1.271505
     4  H    0.677982  -0.009879
     5  C   -3.248342  -0.470042
     6  H    1.790782   0.013267
     7  C   -2.742846   0.006918
     8  H    1.486469   0.001596
     9  H    1.500708   0.008593
    10  C   -3.121915   0.099546
    11  H    1.295078   0.027569
    12  H    1.441893  -0.025217
    13  C   -3.796820   0.013792
    14  H    1.584596  -0.005512
    15  H    1.385924  -0.010196
    16  H    1.667404   0.001233
    17  H    1.223749   0.002988
    18  H    1.238825   0.004302
    19  C   -3.005869  -0.001200
    20  H    1.855036  -0.011131
    21  H    1.395447   0.000010
    22  C   -3.957561   0.004948
    23  H    1.414696  -0.000336
    24  H    1.968653  -0.004123
    25  H    1.291948   0.000012
    26  H    1.124711   0.000346
    27  H    1.335137   0.002376
 Sum of Mulliken charges =   0.00000   1.00000

 Dipole moment (field-independent basis, Debye):
    X=              0.5410    Y=             -0.0452    Z=              0.4727  Tot=              0.7199
                          Isotropic Fermi Contact Couplings
        Atom                 a.u.       MegaHertz       Gauss      10(-4) cm-1
     1  C(13)              0.00007       0.08133       0.02902       0.02713
     2  N(14)              0.02849       9.20532       3.28469       3.07056
     3  C(13)              0.13528     152.07883      54.26551      50.72804
     4  H(1)              -0.00059      -2.65785      -0.94839      -0.88656
     5  C(13)             -0.02389     -26.85963      -9.58418      -8.95941
     6  H(1)              -0.01233     -55.09598     -19.65962     -18.37804
     7  C(13)              0.00188       2.10935       0.75267       0.70360
     8  H(1)               0.00069       3.07721       1.09803       1.02645

 Normal termination of Gaussian 16 at Tue Apr  8 23:08:22 2025.
