 Gaussian 16, Revision C.01,

 ----------------------------------------------------------------------
 #t hf aug-cc-pvdz symm=none int=(grid=ultrafine) guess=(read,tcheck) s
 table=(opt,rrhf)
 ----------------------------------------------------------------------
 -----
 title
 -----
 Symbolic Z-matrix:
 Charge =  0 Multiplicity = 1

 SCF Done:  E(RHF) =  -430.534678887     A.U. after   16 cycles
 Normal termination of Gaussian 16 at Tue Apr  8 22:39:05 2025.
 Gaussian 16:  ES64L-G16RevC.01  3-Jul-2019

 ----------------------------------------------------------------------
 #t hf aug-cc-pvdz iop(5/13=1,5/36=2,99/5=2) pseudo=read geom=check gue
 ss=(read,tcheck) scf=(maxcycle=1)
 ----------------------------------------------------------------------
 -----
 title
 -----
 Structure from the checkpoint file:  "BDE49_expt_1188_mol1.chk"
 Charge =  0 Multiplicity = 1

                         Standard orientation:
 ---------------------------------------------------------------------
 Center     Atomic      Atomic             Coordinates (Angstroms)
 Number     Number       Type             X           Y           Z
 ---------------------------------------------------------------------
      1          7           0       -1.916157   -1.174868    0.000040
      2          6           0       -2.477494    0.036670    0.000034
      3          6           0       -1.717677    1.205963   -0.000008
      4          7           0       -0.385032    1.171083   -0.000038
      5          6           0        0.183177   -0.039370   -0.000033
      6          6           0       -0.582402   -1.208169    0.000005
      7          1           0       -0.091930   -2.174178   -0.000003
      8          1           0       -3.562471    0.078317    0.000066
      9          1           0       -2.189728    2.183475   -0.000011
     10          6           0        1.692012   -0.133736   -0.000099
     11          8           0        2.257599   -1.213928    0.000040
     12          7           0        2.316483    1.067529    0.000013
     13          1           0        1.768172    1.913165    0.000020
     14          1           0        3.322409    1.096291    0.000107
 ---------------------------------------------------------------------

 SCF Done:  E(RHF) =  -432.449973373     A.U. after    2 cycles

 The electronic state is 1-A.
 Alpha  occ. eigenvalues --  -21.03222 -15.78476 -15.78143 -15.77607 -11.52845
 Alpha  occ. eigenvalues --  -11.49411 -11.48027 -11.42712 -11.41972  -1.71400
 Alpha  occ. eigenvalues --   -1.52324  -1.37082  -1.33029  -1.15842  -0.97398
 Alpha  occ. eigenvalues --   -0.94434  -0.83430  -0.75412  -0.70859  -0.67584
 Alpha  occ. eigenvalues --   -0.65640  -0.60872  -0.60541  -0.54616  -0.53615
 Alpha  occ. eigenvalues --   -0.48831  -0.47553  -0.43001  -0.36876  -0.36431
 Alpha  occ. eigenvalues --   -0.32375  -0.29498
 Alpha virt. eigenvalues --    0.03001   0.04689   0.04962   0.06779   0.07017
 Alpha virt. eigenvalues --    0.08151   0.09204   0.09535   0.10633   0.10901
 Alpha virt. eigenvalues --    0.11288   0.12693   0.12979   0.13548   0.14123

 Mulliken charges:
               1
     1  N   -3.719693
     2  C   -0.087013
     3  C    0.695444
     4  N   -4.492768
     5  C    2.895101
     6  C   -0.522044
     7  H    1.660425
     8  H    1.532282
     9  H    1.631584
    10  C    5.725373
    11  O   -3.641999
    12  N   -3.315653
    13  H    0.772933
    14  H    0.866026
 Sum of Mulliken charges =  -0.00000

 Dipole moment (field-independent basis, Debye):
    X=             -0.8774    Y=              2.5472    Z=              0.0001  Tot=              2.6941

 Test job not archived.
 1\1\GINC-SE393\SP\RHF\Aug-CC-pVDZ\C5H5N3O1\OHZDE\08-Apr-2025\0\\#t hf
 aug-cc-pvdz iop(5/13=1,5/36=2,99/5=2) pseudo=read geom=check guess=(re
 ad,tcheck) scf=(maxcycle=1)\\title\\0,1\N,0,1.916157,-1.174868,-0.0000
 4\C,0,2.477494,0.03667,-0.000034\C,0,1.717677,1.205963,0.000008\N,0,0.
 385032,1.171083,0.000038\C,0,-0.183177,-0.03937,0.000033\C,0,0.582402,
 -1.208169,-0.000005\H,0,0.09193,-2.174178,0.000003\H,0,3.562471,0.0783
 17,-0.000066\H,0,2.189728,2.183475,0.000011\C,0,-1.692012,-0.133736,0.
 000099\O,0,-2.257599,-1.213928,-0.00004\N,0,-2.316483,1.067529,-0.0000

 Normal termination of Gaussian 16 at Tue Apr  8 22:39:10 2025.
