 Gaussian 16, Revision C.01,

 ----------------------------------------------------------------------
 #t hf aug-cc-pvdz symm=none int=(grid=ultrafine) guess=(read,tcheck) s
 table=(opt,rrhf)
 ----------------------------------------------------------------------
 -----
 title
 -----
 Symbolic Z-matrix:
 Charge =  0 Multiplicity = 1

 SCF Done:  E(RHF) =  -743.089376929     A.U. after   16 cycles
 Normal termination of Gaussian 16 at Wed Apr  9 00:23:56 2025.
 Gaussian 16:  ES64L-G16RevC.01  3-Jul-2019

 ----------------------------------------------------------------------
 #t hf aug-cc-pvdz iop(5/13=1,5/36=2,99/5=2) pseudo=read geom=check gue
 ss=(read,tcheck) scf=(maxcycle=1)
 ----------------------------------------------------------------------
 -----
 title
 -----
 Structure from the checkpoint file:  "BDE49_nonexpt_2691_mol1.chk"
 Charge =  0 Multiplicity = 1

                         Standard orientation:
 ---------------------------------------------------------------------
 Center     Atomic      Atomic             Coordinates (Angstroms)
 Number     Number       Type             X           Y           Z
 ---------------------------------------------------------------------
      1          9           0       -2.470964    0.367092    0.950855
      2         16           0       -1.873360   -0.229556   -0.509278
      3          6           0       -0.142929   -0.073752   -0.216365
      4          6           0        0.499900    1.170121   -0.252261
      5          6           0        0.631624   -1.216895    0.027179
      6          7           0        1.952553   -1.184998    0.207619
      7          6           0        1.869535    1.212808   -0.036237
      8          6           0        2.547068    0.011402    0.180193
      9          1           0       -0.072371    2.070196   -0.441660
     10          1           0        2.410520    2.151346   -0.046766
     11          1           0        0.153688   -2.190706    0.070082
     12          1           0        3.621537    0.011113    0.340698
 ---------------------------------------------------------------------

 SCF Done:  E(RHF) =  -744.795013484     A.U. after    2 cycles

 The electronic state is 1-A.
 Alpha  occ. eigenvalues --  -75.76587 -29.26341 -15.75867 -13.24297 -13.18945
 Alpha  occ. eigenvalues --  -13.11681 -11.50382 -11.47620 -11.46455 -11.44223
 Alpha  occ. eigenvalues --  -11.40596  -8.10487  -1.47519  -1.27055  -1.18035
 Alpha  occ. eigenvalues --   -1.09735  -0.91849  -0.89533  -0.75229  -0.68823
 Alpha  occ. eigenvalues --   -0.64153  -0.63043  -0.57771  -0.57443  -0.55158
 Alpha  occ. eigenvalues --   -0.47525  -0.40948  -0.40392  -0.38150  -0.36815
 Alpha  occ. eigenvalues --   -0.31717  -0.27443  -0.17726
 Alpha virt. eigenvalues --    0.02861   0.05121   0.05195   0.05699   0.06880
 Alpha virt. eigenvalues --    0.08329   0.09134   0.09882   0.11278   0.11827
 Alpha virt. eigenvalues --    0.12153   0.12595   0.13665   0.13767   0.14808

 Mulliken charges:
               1
     1  F   -0.210045
     2  S    0.593281
     3  C    1.475110
     4  C   -0.989335
     5  C   -1.607455
     6  N   -3.551074
     7  C   -0.859635
     8  C   -1.104827
     9  H    1.772121
    10  H    1.396686
    11  H    1.537450
    12  H    1.547725
 Sum of Mulliken charges =   0.00000

 Dipole moment (field-independent basis, Debye):
    X=             -1.1865    Y=              2.3569    Z=              1.5103  Tot=              3.0403

 Test job not archived.
 1\1\GINC-SE462\SP\RHF\Aug-CC-pVDZ\C5H4F1N1S1\OHZDE\09-Apr-2025\0\\#t h
 f aug-cc-pvdz iop(5/13=1,5/36=2,99/5=2) pseudo=read geom=check guess=(
 read,tcheck) scf=(maxcycle=1)\\title\\0,1\F,0,-2.470964,0.367092,0.950
 855\S,0,-1.87336,-0.229556,-0.509278\C,0,-0.142929,-0.073752,-0.216365
 \C,0,0.4999,1.170121,-0.252261\C,0,0.631624,-1.216895,0.027179\N,0,1.9
 52553,-1.184998,0.207619\C,0,1.869535,1.212808,-0.036237\C,0,2.547068,
 0.011402,0.180193\H,0,-0.072371,2.070196,-0.44166\H,0,2.41052,2.151346
 ,-0.046766\H,0,0.153688,-2.190706,0.070082\H,0,3.621537,0.011113,0.340

 Normal termination of Gaussian 16 at Wed Apr  9 00:24:01 2025.
