 Gaussian 16, Revision C.01,

 ----------------------------------------------------------------------
 #t hf aug-cc-pvdz symm=none int=(grid=ultrafine) guess=(read,tcheck) s
 table=(opt,rrhf)
 ----------------------------------------------------------------------
 -----
 title
 -----
 Symbolic Z-matrix:
 Charge =  0 Multiplicity = 1

 SCF Done:  E(RHF) =  -558.119424745     A.U. after   12 cycles
 Normal termination of Gaussian 16 at Tue Apr  8 23:51:44 2025.
 Gaussian 16:  ES64L-G16RevC.01  3-Jul-2019

 ----------------------------------------------------------------------
 #t hf aug-cc-pvdz iop(5/13=1,5/36=2,99/5=2) pseudo=read geom=check gue
 ss=(read,tcheck) scf=(maxcycle=1)
 ----------------------------------------------------------------------
 -----
 title
 -----
 Structure from the checkpoint file:  "BDE49_nonexpt_1884_mol1.chk"
 Charge =  0 Multiplicity = 1

                         Standard orientation:
 ---------------------------------------------------------------------
 Center     Atomic      Atomic             Coordinates (Angstroms)
 Number     Number       Type             X           Y           Z
 ---------------------------------------------------------------------
      1         14           0       -0.890183   -1.028557    0.186253
      2          6           0        0.918679   -0.828966   -0.323730
      3          8           0       -1.838084    0.193416   -0.373320
      4          1           0       -0.950112   -1.111699    1.667329
      5          1           0       -1.418981   -2.265080   -0.428112
      6          6           0       -1.772937    1.555566    0.041765
      7          1           0       -2.514747    2.114026   -0.531480
      8          1           0       -0.780086    1.976052   -0.140780
      9          1           0       -2.006541    1.653470    1.108411
     10          8           0        1.417139    0.366174    0.271578
     11          6           0        2.781436    0.607693   -0.017712
     12          1           0        3.060700    1.535984    0.482393
     13          1           0        2.949406    0.716652   -1.098634
     14          1           0        3.418847   -0.206524    0.355220
     15          1           0        1.010496   -0.788539   -1.421246
     16          1           0        1.498065   -1.707026    0.011348
 ---------------------------------------------------------------------

 SCF Done:  E(RHF) =  -559.503785564     A.U. after    2 cycles

 The electronic state is 1-A.
 Alpha  occ. eigenvalues --  -76.22002 -21.04890 -21.03539 -11.40336 -11.40005
 Alpha  occ. eigenvalues --  -11.38070  -5.55963  -2.23131  -2.18887  -2.17773
 Alpha  occ. eigenvalues --   -1.74643  -1.68459  -1.03127  -0.97760  -0.91952
 Alpha  occ. eigenvalues --   -0.72220  -0.64128  -0.61022  -0.60103  -0.59513
 Alpha  occ. eigenvalues --   -0.57793  -0.56498  -0.51154  -0.46972  -0.43661
 Alpha  occ. eigenvalues --   -0.39079  -0.35219  -0.33130  -0.30321
 Alpha virt. eigenvalues --    0.03716   0.04969   0.05462   0.05731   0.05907
 Alpha virt. eigenvalues --    0.06308   0.06513   0.06852   0.08384   0.08705
 Alpha virt. eigenvalues --    0.09261   0.10026   0.11446   0.13146   0.14181

 Mulliken charges:
               1
     1  Si   6.464458
     2  C   -2.635656
     3  O   -3.122870
     4  H   -1.911560
     5  H   -1.836043
     6  C   -2.622219
     7  H    1.254559
     8  H    1.387741
     9  H    1.381209
    10  O   -2.800130
    11  C   -2.739432
    12  H    1.335805
    13  H    1.380304
    14  H    1.346119
    15  H    1.592670
    16  H    1.525045
 Sum of Mulliken charges =  -0.00000

 Dipole moment (field-independent basis, Debye):
    X=              0.6367    Y=              0.8363    Z=             -0.3428  Tot=              1.1056

 Test job not archived.
 1\1\GINC-SE402\SP\RHF\Aug-CC-pVDZ\C3H10O2Si1\OHZDE\08-Apr-2025\0\\#t h
 f aug-cc-pvdz iop(5/13=1,5/36=2,99/5=2) pseudo=read geom=check guess=(
 read,tcheck) scf=(maxcycle=1)\\title\\0,1\Si,0,-0.890183,-1.028557,0.1
 86253\C,0,0.918679,-0.828966,-0.32373\O,0,-1.838084,0.193416,-0.37332\
 H,0,-0.950112,-1.111699,1.667329\H,0,-1.418981,-2.26508,-0.428112\C,0,
 -1.772937,1.555566,0.041765\H,0,-2.514748,2.114025,-0.53148\H,0,-0.780
 087,1.976052,-0.14078\H,0,-2.006541,1.65347,1.108411\O,0,1.417139,0.36
 6174,0.271578\C,0,2.781436,0.607693,-0.017712\H,0,3.0607,1.535984,0.48

 Normal termination of Gaussian 16 at Tue Apr  8 23:51:49 2025.
