 Gaussian 16, Revision C.01,

 ----------------------------------------------------------------------
 #t hf aug-cc-pvdz symm=none int=(grid=ultrafine) guess=(read,tcheck) s
 table=(opt,rrhf)
 ----------------------------------------------------------------------
 -----
 title
 -----
 Symbolic Z-matrix:
 Charge =  0 Multiplicity = 1

 SCF Done:  E(RHF) =  -304.813319199     A.U. after   13 cycles
 Normal termination of Gaussian 16 at Tue Apr  8 23:34:31 2025.
 Gaussian 16:  ES64L-G16RevC.01  3-Jul-2019

 ----------------------------------------------------------------------
 #t hf aug-cc-pvdz iop(5/13=1,5/36=2,99/5=2) pseudo=read geom=check gue
 ss=(read,tcheck) scf=(maxcycle=1)
 ----------------------------------------------------------------------
 -----
 title
 -----
 Structure from the checkpoint file:  "BDE49_nonexpt_145_mol1.chk"
 Charge =  0 Multiplicity = 1

                         Standard orientation:
 ---------------------------------------------------------------------
 Center     Atomic      Atomic             Coordinates (Angstroms)
 Number     Number       Type             X           Y           Z
 ---------------------------------------------------------------------
      1          5           0        2.486691   -1.481366   -0.431095
      2          5           0        1.449064   -0.811316    0.614368
      3          5           0       -0.060277   -0.146904    0.180180
      4          8           0       -1.102728   -1.021582    0.132295
      5          8           0       -0.299357    1.168337   -0.108146
      6          6           0       -2.432135   -0.583962   -0.166332
      7          1           0       -3.075809   -1.462936   -0.132521
      8          1           0       -2.481235   -0.133124   -1.160827
      9          1           0       -2.777629    0.150131    0.566117
     10          6           0        0.720394    2.158638   -0.044114
     11          1           0        0.470349    2.948454   -0.754091
     12          1           0        1.703606    1.753107   -0.306589
     13          1           0        0.769289    2.590762    0.959685
     14          1           0        1.730049   -0.781782    1.782506
     15          1           0        2.424010   -2.639514   -0.726884
     16          1           0        3.347108   -0.849257   -0.975182
 ---------------------------------------------------------------------

 SCF Done:  E(RHF) =  -306.161288885     A.U. after    2 cycles

 The electronic state is 1-A.
 Alpha  occ. eigenvalues --  -21.02598 -21.01645 -11.41619 -11.39878  -7.61464
 Alpha  occ. eigenvalues --   -7.58716  -7.56910  -1.83169  -1.68499  -1.02268
 Alpha  occ. eigenvalues --   -0.98558  -0.93027  -0.74938  -0.65958  -0.63310
 Alpha  occ. eigenvalues --   -0.61968  -0.59596  -0.58261  -0.53589  -0.47788
 Alpha  occ. eigenvalues --   -0.47379  -0.44399  -0.39776  -0.37684  -0.32876
 Alpha  occ. eigenvalues --   -0.31092
 Alpha virt. eigenvalues --    0.01845   0.02034   0.02367   0.03768   0.06406
 Alpha virt. eigenvalues --    0.06627   0.07164   0.07316   0.07674   0.07954
 Alpha virt. eigenvalues --    0.09064   0.09526   0.09685   0.10559   0.11112

 Mulliken charges:
               1
     1  B    4.468799
     2  B   -0.111255
     3  B    8.602190
     4  O   -4.615261
     5  O   -4.248408
     6  C   -2.624483
     7  H    1.265787
     8  H    1.467238
     9  H    1.472912
    10  C   -2.622534
    11  H    1.256669
    12  H    1.790885
    13  H    1.398821
    14  H   -2.473073
    15  H   -2.563807
    16  H   -2.464478
 Sum of Mulliken charges =  -0.00000

 Dipole moment (field-independent basis, Debye):
    X=             -0.3594    Y=              1.3339    Z=             -0.0669  Tot=              1.3831

 Test job not archived.
 1\1\GINC-SE460\SP\RHF\Aug-CC-pVDZ\C2H9B3O2\OHZDE\08-Apr-2025\0\\#t hf
 aug-cc-pvdz iop(5/13=1,5/36=2,99/5=2) pseudo=read geom=check guess=(re
 ad,tcheck) scf=(maxcycle=1)\\title\\0,1\B,0,2.486691,-1.481366,-0.4310
 95\B,0,1.449064,-0.811316,0.614368\B,0,-0.060277,-0.146904,0.18018\O,0
 ,-1.102728,-1.021582,0.132295\O,0,-0.299357,1.168337,-0.108146\C,0,-2.
 432135,-0.583962,-0.166332\H,0,-3.075809,-1.462936,-0.132521\H,0,-2.48
 1235,-0.133124,-1.160827\H,0,-2.777629,0.150131,0.566117\C,0,0.720394,
 2.158638,-0.044114\H,0,0.470349,2.948454,-0.754091\H,0,1.703606,1.7531

 Normal termination of Gaussian 16 at Tue Apr  8 23:34:36 2025.
