 Gaussian 16, Revision C.01,

 ----------------------------------------------------------------------
 #t hf aug-cc-pvdz symm=none int=(grid=ultrafine) guess=(read,tcheck) s
 table=(opt,rrhf)
 ----------------------------------------------------------------------
 -----
 title
 -----
 Symbolic Z-matrix:
 Charge =  0 Multiplicity = 1

 SCF Done:  E(RHF) =  -1692.99809368     A.U. after   14 cycles
 Normal termination of Gaussian 16 at Wed Apr  9 00:27:12 2025.
 Gaussian 16:  ES64L-G16RevC.01  3-Jul-2019

 ----------------------------------------------------------------------
 #t hf aug-cc-pvdz iop(5/13=1,5/36=2,99/5=2) pseudo=read geom=check gue
 ss=(read,tcheck) scf=(maxcycle=1)
 ----------------------------------------------------------------------
 -----
 title
 -----
 Structure from the checkpoint file:  "BDE49_nonexpt_2727_mol1.chk"
 Charge =  0 Multiplicity = 1

                         Standard orientation:
 ---------------------------------------------------------------------
 Center     Atomic      Atomic             Coordinates (Angstroms)
 Number     Number       Type             X           Y           Z
 ---------------------------------------------------------------------
      1         16           0       -0.921992   -1.242890   -0.472467
      2         16           0        0.921995   -1.242893    0.472454
      3          6           0        1.715866    0.140618   -0.395612
      4          6           0       -1.715874    0.140593    0.395634
      5          8           0       -1.205677    0.854344    1.198788
      6          8           0        1.205655    0.854402   -1.198729
      7          6           0        3.202714    0.326690    0.017527
      8          6           0       -3.202711    0.326690   -0.017532
      9          9           0       -3.426500    1.592089   -0.371198
     10          9           0       -3.994649    0.018046    1.015695
     11          9           0       -3.527920   -0.471510   -1.051872
     12          9           0        3.426529    1.592081    0.371203
     13          9           0        3.994626    0.018045   -1.015720
     14          9           0        3.527931   -0.471529    1.051851
 ---------------------------------------------------------------------

 SCF Done:  E(RHF) =  -1696.70787098     A.U. after    2 cycles

 The electronic state is 1-A.
 Alpha  occ. eigenvalues --  -75.77739 -75.77445 -29.34825 -29.34822 -29.34522
 Alpha  occ. eigenvalues --  -29.34519 -29.34429 -29.34425 -21.13292 -21.13289
 Alpha  occ. eigenvalues --  -13.25267 -13.19562 -13.18823 -13.16419 -13.11363
 Alpha  occ. eigenvalues --  -13.10786 -11.64330 -11.64124 -11.55807 -11.55687
 Alpha  occ. eigenvalues --   -8.11720  -8.11502  -1.79381  -1.78748  -1.45403
 Alpha  occ. eigenvalues --   -1.45315  -1.29069  -1.12891  -0.96516  -0.92564
 Alpha  occ. eigenvalues --   -0.92447  -0.92239  -0.92188  -0.90358  -0.70954
 Alpha  occ. eigenvalues --   -0.68714  -0.59922  -0.58004  -0.55376  -0.53874
 Alpha  occ. eigenvalues --   -0.52047  -0.51190  -0.47969  -0.46982  -0.46512
 Alpha  occ. eigenvalues --   -0.46479  -0.44848  -0.41407  -0.40416  -0.39707
 Alpha  occ. eigenvalues --   -0.38970  -0.38872  -0.37153  -0.32859  -0.31672
 Alpha  occ. eigenvalues --   -0.29436  -0.29069  -0.29026  -0.28091  -0.27089
 Alpha  occ. eigenvalues --   -0.26469  -0.24648  -0.24634
 Alpha virt. eigenvalues --    0.04899   0.06571   0.08746   0.08914   0.08972
 Alpha virt. eigenvalues --    0.09829   0.10615   0.10777   0.11755   0.12279
 Alpha virt. eigenvalues --    0.12299   0.12697   0.13317   0.13466   0.14386

 Mulliken charges:
               1
     1  S   -0.026939
     2  S   -0.026923
     3  C    0.832086
     4  C    0.832137
     5  O   -2.763788
     6  O   -2.763781
     7  C    0.428446
     8  C    0.428416
     9  F    0.376825
    10  F    0.412392
    11  F    0.740960
    12  F    0.376824
    13  F    0.412394
    14  F    0.740951
 Sum of Mulliken charges =  -0.00000

 Dipole moment (field-independent basis, Debye):
    X=              0.0000    Y=             -1.1890    Z=             -0.0001  Tot=              1.1890

 Test job not archived.
 1\1\GINC-SE459\SP\RHF\Aug-CC-pVDZ\C4F6O2S2\OHZDE\09-Apr-2025\0\\#t hf
 aug-cc-pvdz iop(5/13=1,5/36=2,99/5=2) pseudo=read geom=check guess=(re
 ad,tcheck) scf=(maxcycle=1)\\title\\0,1\S,0,-0.921992,-1.24289,-0.4724
 67\S,0,0.921995,-1.242893,0.472454\C,0,1.715866,0.140618,-0.395612\C,0
 ,-1.715874,0.140593,0.395634\O,0,-1.205677,0.854344,1.198788\O,0,1.205
 655,0.854402,-1.198729\C,0,3.202714,0.32669,0.017527\C,0,-3.202711,0.3
 2669,-0.017532\F,0,-3.4265,1.592089,-0.371198\F,0,-3.994649,0.018046,1
 .015695\F,0,-3.52792,-0.47151,-1.051872\F,0,3.426529,1.592081,0.371203

 Normal termination of Gaussian 16 at Wed Apr  9 00:27:20 2025.
