 Gaussian 16, Revision C.01,

 ----------------------------------------------------------------------
 #t hf aug-cc-pvdz symm=none int=(grid=ultrafine) guess=(read,tcheck) s
 table=(opt,rrhf)
 ----------------------------------------------------------------------
 -----
 title
 -----
 Symbolic Z-matrix:
 Charge =  0 Multiplicity = 1

 SCF Done:  E(RHF) =  -276.982301584     A.U. after   11 cycles
 Normal termination of Gaussian 16 at Tue Apr  8 22:30:18 2025.
 Gaussian 16:  ES64L-G16RevC.01  3-Jul-2019

 ----------------------------------------------------------------------
 #t hf aug-cc-pvdz iop(5/13=1,5/36=2,99/5=2) pseudo=read geom=check gue
 ss=(read,tcheck) scf=(maxcycle=1)
 ----------------------------------------------------------------------
 -----
 title
 -----
 Structure from the checkpoint file:  "BDE49_expt_1008_mol1.chk"
 Charge =  0 Multiplicity = 1

                         Standard orientation:
 ---------------------------------------------------------------------
 Center     Atomic      Atomic             Coordinates (Angstroms)
 Number     Number       Type             X           Y           Z
 ---------------------------------------------------------------------
      1          6           0       -0.324080    0.166855    0.000000
      2          6           0        0.903923    1.036414   -0.000000
      3          9           0       -0.324080   -0.648874    1.104465
      4          9           0       -0.324080   -0.648874   -1.104465
      5          1           0       -1.268052    0.718496    0.000000
      6          1           0        1.792548    0.402762   -0.000000
      7          1           0        0.914948    1.669434    0.889054
      8          1           0        0.914948    1.669434   -0.889054
 ---------------------------------------------------------------------

 SCF Done:  E(RHF) =  -278.052693362     A.U. after    2 cycles

 The electronic state is 1-A'.
 Alpha  occ. eigenvalues --  -29.27342 -29.27300 -11.52266 -11.39057  -1.31666
 Alpha  occ. eigenvalues --   -1.01166  -0.79397  -0.74388  -0.63503  -0.56125
 Alpha  occ. eigenvalues --   -0.55272  -0.43251  -0.37317  -0.30472  -0.28478
 Alpha  occ. eigenvalues --   -0.26109  -0.21077
 Alpha virt. eigenvalues --    0.04100   0.05235   0.06013   0.06723   0.11362
 Alpha virt. eigenvalues --    0.11893   0.12717   0.13799   0.15490   0.17337
 Alpha virt. eigenvalues --    0.17813   0.23386   0.24361   0.24838   0.27501

 Mulliken charges:
               1
     1  C   -1.620101
     2  C   -4.081135
     3  F    0.337065
     4  F    0.337065
     5  H    1.459701
     6  H    1.141079
     7  H    1.213163
     8  H    1.213163
 Sum of Mulliken charges =  -0.00000

 Dipole moment (field-independent basis, Debye):
    X=             -0.0183    Y=             -1.1026    Z=             -0.0000  Tot=              1.1028

 Test job not archived.
 1\1\GINC-SE457\SP\RHF\Aug-CC-pVDZ\C2H4F2\OHZDE\08-Apr-2025\0\\#t hf au
 g-cc-pvdz iop(5/13=1,5/36=2,99/5=2) pseudo=read geom=check guess=(read
 ,tcheck) scf=(maxcycle=1)\\title\\0,1\C,0,-0.32408,0.166855,0.\C,0,0.9
 03923,1.036414,0.\F,0,-0.32408,-0.648874,1.104465\F,0,-0.32408,-0.6488
 74,-1.104465\H,0,-1.268052,0.718496,0.\H,0,1.792548,0.402762,0.\H,0,0.
 914948,1.669434,0.889054\H,0,0.914948,1.669434,-0.889054\\Version=ES64
 L-G16RevC.01\State=1-A'\HF=-278.0526934\RMSD=1.875e-01\Dipole=-0.00721
 48,-0.4338121,0.\Quadrupole=-0.1334341,-0.0818435,0.2152776,-0.0089428

 Normal termination of Gaussian 16 at Tue Apr  8 22:30:19 2025.
