 Gaussian 16, Revision C.01,

 ----------------------------------------------------------------------
 #t hf aug-cc-pvdz symm=none int=(grid=ultrafine) guess=(read,tcheck) s
 table=(opt,rrhf)
 ----------------------------------------------------------------------
 -----
 title
 -----
 Symbolic Z-matrix:
 Charge =  0 Multiplicity = 1

 SCF Done:  E(RHF) =  -828.820799184     A.U. after   16 cycles
 Normal termination of Gaussian 16 at Tue Apr  8 23:17:03 2025.
 Gaussian 16:  ES64L-G16RevC.01  3-Jul-2019

 ----------------------------------------------------------------------
 #t hf aug-cc-pvdz iop(5/13=1,5/36=2,99/5=2) pseudo=read geom=check gue
 ss=(read,tcheck) scf=(maxcycle=1)
 ----------------------------------------------------------------------
 -----
 title
 -----
 Structure from the checkpoint file:  "BDE49_nonexpt_1007_mol1.chk"
 Charge =  0 Multiplicity = 1

                         Standard orientation:
 ---------------------------------------------------------------------
 Center     Atomic      Atomic             Coordinates (Angstroms)
 Number     Number       Type             X           Y           Z
 ---------------------------------------------------------------------
      1         16           0        0.705821   -1.122752   -0.135002
      2          7           0        1.655758    0.449282   -0.049341
      3          8           0        1.087549    1.481847   -0.296499
      4          8           0        2.811166    0.265703    0.265704
      5          8           0       -0.748881   -0.540153   -0.678806
      6          6           0       -1.660152   -0.000327    0.266025
      7          6           0       -2.856110    0.513120   -0.478397
      8          1           0       -3.607974    0.843066    0.234982
      9          1           0       -3.258345   -0.263556   -1.130875
     10          1           0       -2.546999    1.348737   -1.110541
     11          8           0       -1.446402    0.019359    1.432862
 ---------------------------------------------------------------------

 SCF Done:  E(RHF) =  -830.869434576     A.U. after    2 cycles

 The electronic state is 1-A.
 Alpha  occ. eigenvalues --  -75.81552 -21.14589 -21.12854 -21.12265 -21.09617
 Alpha  occ. eigenvalues --  -16.02896 -13.29248 -13.23478 -13.15769 -11.56260
 Alpha  occ. eigenvalues --  -11.42236  -8.15039  -2.02312  -1.87457  -1.72903
 Alpha  occ. eigenvalues --   -1.71482  -1.20442  -1.12440  -0.91383  -0.78830
 Alpha  occ. eigenvalues --   -0.71965  -0.69891  -0.66438  -0.64693  -0.63565
 Alpha  occ. eigenvalues --   -0.62059  -0.54466  -0.53016  -0.46284  -0.41377
 Alpha  occ. eigenvalues --   -0.34679  -0.34047  -0.33574  -0.32805  -0.28893
 Alpha virt. eigenvalues --    0.02848   0.05547   0.05742   0.06102   0.08072
 Alpha virt. eigenvalues --    0.09123   0.09538   0.11809   0.12609   0.13009
 Alpha virt. eigenvalues --    0.13364   0.14507   0.15688   0.15894   0.16453

 Mulliken charges:
               1
     1  S    1.667284
     2  N    4.297509
     3  O   -2.602241
     4  O   -2.605201
     5  O   -2.581865
     6  C    4.912901
     7  C   -3.980016
     8  H    1.222852
     9  H    1.259423
    10  H    1.283130
    11  O   -2.873777
 Sum of Mulliken charges =   0.00000

 Dipole moment (field-independent basis, Debye):
    X=             -2.2595    Y=             -1.7851    Z=             -0.6641  Tot=              2.9552

 Test job not archived.
 1\1\GINC-SE361\SP\RHF\Aug-CC-pVDZ\C2H3N1O4S1\OHZDE\08-Apr-2025\0\\#t h
 f aug-cc-pvdz iop(5/13=1,5/36=2,99/5=2) pseudo=read geom=check guess=(
 read,tcheck) scf=(maxcycle=1)\\title\\0,1\S,0,0.705821,-1.122752,-0.13
 5002\N,0,1.655758,0.449282,-0.049341\O,0,1.087549,1.481847,-0.296499\O
 ,0,2.811166,0.265703,0.265704\O,0,-0.748881,-0.540153,-0.678806\C,0,-1
 .660152,-0.000327,0.266025\C,0,-2.85611,0.51312,-0.478397\H,0,-3.60797
 4,0.843066,0.234982\H,0,-3.258345,-0.263556,-1.130875\H,0,-2.546999,1.
 348737,-1.110541\O,0,-1.446402,0.019359,1.432862\\Version=ES64L-G16Rev

 Normal termination of Gaussian 16 at Tue Apr  8 23:17:07 2025.
