 Gaussian 16, Revision C.01,

 ----------------------------------------------------------------------
 #t hf aug-cc-pvdz symm=none int=(grid=ultrafine) guess=(read,tcheck) s
 table=(opt,rrhf)
 ----------------------------------------------------------------------
 -----
 title
 -----
 Symbolic Z-matrix:
 Charge =  0 Multiplicity = 1

 SCF Done:  E(RHF) =  -1030.25614553     A.U. after   14 cycles
 Normal termination of Gaussian 16 at Tue Apr  8 23:22:07 2025.
 Gaussian 16:  ES64L-G16RevC.01  3-Jul-2019

 ----------------------------------------------------------------------
 #t hf aug-cc-pvdz iop(5/13=1,5/36=2,99/5=2) pseudo=read geom=check gue
 ss=(read,tcheck) scf=(maxcycle=1)
 ----------------------------------------------------------------------
 -----
 title
 -----
 Structure from the checkpoint file:  "BDE49_nonexpt_115_mol1.chk"
 Charge =  0 Multiplicity = 1

                         Standard orientation:
 ---------------------------------------------------------------------
 Center     Atomic      Atomic             Coordinates (Angstroms)
 Number     Number       Type             X           Y           Z
 ---------------------------------------------------------------------
      1          5           0        0.471406   -0.684456    1.237082
      2          5           0       -0.471401    0.684434    1.237097
      3         16           0       -1.958322    0.914787    0.256349
      4          6           0       -2.087190   -0.554923   -0.612707
      5          7           0       -2.214897   -1.532524   -1.217789
      6         16           0        1.958319   -0.914794    0.256318
      7          6           0        2.087191    0.554936   -0.612701
      8          7           0        2.214901    1.532552   -1.217758
      9          1           0       -0.264534    1.640207    1.913884
     10          1           0        0.264524   -1.640255    1.913829
 ---------------------------------------------------------------------

 SCF Done:  E(RHF) =  -1031.70599526     A.U. after    2 cycles

 The electronic state is 1-A.
 Alpha  occ. eigenvalues --  -75.76748 -75.76687 -15.79014 -15.79010 -13.25125
 Alpha  occ. eigenvalues --  -13.25117 -13.19700 -13.18254 -13.12658 -13.11047
 Alpha  occ. eigenvalues --  -11.46358 -11.46296  -8.10900  -8.10834  -7.67570
 Alpha  occ. eigenvalues --   -7.66790  -1.35795  -1.34674  -1.23294  -1.21531
 Alpha  occ. eigenvalues --   -0.92023  -0.79191  -0.68108  -0.62384  -0.56062
 Alpha  occ. eigenvalues --   -0.54104  -0.52607  -0.51334  -0.51325  -0.51162
 Alpha  occ. eigenvalues --   -0.46966  -0.40841  -0.35247  -0.33005  -0.32810
 Alpha virt. eigenvalues --    0.00686   0.01346   0.02077   0.02291   0.06397
 Alpha virt. eigenvalues --    0.06415   0.06983   0.08037   0.08787   0.09290
 Alpha virt. eigenvalues --    0.10483   0.11432   0.12126   0.12439   0.12646

 Mulliken charges:
               1
     1  B    4.258177
     2  B    4.258218
     3  S   -0.536656
     4  C    0.686568
     5  N   -1.962081
     6  S   -0.536645
     7  C    0.686562
     8  N   -1.962079
     9  H   -2.446049
    10  H   -2.446015
 Sum of Mulliken charges =  -0.00000

 Dipole moment (field-independent basis, Debye):
    X=             -0.0000    Y=             -0.0000    Z=              2.6127  Tot=              2.6127

 Test job not archived.
 1\1\GINC-SE049\SP\RHF\Aug-CC-pVDZ\C2H2B2N2S2\OHZDE\08-Apr-2025\0\\#t h
 f aug-cc-pvdz iop(5/13=1,5/36=2,99/5=2) pseudo=read geom=check guess=(
 read,tcheck) scf=(maxcycle=1)\\title\\0,1\B,0,0.471406,-0.684456,1.237
 082\B,0,-0.471401,0.684434,1.237097\S,0,-1.958322,0.914787,0.256349\C,
 0,-2.08719,-0.554923,-0.612707\N,0,-2.214897,-1.532524,-1.217789\S,0,1
 .958319,-0.914794,0.256318\C,0,2.087191,0.554936,-0.612701\N,0,2.21490
 1,1.532552,-1.217758\H,0,-0.264534,1.640207,1.913884\H,0,0.264524,-1.6
 40255,1.913829\\Version=ES64L-G16RevC.01\State=1-A\HF=-1031.7059953\RM

 Normal termination of Gaussian 16 at Tue Apr  8 23:22:12 2025.
