 Gaussian 16, Revision C.01,

 ----------------------------------------------------------------------
 #t hf aug-cc-pvdz symm=none int=(grid=ultrafine) guess=(read,tcheck) s
 table=(opt,rrhf)
 ----------------------------------------------------------------------
 -----
 title
 -----
 Symbolic Z-matrix:
 Charge =  0 Multiplicity = 1

 SCF Done:  E(RHF) =  -686.995916602     A.U. after   10 cycles
 Normal termination of Gaussian 16 at Tue Apr  8 22:59:37 2025.
 Gaussian 16:  ES64L-G16RevC.01  3-Jul-2019

 ----------------------------------------------------------------------
 #t hf aug-cc-pvdz iop(5/13=1,5/36=2,99/5=2) pseudo=read geom=check gue
 ss=(read,tcheck) scf=(maxcycle=1)
 ----------------------------------------------------------------------
 -----
 title
 -----
 Structure from the checkpoint file:  "BDE49_expt_1930_mol1.chk"
 Charge =  0 Multiplicity = 1

                         Standard orientation:
 ---------------------------------------------------------------------
 Center     Atomic      Atomic             Coordinates (Angstroms)
 Number     Number       Type             X           Y           Z
 ---------------------------------------------------------------------
      1         14           0        0.000004    0.000006   -0.000001
      2          9           0        0.038922    1.539407    0.300100
      3          9           0       -0.346087   -0.780778    1.316022
      4          9           0        1.401251   -0.464927   -0.530752
      5          9           0       -1.094093   -0.293710   -1.085368
 ---------------------------------------------------------------------

 SCF Done:  E(RHF) =  -688.508826887     A.U. after    2 cycles

 The electronic state is 1-A.
 Alpha  occ. eigenvalues --  -76.36209 -29.32681 -29.32665 -29.32665 -29.32665
 Alpha  occ. eigenvalues --   -5.74554  -2.37832  -2.37832  -2.37832  -1.07696
 Alpha  occ. eigenvalues --   -0.76069  -0.76069  -0.76068  -0.46485  -0.46484
 Alpha  occ. eigenvalues --   -0.46484  -0.45088  -0.45088  -0.44176  -0.33790
 Alpha  occ. eigenvalues --   -0.33790  -0.33790  -0.31856  -0.31855  -0.31855
 Alpha virt. eigenvalues --    0.07333   0.07333   0.07333   0.12771   0.20816
 Alpha virt. eigenvalues --    0.20816   0.20816   0.23085   0.23085   0.23402
 Alpha virt. eigenvalues --    0.26623   0.26623   0.26624   0.31613   0.31613

 Mulliken charges:
               1
     1  Si   3.407368
     2  F   -0.851852
     3  F   -0.851831
     4  F   -0.851848
     5  F   -0.851837
 Sum of Mulliken charges =  -0.00000

 Dipole moment (field-independent basis, Debye):
    X=             -0.0000    Y=              0.0000    Z=              0.0000  Tot=              0.0000

 Test job not archived.
 1\1\GINC-SE094\SP\RHF\Aug-CC-pVDZ\F4Si1\OHZDE\08-Apr-2025\0\\#t hf aug
 -cc-pvdz iop(5/13=1,5/36=2,99/5=2) pseudo=read geom=check guess=(read,
 tcheck) scf=(maxcycle=1)\\title\\0,1\Si,0,-0.000004,0.000006,0.000001\
 F,0,-0.027036,1.538191,-0.307548\F,0,0.325171,-0.790692,-1.315437\F,0,
 -1.400249,-0.448591,0.5472\F,0,1.102121,-0.298917,1.075782\\Version=ES
 64L-G16RevC.01\State=1-A\HF=-688.5088269\RMSD=5.679e-02\Dipole=0.00000
 11,0.000006,-0.000006\Quadrupole=0.0000441,0.0000734,-0.0001175,0.0000
 039,-0.0000113,-0.000013\PG=C01 [X(F4Si1)]\\@

 Normal termination of Gaussian 16 at Tue Apr  8 22:59:38 2025.
