 Gaussian 16, Revision C.01,

 ----------------------------------------------------------------------
 #t hf aug-cc-pvdz symm=none int=(grid=ultrafine) guess=(read,tcheck) s
 table=(opt,rrhf)
 ----------------------------------------------------------------------
 -----
 title
 -----
 Symbolic Z-matrix:
 Charge =  0 Multiplicity = 1

 SCF Done:  E(RHF) =  -78.0436580278     A.U. after    9 cycles
 Normal termination of Gaussian 16 at Tue Apr  8 23:04:39 2025.
 Gaussian 16:  ES64L-G16RevC.01  3-Jul-2019

 ----------------------------------------------------------------------
 #t hf aug-cc-pvdz iop(5/13=1,5/36=2,99/5=2) pseudo=read geom=check gue
 ss=(read,tcheck) scf=(maxcycle=1)
 ----------------------------------------------------------------------
 -----
 title
 -----
 Structure from the checkpoint file:  "BDE49_expt_33_mol1.chk"
 Charge =  0 Multiplicity = 1

                         Standard orientation:
 ---------------------------------------------------------------------
 Center     Atomic      Atomic             Coordinates (Angstroms)
 Number     Number       Type             X           Y           Z
 ---------------------------------------------------------------------
      1          6           0       -0.000000   -0.000000    0.663482
      2          6           0        0.000000   -0.000000   -0.663482
      3          1           0        0.000000    0.922494    1.234676
      4          1           0       -0.000000   -0.922494    1.234676
      5          1           0        0.000000    0.922494   -1.234676
      6          1           0       -0.000000   -0.922494   -1.234676
 ---------------------------------------------------------------------

 SCF Done:  E(RHF) =  -78.4399266982     A.U. after    2 cycles

 The electronic state is 1-AG.
 Alpha  occ. eigenvalues --  -11.40400 -11.37023  -1.13489  -0.82165  -0.64163
 Alpha  occ. eigenvalues --   -0.55971  -0.49258  -0.35957
 Alpha virt. eigenvalues --    0.03775   0.05648   0.06171   0.06416   0.10159
 Alpha virt. eigenvalues --    0.12832   0.14574   0.14789   0.15697   0.19330
 Alpha virt. eigenvalues --    0.20531   0.21758   0.22952   0.24703   0.29622

 Mulliken charges:
               1
     1  C   -2.597817
     2  C   -2.597817
     3  H    1.298908
     4  H    1.298908
     5  H    1.298908
     6  H    1.298908
 Sum of Mulliken charges =  -0.00000

 Dipole moment (field-independent basis, Debye):
    X=             -0.0000    Y=             -0.0000    Z=              0.0000  Tot=              0.0000

 Test job not archived.
 1\1\GINC-SE220\SP\RHF\Aug-CC-pVDZ\C2H4\OHZDE\08-Apr-2025\0\\#t hf aug-
 cc-pvdz iop(5/13=1,5/36=2,99/5=2) pseudo=read geom=check guess=(read,t
 check) scf=(maxcycle=1)\\title\\0,1\C,0,0.,0.663482,0.\C,0,0.,-0.66348
 2,0.\H,0,0.922494,1.234676,0.\H,0,-0.922494,1.234676,0.\H,0,0.922494,-
 1.234676,0.\H,0,-0.922494,-1.234676,0.\\Version=ES64L-G16RevC.01\State
 =1-AG\HF=-78.4399267\RMSD=3.362e-01\Dipole=0.,0.,0.\Quadrupole=0.80364
 6,1.0093928,-1.8130388,0.,0.,0.\PG=D02H [C2"(C1.C1),SG(H4)]\\@

 Normal termination of Gaussian 16 at Tue Apr  8 23:04:41 2025.
