 Gaussian 16, Revision C.01,

 ----------------------------------------------------------------------
 #t hf aug-cc-pvdz symm=none int=(grid=ultrafine) guess=(read,tcheck) s
 table=(opt,rrhf)
 ----------------------------------------------------------------------
 -----
 title
 -----
 Symbolic Z-matrix:
 Charge =  0 Multiplicity = 1

 SCF Done:  E(RHF) =  -834.758803095     A.U. after   13 cycles
 Normal termination of Gaussian 16 at Tue Apr  8 22:40:44 2025.
 Gaussian 16:  ES64L-G16RevC.01  3-Jul-2019

 ----------------------------------------------------------------------
 #t hf aug-cc-pvdz iop(5/13=1,5/36=2,99/5=2) pseudo=read geom=check gue
 ss=(read,tcheck) scf=(maxcycle=1)
 ----------------------------------------------------------------------
 -----
 title
 -----
 Structure from the checkpoint file:  "BDE49_expt_130_mol1.chk"
 Charge =  0 Multiplicity = 1

                         Standard orientation:
 ---------------------------------------------------------------------
 Center     Atomic      Atomic             Coordinates (Angstroms)
 Number     Number       Type             X           Y           Z
 ---------------------------------------------------------------------
      1          6           0       -0.045300    0.231269    0.000001
      2          6           0        0.966163   -0.904074   -0.000006
      3          9           0        0.097505    1.011839    1.085593
      4         17           0       -1.710683   -0.461850   -0.000001
      5          9           0        0.097503    1.011851   -1.085581
      6          1           0        0.827273   -1.507560   -0.898187
      7          1           0        0.827275   -1.507571    0.898168
      8          9           0        2.238534   -0.367756   -0.000004
 ---------------------------------------------------------------------

 SCF Done:  E(RHF) =  -836.371542903     A.U. after    2 cycles

 The electronic state is 1-A.
 Alpha  occ. eigenvalues --  -99.92304 -29.32211 -29.32168 -29.28785 -11.60244
 Alpha  occ. eigenvalues --  -11.48263 -10.49738  -9.69575  -9.68754  -9.68696
 Alpha  occ. eigenvalues --   -1.46339  -1.27317  -1.12666  -0.89043  -0.80802
 Alpha  occ. eigenvalues --   -0.74395  -0.67255  -0.66443  -0.55032  -0.54733
 Alpha  occ. eigenvalues --   -0.47335  -0.41452  -0.40058  -0.38055  -0.32852
 Alpha  occ. eigenvalues --   -0.32313  -0.27585  -0.27434  -0.24622
 Alpha virt. eigenvalues --    0.04335   0.05826   0.06594   0.08783   0.11007
 Alpha virt. eigenvalues --    0.11562   0.12347   0.12891   0.15364   0.16067
 Alpha virt. eigenvalues --    0.17515   0.18802   0.18921   0.21460   0.24103

 Mulliken charges:
               1
     1  C   -1.264758
     2  C   -2.631720
     3  F    0.690574
     4  Cl  -0.513377
     5  F    0.690577
     6  H    1.311540
     7  H    1.311541
     8  F    0.405623
 Sum of Mulliken charges =  -0.00000

 Dipole moment (field-independent basis, Debye):
    X=              4.3941    Y=              3.2998    Z=              0.0000  Tot=              5.4952

 Test job not archived.
 1\1\GINC-SE041\SP\RHF\Aug-CC-pVDZ\C2H2Cl1F3\OHZDE\08-Apr-2025\0\\#t hf
  aug-cc-pvdz iop(5/13=1,5/36=2,99/5=2) pseudo=read geom=check guess=(r
 ead,tcheck) scf=(maxcycle=1)\\title\\0,1\C,0,-0.0453,0.231269,0.000001
 \C,0,0.966163,-0.904074,-0.000006\F,0,0.097505,1.011839,1.085593\Cl,0,
 -1.710683,-0.46185,-0.000001\F,0,0.097503,1.011851,-1.085581\H,0,0.827
 273,-1.50756,-0.898187\H,0,0.827275,-1.507571,0.898168\F,0,2.238534,-0
 .367756,-0.000004\\Version=ES64L-G16RevC.01\State=1-A\HF=-836.3715429\
 RMSD=1.655e-01\Dipole=1.7287782,1.2982605,0.0000049\Quadrupole=-1.1092

 Normal termination of Gaussian 16 at Tue Apr  8 22:40:49 2025.
