 Gaussian 16, Revision C.01,

 ----------------------------------------------------------------------
 #t hf aug-cc-pvdz symm=none int=(grid=ultrafine) guess=(read,tcheck) s
 table=(opt,rrhf)
 ----------------------------------------------------------------------
 -----
 title
 -----
 Symbolic Z-matrix:
 Charge =  0 Multiplicity = 1

 SCF Done:  E(RHF) =  -1043.29316614     A.U. after   11 cycles

 1\1\GINC-SE453\Stability\RHF\Aug-CC-pVDZ\B1Cl2F1\OHZDE\09-Apr-2025\0\\
 #t hf aug-cc-pvdz symm=none int=(grid=ultrafine) guess=(read,tcheck) s
 table=(opt,rrhf)\\title\\0,1\Cl,0,0.,1.528606,-0.49653\B,0,0.,0.,0.360
 609\Cl,0,0.,-1.528606,-0.49653\F,0,0.,0.,1.67544\\Version=ES64L-G16Rev
 C.01\HF=-1043.2931661\RMSD=7.009e-09\Dipole=0.,0.,-0.0928185\Quadrupol
 e=1.3192286,-0.0604233,-1.2588053,0.,0.,0.\PG=Unknown\\@
 The archive entry for this job was punched.

 Normal termination of Gaussian 16 at Wed Apr  9 00:09:28 2025.
 Gaussian 16:  ES64L-G16RevC.01  3-Jul-2019

 ----------------------------------------------------------------------
 #t hf aug-cc-pvdz iop(5/13=1,5/36=2,99/5=2) pseudo=read geom=check gue
 ss=(read,tcheck) scf=(maxcycle=1)
 ----------------------------------------------------------------------
 -----
 title
 -----
 Structure from the checkpoint file:  "BDE49_nonexpt_231_mol1.chk"
 Charge =  0 Multiplicity = 1

                         Standard orientation:
 ---------------------------------------------------------------------
 Center     Atomic      Atomic             Coordinates (Angstroms)
 Number     Number       Type             X           Y           Z
 ---------------------------------------------------------------------
      1         17           0        0.000000    1.528606   -0.496530
      2          5           0        0.000000   -0.000000    0.360609
      3         17           0       -0.000000   -1.528606   -0.496530
      4          9           0        0.000000   -0.000000    1.675440
 ---------------------------------------------------------------------

 SCF Done:  E(RHF) =  -1044.21747762     A.U. after    2 cycles

 The electronic state is 1-A1.
 Alpha  occ. eigenvalues --  -99.91825 -99.91821 -29.28732 -10.49299 -10.49034
 Alpha  occ. eigenvalues --   -9.69215  -9.68951  -9.68559  -9.68501  -9.68380
 Alpha  occ. eigenvalues --   -9.68367  -7.77055  -1.42968  -1.32381  -0.98104
 Alpha  occ. eigenvalues --   -0.72358  -0.68543  -0.61707  -0.54628  -0.54552
 Alpha  occ. eigenvalues --   -0.53613  -0.42887  -0.41281  -0.37594
 Alpha virt. eigenvalues --    0.03370   0.03851   0.04122   0.06565   0.09732
 Alpha virt. eigenvalues --    0.10164   0.12476   0.13621   0.16132   0.16235
 Alpha virt. eigenvalues --    0.16746   0.16830   0.18522   0.20052   0.20350

 Mulliken charges:
               1
     1  Cl  -1.002276
     2  B    1.664022
     3  Cl  -1.002276
     4  F    0.340529
 Sum of Mulliken charges =  -0.00000

 Dipole moment (field-independent basis, Debye):
    X=              0.0000    Y=             -0.0000    Z=              3.6703  Tot=              3.6703

 Test job not archived.
 1\1\GINC-SE453\SP\RHF\Aug-CC-pVDZ\B1Cl2F1\OHZDE\09-Apr-2025\0\\#t hf a
 ug-cc-pvdz iop(5/13=1,5/36=2,99/5=2) pseudo=read geom=check guess=(rea
 d,tcheck) scf=(maxcycle=1)\\title\\0,1\Cl,0,0.,1.528606,-0.49653\B,0,0
 .,0.,0.360609\Cl,0,0.,-1.528606,-0.49653\F,0,0.,0.,1.67544\\Version=ES
 64L-G16RevC.01\State=1-A1\HF=-1044.2174776\RMSD=5.752e-02\Dipole=0.,0.
 ,1.4440128\Quadrupole=-1.5033846,-2.4642928,3.9676774,0.,0.,0.\PG=C02V
  [C2(B1F1),SGV(Cl2)]\\@

 Normal termination of Gaussian 16 at Wed Apr  9 00:09:30 2025.
