 Gaussian 16, Revision C.01,

 ----------------------------------------------------------------------
 #t hf aug-cc-pvdz symm=none int=(grid=ultrafine) guess=(read,tcheck) s
 table=(opt,rrhf)
 ----------------------------------------------------------------------
 -----
 title
 -----
 Symbolic Z-matrix:
 Charge =  0 Multiplicity = 1

 SCF Done:  E(RHF) =  -228.972872269     A.U. after   11 cycles
 Normal termination of Gaussian 16 at Tue Apr  8 22:36:24 2025.
 Gaussian 16:  ES64L-G16RevC.01  3-Jul-2019

 ----------------------------------------------------------------------
 #t hf aug-cc-pvdz iop(5/13=1,5/36=2,99/5=2) pseudo=read geom=check gue
 ss=(read,tcheck) scf=(maxcycle=1)
 ----------------------------------------------------------------------
 -----
 title
 -----
 Structure from the checkpoint file:  "BDE49_expt_1069_mol1.chk"
 Charge =  0 Multiplicity = 1

                         Standard orientation:
 ---------------------------------------------------------------------
 Center     Atomic      Atomic             Coordinates (Angstroms)
 Number     Number       Type             X           Y           Z
 ---------------------------------------------------------------------
      1          6           0        0.574196   -0.495930    0.000000
      2          6           0       -0.574196    0.495930    0.000000
      3          8           0        1.779844    0.260933   -0.000001
      4          1           0        0.491959   -1.135399   -0.889189
      5          1           0        0.491961   -1.135397    0.889192
      6          1           0        2.518303   -0.353272   -0.000003
      7          8           0       -1.779844   -0.260933    0.000000
      8          1           0       -0.491960    1.135398   -0.889191
      9          1           0       -0.491960    1.135399    0.889190
     10          1           0       -2.518303    0.353272    0.000007
 ---------------------------------------------------------------------

 SCF Done:  E(RHF) =  -229.984709222     A.U. after    2 cycles

 The electronic state is 1-A.
 Alpha  occ. eigenvalues --  -21.07071 -21.07058 -11.44269 -11.38604  -1.73106
 Alpha  occ. eigenvalues --   -1.68587  -1.06802  -0.86177  -0.66414  -0.65528
 Alpha  occ. eigenvalues --   -0.61083  -0.53815  -0.48259  -0.42338  -0.41483
 Alpha  occ. eigenvalues --   -0.33016  -0.31502
 Alpha virt. eigenvalues --    0.04067   0.05268   0.06302   0.06401   0.06599
 Alpha virt. eigenvalues --    0.06637   0.11383   0.13090   0.13398   0.15079
 Alpha virt. eigenvalues --    0.16604   0.17133   0.19069   0.19240   0.21485

 Mulliken charges:
               1
     1  C   -0.948052
     2  C   -0.948051
     3  O   -2.596067
     4  H    1.359927
     5  H    1.359927
     6  H    0.824264
     7  O   -2.596067
     8  H    1.359927
     9  H    1.359927
    10  H    0.824264
 Sum of Mulliken charges =   0.00000

 Dipole moment (field-independent basis, Debye):
    X=             -0.0000    Y=             -0.0000    Z=              0.0000  Tot=              0.0000

 Test job not archived.
 1\1\GINC-SE179\SP\RHF\Aug-CC-pVDZ\C2H6O2\OHZDE\08-Apr-2025\0\\#t hf au
 g-cc-pvdz iop(5/13=1,5/36=2,99/5=2) pseudo=read geom=check guess=(read
 ,tcheck) scf=(maxcycle=1)\\title\\0,1\C,0,-0.574196,0.49593,0.\C,0,0.5
 74196,-0.49593,0.\O,0,-1.779844,-0.260932,-0.000001\H,0,-0.491959,1.13
 5399,-0.889189\H,0,-0.491961,1.135397,0.889192\H,0,-2.518303,0.353273,
 -0.000003\O,0,1.779844,0.260932,0.\H,0,0.49196,-1.135398,-0.889191\H,0
 ,0.49196,-1.135399,0.88919\H,0,2.518303,-0.353273,0.000007\\Version=ES
 64L-G16RevC.01\State=1-A\HF=-229.9847092\RMSD=2.334e-01\Dipole=0.00000

 Normal termination of Gaussian 16 at Tue Apr  8 22:36:26 2025.
