 Gaussian 16, Revision C.01,

 ----------------------------------------------------------------------
 #t hf aug-cc-pvdz symm=none int=(grid=ultrafine) guess=(read,tcheck) s
 table=(opt,rrhf)
 ----------------------------------------------------------------------
 -----
 title
 -----
 Symbolic Z-matrix:
 Charge =  0 Multiplicity = 1

 SCF Done:  E(RHF) =  -744.693177773     A.U. after   17 cycles
 Normal termination of Gaussian 16 at Tue Apr  8 23:09:26 2025.
 Gaussian 16:  ES64L-G16RevC.01  3-Jul-2019

 ----------------------------------------------------------------------
 #t hf aug-cc-pvdz iop(5/13=1,5/36=2,99/5=2) pseudo=read geom=check gue
 ss=(read,tcheck) scf=(maxcycle=1)
 ----------------------------------------------------------------------
 -----
 title
 -----
 Structure from the checkpoint file:  "BDE49_expt_458_mol1.chk"
 Charge =  0 Multiplicity = 1

                         Standard orientation:
 ---------------------------------------------------------------------
 Center     Atomic      Atomic             Coordinates (Angstroms)
 Number     Number       Type             X           Y           Z
 ---------------------------------------------------------------------
      1          6           0        2.357449   -0.001159    0.004773
      2          6           0        1.514001    1.100841   -0.001080
      3          6           0        0.115554    0.952903   -0.007174
      4          6           0        1.836454   -1.294472    0.004311
      5          6           0        0.456033   -1.468503    0.000593
      6          6           0       -0.382299   -0.361679   -0.004374
      7          1           0        3.430517    0.152658    0.009334
      8          1           0        1.929084    2.103568   -0.008039
      9          1           0        0.019390   -2.459195    0.003830
     10          7           0       -0.720741    2.053983   -0.071771
     11          1           0       -1.676679    1.901427    0.212477
     12          1           0       -0.330734    2.921355    0.262606
     13         17           0       -2.129454   -0.612254    0.001869
     14          1           0        2.491180   -2.156965    0.008112
 ---------------------------------------------------------------------

 SCF Done:  E(RHF) =  -746.300045313     A.U. after    2 cycles

 The electronic state is 1-A.
 Alpha  occ. eigenvalues --  -99.89319 -15.76544 -11.52787 -11.46747 -11.45206
 Alpha  occ. eigenvalues --  -11.42552 -11.41099 -11.37203 -10.46664  -9.66676
 Alpha  occ. eigenvalues --   -9.65928  -9.65627  -1.44357  -1.31858  -1.26126
 Alpha  occ. eigenvalues --   -1.08917  -1.05839  -0.88313  -0.85713  -0.71843
 Alpha  occ. eigenvalues --   -0.69537  -0.67577  -0.59888  -0.59254  -0.58042
 Alpha  occ. eigenvalues --   -0.57548  -0.51377  -0.50687  -0.46748  -0.45932
 Alpha  occ. eigenvalues --   -0.43850  -0.33844  -0.28236
 Alpha virt. eigenvalues --    0.03304   0.04859   0.05084   0.05773   0.06364
 Alpha virt. eigenvalues --    0.08002   0.09333   0.10156   0.11243   0.12158
 Alpha virt. eigenvalues --    0.12639   0.13150   0.13439   0.13924   0.14404

 Mulliken charges:
               1
     1  C   -1.327709
     2  C   -0.945998
     3  C    2.390262
     4  C   -1.023669
     5  C   -1.030635
     6  C   -1.221877
     7  H    1.520377
     8  H    1.662215
     9  H    1.727000
    10  N   -3.775028
    11  H    0.635225
    12  H    0.678115
    13  Cl  -0.830695
    14  H    1.542417
 Sum of Mulliken charges =   0.00000

 Dipole moment (field-independent basis, Debye):
    X=              1.6858    Y=              1.4166    Z=              0.6724  Tot=              2.3024

 Test job not archived.
 1\1\GINC-SE179\SP\RHF\Aug-CC-pVDZ\C6H6Cl1N1\OHZDE\08-Apr-2025\0\\#t hf
  aug-cc-pvdz iop(5/13=1,5/36=2,99/5=2) pseudo=read geom=check guess=(r
 ead,tcheck) scf=(maxcycle=1)\\title\\0,1\C,0,2.357449,-0.001159,0.0047
 73\C,0,1.514001,1.100841,-0.00108\C,0,0.115554,0.952903,-0.007174\C,0,
 1.836454,-1.294472,0.004311\C,0,0.456033,-1.468503,0.000593\C,0,-0.382
 299,-0.361679,-0.004374\H,0,3.430517,0.152658,0.009334\H,0,1.929084,2.
 103568,-0.008039\H,0,0.01939,-2.459195,0.00383\N,0,-0.720741,2.053983,
 -0.071771\H,0,-1.676679,1.901427,0.212477\H,0,-0.330734,2.921355,0.262

 Normal termination of Gaussian 16 at Tue Apr  8 23:09:31 2025.
