 Gaussian 16, Revision C.01,

 ----------------------------------------------------------------------
 #t hf aug-cc-pvdz symm=none int=(grid=ultrafine) guess=(read,tcheck) s
 table=(opt,rrhf)
 ----------------------------------------------------------------------
 -----
 title
 -----
 Symbolic Z-matrix:
 Charge =  0 Multiplicity = 1

 SCF Done:  E(RHF) =  -1105.82678463     A.U. after   15 cycles
 Normal termination of Gaussian 16 at Tue Apr  8 23:31:00 2025.
 Gaussian 16:  ES64L-G16RevC.01  3-Jul-2019

 ----------------------------------------------------------------------
 #t hf aug-cc-pvdz iop(5/13=1,5/36=2,99/5=2) pseudo=read geom=check gue
 ss=(read,tcheck) scf=(maxcycle=1)
 ----------------------------------------------------------------------
 -----
 title
 -----
 Structure from the checkpoint file:  "BDE49_nonexpt_1361_mol1.chk"
 Charge =  0 Multiplicity = 1

                         Standard orientation:
 ---------------------------------------------------------------------
 Center     Atomic      Atomic             Coordinates (Angstroms)
 Number     Number       Type             X           Y           Z
 ---------------------------------------------------------------------
      1          9           0       -2.632588    0.000007   -0.381943
      2         15           0       -1.262127    0.000007    0.478101
      3          6           0       -0.000005    1.278980   -0.000084
      4          8           0        0.000018    2.471752   -0.000042
      5          6           0       -0.000012   -1.278980   -0.000068
      6         15           0        1.262173   -0.000007   -0.478105
      7          8           0       -0.000009   -2.471752   -0.000045
      8          9           0        2.632515   -0.000007    0.382129
 ---------------------------------------------------------------------

 SCF Done:  E(RHF) =  -1107.78727433     A.U. after    2 cycles

 The electronic state is 1-A.
 Alpha  occ. eigenvalues -- -105.29794-105.28926 -29.32960 -29.32960 -21.13050
 Alpha  occ. eigenvalues --  -21.13045 -11.54116 -11.54011  -2.89605  -2.88161
 Alpha  occ. eigenvalues --   -1.78334  -1.77606  -1.69253  -1.64317  -1.57246
 Alpha  occ. eigenvalues --   -1.55003  -1.54352  -1.51743  -1.04605  -0.86540
 Alpha  occ. eigenvalues --   -0.73743  -0.65944  -0.56443  -0.55785  -0.53729
 Alpha  occ. eigenvalues --   -0.53255  -0.52464  -0.46433  -0.41759  -0.38351
 Alpha  occ. eigenvalues --   -0.37912  -0.37741  -0.37567  -0.29432  -0.16384
 Alpha  occ. eigenvalues --   -0.08161  -0.07945  -0.04482
 Alpha virt. eigenvalues --    0.06109   0.07478   0.07591   0.08696   0.09864
 Alpha virt. eigenvalues --    0.10255   0.10984   0.12322   0.12927   0.13412
 Alpha virt. eigenvalues --    0.14125   0.14586   0.15236   0.16764   0.16890

 Mulliken charges:
               1
     1  F   -0.040279
     2  P    4.266999
     3  C   -1.355395
     4  O   -2.871423
     5  C   -1.355395
     6  P    4.267221
     7  O   -2.871423
     8  F   -0.040305
 Sum of Mulliken charges =  -0.00000

 Dipole moment (field-independent basis, Debye):
    X=             -0.0000    Y=             -0.0000    Z=              0.0017  Tot=              0.0017

 Test job not archived.
 1\1\GINC-SE041\SP\RHF\Aug-CC-pVDZ\C2F2O2P2\OHZDE\08-Apr-2025\0\\#t hf
 aug-cc-pvdz iop(5/13=1,5/36=2,99/5=2) pseudo=read geom=check guess=(re
 ad,tcheck) scf=(maxcycle=1)\\title\\0,1\F,0,-2.632588,0.000009,-0.3819
 43\P,0,-1.262127,0.000008,0.478101\C,0,-0.000004,1.27898,-0.000084\O,0
 ,0.00002,2.471752,-0.000042\C,0,-0.000013,-1.27898,-0.000068\P,0,1.262
 173,-0.000008,-0.478105\O,0,-0.000011,-2.471752,-0.000045\F,0,2.632515
 ,-0.000009,0.382129\\Version=ES64L-G16RevC.01\State=1-A\HF=-1107.78727
 43\RMSD=1.503e-01\Dipole=-0.0000018,0.,0.0006534\Quadrupole=19.602489,

 Normal termination of Gaussian 16 at Tue Apr  8 23:31:04 2025.
