 Gaussian 16, Revision C.01,

 ----------------------------------------------------------------------
 #t hf aug-cc-pvdz symm=none int=(grid=ultrafine) guess=(read,tcheck) s
 table=(opt,rrhf)
 ----------------------------------------------------------------------
 -----
 title
 -----
 Symbolic Z-matrix:
 Charge =  0 Multiplicity = 1

 SCF Done:  E(RHF) =  -1336.24136855     A.U. after   13 cycles
 Normal termination of Gaussian 16 at Wed Apr  9 00:51:45 2025.
 Gaussian 16:  ES64L-G16RevC.01  3-Jul-2019

 ----------------------------------------------------------------------
 #t hf aug-cc-pvdz iop(5/13=1,5/36=2,99/5=2) pseudo=read geom=check gue
 ss=(read,tcheck) scf=(maxcycle=1)
 ----------------------------------------------------------------------
 -----
 title
 -----
 Structure from the checkpoint file:  "BDE49_nonexpt_910_mol1.chk"
 Charge =  0 Multiplicity = 1

                         Standard orientation:
 ---------------------------------------------------------------------
 Center     Atomic      Atomic             Coordinates (Angstroms)
 Number     Number       Type             X           Y           Z
 ---------------------------------------------------------------------
      1          6           0       -1.636243   -0.553467   -0.621425
      2         16           0        0.003507   -1.330938   -0.281164
      3          5           0        1.169696    0.027830   -0.054387
      4         16           0        0.665195    1.772666   -0.223698
      5         16           0        2.909284   -0.351157    0.339692
      6          6           0       -2.428819   -0.200453    0.638101
      7          1           0       -2.168670   -1.299433   -1.216277
      8          1           0       -1.481396    0.318429   -1.259971
      9          6           0       -3.807207    0.379437    0.301278
     10          1           0       -1.860424    0.516821    1.236759
     11          1           0       -2.541021   -1.098783    1.252839
     12          1           0       -3.719879    1.298336   -0.285996
     13          1           0       -4.360618    0.619473    1.212516
     14          1           0       -4.408606   -0.329786   -0.275640
     15          1           0        1.871699    2.326087   -0.010241
     16          1           0        2.806268   -1.692544    0.352951
 ---------------------------------------------------------------------

 SCF Done:  E(RHF) =  -1337.65273448     A.U. after    2 cycles

 The electronic state is 1-A.
 Alpha  occ. eigenvalues --  -75.69897 -75.69561 -75.68311 -13.17498 -13.16714
 Alpha  occ. eigenvalues --  -13.15052 -13.11596 -13.10703 -13.07653 -13.05063
 Alpha  occ. eigenvalues --  -13.04101 -13.03645 -11.43562 -11.40115 -11.36263
 Alpha  occ. eigenvalues --   -8.03936  -8.03457  -8.02351  -7.67722  -1.28433
 Alpha  occ. eigenvalues --   -1.20356  -1.10562  -1.09729  -0.96467  -0.85019
 Alpha  occ. eigenvalues --   -0.67598  -0.64577  -0.58984  -0.57100  -0.55036
 Alpha  occ. eigenvalues --   -0.53829  -0.48764  -0.47926  -0.47628  -0.39698
 Alpha  occ. eigenvalues --   -0.37436  -0.34062  -0.32286  -0.25457  -0.24064
 Alpha virt. eigenvalues --    0.02138   0.02338   0.02845   0.03207   0.05704
 Alpha virt. eigenvalues --    0.06299   0.06831   0.07278   0.08519   0.08801
 Alpha virt. eigenvalues --    0.09397   0.09946   0.10676   0.11558   0.12139

 Mulliken charges:
               1
     1  C   -3.735514
     2  S   -0.802477
     3  B    4.596889
     4  S   -2.465247
     5  S   -2.759105
     6  C   -2.863190
     7  H    1.503004
     8  H    1.602112
     9  C   -3.881434
    10  H    1.517396
    11  H    1.533810
    12  H    1.332837
    13  H    1.171766
    14  H    1.267086
    15  H    0.936131
    16  H    1.045938
 Sum of Mulliken charges =  -0.00000

 Dipole moment (field-independent basis, Debye):
    X=             -1.4770    Y=              0.4324    Z=             -0.1725  Tot=              1.5486

 Test job not archived.
 1\1\GINC-SE229\SP\RHF\Aug-CC-pVDZ\C3H9B1S3\OHZDE\09-Apr-2025\0\\#t hf
 aug-cc-pvdz iop(5/13=1,5/36=2,99/5=2) pseudo=read geom=check guess=(re
 ad,tcheck) scf=(maxcycle=1)\\title\\0,1\C,0,-1.636243,-0.553467,-0.621
 425\S,0,0.003507,-1.330938,-0.281164\B,0,1.169696,0.02783,-0.054387\S,
 0,0.665195,1.772666,-0.223698\S,0,2.909284,-0.351157,0.339692\C,0,-2.4
 28819,-0.200453,0.638101\H,0,-2.16867,-1.299433,-1.216277\H,0,-1.48139
 6,0.318429,-1.259971\C,0,-3.807207,0.379437,0.301278\H,0,-1.860424,0.5
 16821,1.236759\H,0,-2.541021,-1.098783,1.252839\H,0,-3.719879,1.298336

 Normal termination of Gaussian 16 at Wed Apr  9 00:51:52 2025.
