 Gaussian 16, Revision C.01,

 ----------------------------------------------------------------------
 #t hf aug-cc-pvdz symm=none int=(grid=ultrafine) guess=(read,tcheck) s
 table=(opt,rrhf)
 ----------------------------------------------------------------------
 -----
 title
 -----
 Symbolic Z-matrix:
 Charge =  0 Multiplicity = 1

 SCF Done:  E(RHF) =  -611.406772752     A.U. after   14 cycles
 Normal termination of Gaussian 16 at Wed Apr  9 00:24:39 2025.
 Gaussian 16:  ES64L-G16RevC.01  3-Jul-2019

 ----------------------------------------------------------------------
 #t hf aug-cc-pvdz iop(5/13=1,5/36=2,99/5=2) pseudo=read geom=check gue
 ss=(read,tcheck) scf=(maxcycle=1)
 ----------------------------------------------------------------------
 -----
 title
 -----
 Structure from the checkpoint file:  "BDE49_nonexpt_2702_mol1.chk"
 Charge =  0 Multiplicity = 1

                         Standard orientation:
 ---------------------------------------------------------------------
 Center     Atomic      Atomic             Coordinates (Angstroms)
 Number     Number       Type             X           Y           Z
 ---------------------------------------------------------------------
      1         16           0        0.643801   -0.585889    0.168766
      2          9           0        1.422071    0.876952   -0.088528
      3          8           0       -0.793831   -0.342651   -0.540563
      4          6           0       -1.779141    0.409513    0.213490
      5          1           0       -2.702980    0.336753   -0.358732
      6          1           0       -1.464444    1.451044    0.290691
      7          1           0       -1.906533   -0.022019    1.208100
 ---------------------------------------------------------------------

 SCF Done:  E(RHF) =  -612.483630030     A.U. after    2 cycles

 The electronic state is 1-A.
 Alpha  occ. eigenvalues --  -75.79559 -29.27058 -21.10706 -13.27629 -13.19231
 Alpha  occ. eigenvalues --  -13.12474 -11.42939  -8.13289  -1.80699  -1.16054
 Alpha  occ. eigenvalues --   -0.98995  -0.69482  -0.64182  -0.62360  -0.54980
 Alpha  occ. eigenvalues --   -0.46683  -0.42242  -0.37953  -0.31033  -0.29757
 Alpha  occ. eigenvalues --   -0.17725
 Alpha virt. eigenvalues --    0.03223   0.05696   0.06184   0.07985   0.09650
 Alpha virt. eigenvalues --    0.11866   0.12728   0.14973   0.15440   0.15743
 Alpha virt. eigenvalues --    0.19388   0.21604   0.22586   0.25849   0.26971

 Mulliken charges:
               1
     1  S    1.292848
     2  F   -0.190828
     3  O   -2.293884
     4  C   -2.568017
     5  H    1.168967
     6  H    1.303791
     7  H    1.287123
 Sum of Mulliken charges =  -0.00000

 Dipole moment (field-independent basis, Debye):
    X=              0.8455    Y=              1.9869    Z=              0.1242  Tot=              2.1629

 Test job not archived.
 1\1\GINC-SE058\SP\RHF\Aug-CC-pVDZ\C1H3F1O1S1\OHZDE\09-Apr-2025\0\\#t h
 f aug-cc-pvdz iop(5/13=1,5/36=2,99/5=2) pseudo=read geom=check guess=(
 read,tcheck) scf=(maxcycle=1)\\title\\0,1\S,0,0.643801,-0.585889,0.168
 766\F,0,1.422071,0.876952,-0.088528\O,0,-0.793831,-0.342651,-0.540563\
 C,0,-1.779141,0.409513,0.21349\H,0,-2.70298,0.336753,-0.358732\H,0,-1.
 464444,1.451044,0.290691\H,0,-1.906533,-0.022019,1.2081\\Version=ES64L
 -G16RevC.01\State=1-A\HF=-612.48363\RMSD=5.318e-02\Dipole=0.3326538,0.
 7817112,0.0488634\Quadrupole=2.782714,-0.216591,-2.566123,0.6399388,0.

 Normal termination of Gaussian 16 at Wed Apr  9 00:24:42 2025.
