 Gaussian 16, Revision C.01,

 ----------------------------------------------------------------------
 #t hf aug-cc-pvdz symm=none int=(grid=ultrafine) guess=(read,tcheck) s
 table=opt
 ----------------------------------------------------------------------
 -----
 title
 -----
 Symbolic Z-matrix:
 Charge =  0 Multiplicity = 2

 SCF Done:  E(UHF) =  -873.674140857     A.U. after   20 cycles
 Normal termination of Gaussian 16 at Tue Apr  8 23:53:24 2025.
 Gaussian 16:  ES64L-G16RevC.01  3-Jul-2019

 ----------------------------------------------------------------------
 #t hf aug-cc-pvdz iop(5/13=1,5/36=2,99/5=2) pseudo=read geom=check gue
 ss=(read,tcheck) scf=(maxcycle=1)
 ----------------------------------------------------------------------
 -----
 title
 -----
 Structure from the checkpoint file:  "BDE49_nonexpt_1929_mol3.chk"
 Charge =  0 Multiplicity = 2

                         Standard orientation:
 ---------------------------------------------------------------------
 Center     Atomic      Atomic             Coordinates (Angstroms)
 Number     Number       Type             X           Y           Z
 ---------------------------------------------------------------------
      1          6           0       -1.777186    0.823950    0.446406
      2         16           0       -1.015466   -0.425253   -0.442795
      3         16           0        0.911110   -0.570152    0.400999
      4          6           0        1.765977    0.867322   -0.340680
      5          1           0        2.767649    0.875976    0.095521
      6          1           0        1.251237    1.791324   -0.080652
      7          1           0        1.839279    0.758285   -1.421834
      8          1           0       -1.579168    0.955203    1.501304
      9          1           0       -2.542042    1.398056   -0.059963
 ---------------------------------------------------------------------

 SCF Done:  E(UHF) =  -874.514075921     A.U. after    2 cycles

 The electronic state is 2-A.
 Alpha  occ. eigenvalues --  -75.71363 -75.70520 -13.14120 -13.11727 -13.09662
 Alpha  occ. eigenvalues --  -13.07924 -13.04835 -13.03459 -11.40258 -11.40135
 Alpha  occ. eigenvalues --   -8.05435  -8.04355  -1.26744  -1.13567  -0.96637
 Alpha  occ. eigenvalues --   -0.86503  -0.62521  -0.59733  -0.59399  -0.49791
 Alpha  occ. eigenvalues --   -0.45036  -0.43416  -0.31918  -0.25626  -0.21297
 Alpha virt. eigenvalues --    0.02722   0.03642   0.04567   0.06005   0.07041
 Alpha virt. eigenvalues --    0.08177   0.08819   0.12805   0.13132   0.13732
 Alpha virt. eigenvalues --    0.14539   0.15248   0.15574   0.17052   0.17312

  Beta  occ. eigenvalues --  -75.71336 -75.70477 -13.14278 -13.11836 -13.09732
  Beta  occ. eigenvalues --  -13.07880 -13.04287 -13.03306 -11.40117 -11.38038
  Beta  occ. eigenvalues --   -8.05395  -8.04297  -1.25362  -1.11476  -0.93986
  Beta  occ. eigenvalues --   -0.83044  -0.61194  -0.59526  -0.59279  -0.47986
  Beta  occ. eigenvalues --   -0.42801  -0.35662  -0.27711  -0.23990
  Beta virt. eigenvalues --    0.02824   0.03775   0.04565   0.05965   0.06871
  Beta virt. eigenvalues --    0.07161   0.08377   0.10268   0.12965   0.13348
  Beta virt. eigenvalues --    0.14154   0.14844   0.15374   0.16215   0.17403

 Mulliken charges and spin densities:
               1          2
     1  C   -3.479463   1.225646
     2  S    0.509598  -0.066043
     3  S    0.200914   0.000455
     4  C   -4.457283   0.034812
     5  H    1.367419   0.000451
     6  H    1.491854  -0.010603
     7  H    1.466921   0.000362
     8  H    1.424940  -0.091363
     9  H    1.475101  -0.093717
 Sum of Mulliken charges =  -0.00000   1.00000

 Dipole moment (field-independent basis, Debye):
    X=              0.4222    Y=             -0.8088    Z=             -0.2179  Tot=              0.9381
                          Isotropic Fermi Contact Couplings
        Atom                 a.u.       MegaHertz       Gauss      10(-4) cm-1
     1  C(13)              0.11932     134.14386      47.86587      44.74558
     2  S(33)              0.09114      31.30357      11.16989      10.44175
     3  S(33)              0.10459      35.92370      12.81847      11.98286
     4  C(13)              0.00518       5.82501       2.07851       1.94301
     5  H(1)               0.00121       5.39591       1.92539       1.79988
     6  H(1)              -0.00034      -1.53903      -0.54916      -0.51336
     7  H(1)              -0.00022      -0.99872      -0.35637      -0.33314
     8  H(1)              -0.01630     -72.84672     -25.99352     -24.29905

 Normal termination of Gaussian 16 at Tue Apr  8 23:53:26 2025.
