 Gaussian 16, Revision C.01,

 ----------------------------------------------------------------------
 #t hf aug-cc-pvdz symm=none int=(grid=ultrafine) guess=(read,tcheck) s
 table=(opt,rrhf)
 ----------------------------------------------------------------------
 -----
 title
 -----
 Symbolic Z-matrix:
 Charge =  0 Multiplicity = 1

 SCF Done:  E(RHF) =  -237.931230022     A.U. after   10 cycles
 Normal termination of Gaussian 16 at Tue Apr  8 22:37:21 2025.
 Gaussian 16:  ES64L-G16RevC.01  3-Jul-2019

 ----------------------------------------------------------------------
 #t hf aug-cc-pvdz iop(5/13=1,5/36=2,99/5=2) pseudo=read geom=check gue
 ss=(read,tcheck) scf=(maxcycle=1)
 ----------------------------------------------------------------------
 -----
 title
 -----
 Structure from the checkpoint file:  "BDE49_expt_112_mol1.chk"
 Charge =  0 Multiplicity = 1

                         Standard orientation:
 ---------------------------------------------------------------------
 Center     Atomic      Atomic             Coordinates (Angstroms)
 Number     Number       Type             X           Y           Z
 ---------------------------------------------------------------------
      1          6           0        0.000000    0.503180    0.000000
      2          1           0        0.000111    1.105007    0.912358
      3          1           0        0.000111    1.105007   -0.912358
      4          9           0       -1.107909   -0.290517    0.000000
      5          9           0        1.107884   -0.290493    0.000000
 ---------------------------------------------------------------------

 SCF Done:  E(RHF) =  -238.799139365     A.U. after    2 cycles

 The electronic state is 1-A'.
 Alpha  occ. eigenvalues --  -29.28509 -29.28472 -11.50575  -1.26906  -0.78106
 Alpha  occ. eigenvalues --   -0.72516  -0.72048  -0.44301  -0.38432  -0.31207
 Alpha  occ. eigenvalues --   -0.29582  -0.26672  -0.22548
 Alpha virt. eigenvalues --    0.04125   0.05307   0.11031   0.11921   0.14626
 Alpha virt. eigenvalues --    0.18241   0.22981   0.23950   0.25196   0.26747
 Alpha virt. eigenvalues --    0.29253   0.31703   0.35308   0.35519   0.38117

 Mulliken charges:
               1
     1  C   -3.234667
     2  H    1.238082
     3  H    1.238082
     4  F    0.379226
     5  F    0.379277
 Sum of Mulliken charges =   0.00000

 Dipole moment (field-independent basis, Debye):
    X=              0.0000    Y=             -1.1069    Z=              0.0000  Tot=              1.1069

 Test job not archived.
 1\1\GINC-SE393\SP\RHF\Aug-CC-pVDZ\C1H2F2\OHZDE\08-Apr-2025\0\\#t hf au
 g-cc-pvdz iop(5/13=1,5/36=2,99/5=2) pseudo=read geom=check guess=(read
 ,tcheck) scf=(maxcycle=1)\\title\\0,1\C,0,0.,0.50318,0.\H,0,0.000111,1
 .105007,0.912358\H,0,0.000111,1.105007,-0.912358\F,0,-1.107909,-0.2905
 17,0.\F,0,1.107884,-0.290493,0.\\Version=ES64L-G16RevC.01\State=1-A'\H
 F=-238.7991394\RMSD=6.085e-02\Dipole=0.0000055,-0.4354728,0.\Quadrupol
 e=0.4108499,-0.4234405,0.0125906,0.0002126,0.,0.\PG=CS [SG(C1F2),X(H2)
 ]\\@

 Normal termination of Gaussian 16 at Tue Apr  8 22:37:22 2025.
