 Gaussian 16, Revision C.01,

 ----------------------------------------------------------------------
 #t hf aug-cc-pvdz symm=none int=(grid=ultrafine) guess=(read,tcheck) s
 table=(opt,rrhf)
 ----------------------------------------------------------------------
 -----
 title
 -----
 Symbolic Z-matrix:
 Charge =  0 Multiplicity = 1

 SCF Done:  E(RHF) =  -1248.19863899     A.U. after   12 cycles
 Normal termination of Gaussian 16 at Tue Apr  8 23:46:14 2025.
 Gaussian 16:  ES64L-G16RevC.01  3-Jul-2019

 ----------------------------------------------------------------------
 #t hf aug-cc-pvdz iop(5/13=1,5/36=2,99/5=2) pseudo=read geom=check gue
 ss=(read,tcheck) scf=(maxcycle=1)
 ----------------------------------------------------------------------
 -----
 title
 -----
 Structure from the checkpoint file:  "BDE49_nonexpt_1758_mol1.chk"
 Charge =  0 Multiplicity = 1

                         Standard orientation:
 ---------------------------------------------------------------------
 Center     Atomic      Atomic             Coordinates (Angstroms)
 Number     Number       Type             X           Y           Z
 ---------------------------------------------------------------------
      1         14           0       -0.480161    0.619501    0.000000
      2          6           0        0.795647   -0.762839    0.000000
      3         17           0       -2.372942   -0.257475    0.000000
      4          1           0        0.733463   -1.391358   -0.887417
      5          1           0        0.733463   -1.391359    0.887415
      6         17           0        2.443041    0.011534    0.000000
      7          1           0       -0.355116    1.433870   -1.219914
      8          1           0       -0.355116    1.433868    1.219916
 ---------------------------------------------------------------------

 SCF Done:  E(RHF) =  -1249.04659936     A.U. after    2 cycles

 The electronic state is 1-A.
 Alpha  occ. eigenvalues --  -99.89601 -99.89149 -76.27333 -11.42748 -10.46766
 Alpha  occ. eigenvalues --  -10.46553  -9.66593  -9.66440  -9.66030  -9.65894
 Alpha  occ. eigenvalues --   -9.65828  -9.65747  -5.60898  -2.24096  -2.23031
 Alpha  occ. eigenvalues --   -2.22677  -1.33598  -1.29417  -1.02358  -0.78267
 Alpha  occ. eigenvalues --   -0.65672  -0.62665  -0.57347  -0.55825  -0.55339
 Alpha  occ. eigenvalues --   -0.52529  -0.49297  -0.48171  -0.43678
 Alpha virt. eigenvalues --    0.02941   0.04770   0.05221   0.05491   0.07286
 Alpha virt. eigenvalues --    0.08094   0.08106   0.10113   0.11006   0.11363
 Alpha virt. eigenvalues --    0.13394   0.13817   0.15016   0.15818   0.16299

 Mulliken charges:
               1
     1  Si   5.731680
     2  C   -4.096292
     3  Cl  -0.895293
     4  H    1.461056
     5  H    1.461056
     6  Cl   0.000467
     7  H   -1.831337
     8  H   -1.831336
 Sum of Mulliken charges =  -0.00000

 Dipole moment (field-independent basis, Debye):
    X=             -0.2718    Y=             -0.6013    Z=             -0.0000  Tot=              0.6599

 Test job not archived.
 1\1\GINC-SE398\SP\RHF\Aug-CC-pVDZ\C1H4Cl2Si1\OHZDE\08-Apr-2025\0\\#t h
 f aug-cc-pvdz iop(5/13=1,5/36=2,99/5=2) pseudo=read geom=check guess=(
 read,tcheck) scf=(maxcycle=1)\\title\\0,1\Si,0,-0.480161,0.619501,0.\C
 ,0,0.795647,-0.762839,0.\Cl,0,-2.372942,-0.257475,0.\H,0,0.733463,-1.3
 91358,-0.887417\H,0,0.733463,-1.391359,0.887415\Cl,0,2.443041,0.011534
 ,0.\H,0,-0.355116,1.43387,-1.219914\H,0,-0.355116,1.433868,1.219916\\V
 ersion=ES64L-G16RevC.01\State=1-A\HF=-1249.0465994\RMSD=7.085e-02\Dipo
 le=-0.1069525,-0.2365874,-0.0000014\Quadrupole=-3.4921015,2.4524107,1.

 Normal termination of Gaussian 16 at Tue Apr  8 23:46:16 2025.
