 Gaussian 16, Revision C.01,

 ----------------------------------------------------------------------
 #t hf aug-cc-pvdz symm=none int=(grid=ultrafine) guess=(read,tcheck) s
 table=(opt,rrhf)
 ----------------------------------------------------------------------
 -----
 title
 -----
 Symbolic Z-matrix:
 Charge =  0 Multiplicity = 1

 SCF Done:  E(RHF) =  -508.567712558     A.U. after   12 cycles
 Normal termination of Gaussian 16 at Tue Apr  8 23:55:49 2025.
 Gaussian 16:  ES64L-G16RevC.01  3-Jul-2019

 ----------------------------------------------------------------------
 #t hf aug-cc-pvdz iop(5/13=1,5/36=2,99/5=2) pseudo=read geom=check gue
 ss=(read,tcheck) scf=(maxcycle=1)
 ----------------------------------------------------------------------
 -----
 title
 -----
 Structure from the checkpoint file:  "BDE49_nonexpt_1962_mol1.chk"
 Charge =  0 Multiplicity = 1

                         Standard orientation:
 ---------------------------------------------------------------------
 Center     Atomic      Atomic             Coordinates (Angstroms)
 Number     Number       Type             X           Y           Z
 ---------------------------------------------------------------------
      1         14           0        2.034710   -0.281802   -0.257493
      2          6           0        0.590633    0.083210    0.903626
      3          5           0       -0.708243    0.577848    0.154312
      4          1           0        1.689367   -1.366405   -1.209614
      5          1           0        3.228325   -0.710510    0.511383
      6          8           0       -1.686356   -0.274948   -0.262516
      7          6           0       -0.942674    2.104485   -0.163451
      8          1           0        2.394797    0.921762   -1.044208
      9          1           0       -0.052681    2.577672   -0.593045
     10          1           0       -1.148777    2.649374    0.767302
     11          1           0       -1.786271    2.268218   -0.837585
     12          6           0       -1.668176   -1.682019   -0.037679
     13          1           0       -2.549508   -2.099888   -0.524792
     14          1           0       -1.714392   -1.912748    1.031059
     15          1           0       -0.774753   -2.145400   -0.465584
     16          1           0        0.952122    0.862203    1.584799
     17          1           0        0.429208   -0.822759    1.498777
 ---------------------------------------------------------------------

 SCF Done:  E(RHF) =  -509.785736892     A.U. after    2 cycles

 The electronic state is 1-A.
 Alpha  occ. eigenvalues --  -76.21449 -21.02306 -11.40840 -11.32974 -11.32219
 Alpha  occ. eigenvalues --   -7.60369  -5.54860  -2.18734  -2.17106  -2.17047
 Alpha  occ. eigenvalues --   -1.76500  -1.11611  -1.02189  -0.97438  -0.75117
 Alpha  occ. eigenvalues --   -0.68300  -0.62229  -0.61219  -0.58982  -0.54849
 Alpha  occ. eigenvalues --   -0.53961  -0.50541  -0.46490  -0.46365  -0.43576
 Alpha  occ. eigenvalues --   -0.41920  -0.36674  -0.33890
 Alpha virt. eigenvalues --    0.03353   0.04197   0.04223   0.04840   0.06430
 Alpha virt. eigenvalues --    0.06676   0.07059   0.07313   0.07899   0.08325
 Alpha virt. eigenvalues --    0.09030   0.09283   0.09520   0.10010   0.10328

 Mulliken charges:
               1
     1  Si   6.205436
     2  C   -6.242814
     3  B    9.545259
     4  H   -1.804555
     5  H   -1.936975
     6  O   -3.852957
     7  C   -6.617841
     8  H   -1.858385
     9  H    0.832883
    10  H    0.507323
    11  H    1.014465
    12  C   -2.714613
    13  H    1.307412
    14  H    1.427202
    15  H    1.535867
    16  H    1.416197
    17  H    1.236097
 Sum of Mulliken charges =  -0.00000

 Dipole moment (field-independent basis, Debye):
    X=             -0.4358    Y=             -0.6890    Z=              0.8697  Tot=              1.1921

 Test job not archived.
 1\1\GINC-SE329\SP\RHF\Aug-CC-pVDZ\C3H11B1O1Si1\OHZDE\08-Apr-2025\0\\#t
  hf aug-cc-pvdz iop(5/13=1,5/36=2,99/5=2) pseudo=read geom=check guess
 =(read,tcheck) scf=(maxcycle=1)\\title\\0,1\Si,0,2.03471,-0.281802,-0.
 257493\C,0,0.590633,0.08321,0.903626\B,0,-0.708243,0.577848,0.154312\H
 ,0,1.689367,-1.366405,-1.209614\H,0,3.228325,-0.71051,0.511383\O,0,-1.
 686356,-0.274948,-0.262516\C,0,-0.942674,2.104485,-0.163451\H,0,2.3947
 97,0.921762,-1.044208\H,0,-0.052681,2.577672,-0.593045\H,0,-1.148777,2
 .649374,0.767302\H,0,-1.786271,2.268218,-0.837585\C,0,-1.668176,-1.682

 Normal termination of Gaussian 16 at Tue Apr  8 23:55:55 2025.
