 Gaussian 16, Revision C.01,

 ----------------------------------------------------------------------
 #t hf aug-cc-pvdz symm=none int=(grid=ultrafine) guess=(read,tcheck) s
 table=(opt,rrhf)
 ----------------------------------------------------------------------
 -----
 title
 -----
 Symbolic Z-matrix:
 Charge =  0 Multiplicity = 1

 SCF Done:  E(RHF) =  -444.271717728     A.U. after   11 cycles
 Normal termination of Gaussian 16 at Wed Apr  9 00:03:29 2025.
 Gaussian 16:  ES64L-G16RevC.01  3-Jul-2019

 ----------------------------------------------------------------------
 #t hf aug-cc-pvdz iop(5/13=1,5/36=2,99/5=2) pseudo=read geom=check gue
 ss=(read,tcheck) scf=(maxcycle=1)
 ----------------------------------------------------------------------
 -----
 title
 -----
 Structure from the checkpoint file:  "BDE49_nonexpt_2178_mol1.chk"
 Charge =  0 Multiplicity = 1

                         Standard orientation:
 ---------------------------------------------------------------------
 Center     Atomic      Atomic             Coordinates (Angstroms)
 Number     Number       Type             X           Y           Z
 ---------------------------------------------------------------------
      1         14           0        0.002780    0.065364    0.354935
      2          8           0       -0.117174    1.586988   -0.303002
      3          1           0        0.563019    2.231570   -0.097890
      4          6           0       -1.532567   -0.842429   -0.191614
      5          1           0       -1.570923   -0.920493   -1.281900
      6          1           0       -2.433230   -0.320835    0.142247
      7          6           0        1.563019   -0.809231   -0.208611
      8          1           0        1.577949   -0.935431   -1.295284
      9          1           0        1.630803   -1.802445    0.247577
     10          1           0        2.462867   -0.256477    0.079119
     11          1           0       -1.555192   -1.855280    0.221950
     12          1           0        0.040471    0.158353    1.840449
 ---------------------------------------------------------------------

 SCF Done:  E(RHF) =  -445.172954599     A.U. after    2 cycles

 The electronic state is 1-A.
 Alpha  occ. eigenvalues --  -76.21105 -21.06345 -11.34268 -11.33969  -5.55197
 Alpha  occ. eigenvalues --   -2.21712  -2.18650  -2.17268  -1.64784  -1.05350
 Alpha  occ. eigenvalues --   -1.00857  -0.69771  -0.59038  -0.56529  -0.55258
 Alpha  occ. eigenvalues --   -0.54444  -0.53122  -0.44876  -0.41645  -0.38306
 Alpha  occ. eigenvalues --   -0.35574
 Alpha virt. eigenvalues --    0.03192   0.05266   0.05596   0.06215   0.06750
 Alpha virt. eigenvalues --    0.07006   0.07192   0.07782   0.08980   0.09477
 Alpha virt. eigenvalues --    0.10337   0.12664   0.15707   0.16308   0.17058

 Mulliken charges:
               1
     1  Si   6.513326
     2  O   -2.835503
     3  H    1.155560
     4  C   -5.183680
     5  H    1.318439
     6  H    1.252041
     7  C   -5.104672
     8  H    1.235567
     9  H    1.248531
    10  H    1.209041
    11  H    1.251668
    12  H   -2.060317
 Sum of Mulliken charges =   0.00000

 Dipole moment (field-independent basis, Debye):
    X=              0.3916    Y=              0.0617    Z=             -0.4016  Tot=              0.5643

 Test job not archived.
 1\1\GINC-SE340\SP\RHF\Aug-CC-pVDZ\C2H8O1Si1\OHZDE\09-Apr-2025\0\\#t hf
  aug-cc-pvdz iop(5/13=1,5/36=2,99/5=2) pseudo=read geom=check guess=(r
 ead,tcheck) scf=(maxcycle=1)\\title\\0,1\Si,0,0.00278,0.065364,0.35493
 5\O,0,-0.117175,1.586988,-0.303002\H,0,0.563018,2.23157,-0.09789\C,0,-
 1.532567,-0.84243,-0.191614\H,0,-1.570923,-0.920494,-1.2819\H,0,-2.433
 23,-0.320836,0.142247\C,0,1.563019,-0.80923,-0.208611\H,0,1.577949,-0.
 93543,-1.295284\H,0,1.630804,-1.802444,0.247577\H,0,2.462867,-0.256476
 ,0.079119\H,0,-1.555191,-1.855281,0.22195\H,0,0.040471,0.158353,1.8404

 Normal termination of Gaussian 16 at Wed Apr  9 00:03:33 2025.
