 Gaussian 16, Revision C.01,

 ----------------------------------------------------------------------
 #t hf aug-cc-pvdz symm=none int=(grid=ultrafine) guess=(read,tcheck) s
 table=(opt,rrhf)
 ----------------------------------------------------------------------
 -----
 title
 -----
 Symbolic Z-matrix:
 Charge =  0 Multiplicity = 1

 SCF Done:  E(RHF) =  -120.532520042     A.U. after   11 cycles
 Normal termination of Gaussian 16 at Wed Apr  9 00:34:46 2025.
 Gaussian 16:  ES64L-G16RevC.01  3-Jul-2019

 ----------------------------------------------------------------------
 #t hf aug-cc-pvdz iop(5/13=1,5/36=2,99/5=2) pseudo=read geom=check gue
 ss=(read,tcheck) scf=(maxcycle=1)
 ----------------------------------------------------------------------
 -----
 title
 -----
 Structure from the checkpoint file:  "BDE49_nonexpt_452_mol1.chk"
 Charge =  0 Multiplicity = 1

                         Standard orientation:
 ---------------------------------------------------------------------
 Center     Atomic      Atomic             Coordinates (Angstroms)
 Number     Number       Type             X           Y           Z
 ---------------------------------------------------------------------
      1          1           0       -2.370269   -0.383687   -0.000005
      2          1           0       -1.365490    1.446525    0.000002
      3          7           0       -0.147250   -0.418163   -0.000001
      4          5           0       -1.360971    0.252480   -0.000003
      5          6           0        1.185457    0.171278    0.000003
      6          1           0       -0.144416   -1.429221   -0.000004
      7          1           0        1.092631    1.257348    0.000008
      8          1           0        1.755203   -0.126943   -0.886579
      9          1           0        1.755200   -0.126950    0.886584
 ---------------------------------------------------------------------

 SCF Done:  E(RHF) =  -121.135097499     A.U. after    2 cycles

 The electronic state is 1-A.
 Alpha  occ. eigenvalues --  -15.71228 -11.39199  -7.58806  -1.37367  -1.00056
 Alpha  occ. eigenvalues --   -0.80360  -0.64092  -0.59409  -0.54880  -0.49095
 Alpha  occ. eigenvalues --   -0.44538  -0.37628
 Alpha virt. eigenvalues --    0.03125   0.03616   0.04336   0.05249   0.07481
 Alpha virt. eigenvalues --    0.07574   0.08392   0.10372   0.11551   0.12919
 Alpha virt. eigenvalues --    0.13946   0.15753   0.16312   0.17761   0.17860

 Mulliken charges:
               1
     1  H   -3.399606
     2  H   -3.026528
     3  N   -2.532694
     4  B    7.015704
     5  C   -2.928341
     6  H    1.012473
     7  H    1.376175
     8  H    1.241407
     9  H    1.241408
 Sum of Mulliken charges =  -0.00000

 Dipole moment (field-independent basis, Debye):
    X=              1.6071    Y=             -0.9045    Z=             -0.0000  Tot=              1.8441

 Test job not archived.
 1\1\GINC-SE455\SP\RHF\Aug-CC-pVDZ\C1H6B1N1\OHZDE\09-Apr-2025\0\\#t hf
 aug-cc-pvdz iop(5/13=1,5/36=2,99/5=2) pseudo=read geom=check guess=(re
 ad,tcheck) scf=(maxcycle=1)\\title\\0,1\H,0,-2.370269,-0.383687,-0.000
 005\H,0,-1.36549,1.446525,0.000002\N,0,-0.14725,-0.418163,-0.000001\B,
 0,-1.360971,0.25248,-0.000003\C,0,1.185457,0.171278,0.000003\H,0,-0.14
 4416,-1.429221,-0.000004\H,0,1.092631,1.257348,0.000008\H,0,1.755203,-
 0.126943,-0.886579\H,0,1.7552,-0.12695,0.886584\\Version=ES64L-G16RevC
 .01\State=1-A\HF=-121.1350975\RMSD=1.680e-01\Dipole=0.6322843,-0.35584

 Normal termination of Gaussian 16 at Wed Apr  9 00:34:48 2025.
