 Gaussian 16, Revision C.01,

 ----------------------------------------------------------------------
 #t hf aug-cc-pvdz symm=none int=(grid=ultrafine) guess=(read,tcheck) s
 table=(opt,rrhf)
 ----------------------------------------------------------------------
 -----
 title
 -----
 Symbolic Z-matrix:
 Charge =  0 Multiplicity = 1

 SCF Done:  E(RHF) =  -634.764539547     A.U. after   15 cycles
 Normal termination of Gaussian 16 at Wed Apr  9 00:05:44 2025.
 Gaussian 16:  ES64L-G16RevC.01  3-Jul-2019

 ----------------------------------------------------------------------
 #t hf aug-cc-pvdz iop(5/13=1,5/36=2,99/5=2) pseudo=read geom=check gue
 ss=(read,tcheck) scf=(maxcycle=1)
 ----------------------------------------------------------------------
 -----
 title
 -----
 Structure from the checkpoint file:  "BDE49_nonexpt_2194_mol1.chk"
 Charge =  0 Multiplicity = 1

                         Standard orientation:
 ---------------------------------------------------------------------
 Center     Atomic      Atomic             Coordinates (Angstroms)
 Number     Number       Type             X           Y           Z
 ---------------------------------------------------------------------
      1          6           0       -2.592794   -0.893654    0.000029
      2          6           0       -2.302787    0.470507    0.000050
      3          6           0       -0.990506    0.942932    0.000009
      4          6           0       -1.552099   -1.815211   -0.000010
      5          6           0       -0.230728   -1.372059   -0.000053
      6          6           0        0.045959   -0.005531   -0.000057
      7          1           0       -1.759385   -2.879211   -0.000013
      8          1           0        0.581269   -2.091419   -0.000083
      9          8           0        1.328264    0.483422   -0.000084
     10         14           0        2.792885   -0.298417    0.000049
     11          1           0       -3.622906   -1.230205    0.000066
     12          6           0       -0.669449    2.414029   -0.000008
     13          1           0       -1.583355    3.010672    0.000251
     14          1           0       -0.076683    2.689728   -0.876973
     15          1           0       -0.076219    2.689663    0.876659
     16          1           0       -3.114250    1.191154    0.000102
     17          1           0        3.797281    0.779551    0.000038
     18          1           0        2.941137   -1.147826   -1.203967
     19          1           0        2.941037   -1.147716    1.204148
 ---------------------------------------------------------------------

 SCF Done:  E(RHF) =  -636.546739278     A.U. after    2 cycles

 The electronic state is 1-A.
 Alpha  occ. eigenvalues --  -76.24658 -21.06678 -11.52403 -11.46270 -11.43050
 Alpha  occ. eigenvalues --  -11.41205 -11.40630 -11.38326 -11.36169  -5.58161
 Alpha  occ. eigenvalues --   -2.24933  -2.20177  -2.19656  -1.73836  -1.32588
 Alpha  occ. eigenvalues --   -1.14336  -1.07292  -0.98976  -0.87325  -0.83175
 Alpha  occ. eigenvalues --   -0.75784  -0.68786  -0.63499  -0.61836  -0.58373
 Alpha  occ. eigenvalues --   -0.57348  -0.54615  -0.52729  -0.52296  -0.49054
 Alpha  occ. eigenvalues --   -0.48737  -0.45536  -0.43980  -0.42370  -0.37241
 Alpha  occ. eigenvalues --   -0.32363  -0.28142
 Alpha virt. eigenvalues --    0.03449   0.04508   0.05089   0.05706   0.06006
 Alpha virt. eigenvalues --    0.06409   0.06861   0.07192   0.07193   0.08726
 Alpha virt. eigenvalues --    0.09201   0.10168   0.11209   0.11699   0.12005

 Mulliken charges:
               1
     1  C   -2.902539
     2  C    0.115416
     3  C    1.310757
     4  C   -1.375502
     5  C   -5.148713
     6  C    7.488796
     7  H    1.491886
     8  H    2.000947
     9  O   -5.348532
    10  Si   6.262681
    11  H    1.509722
    12  C   -5.425808
    13  H    1.203745
    14  H    1.159683
    15  H    1.159698
    16  H    1.762220
    17  H   -1.852803
    18  H   -1.705815
    19  H   -1.705839
 Sum of Mulliken charges =   0.00000

 Dipole moment (field-independent basis, Debye):
    X=             -0.1952    Y=              0.3768    Z=              0.0001  Tot=              0.4244

 Test job not archived.
 1\1\GINC-SE412\SP\RHF\Aug-CC-pVDZ\C7H10O1Si1\OHZDE\09-Apr-2025\0\\#t h
 f aug-cc-pvdz iop(5/13=1,5/36=2,99/5=2) pseudo=read geom=check guess=(
 read,tcheck) scf=(maxcycle=1)\\title\\0,1\C,0,2.592794,-0.893654,-0.00
 0029\C,0,2.302787,0.470507,-0.00005\C,0,0.990506,0.942932,-0.000009\C,
 0,1.552099,-1.815211,0.00001\C,0,0.230728,-1.372059,0.000053\C,0,-0.04
 5959,-0.005531,0.000057\H,0,1.759385,-2.879211,0.000013\H,0,-0.581269,
 -2.091419,0.000083\O,0,-1.328264,0.483422,0.000084\Si,0,-2.792885,-0.2
 98417,-0.000049\H,0,3.622906,-1.230205,-0.000066\C,0,0.669449,2.414029

 Normal termination of Gaussian 16 at Wed Apr  9 00:05:53 2025.
