 Gaussian 16, Revision C.01,

 ----------------------------------------------------------------------
 #t hf aug-cc-pvdz symm=none int=(grid=ultrafine) guess=(read,tcheck) s
 table=(opt,rrhf)
 ----------------------------------------------------------------------
 -----
 title
 -----
 Symbolic Z-matrix:
 Charge =  0 Multiplicity = 1

 SCF Done:  E(RHF) =  -420.549101513     A.U. after   12 cycles
 Normal termination of Gaussian 16 at Tue Apr  8 23:13:47 2025.
 Gaussian 16:  ES64L-G16RevC.01  3-Jul-2019

 ----------------------------------------------------------------------
 #t hf aug-cc-pvdz iop(5/13=1,5/36=2,99/5=2) pseudo=read geom=check gue
 ss=(read,tcheck) scf=(maxcycle=1)
 ----------------------------------------------------------------------
 -----
 title
 -----
 Structure from the checkpoint file:  "BDE49_expt_818_mol1.chk"
 Charge =  0 Multiplicity = 1

                         Standard orientation:
 ---------------------------------------------------------------------
 Center     Atomic      Atomic             Coordinates (Angstroms)
 Number     Number       Type             X           Y           Z
 ---------------------------------------------------------------------
      1         15           0        1.143208   -0.198778   -0.113283
      2          1           0        1.962217    0.905741    0.242324
      3          6           0       -0.517065    0.662031    0.045035
      4          1           0        1.186678   -0.757966    1.192268
      5          6           0       -1.682630   -0.332034   -0.014607
      6          1           0       -0.581377    1.362272   -0.793740
      7          1           0       -0.562339    1.253044    0.962026
      8          1           0       -1.656263   -0.923804   -0.933879
      9          1           0       -2.642671    0.190654    0.019033
     10          1           0       -1.656202   -1.028256    0.828652
 ---------------------------------------------------------------------

 SCF Done:  E(RHF) =  -421.169557502     A.U. after    2 cycles

 The electronic state is 1-A.
 Alpha  occ. eigenvalues -- -105.17078 -11.40074 -11.35853  -2.74000  -1.46279
 Alpha  occ. eigenvalues --   -1.43120  -1.41894  -1.13182  -0.87999  -0.70154
 Alpha  occ. eigenvalues --   -0.61473  -0.55846  -0.50077  -0.49230  -0.25127
 Alpha  occ. eigenvalues --   -0.20921  -0.02154
 Alpha virt. eigenvalues --    0.04132   0.05862   0.06139   0.06571   0.06690
 Alpha virt. eigenvalues --    0.07325   0.08786   0.10531   0.11341   0.13482
 Alpha virt. eigenvalues --    0.14113   0.15656   0.16174   0.16944   0.17372

 Mulliken charges:
               1
     1  P    2.623177
     2  H   -0.516329
     3  C   -3.929485
     4  H   -0.623524
     5  C   -3.650891
     6  H    1.280819
     7  H    1.272625
     8  H    1.140339
     9  H    1.083242
    10  H    1.320027
 Sum of Mulliken charges =  -0.00000

 Dipole moment (field-independent basis, Debye):
    X=              0.0134    Y=             -0.5453    Z=             -1.5574  Tot=              1.6501

 Test job not archived.
 1\1\GINC-SE435\SP\RHF\Aug-CC-pVDZ\C2H7P1\OHZDE\08-Apr-2025\0\\#t hf au
 g-cc-pvdz iop(5/13=1,5/36=2,99/5=2) pseudo=read geom=check guess=(read
 ,tcheck) scf=(maxcycle=1)\\title\\0,1\P,0,1.143208,-0.198778,-0.113283
 \H,0,1.962217,0.90574,0.242324\C,0,-0.517065,0.662031,0.045035\H,0,1.1
 86678,-0.757966,1.192268\C,0,-1.68263,-0.332034,-0.014607\H,0,-0.58137
 7,1.362272,-0.79374\H,0,-0.562339,1.253044,0.962026\H,0,-1.656264,-0.9
 23804,-0.933879\H,0,-2.642671,0.190655,0.019033\H,0,-1.656203,-1.02825
 6,0.828652\\Version=ES64L-G16RevC.01\State=1-A\HF=-421.1695575\RMSD=3.

 Normal termination of Gaussian 16 at Tue Apr  8 23:13:49 2025.
