 Gaussian 16, Revision C.01,

 ----------------------------------------------------------------------
 #t hf aug-cc-pvdz symm=none int=(grid=ultrafine) guess=(read,tcheck) s
 table=(opt,rrhf)
 ----------------------------------------------------------------------
 -----
 title
 -----
 Symbolic Z-matrix:
 Charge =  0 Multiplicity = 1

 SCF Done:  E(RHF) =  -327.075235394     A.U. after   15 cycles
 Normal termination of Gaussian 16 at Wed Apr  9 00:38:26 2025.
 Gaussian 16:  ES64L-G16RevC.01  3-Jul-2019

 ----------------------------------------------------------------------
 #t hf aug-cc-pvdz iop(5/13=1,5/36=2,99/5=2) pseudo=read geom=check gue
 ss=(read,tcheck) scf=(maxcycle=1)
 ----------------------------------------------------------------------
 -----
 title
 -----
 Structure from the checkpoint file:  "BDE49_nonexpt_559_mol1.chk"
 Charge =  0 Multiplicity = 1

                         Standard orientation:
 ---------------------------------------------------------------------
 Center     Atomic      Atomic             Coordinates (Angstroms)
 Number     Number       Type             X           Y           Z
 ---------------------------------------------------------------------
      1          6           0        1.378784    1.294131    0.000000
      2          6           0        2.214467    0.176327    0.000002
      3          6           0        1.616405   -1.077479    0.000004
      4          7           0        0.293337   -1.264589    0.000003
      5          6           0       -0.496089   -0.188600    0.000001
      6          6           0        0.003769    1.121585   -0.000001
      7          1           0        3.292721    0.274822    0.000003
      8          1           0        2.220191   -1.980496    0.000006
      9          1           0       -0.668064    1.968650   -0.000002
     10          1           0        1.796974    2.294538   -0.000001
     11          5           0       -2.991391    0.359675   -0.000012
     12          7           0       -1.872882   -0.480818   -0.000001
     13          1           0       -2.862588    1.542100   -0.000007
     14          1           0       -4.066753   -0.149833    0.000004
     15          1           0       -2.002723   -1.486087    0.000005
 ---------------------------------------------------------------------

 SCF Done:  E(RHF) =  -328.615354719     A.U. after    2 cycles

 The electronic state is 1-A.
 Alpha  occ. eigenvalues --  -15.73570 -15.73282 -11.51592 -11.47011 -11.44374
 Alpha  occ. eigenvalues --  -11.40985 -11.38008  -7.61736  -1.49770  -1.34762
 Alpha  occ. eigenvalues --   -1.19302  -1.09616  -0.91709  -0.89459  -0.81019
 Alpha  occ. eigenvalues --   -0.72657  -0.67572  -0.62712  -0.59368  -0.57368
 Alpha  occ. eigenvalues --   -0.55226  -0.53496  -0.47597  -0.46126  -0.45607
 Alpha  occ. eigenvalues --   -0.37089  -0.36751  -0.30630
 Alpha virt. eigenvalues --    0.03227   0.03961   0.04242   0.04397   0.05382
 Alpha virt. eigenvalues --    0.05692   0.07231   0.09390   0.10202   0.10275
 Alpha virt. eigenvalues --    0.11246   0.11559   0.12705   0.12732   0.13062

 Mulliken charges:
               1
     1  C    0.315973
     2  C   -0.779512
     3  C   -1.302021
     4  N   -3.482378
     5  C    4.073503
     6  C   -1.545582
     7  H    1.436842
     8  H    1.628970
     9  H    1.707150
    10  H    1.549271
    11  B    7.410850
    12  N   -5.122763
    13  H   -3.318313
    14  H   -3.947221
    15  H    1.375232
 Sum of Mulliken charges =  -0.00000

 Dipole moment (field-independent basis, Debye):
    X=              1.2202    Y=              0.6412    Z=             -0.0000  Tot=              1.3784

 Test job not archived.
 1\1\GINC-SE095\SP\RHF\Aug-CC-pVDZ\C5H7B1N2\OHZDE\09-Apr-2025\0\\#t hf
 aug-cc-pvdz iop(5/13=1,5/36=2,99/5=2) pseudo=read geom=check guess=(re
 ad,tcheck) scf=(maxcycle=1)\\title\\0,1\C,0,-1.378784,1.294131,0.\C,0,
 -2.214467,0.176327,-0.000002\C,0,-1.616405,-1.077479,-0.000004\N,0,-0.
 293337,-1.264589,-0.000003\C,0,0.496089,-0.1886,-0.000001\C,0,-0.00376
 9,1.121585,0.000001\H,0,-3.292721,0.274822,-0.000003\H,0,-2.220191,-1.
 980496,-0.000006\H,0,0.668064,1.96865,0.000002\H,0,-1.796974,2.294538,
 0.000001\B,0,2.991391,0.359675,0.000012\N,0,1.872882,-0.480818,0.00000

 Normal termination of Gaussian 16 at Wed Apr  9 00:38:32 2025.
