 Gaussian 16, Revision C.01,

 ----------------------------------------------------------------------
 #t hf aug-cc-pvdz symm=none int=(grid=ultrafine) guess=(read,tcheck) s
 table=(opt,rrhf)
 ----------------------------------------------------------------------
 -----
 title
 -----
 Symbolic Z-matrix:
 Charge =  0 Multiplicity = 1

 SCF Done:  E(RHF) =  -218.286665669     A.U. after   13 cycles
 Normal termination of Gaussian 16 at Wed Apr  9 00:47:57 2025.
 Gaussian 16:  ES64L-G16RevC.01  3-Jul-2019

 ----------------------------------------------------------------------
 #t hf aug-cc-pvdz iop(5/13=1,5/36=2,99/5=2) pseudo=read geom=check gue
 ss=(read,tcheck) scf=(maxcycle=1)
 ----------------------------------------------------------------------
 -----
 title
 -----
 Structure from the checkpoint file:  "BDE49_nonexpt_83_mol1.chk"
 Charge =  0 Multiplicity = 1

                         Standard orientation:
 ---------------------------------------------------------------------
 Center     Atomic      Atomic             Coordinates (Angstroms)
 Number     Number       Type             X           Y           Z
 ---------------------------------------------------------------------
      1          5           0       -1.822194    0.938536    0.000008
      2          5           0       -1.210373   -0.611951   -0.000043
      3          8           0        0.146762   -0.956985    0.000072
      4          6           0        1.080733   -0.060610    0.000197
      5          7           0        1.943532    0.708200   -0.000222
      6          1           0       -2.092726    1.501864    1.016107
      7          1           0       -2.092661    1.501959   -1.016057
      8          1           0       -1.914995   -1.574609   -0.000077
 ---------------------------------------------------------------------

 SCF Done:  E(RHF) =  -219.204082988     A.U. after    2 cycles

 The electronic state is 1-A.
 Alpha  occ. eigenvalues --  -21.15299 -15.76923 -11.49816  -7.66429  -7.62880
 Alpha  occ. eigenvalues --   -1.88361  -1.30245  -0.95910  -0.83247  -0.65472
 Alpha  occ. eigenvalues --   -0.60948  -0.60048  -0.53420  -0.50686  -0.44509
 Alpha  occ. eigenvalues --   -0.39873  -0.38472
 Alpha virt. eigenvalues --    0.01306   0.02296   0.02405   0.03885   0.06561
 Alpha virt. eigenvalues --    0.07038   0.08163   0.09401   0.10051   0.10853
 Alpha virt. eigenvalues --    0.12350   0.12898   0.13049   0.13878   0.14018

 Mulliken charges:
               1
     1  B    3.606380
     2  B    5.312352
     3  O   -2.897045
     4  C    4.304082
     5  N   -2.583106
     6  H   -2.370294
     7  H   -2.370227
     8  H   -3.002141
 Sum of Mulliken charges =  -0.00000

 Dipole moment (field-independent basis, Debye):
    X=             -2.5961    Y=             -1.5186    Z=              0.0003  Tot=              3.0076

 Test job not archived.
 1\1\GINC-SE177\SP\RHF\Aug-CC-pVDZ\C1H3B2N1O1\OHZDE\09-Apr-2025\0\\#t h
 f aug-cc-pvdz iop(5/13=1,5/36=2,99/5=2) pseudo=read geom=check guess=(
 read,tcheck) scf=(maxcycle=1)\\title\\0,1\B,0,-1.822194,0.938537,0.000
 008\B,0,-1.210373,-0.611951,-0.000043\O,0,0.146762,-0.956985,0.000072\
 C,0,1.080733,-0.060611,0.000197\N,0,1.943532,0.708199,-0.000222\H,0,-2
 .092725,1.501865,1.016107\H,0,-2.09266,1.50196,-1.016057\H,0,-1.914996
 ,-1.574608,-0.000077\\Version=ES64L-G16RevC.01\State=1-A\HF=-219.20408
 3\RMSD=1.954e-01\Dipole=-1.0213881,-0.5974535,0.0001035\Quadrupole=-1.

 Normal termination of Gaussian 16 at Wed Apr  9 00:47:59 2025.
