 Gaussian 16, Revision C.01,

 ----------------------------------------------------------------------
 #t hf aug-cc-pvdz symm=none int=(grid=ultrafine) guess=(read,tcheck) s
 table=(opt,rrhf)
 ----------------------------------------------------------------------
 -----
 title
 -----
 Symbolic Z-matrix:
 Charge =  0 Multiplicity = 1

 SCF Done:  E(RHF) =  -126.578825665     A.U. after   12 cycles
 Normal termination of Gaussian 16 at Wed Apr  9 00:15:32 2025.
 Gaussian 16:  ES64L-G16RevC.01  3-Jul-2019

 ----------------------------------------------------------------------
 #t hf aug-cc-pvdz iop(5/13=1,5/36=2,99/5=2) pseudo=read geom=check gue
 ss=(read,tcheck) scf=(maxcycle=1)
 ----------------------------------------------------------------------
 -----
 title
 -----
 Structure from the checkpoint file:  "BDE49_nonexpt_24_mol1.chk"
 Charge =  0 Multiplicity = 1

                         Standard orientation:
 ---------------------------------------------------------------------
 Center     Atomic      Atomic             Coordinates (Angstroms)
 Number     Number       Type             X           Y           Z
 ---------------------------------------------------------------------
      1          5           0       -0.057350    0.455160   -0.000111
      2          5           0        1.504006   -0.139282    0.000009
      3          8           0       -1.158761   -0.342301   -0.000130
      4          1           0       -1.986758    0.147686    0.000330
      5          1           0       -0.205178    1.655564    0.001050
      6          1           0        2.113983   -0.323019    1.012416
      7          1           0        2.114763   -0.321210   -1.012249
 ---------------------------------------------------------------------

 SCF Done:  E(RHF) =  -127.127369391     A.U. after    2 cycles

 The electronic state is 1-A.
 Alpha  occ. eigenvalues --  -21.06834  -7.60492  -7.59216  -1.73930  -0.89868
 Alpha  occ. eigenvalues --   -0.71330  -0.62123  -0.48416  -0.44160  -0.41742
 Alpha  occ. eigenvalues --   -0.35904
 Alpha virt. eigenvalues --    0.02031   0.02687   0.03188   0.04599   0.08244
 Alpha virt. eigenvalues --    0.08321   0.08670   0.10368   0.11198   0.11748
 Alpha virt. eigenvalues --    0.13301   0.13526   0.14795   0.15157   0.21686

 Mulliken charges:
               1
     1  B    5.129769
     2  B    3.449815
     3  O   -3.079150
     4  H    1.263562
     5  H   -2.342351
     6  H   -2.210848
     7  H   -2.210796
 Sum of Mulliken charges =  -0.00000

 Dipole moment (field-independent basis, Debye):
    X=             -1.2218    Y=              0.1911    Z=              0.0000  Tot=              1.2367

 Test job not archived.
 1\1\GINC-SE329\SP\RHF\Aug-CC-pVDZ\B2H4O1\OHZDE\09-Apr-2025\0\\#t hf au
 g-cc-pvdz iop(5/13=1,5/36=2,99/5=2) pseudo=read geom=check guess=(read
 ,tcheck) scf=(maxcycle=1)\\title\\0,1\B,0,0.05735,0.45516,0.000111\B,0
 ,-1.504006,-0.139282,-0.000009\O,0,1.158761,-0.342301,0.00013\H,0,1.98
 6758,0.147686,-0.00033\H,0,0.205178,1.655564,-0.00105\H,0,-2.113983,-0
 .323019,-1.012416\H,0,-2.114763,-0.32121,1.012249\\Version=ES64L-G16Re
 vC.01\State=1-A\HF=-127.1273694\RMSD=1.921e-01\Dipole=0.4806943,0.0751
 806,-0.0000078\Quadrupole=0.624763,-0.3264682,-0.2982948,0.3429062,0.0

 Normal termination of Gaussian 16 at Wed Apr  9 00:15:34 2025.
