 Gaussian 16, Revision C.01,

 ----------------------------------------------------------------------
 #t hf aug-cc-pvdz symm=none int=(grid=ultrafine) guess=(read,tcheck) s
 table=(opt,rrhf)
 ----------------------------------------------------------------------
 -----
 title
 -----
 Symbolic Z-matrix:
 Charge =  0 Multiplicity = 1

 SCF Done:  E(RHF) =  -841.672882994     A.U. after   13 cycles
 Normal termination of Gaussian 16 at Tue Apr  8 23:55:34 2025.
 Gaussian 16:  ES64L-G16RevC.01  3-Jul-2019

 ----------------------------------------------------------------------
 #t hf aug-cc-pvdz iop(5/13=1,5/36=2,99/5=2) pseudo=read geom=check gue
 ss=(read,tcheck) scf=(maxcycle=1)
 ----------------------------------------------------------------------
 -----
 title
 -----
 Structure from the checkpoint file:  "BDE49_nonexpt_1964_mol1.chk"
 Charge =  0 Multiplicity = 1

                         Standard orientation:
 ---------------------------------------------------------------------
 Center     Atomic      Atomic             Coordinates (Angstroms)
 Number     Number       Type             X           Y           Z
 ---------------------------------------------------------------------
      1         14           0       -1.912015   -0.066795   -0.288473
      2          6           0       -0.525293   -0.475301    0.951449
      3          1           0       -2.289541    1.355785   -0.231847
      4          1           0       -3.075041   -0.888098    0.131581
      5          1           0       -1.537419   -0.468763   -1.660077
      6         16           0        1.075422    0.273572    0.444750
      7          8           0        0.714941    1.431476   -0.440877
      8          6           0        1.632918   -1.079778   -0.653565
      9          1           0        1.843475   -1.968339   -0.054916
     10          1           0        2.548556   -0.725041   -1.127041
     11          1           0        0.876042   -1.280177   -1.412547
     12          1           0       -0.399759   -1.551654    1.094177
     13          1           0       -0.770137   -0.037077    1.923002
 ---------------------------------------------------------------------

 SCF Done:  E(RHF) =  -842.814775508     A.U. after    2 cycles

 The electronic state is 1-A.
 Alpha  occ. eigenvalues --  -76.22185 -75.78690 -20.99968 -13.33439 -13.21747
 Alpha  occ. eigenvalues --  -13.17315 -11.40927 -11.39280  -8.12876  -5.55571
 Alpha  occ. eigenvalues --   -2.19078  -2.17921  -2.17747  -1.68653  -1.19593
 Alpha  occ. eigenvalues --   -1.05184  -0.89470  -0.75468  -0.63645  -0.61721
 Alpha  occ. eigenvalues --   -0.61059  -0.53809  -0.49249  -0.47112  -0.46941
 Alpha  occ. eigenvalues --   -0.43330  -0.37279  -0.32899  -0.25630
 Alpha virt. eigenvalues --    0.02927   0.04133   0.04512   0.05343   0.06393
 Alpha virt. eigenvalues --    0.07221   0.07356   0.08097   0.09350   0.10007
 Alpha virt. eigenvalues --    0.10579   0.11166   0.12284   0.13196   0.13449

 Mulliken charges:
               1
     1  Si   6.451416
     2  C   -4.496420
     3  H   -1.887230
     4  H   -1.789544
     5  H   -1.741651
     6  S    3.260044
     7  O   -2.360760
     8  C   -4.652303
     9  H    1.430882
    10  H    1.344926
    11  H    1.568615
    12  H    1.461685
    13  H    1.410340
 Sum of Mulliken charges =   0.00000

 Dipole moment (field-independent basis, Debye):
    X=              1.0748    Y=             -1.0859    Z=              1.2241  Tot=              1.9578

 Test job not archived.
 1\1\GINC-SE404\SP\RHF\Aug-CC-pVDZ\C2H8O1S1Si1\OHZDE\08-Apr-2025\0\\#t
 hf aug-cc-pvdz iop(5/13=1,5/36=2,99/5=2) pseudo=read geom=check guess=
 (read,tcheck) scf=(maxcycle=1)\\title\\0,1\Si,0,-1.912015,-0.066795,-0
 .288473\C,0,-0.525293,-0.475301,0.951449\H,0,-2.289541,1.355785,-0.231
 847\H,0,-3.075041,-0.888098,0.131581\H,0,-1.537419,-0.468763,-1.660077
 \S,0,1.075422,0.273572,0.44475\O,0,0.714941,1.431476,-0.440877\C,0,1.6
 32918,-1.079778,-0.653565\H,0,1.843475,-1.968339,-0.054916\H,0,2.54855
 6,-0.725041,-1.127041\H,0,0.876042,-1.280177,-1.412547\H,0,-0.399759,-

 Normal termination of Gaussian 16 at Tue Apr  8 23:55:38 2025.
