 Gaussian 16, Revision C.01,

 ----------------------------------------------------------------------
 #t hf aug-cc-pvdz symm=none int=(grid=ultrafine) guess=(read,tcheck) s
 table=(opt,rrhf)
 ----------------------------------------------------------------------
 -----
 title
 -----
 Symbolic Z-matrix:
 Charge =  0 Multiplicity = 1

 SCF Done:  E(RHF) =  -743.750440883     A.U. after   15 cycles
 Normal termination of Gaussian 16 at Tue Apr  8 23:30:14 2025.
 Gaussian 16:  ES64L-G16RevC.01  3-Jul-2019

 ----------------------------------------------------------------------
 #t hf aug-cc-pvdz iop(5/13=1,5/36=2,99/5=2) pseudo=read geom=check gue
 ss=(read,tcheck) scf=(maxcycle=1)
 ----------------------------------------------------------------------
 -----
 title
 -----
 Structure from the checkpoint file:  "BDE49_nonexpt_1352_mol1.chk"
 Charge =  0 Multiplicity = 1

                         Standard orientation:
 ---------------------------------------------------------------------
 Center     Atomic      Atomic             Coordinates (Angstroms)
 Number     Number       Type             X           Y           Z
 ---------------------------------------------------------------------
      1          6           0       -1.277115    0.285517   -0.060666
      2          6           0       -0.774997    1.725655    0.112575
      3          1           0       -1.181651    2.112556    1.052496
      4          1           0       -1.202300    2.326255   -0.692397
      5          6           0        0.774814    1.725740    0.112509
      6          1           0        1.201977    2.326312   -0.692560
      7          1           0        1.181512    2.112776    1.052354
      8          6           0        1.277087    0.285645   -0.060656
      9          9           0        0.000115   -2.142650   -0.290577
     10         15           0        0.000040   -0.874042    0.710420
     11          8           0       -2.304642   -0.038781   -0.586488
     12          8           0        2.304653   -0.038563   -0.586459
 ---------------------------------------------------------------------

 SCF Done:  E(RHF) =  -745.591000166     A.U. after    2 cycles

 The electronic state is 1-A.
 Alpha  occ. eigenvalues -- -105.26129 -29.29720 -21.09644 -21.09599 -11.53341
 Alpha  occ. eigenvalues --  -11.50564 -11.46680 -11.41484  -2.85294  -1.74890
 Alpha  occ. eigenvalues --   -1.74378  -1.60951  -1.53394  -1.53126  -1.25192
 Alpha  occ. eigenvalues --   -1.01402  -0.92103  -0.74219  -0.71500  -0.68083
 Alpha  occ. eigenvalues --   -0.62566  -0.58157  -0.56795  -0.54146  -0.50084
 Alpha  occ. eigenvalues --   -0.47532  -0.46908  -0.44845  -0.37583  -0.34652
 Alpha  occ. eigenvalues --   -0.34591  -0.19173  -0.15512  -0.03521
 Alpha virt. eigenvalues --    0.03070   0.05171   0.05364   0.06232   0.07182
 Alpha virt. eigenvalues --    0.08211   0.08460   0.11394   0.11701   0.12329
 Alpha virt. eigenvalues --    0.12984   0.13409   0.13523   0.14044   0.14478

 Mulliken charges:
               1
     1  C    1.704720
     2  C   -3.293751
     3  H    1.453843
     4  H    1.292765
     5  C   -3.293704
     6  H    1.292803
     7  H    1.453895
     8  C    1.704615
     9  F   -0.127022
    10  P    3.923550
    11  O   -3.055876
    12  O   -3.055838
 Sum of Mulliken charges =  -0.00000

 Dipole moment (field-independent basis, Debye):
    X=              0.0002    Y=             -5.0119    Z=              0.1610  Tot=              5.0144

 Test job not archived.
 1\1\GINC-SE284\SP\RHF\Aug-CC-pVDZ\C4H4F1O2P1\OHZDE\08-Apr-2025\0\\#t h
 f aug-cc-pvdz iop(5/13=1,5/36=2,99/5=2) pseudo=read geom=check guess=(
 read,tcheck) scf=(maxcycle=1)\\title\\0,1\C,0,-1.277114,0.28552,-0.060
 666\C,0,-0.774993,1.725657,0.112575\H,0,-1.181646,2.112559,1.052496\H,
 0,-1.202295,2.326258,-0.692397\C,0,0.774818,1.725738,0.112509\H,0,1.20
 1982,2.326309,-0.69256\H,0,1.181517,2.112774,1.052354\C,0,1.277088,0.2
 85642,-0.060656\F,0,0.00011,-2.14265,-0.290577\P,0,0.000038,-0.874042,
 0.71042\O,0,-2.304642,-0.038776,-0.586488\O,0,2.304653,-0.038568,-0.58

 Normal termination of Gaussian 16 at Tue Apr  8 23:30:20 2025.
