 Gaussian 16, Revision C.01,

 ----------------------------------------------------------------------
 #t hf aug-cc-pvdz symm=none int=(grid=ultrafine) guess=(read,tcheck) s
 table=(opt,rrhf)
 ----------------------------------------------------------------------
 -----
 title
 -----
 Symbolic Z-matrix:
 Charge =  0 Multiplicity = 1

 SCF Done:  E(RHF) =  -815.563749662     A.U. after   16 cycles
 Normal termination of Gaussian 16 at Tue Apr  8 23:20:58 2025.
 Gaussian 16:  ES64L-G16RevC.01  3-Jul-2019

 ----------------------------------------------------------------------
 #t hf aug-cc-pvdz iop(5/13=1,5/36=2,99/5=2) pseudo=read geom=check gue
 ss=(read,tcheck) scf=(maxcycle=1)
 ----------------------------------------------------------------------
 -----
 title
 -----
 Structure from the checkpoint file:  "BDE49_nonexpt_1131_mol1.chk"
 Charge =  0 Multiplicity = 1

                         Standard orientation:
 ---------------------------------------------------------------------
 Center     Atomic      Atomic             Coordinates (Angstroms)
 Number     Number       Type             X           Y           Z
 ---------------------------------------------------------------------
      1          9           0        2.352234    0.433358   -0.008132
      2          8           0        1.572120   -0.847049    0.002475
      3         15           0       -0.806544    0.102017   -0.056388
      4          8           0       -1.899835    0.176740   -1.006520
      5          8           0       -1.030186   -0.769569    1.248659
      6          1           0       -1.682505   -1.469878    1.117878
      7          8           0       -0.170086    1.419148    0.506432
      8          1           0        0.800731    1.444830    0.511227
      9          8           0        0.504216   -0.654948   -0.839808
 ---------------------------------------------------------------------

 SCF Done:  E(RHF) =  -817.621734842     A.U. after    2 cycles

 The electronic state is 1-A.
 Alpha  occ. eigenvalues -- -105.36706 -29.33753 -21.26342 -21.17941 -21.15629
 Alpha  occ. eigenvalues --  -21.14807 -21.06349  -2.99870  -2.11306  -2.05687
 Alpha  occ. eigenvalues --   -1.97120  -1.82790  -1.65922  -1.43666  -1.36658
 Alpha  occ. eigenvalues --   -1.27239  -0.77160  -0.74811  -0.66815  -0.62474
 Alpha  occ. eigenvalues --   -0.58691  -0.54008  -0.50245  -0.47193  -0.44491
 Alpha  occ. eigenvalues --   -0.39983  -0.38639  -0.35759  -0.33318  -0.30927
 Alpha  occ. eigenvalues --   -0.30138  -0.24902  -0.18523
 Alpha virt. eigenvalues --    0.03756   0.06618   0.09953   0.10367   0.11264
 Alpha virt. eigenvalues --    0.11822   0.14099   0.18191   0.18638   0.19638
 Alpha virt. eigenvalues --    0.20036   0.21256   0.23044   0.23603   0.23990

 Mulliken charges:
               1
     1  F    0.000682
     2  O   -0.189129
     3  P    8.173827
     4  O   -2.786428
     5  O   -2.745198
     6  H    0.882228
     7  O   -2.778273
     8  H    0.842478
     9  O   -1.400187
 Sum of Mulliken charges =  -0.00000

 Dipole moment (field-independent basis, Debye):
    X=              2.8480    Y=              0.3249    Z=              2.2711  Tot=              3.6571

 Test job not archived.
 1\1\GINC-SE328\SP\RHF\Aug-CC-pVDZ\F1H2O5P1\OHZDE\08-Apr-2025\0\\#t hf
 aug-cc-pvdz iop(5/13=1,5/36=2,99/5=2) pseudo=read geom=check guess=(re
 ad,tcheck) scf=(maxcycle=1)\\title\\0,1\F,0,2.352234,0.433358,-0.00813
 2\O,0,1.57212,-0.847049,0.002475\P,0,-0.806544,0.102017,-0.056388\O,0,
 -1.899835,0.17674,-1.00652\O,0,-1.030186,-0.769569,1.248659\H,0,-1.682
 505,-1.469878,1.117878\O,0,-0.170086,1.419148,0.506432\H,0,0.800731,1.
 44483,0.511227\O,0,0.504216,-0.654948,-0.839808\\Version=ES64L-G16RevC
 .01\State=1-A\HF=-817.6217348\RMSD=8.745e-02\Dipole=1.1204769,0.127814

 Normal termination of Gaussian 16 at Tue Apr  8 23:21:02 2025.
