 Gaussian 16, Revision C.01,

 ----------------------------------------------------------------------
 #t hf aug-cc-pvdz symm=none int=(grid=ultrafine) guess=(read,tcheck) s
 table=(opt,rrhf)
 ----------------------------------------------------------------------
 -----
 title
 -----
 Symbolic Z-matrix:
 Charge =  0 Multiplicity = 1

 SCF Done:  E(RHF) =  -779.202961547     A.U. after   10 cycles

 1\1\GINC-SE150\Stability\RHF\Aug-CC-pVDZ\F2H4Si2\OHZDE\09-Apr-2025\0\\
 #t hf aug-cc-pvdz symm=none int=(grid=ultrafine) guess=(read,tcheck) s
 table=(opt,rrhf)\\title\\0,1\Si,0,-1.045253,-0.554395,0.\Si,0,1.045254
 ,0.554395,0.\F,0,2.200515,-0.581823,0.\H,0,1.227141,1.389424,1.208061\
 H,0,1.227139,1.389424,-1.20806\F,0,-2.200516,0.581823,-0.000001\H,0,-1
 .22714,-1.389423,1.208061\H,0,-1.227138,-1.389424,-1.20806\\Version=ES
 64L-G16RevC.01\HF=-779.2029615\RMSD=6.130e-09\Dipole=0.0000036,-0.0000
 016,-0.0000007\Quadrupole=-3.9429773,1.7135063,2.2294711,3.0951325,-0.

 Normal termination of Gaussian 16 at Wed Apr  9 00:09:00 2025.
 Gaussian 16:  ES64L-G16RevC.01  3-Jul-2019

 ----------------------------------------------------------------------
 #t hf aug-cc-pvdz iop(5/13=1,5/36=2,99/5=2) pseudo=read geom=check gue
 ss=(read,tcheck) scf=(maxcycle=1)
 ----------------------------------------------------------------------
 -----
 title
 -----
 Structure from the checkpoint file:  "BDE49_nonexpt_2305_mol1.chk"
 Charge =  0 Multiplicity = 1

                         Standard orientation:
 ---------------------------------------------------------------------
 Center     Atomic      Atomic             Coordinates (Angstroms)
 Number     Number       Type             X           Y           Z
 ---------------------------------------------------------------------
      1         14           0       -1.045253   -0.554395    0.000000
      2         14           0        1.045254    0.554395    0.000000
      3          9           0        2.200515   -0.581823    0.000000
      4          1           0        1.227141    1.389424    1.208061
      5          1           0        1.227139    1.389424   -1.208060
      6          9           0       -2.200516    0.581823   -0.000001
      7          1           0       -1.227140   -1.389423    1.208061
      8          1           0       -1.227138   -1.389424   -1.208060
 ---------------------------------------------------------------------

 SCF Done:  E(RHF) =  -780.200903986     A.U. after    2 cycles

 The electronic state is 1-A.
 Alpha  occ. eigenvalues --  -76.26519 -76.26501 -29.27148 -29.27148  -5.60714
 Alpha  occ. eigenvalues --   -5.60706  -2.25525  -2.25008  -2.21766  -2.21552
 Alpha  occ. eigenvalues --   -2.21084  -2.20342  -0.91320  -0.84592  -0.60174
 Alpha  occ. eigenvalues --   -0.60059  -0.53129  -0.50658  -0.45463  -0.37018
 Alpha  occ. eigenvalues --   -0.34216  -0.33648  -0.33606  -0.32779  -0.25760
 Alpha virt. eigenvalues --    0.04566   0.05025   0.06318   0.07543   0.07643
 Alpha virt. eigenvalues --    0.08202   0.08745   0.09347   0.09524   0.10062
 Alpha virt. eigenvalues --    0.12004   0.12933   0.14963   0.17829   0.18148

 Mulliken charges:
               1
     1  Si   4.321295
     2  Si   4.321296
     3  F   -0.995810
     4  H   -1.662743
     5  H   -1.662744
     6  F   -0.995809
     7  H   -1.662743
     8  H   -1.662743
 Sum of Mulliken charges =   0.00000

 Dipole moment (field-independent basis, Debye):
    X=              0.0000    Y=             -0.0000    Z=             -0.0000  Tot=              0.0000

 Test job not archived.
 1\1\GINC-SE150\SP\RHF\Aug-CC-pVDZ\F2H4Si2\OHZDE\09-Apr-2025\0\\#t hf a
 ug-cc-pvdz iop(5/13=1,5/36=2,99/5=2) pseudo=read geom=check guess=(rea
 d,tcheck) scf=(maxcycle=1)\\title\\0,1\Si,0,-1.045253,-0.554395,0.\Si,
 0,1.045254,0.554395,0.\F,0,2.200515,-0.581823,0.\H,0,1.227141,1.389424
 ,1.208061\H,0,1.227139,1.389424,-1.20806\F,0,-2.200516,0.581823,-0.000
 001\H,0,-1.22714,-1.389423,1.208061\H,0,-1.227138,-1.389424,-1.20806\\
 Version=ES64L-G16RevC.01\State=1-A\HF=-780.200904\RMSD=9.423e-02\Dipol
 e=0.0000025,-0.000002,-0.0000021\Quadrupole=4.4086381,-2.0240541,-2.38

 Normal termination of Gaussian 16 at Wed Apr  9 00:09:02 2025.
