 Gaussian 16, Revision C.01,

 ----------------------------------------------------------------------
 #t hf aug-cc-pvdz symm=none int=(grid=ultrafine) guess=(read,tcheck) s
 table=(opt,rrhf)
 ----------------------------------------------------------------------
 -----
 title
 -----
 Symbolic Z-matrix:
 Charge =  0 Multiplicity = 1

 SCF Done:  E(RHF) =  -843.537882552     A.U. after   17 cycles
 Normal termination of Gaussian 16 at Tue Apr  8 23:35:40 2025.
 Gaussian 16:  ES64L-G16RevC.01  3-Jul-2019

 ----------------------------------------------------------------------
 #t hf aug-cc-pvdz iop(5/13=1,5/36=2,99/5=2) pseudo=read geom=check gue
 ss=(read,tcheck) scf=(maxcycle=1)
 ----------------------------------------------------------------------
 -----
 title
 -----
 Structure from the checkpoint file:  "BDE49_nonexpt_1471_mol1.chk"
 Charge =  0 Multiplicity = 1

                         Standard orientation:
 ---------------------------------------------------------------------
 Center     Atomic      Atomic             Coordinates (Angstroms)
 Number     Number       Type             X           Y           Z
 ---------------------------------------------------------------------
      1          7           0        1.140852   -0.198618    0.898461
      2          6           0        0.311031    0.983500    1.000595
      3         15           0       -1.069534    1.232480   -0.241608
      4          1           0        0.943421    1.870112    0.936010
      5          1           0       -0.145285    0.966432    1.991086
      6          7           0        2.027411   -0.293388   -0.166827
      7          1           0        0.705984   -1.097393    1.073120
      8          7           0       -1.875176   -0.455602   -0.077989
      9          8           0        2.320342    0.748349   -0.738580
     10          8           0        2.460134   -1.407543   -0.401422
     11          8           0       -1.672051   -1.109654    0.938606
     12          8           0       -2.609303   -0.773099   -0.992480
     13          1           0       -0.371901    0.841476   -1.404169
 ---------------------------------------------------------------------

 SCF Done:  E(RHF) =  -845.849438150     A.U. after    2 cycles

 The electronic state is 1-A.
 Alpha  occ. eigenvalues -- -105.27120 -21.12287 -21.11560 -21.11310 -21.11121
 Alpha  occ. eigenvalues --  -16.04439 -16.00286 -15.83364 -11.46538  -2.84490
 Alpha  occ. eigenvalues --   -2.03565  -2.01024  -1.72313  -1.71566  -1.56759
 Alpha  occ. eigenvalues --   -1.53121  -1.52863  -1.45550  -1.08445  -0.96934
 Alpha  occ. eigenvalues --   -0.89919  -0.78273  -0.75682  -0.73178  -0.69807
 Alpha  occ. eigenvalues --   -0.67502  -0.63043  -0.61877  -0.59109  -0.58728
 Alpha  occ. eigenvalues --   -0.47639  -0.39498  -0.35247  -0.34490  -0.33815
 Alpha  occ. eigenvalues --   -0.33524  -0.27450  -0.25369  -0.07051
 Alpha virt. eigenvalues --    0.03860   0.05183   0.05854   0.07060   0.08157
 Alpha virt. eigenvalues --    0.08856   0.09204   0.11285   0.12084   0.12973
 Alpha virt. eigenvalues --    0.14241   0.14434   0.15054   0.15658   0.16474

 Mulliken charges:
               1
     1  N   -1.130074
     2  C   -2.751920
     3  P    3.252944
     4  H    1.475388
     5  H    1.361428
     6  N    4.809093
     7  H    0.834108
     8  N    4.072625
     9  O   -2.796775
    10  O   -2.812856
    11  O   -2.441098
    12  O   -2.726862
    13  H   -1.146003
 Sum of Mulliken charges =  -0.00000

 Dipole moment (field-independent basis, Debye):
    X=             -2.1017    Y=              3.5326    Z=              1.2808  Tot=              4.3054

 Test job not archived.
 1\1\GINC-SE368\SP\RHF\Aug-CC-pVDZ\C1H4N3O4P1\OHZDE\08-Apr-2025\0\\#t h
 f aug-cc-pvdz iop(5/13=1,5/36=2,99/5=2) pseudo=read geom=check guess=(
 read,tcheck) scf=(maxcycle=1)\\title\\0,1\N,0,1.140852,-0.198618,0.898
 461\C,0,0.311031,0.9835,1.000595\P,0,-1.069534,1.23248,-0.241608\H,0,0
 .943421,1.870112,0.93601\H,0,-0.145285,0.966432,1.991086\N,0,2.027411,
 -0.293388,-0.166827\H,0,0.705984,-1.097393,1.07312\N,0,-1.875176,-0.45
 5602,-0.077989\O,0,2.320342,0.748349,-0.73858\O,0,2.460134,-1.407543,-
 0.401422\O,0,-1.672051,-1.109654,0.938606\O,0,-2.609303,-0.773099,-0.9

 Normal termination of Gaussian 16 at Tue Apr  8 23:35:45 2025.
