 Gaussian 16, Revision C.01,

 ----------------------------------------------------------------------
 #t hf aug-cc-pvdz symm=none int=(grid=ultrafine) guess=(read,tcheck) s
 table=(opt,rrhf)
 ----------------------------------------------------------------------
 -----
 title
 -----
 Symbolic Z-matrix:
 Charge =  0 Multiplicity = 1

 SCF Done:  E(RHF) =  -677.023940248     A.U. after   13 cycles
 Normal termination of Gaussian 16 at Wed Apr  9 00:35:30 2025.
 Gaussian 16:  ES64L-G16RevC.01  3-Jul-2019

 ----------------------------------------------------------------------
 #t hf aug-cc-pvdz iop(5/13=1,5/36=2,99/5=2) pseudo=read geom=check gue
 ss=(read,tcheck) scf=(maxcycle=1)
 ----------------------------------------------------------------------
 -----
 title
 -----
 Structure from the checkpoint file:  "BDE49_nonexpt_437_mol1.chk"
 Charge =  0 Multiplicity = 1

                         Standard orientation:
 ---------------------------------------------------------------------
 Center     Atomic      Atomic             Coordinates (Angstroms)
 Number     Number       Type             X           Y           Z
 ---------------------------------------------------------------------
      1          9           0       -3.655130    1.130234   -0.000215
      2          9           0       -3.655130   -1.130234   -0.000214
      3          5           0       -2.956709    0.000000    0.000244
      4          6           0       -1.409462    0.000000    0.000148
      5          6           0       -0.694437   -1.208890    0.000109
      6          1           0       -1.235825   -2.148193    0.000140
      7          6           0       -0.694437    1.208890    0.000108
      8          1           0       -1.235825    2.148193    0.000138
      9          9           0        3.655129   -1.130234    0.000012
     10          9           0        3.655130    1.130234    0.000011
     11          5           0        2.956709   -0.000000   -0.000089
     12          6           0        1.409462   -0.000000   -0.000003
     13          6           0        0.694437    1.208890    0.000035
     14          1           0        1.235825    2.148193    0.000006
     15          6           0        0.694437   -1.208890    0.000036
     16          1           0        1.235825   -2.148193    0.000008
 ---------------------------------------------------------------------

 SCF Done:  E(RHF) =  -679.664822766     A.U. after    2 cycles

 The electronic state is 1-A.
 Alpha  occ. eigenvalues --  -29.26331 -29.26327 -29.26227 -29.26221 -11.54086
 Alpha  occ. eigenvalues --  -11.45695 -11.44850 -11.43531 -11.43145 -11.37966
 Alpha  occ. eigenvalues --   -7.73725  -7.72690  -1.38795  -1.22524  -1.13751
 Alpha  occ. eigenvalues --   -1.11748  -1.04092  -0.90315  -0.86983  -0.76130
 Alpha  occ. eigenvalues --   -0.73809  -0.73608  -0.68188  -0.61698  -0.60579
 Alpha  occ. eigenvalues --   -0.58691  -0.55749  -0.52267  -0.51258  -0.48655
 Alpha  occ. eigenvalues --   -0.47221  -0.45801  -0.45511  -0.45218  -0.43730
 Alpha  occ. eigenvalues --   -0.35342  -0.34962  -0.34558  -0.34432  -0.33748
 Alpha  occ. eigenvalues --   -0.33081  -0.27379  -0.26996
 Alpha virt. eigenvalues --    0.02515   0.03891   0.04538   0.05085   0.05090
 Alpha virt. eigenvalues --    0.05162   0.05193   0.07319   0.07637   0.08213
 Alpha virt. eigenvalues --    0.08436   0.09087   0.09840   0.09858   0.10178

 Mulliken charges:
               1
     1  F   -0.700363
     2  F   -0.700363
     3  B   -0.009882
     4  C   -2.857465
     5  C    0.052014
     6  H    2.082022
     7  C    0.052013
     8  H    2.082022
     9  F   -0.700359
    10  F   -0.700360
    11  B   -0.009887
    12  C   -2.857465
    13  C    0.052014
    14  H    2.082022
    15  C    0.052017
    16  H    2.082022
 Sum of Mulliken charges =  -0.00000

 Dipole moment (field-independent basis, Debye):
    X=              0.0000    Y=             -0.0000    Z=             -0.0009  Tot=              0.0009

 Test job not archived.
 1\1\GINC-SE166\SP\RHF\Aug-CC-pVDZ\C6H4B2F4\OHZDE\09-Apr-2025\0\\#t hf
 aug-cc-pvdz iop(5/13=1,5/36=2,99/5=2) pseudo=read geom=check guess=(re
 ad,tcheck) scf=(maxcycle=1)\\title\\0,1\F,0,-3.65513,-1.130234,0.00021
 5\F,0,-3.65513,1.130234,0.000214\B,0,-2.956709,0.,-0.000244\C,0,-1.409
 462,0.,-0.000148\C,0,-0.694437,1.20889,-0.000109\H,0,-1.235825,2.14819
 3,-0.00014\C,0,-0.694437,-1.20889,-0.000108\H,0,-1.235825,-2.148193,-0
 .000138\F,0,3.655129,1.130234,-0.000012\F,0,3.65513,-1.130234,-0.00001
 1\B,0,2.956709,0.,0.000089\C,0,1.409462,0.,0.000003\C,0,0.694437,-1.20

 Normal termination of Gaussian 16 at Wed Apr  9 00:35:39 2025.
