 Gaussian 16, Revision C.01,

 ----------------------------------------------------------------------
 #t hf aug-cc-pvdz symm=none int=(grid=ultrafine) guess=(read,tcheck) s
 table=opt
 ----------------------------------------------------------------------
 -----
 title
 -----
 Symbolic Z-matrix:
 Charge =  0 Multiplicity = 2

 SCF Done:  E(UHF) =  -809.720020817     A.U. after   16 cycles
 Normal termination of Gaussian 16 at Tue Apr  8 22:44:02 2025.
 Gaussian 16:  ES64L-G16RevC.01  3-Jul-2019

 ----------------------------------------------------------------------
 #t hf aug-cc-pvdz iop(5/13=1,5/36=2,99/5=2) pseudo=read geom=check gue
 ss=(read,tcheck) scf=(maxcycle=1)
 ----------------------------------------------------------------------
 -----
 title
 -----
 Structure from the checkpoint file:  "BDE49_expt_143_mol2.chk"
 Charge =  0 Multiplicity = 2

                         Standard orientation:
 ---------------------------------------------------------------------
 Center     Atomic      Atomic             Coordinates (Angstroms)
 Number     Number       Type             X           Y           Z
 ---------------------------------------------------------------------
      1          6           0        1.177707    0.197340   -0.103003
      2          6           0       -0.192495   -0.490576    0.125715
      3          9           0        1.275204    1.311132    0.629775
      4          9           0        1.316085    0.518160   -1.396491
      5          9           0        2.162525   -0.633681    0.242691
      6          6           0       -1.370718    0.328041   -0.358124
      7          9           0       -0.301173   -0.762269    1.458899
      8          9           0       -0.193185   -1.665592   -0.542813
      9          9           0       -1.480780    1.533104    0.182021
     10          9           0       -2.521672   -0.324058   -0.350473
 ---------------------------------------------------------------------

 SCF Done:  E(UHF) =  -812.540804361     A.U. after    2 cycles

 The electronic state is 2-A.
 Alpha  occ. eigenvalues --  -29.35298 -29.35163 -29.34887 -29.34628 -29.34522
 Alpha  occ. eigenvalues --  -29.34121 -29.33712 -11.65972 -11.61265 -11.55476
 Alpha  occ. eigenvalues --   -1.53867  -1.39048  -1.22797  -0.98359  -0.96038
 Alpha  occ. eigenvalues --   -0.91313  -0.85599  -0.81121  -0.80125  -0.66904
 Alpha  occ. eigenvalues --   -0.52428  -0.50386  -0.48965  -0.48241  -0.47500
 Alpha  occ. eigenvalues --   -0.44784  -0.44568  -0.43719  -0.41144  -0.38956
 Alpha  occ. eigenvalues --   -0.37496  -0.35359  -0.35199  -0.32137  -0.30153
 Alpha  occ. eigenvalues --   -0.29500  -0.28434  -0.26535  -0.24770  -0.23420
 Alpha  occ. eigenvalues --   -0.20765
 Alpha virt. eigenvalues --    0.08670   0.10022   0.10277   0.11291   0.12398
 Alpha virt. eigenvalues --    0.12624   0.13046   0.14049   0.15081   0.15802
 Alpha virt. eigenvalues --    0.20385   0.21472   0.22288   0.23242   0.23870

  Beta  occ. eigenvalues --  -29.34898 -29.34874 -29.34760 -29.34625 -29.34529
  Beta  occ. eigenvalues --  -29.34141 -29.33507 -11.65973 -11.60577 -11.53405
  Beta  occ. eigenvalues --   -1.53077  -1.35923  -1.19921  -0.97831  -0.95771
  Beta  occ. eigenvalues --   -0.90447  -0.84112  -0.80086  -0.78983  -0.52307
  Beta  occ. eigenvalues --   -0.52004  -0.49939  -0.48642  -0.48012  -0.47223
  Beta  occ. eigenvalues --   -0.44684  -0.44214  -0.43049  -0.40850  -0.38844
  Beta  occ. eigenvalues --   -0.37209  -0.35157  -0.33333  -0.31556  -0.30061
  Beta  occ. eigenvalues --   -0.29349  -0.28171  -0.26113  -0.24494  -0.23315
  Beta virt. eigenvalues --    0.08859   0.09851   0.10051   0.11137   0.11864
  Beta virt. eigenvalues --    0.12492   0.13083   0.13509   0.14184   0.15583
  Beta virt. eigenvalues --    0.15955   0.20493   0.21859   0.22996   0.23844

 Mulliken charges and spin densities:
               1          2
     1  C   -0.694199  -0.026246
     2  C   -1.453424  -0.279341
     3  F    0.497248   0.000198
     4  F    0.433182  -0.000468
     5  F    0.597878  -0.002789
     6  C   -1.553173   1.031696
     7  F    0.445594   0.034798
     8  F    0.505237  -0.015401
     9  F    0.540887   0.126103
    10  F    0.680770   0.131449
 Sum of Mulliken charges =   0.00000   1.00000

 Dipole moment (field-independent basis, Debye):
    X=             -0.3641    Y=             -0.2630    Z=              1.3997  Tot=              1.4700
                          Isotropic Fermi Contact Couplings
        Atom                 a.u.       MegaHertz       Gauss      10(-4) cm-1
     1  C(13)             -0.00090      -1.00660      -0.35918      -0.33577
     2  C(13)              0.01166      13.11004       4.67799       4.37304
     3  F(19)              0.00025       1.07165       0.38239       0.35746
     4  F(19)              0.00214       9.01576       3.21705       3.00733
     5  F(19)             -0.00061      -2.57641      -0.91933      -0.85940
     6  C(13)              0.20847     234.36249      83.62637      78.17491
     7  F(19)              0.01238      52.08478      18.58514      17.37361
     8  F(19)             -0.00162      -6.82786      -2.43635      -2.27753

 Normal termination of Gaussian 16 at Tue Apr  8 22:44:08 2025.
