 Gaussian 16, Revision C.01,

 ----------------------------------------------------------------------
 #t hf aug-cc-pvdz symm=none int=(grid=ultrafine) guess=(read,tcheck) s
 table=(opt,rrhf)
 ----------------------------------------------------------------------
 -----
 title
 -----
 Symbolic Z-matrix:
 Charge =  0 Multiplicity = 1

 SCF Done:  E(RHF) =  -452.514429345     A.U. after   12 cycles
 Normal termination of Gaussian 16 at Tue Apr  8 23:38:05 2025.
 Gaussian 16:  ES64L-G16RevC.01  3-Jul-2019

 ----------------------------------------------------------------------
 #t hf aug-cc-pvdz iop(5/13=1,5/36=2,99/5=2) pseudo=read geom=check gue
 ss=(read,tcheck) scf=(maxcycle=1)
 ----------------------------------------------------------------------
 -----
 title
 -----
 Structure from the checkpoint file:  "BDE49_nonexpt_1546_mol1.chk"
 Charge =  0 Multiplicity = 1

                         Standard orientation:
 ---------------------------------------------------------------------
 Center     Atomic      Atomic             Coordinates (Angstroms)
 Number     Number       Type             X           Y           Z
 ---------------------------------------------------------------------
      1         15           0       -1.131539   -0.011572    0.005086
      2          7           0        0.480393    0.553709   -0.064780
      3          7           0        1.558990   -0.373942   -0.040090
      4          1           0       -1.066928   -1.059828    0.976477
      5          1           0       -1.081067   -0.917096   -1.082795
      6          1           0        1.901349   -0.511311    0.909063
      7          1           0        2.316214   -0.005182   -0.606805
      8          1           0        0.627837    1.408619    0.461848
 ---------------------------------------------------------------------

 SCF Done:  E(RHF) =  -453.232477919     A.U. after    2 cycles

 The electronic state is 1-A.
 Alpha  occ. eigenvalues -- -105.18670 -15.76205 -15.74437  -2.75971  -1.57331
 Alpha  occ. eigenvalues --   -1.43934  -1.42992  -1.36840  -1.04027  -0.72534
 Alpha  occ. eigenvalues --   -0.67146  -0.64476  -0.41790  -0.37838  -0.26732
 Alpha  occ. eigenvalues --   -0.24871  -0.02055
 Alpha virt. eigenvalues --    0.03947   0.05957   0.06209   0.06670   0.09442
 Alpha virt. eigenvalues --    0.10161   0.11191   0.14472   0.16398   0.17323
 Alpha virt. eigenvalues --    0.19621   0.19773   0.20598   0.21904   0.22262

 Mulliken charges:
               1
     1  P    2.059957
     2  N   -1.098639
     3  N   -1.329074
     4  H   -0.637537
     5  H   -0.695984
     6  H    0.565244
     7  H    0.657176
     8  H    0.478857
 Sum of Mulliken charges =   0.00000

 Dipole moment (field-independent basis, Debye):
    X=              0.7562    Y=              1.0916    Z=              0.5151  Tot=              1.4243

 Test job not archived.
 1\1\GINC-SE419\SP\RHF\Aug-CC-pVDZ\H5N2P1\OHZDE\08-Apr-2025\0\\#t hf au
 g-cc-pvdz iop(5/13=1,5/36=2,99/5=2) pseudo=read geom=check guess=(read
 ,tcheck) scf=(maxcycle=1)\\title\\0,1\P,0,-1.131539,-0.011572,0.005086
 \N,0,0.480393,0.553709,-0.06478\N,0,1.55899,-0.373942,-0.04009\H,0,-1.
 066928,-1.059828,0.976477\H,0,-1.081067,-0.917096,-1.082795\H,0,1.9013
 49,-0.511311,0.909063\H,0,2.316214,-0.005182,-0.606805\H,0,0.627837,1.
 408619,0.461848\\Version=ES64L-G16RevC.01\State=1-A\HF=-453.2324779\RM
 SD=1.989e-01\Dipole=0.2975178,0.4294543,0.2026555\Quadrupole=1.3287545

 Normal termination of Gaussian 16 at Tue Apr  8 23:38:08 2025.
