 Gaussian 16, Revision C.01,

 ----------------------------------------------------------------------
 #t hf aug-cc-pvdz symm=none int=(grid=ultrafine) guess=(read,tcheck) s
 table=opt
 ----------------------------------------------------------------------
 -----
 title
 -----
 Symbolic Z-matrix:
 Charge =  0 Multiplicity = 2

 SCF Done:  E(UHF) =  -877.541279226     A.U. after   14 cycles

 1\1\GINC-SE252\Stability\UHF\Aug-CC-pVDZ\F3H2Si2\OHZDE\08-Apr-2025\0\\
 #t hf aug-cc-pvdz symm=none int=(grid=ultrafine) guess=(read,tcheck) s
 table=opt\\title\\0,2\Si,0,1.932082,0.,-0.072754\Si,0,-0.390201,0.,0.0
 04425\F,0,-0.970658,-1.282114,-0.736839\F,0,-1.018021,-0.000001,1.4672
 15\F,0,-0.970658,1.282115,-0.736837\H,0,2.523855,-1.226443,0.507375\H,
 0,2.523855,1.226443,0.507376\\Version=ES64L-G16RevC.01\HF=-877.5412792
 \S2=0.757892\S2-1=0.\S2A=0.750025\RMSD=7.871e-09\Dipole=1.0012873,0.,0
 .0220628\Quadrupole=1.5172128,-0.5920759,-0.925137,-0.0000012,0.102331

 Normal termination of Gaussian 16 at Tue Apr  8 23:57:25 2025.
 Gaussian 16:  ES64L-G16RevC.01  3-Jul-2019

 ----------------------------------------------------------------------
 #t hf aug-cc-pvdz iop(5/13=1,5/36=2,99/5=2) pseudo=read geom=check gue
 ss=(read,tcheck) scf=(maxcycle=1)
 ----------------------------------------------------------------------
 -----
 title
 -----
 Structure from the checkpoint file:  "BDE49_nonexpt_2018_mol2.chk"
 Charge =  0 Multiplicity = 2

                         Standard orientation:
 ---------------------------------------------------------------------
 Center     Atomic      Atomic             Coordinates (Angstroms)
 Number     Number       Type             X           Y           Z
 ---------------------------------------------------------------------
      1         14           0        1.932082   -0.000000   -0.072754
      2         14           0       -0.390201    0.000000    0.004425
      3          9           0       -0.970658   -1.282114   -0.736839
      4          9           0       -1.018021   -0.000001    1.467215
      5          9           0       -0.970658    1.282115   -0.736837
      6          1           0        2.523855   -1.226443    0.507375
      7          1           0        2.523855    1.226443    0.507376
 ---------------------------------------------------------------------

 SCF Done:  E(UHF) =  -878.837284451     A.U. after    2 cycles

 The electronic state is 2-A.
 Alpha  occ. eigenvalues --  -76.32219 -76.25976 -29.29585 -29.29579 -29.29523
 Alpha  occ. eigenvalues --   -5.68798  -5.59402  -2.32948  -2.32709  -2.28026
 Alpha  occ. eigenvalues --   -2.21407  -2.20836  -2.19736  -1.01142  -0.78776
 Alpha  occ. eigenvalues --   -0.72395  -0.72199  -0.51757  -0.50501  -0.42820
 Alpha  occ. eigenvalues --   -0.42805  -0.42542  -0.38064  -0.36590  -0.33177
 Alpha  occ. eigenvalues --   -0.30656  -0.30483  -0.28666  -0.25677
 Alpha virt. eigenvalues --    0.04004   0.06461   0.06802   0.07485   0.07596
 Alpha virt. eigenvalues --    0.08532   0.09194   0.09448   0.12163   0.14250
 Alpha virt. eigenvalues --    0.15698   0.17106   0.17530   0.18496   0.20647

  Beta  occ. eigenvalues --  -76.32215 -76.25413 -29.29599 -29.29593 -29.29439
  Beta  occ. eigenvalues --   -5.68788  -5.58532  -2.32935  -2.32680  -2.27997
  Beta  occ. eigenvalues --   -2.20713  -2.20059  -2.16115  -1.00851  -0.73932
  Beta  occ. eigenvalues --   -0.72399  -0.72026  -0.51411  -0.50197  -0.42771
  Beta  occ. eigenvalues --   -0.42763  -0.42498  -0.36656  -0.36498  -0.30668
  Beta  occ. eigenvalues --   -0.30619  -0.29733  -0.28632
  Beta virt. eigenvalues --    0.01997   0.04435   0.06583   0.06946   0.07757
  Beta virt. eigenvalues --    0.08782   0.09172   0.09470   0.09619   0.13975
  Beta virt. eigenvalues --    0.14841   0.17666   0.19021   0.19853   0.20444

 Mulliken charges and spin densities:
               1          2
     1  Si   2.577619   1.185717
     2  Si   2.586531  -0.086985
     3  F   -0.736769   0.003825
     4  F   -0.837676  -0.026333
     5  F   -0.736769   0.003825
     6  H   -1.426469  -0.040025
     7  H   -1.426469  -0.040025
 Sum of Mulliken charges =  -0.00000   1.00000

 Dipole moment (field-independent basis, Debye):
    X=             -2.5420    Y=             -0.0000    Z=             -0.2655  Tot=              2.5558
                          Isotropic Fermi Contact Couplings
        Atom                 a.u.       MegaHertz       Gauss      10(-4) cm-1
     1  Si(29)             0.36052    -320.40815    -114.32960    -106.87665
     2  Si(29)             0.00956      -8.49641      -3.03173      -2.83410
     3  F(19)             -0.00329     -13.85767      -4.94476      -4.62242
     4  F(19)              0.01387      58.34334      20.81835      19.46124
     5  F(19)             -0.00329     -13.85766      -4.94476      -4.62242
     6  H(1)              -0.00283     -12.62896      -4.50633      -4.21257
     7  H(1)              -0.00283     -12.62896      -4.50633      -4.21257
 --------------------------------------------------------

 Normal termination of Gaussian 16 at Tue Apr  8 23:57:27 2025.
