 Gaussian 16, Revision C.01,

 ----------------------------------------------------------------------
 #t hf aug-cc-pvdz symm=none int=(grid=ultrafine) guess=(read,tcheck) s
 table=(opt,rrhf)
 ----------------------------------------------------------------------
 -----
 title
 -----
 Symbolic Z-matrix:
 Charge =  0 Multiplicity = 1

 SCF Done:  E(RHF) =  -918.393956253     A.U. after   14 cycles
 Normal termination of Gaussian 16 at Wed Apr  9 00:15:20 2025.
 Gaussian 16:  ES64L-G16RevC.01  3-Jul-2019

 ----------------------------------------------------------------------
 #t hf aug-cc-pvdz iop(5/13=1,5/36=2,99/5=2) pseudo=read geom=check gue
 ss=(read,tcheck) scf=(maxcycle=1)
 ----------------------------------------------------------------------
 -----
 title
 -----
 Structure from the checkpoint file:  "BDE49_nonexpt_2477_mol1.chk"
 Charge =  0 Multiplicity = 1

                         Standard orientation:
 ---------------------------------------------------------------------
 Center     Atomic      Atomic             Coordinates (Angstroms)
 Number     Number       Type             X           Y           Z
 ---------------------------------------------------------------------
      1          6           0        2.237469   -1.299614    0.144663
      2          6           0        0.903127   -1.084557    0.476679
      3          6           0        0.318709    0.184496    0.330319
      4          6           0        1.115964    1.230971   -0.159002
      5          6           0        2.451900    1.017767   -0.492332
      6          6           0        3.013385   -0.247781   -0.340680
      7          1           0        2.672707   -2.285469    0.264599
      8          1           0        0.311705   -1.913490    0.852609
      9          1           0        0.691741    2.222497   -0.279939
     10          1           0        3.052960    1.837864   -0.869024
     11          1           0        4.053210   -0.414944   -0.598865
     12         14           0       -1.471753    0.479403    0.772558
     13         16           0       -2.688461   -0.407040   -0.794778
     14          1           0       -3.858962   -0.230259   -0.153924
     15          1           0       -1.722623    1.935511    0.865697
     16          1           0       -1.824147   -0.158416    2.061595
 ---------------------------------------------------------------------

 SCF Done:  E(RHF) =  -919.892163861     A.U. after    2 cycles

 The electronic state is 1-A.
 Alpha  occ. eigenvalues --  -76.24099 -75.68084 -13.13684 -13.06667 -13.02872
 Alpha  occ. eigenvalues --  -11.51679 -11.43351 -11.42949 -11.41019 -11.40659
 Alpha  occ. eigenvalues --  -11.36617  -8.02018  -5.57613  -2.22201  -2.20739
 Alpha  occ. eigenvalues --   -2.19409  -1.34236  -1.10795  -1.09568  -1.08645
 Alpha  occ. eigenvalues --   -0.86679  -0.86552  -0.75946  -0.69787  -0.63866
 Alpha  occ. eigenvalues --   -0.58912  -0.57356  -0.54059  -0.51751  -0.49771
 Alpha  occ. eigenvalues --   -0.48482  -0.45114  -0.39911  -0.36030  -0.33498
 Alpha  occ. eigenvalues --   -0.32536  -0.26853
 Alpha virt. eigenvalues --    0.02927   0.04113   0.04876   0.05262   0.05349
 Alpha virt. eigenvalues --    0.05997   0.06967   0.07690   0.08441   0.09579
 Alpha virt. eigenvalues --    0.09768   0.11247   0.11316   0.11515   0.12016

 Mulliken charges:
               1
     1  C   -0.577120
     2  C   -2.177427
     3  C   -0.631777
     4  C   -2.844096
     5  C   -0.513925
     6  C   -1.980798
     7  H    1.522840
     8  H    1.804886
     9  H    1.838720
    10  H    1.551240
    11  H    1.517639
    12  Si   5.416442
    13  S   -2.548533
    14  H    0.981709
    15  H   -1.689061
    16  H   -1.670740
 Sum of Mulliken charges =   0.00000

 Dipole moment (field-independent basis, Debye):
    X=              1.6631    Y=             -0.7981    Z=             -1.5749  Tot=              2.4255

 Test job not archived.
 1\1\GINC-SE435\SP\RHF\Aug-CC-pVDZ\C6H8S1Si1\OHZDE\09-Apr-2025\0\\#t hf
  aug-cc-pvdz iop(5/13=1,5/36=2,99/5=2) pseudo=read geom=check guess=(r
 ead,tcheck) scf=(maxcycle=1)\\title\\0,1\C,0,2.237469,-1.299614,0.1446
 63\C,0,0.903127,-1.084557,0.476679\C,0,0.318709,0.184496,0.330319\C,0,
 1.115964,1.230971,-0.159002\C,0,2.4519,1.017767,-0.492332\C,0,3.013385
 ,-0.247781,-0.34068\H,0,2.672707,-2.285469,0.264599\H,0,0.311705,-1.91
 349,0.852609\H,0,0.691741,2.222497,-0.279939\H,0,3.05296,1.837864,-0.8
 69024\H,0,4.05321,-0.414944,-0.598865\Si,0,-1.471753,0.479403,0.772558

 Normal termination of Gaussian 16 at Wed Apr  9 00:15:27 2025.
