 Gaussian 16, Revision C.01,

 ----------------------------------------------------------------------
 #t hf aug-cc-pvdz symm=none int=(grid=ultrafine) guess=(read,tcheck) s
 table=(opt,rrhf)
 ----------------------------------------------------------------------
 -----
 title
 -----
 Symbolic Z-matrix:
 Charge =  0 Multiplicity = 1

 SCF Done:  E(RHF) =  -2524.65972067     A.U. after   13 cycles
 Normal termination of Gaussian 16 at Wed Apr  9 00:16:38 2025.
 Gaussian 16:  ES64L-G16RevC.01  3-Jul-2019

 ----------------------------------------------------------------------
 #t hf aug-cc-pvdz iop(5/13=1,5/36=2,99/5=2) pseudo=read geom=check gue
 ss=(read,tcheck) scf=(maxcycle=1)
 ----------------------------------------------------------------------
 -----
 title
 -----
 Structure from the checkpoint file:  "BDE49_nonexpt_2531_mol1.chk"
 Charge =  0 Multiplicity = 1

                         Standard orientation:
 ---------------------------------------------------------------------
 Center     Atomic      Atomic             Coordinates (Angstroms)
 Number     Number       Type             X           Y           Z
 ---------------------------------------------------------------------
      1         17           0        2.692480   -0.059272    0.000046
      2         16           0        1.133935    1.318733    0.000002
      3         14           0       -0.536953   -0.022119   -0.000009
      4         17           0       -0.596538   -1.220609   -1.656261
      5         17           0       -0.596593   -1.220565    1.656273
      6         17           0       -2.124385    1.277502   -0.000052
 ---------------------------------------------------------------------

 SCF Done:  E(RHF) =  -2525.99030170     A.U. after    2 cycles

 The electronic state is 1-A.
 Alpha  occ. eigenvalues --  -99.93344 -99.92523 -99.92134 -99.92133 -76.37976
 Alpha  occ. eigenvalues --  -75.76439 -13.15423 -13.12383 -13.10030 -10.50411
 Alpha  occ. eigenvalues --  -10.49996 -10.49651 -10.49594  -9.70160  -9.69822
 Alpha  occ. eigenvalues --   -9.69564  -9.69449  -9.69425  -9.69419  -9.69201
 Alpha  occ. eigenvalues --   -9.69185  -9.68873  -9.68801  -9.68794  -9.68704
 Alpha  occ. eigenvalues --   -8.10329  -5.71641  -2.33469  -2.33172  -2.32353
 Alpha  occ. eigenvalues --   -1.37305  -1.34785  -1.31668  -1.31402  -1.09696
 Alpha  occ. eigenvalues --   -0.80760  -0.64658  -0.63834  -0.62537  -0.59484
 Alpha  occ. eigenvalues --   -0.58892  -0.57541  -0.56832  -0.56269  -0.54643
 Alpha  occ. eigenvalues --   -0.54589  -0.53230  -0.40306  -0.31582
 Alpha virt. eigenvalues --    0.00887   0.02762   0.05026   0.05584   0.06088
 Alpha virt. eigenvalues --    0.06189   0.08029   0.09672   0.10000   0.12396
 Alpha virt. eigenvalues --    0.12641   0.12778   0.12979   0.14177   0.14322

 Mulliken charges:
               1
     1  Cl  -0.405695
     2  S   -0.812855
     3  Si   3.332303
     4  Cl  -0.697407
     5  Cl  -0.697407
     6  Cl  -0.718939
 Sum of Mulliken charges =  -0.00000

 Dipole moment (field-independent basis, Debye):
    X=              0.1249    Y=              3.5074    Z=             -0.0000  Tot=              3.5096

 Test job not archived.
 1\1\GINC-SE329\SP\RHF\Aug-CC-pVDZ\Cl4S1Si1\OHZDE\09-Apr-2025\0\\#t hf
 aug-cc-pvdz iop(5/13=1,5/36=2,99/5=2) pseudo=read geom=check guess=(re
 ad,tcheck) scf=(maxcycle=1)\\title\\0,1\Cl,0,2.69248,-0.059273,0.00004
 6\S,0,1.133935,1.318732,0.000002\Si,0,-0.536953,-0.022119,-0.000009\Cl
 ,0,-0.596538,-1.220609,-1.656261\Cl,0,-0.596593,-1.220565,1.656273\Cl,
 0,-2.124385,1.277502,-0.000052\\Version=ES64L-G16RevC.01\State=1-A\HF=
 -2525.9903017\RMSD=3.645e-02\Dipole=0.0491467,1.3799161,-0.0000176\Qua
 drupole=-2.1045291,4.5339084,-2.4293794,1.5240728,-0.000012,-0.0000611

 Normal termination of Gaussian 16 at Wed Apr  9 00:16:41 2025.
