 Gaussian 16, Revision C.01,

 ----------------------------------------------------------------------
 #t hf aug-cc-pvdz symm=none int=(grid=ultrafine) guess=(read,tcheck) s
 table=(opt,rrhf)
 ----------------------------------------------------------------------
 -----
 title
 -----
 Symbolic Z-matrix:
 Charge =  0 Multiplicity = 1

 SCF Done:  E(RHF) =  -1013.76419337     A.U. after   13 cycles
 Normal termination of Gaussian 16 at Wed Apr  9 00:16:57 2025.
 Gaussian 16:  ES64L-G16RevC.01  3-Jul-2019

 ----------------------------------------------------------------------
 #t hf aug-cc-pvdz iop(5/13=1,5/36=2,99/5=2) pseudo=read geom=check gue
 ss=(read,tcheck) scf=(maxcycle=1)
 ----------------------------------------------------------------------
 -----
 title
 -----
 Structure from the checkpoint file:  "BDE49_nonexpt_2544_mol1.chk"
 Charge =  0 Multiplicity = 1

                         Standard orientation:
 ---------------------------------------------------------------------
 Center     Atomic      Atomic             Coordinates (Angstroms)
 Number     Number       Type             X           Y           Z
 ---------------------------------------------------------------------
      1         17           0       -2.124126    0.264560   -0.000045
      2         16           0       -0.484808   -1.021376    0.000023
      3          6           0        0.972169    0.139950    0.000014
      4          6           0        2.153993   -0.848018    0.000012
      5          1           0        2.150590   -1.484432    0.888467
      6          1           0        3.087791   -0.278061    0.000006
      7          1           0        2.150582   -1.484439   -0.888437
      8          6           0        0.981483    1.000385   -1.266466
      9          1           0        1.873084    1.636354   -1.272310
     10          1           0        0.105751    1.650613   -1.309570
     11          1           0        0.992781    0.380598   -2.165113
     12          6           0        0.981494    1.000394    1.266489
     13          1           0        0.992800    0.380612    2.165139
     14          1           0        0.105762    1.650622    1.309595
     15          1           0        1.873095    1.636363    1.272320
 ---------------------------------------------------------------------

 SCF Done:  E(RHF) =  -1015.06156225     A.U. after    2 cycles

 The electronic state is 1-A.
 Alpha  occ. eigenvalues --  -99.89700 -75.72778 -13.15973 -13.10917 -13.08544
 Alpha  occ. eigenvalues --  -11.44626 -11.40625 -11.39723 -11.36690 -10.46822
 Alpha  occ. eigenvalues --   -9.66647  -9.66096  -9.65947  -8.06484  -1.35389
 Alpha  occ. eigenvalues --   -1.27011  -1.04102  -1.02421  -1.02123  -0.79018
 Alpha  occ. eigenvalues --   -0.64713  -0.62581  -0.62448  -0.56798  -0.56385
 Alpha  occ. eigenvalues --   -0.53723  -0.53451  -0.52569  -0.52233  -0.46367
 Alpha  occ. eigenvalues --   -0.45737  -0.35934  -0.24795
 Alpha virt. eigenvalues --    0.02853   0.04783   0.05584   0.05702   0.05865
 Alpha virt. eigenvalues --    0.06103   0.06741   0.07066   0.07984   0.08575
 Alpha virt. eigenvalues --    0.09056   0.11357   0.13406   0.14338   0.14446

 Mulliken charges:
               1
     1  Cl  -0.513456
     2  S    0.267316
     3  C    0.961740
     4  C   -3.871392
     5  H    1.300184
     6  H    1.201708
     7  H    1.300189
     8  C   -4.074835
     9  H    1.234042
    10  H    1.206368
    11  H    1.311285
    12  C   -4.074840
    13  H    1.311281
    14  H    1.206361
    15  H    1.234048
 Sum of Mulliken charges =  -0.00000

 Dipole moment (field-independent basis, Debye):
    X=              3.3949    Y=             -1.6976    Z=              0.0001  Tot=              3.7957

 Test job not archived.
 1\1\GINC-SE460\SP\RHF\Aug-CC-pVDZ\C4H9Cl1S1\OHZDE\09-Apr-2025\0\\#t hf
  aug-cc-pvdz iop(5/13=1,5/36=2,99/5=2) pseudo=read geom=check guess=(r
 ead,tcheck) scf=(maxcycle=1)\\title\\0,1\Cl,0,2.124126,0.26456,0.00004
 5\S,0,0.484808,-1.021376,-0.000023\C,0,-0.972169,0.13995,-0.000014\C,0
 ,-2.153993,-0.848018,-0.000012\H,0,-2.15059,-1.484432,-0.888467\H,0,-3
 .087791,-0.278061,-0.000006\H,0,-2.150582,-1.484439,0.888437\C,0,-0.98
 1483,1.000385,1.266466\H,0,-1.873084,1.636354,1.27231\H,0,-0.105751,1.
 650613,1.30957\H,0,-0.992781,0.380598,2.165113\C,0,-0.981494,1.000394,

 Normal termination of Gaussian 16 at Wed Apr  9 00:17:02 2025.
