 Gaussian 16, Revision C.01,

 ----------------------------------------------------------------------
 #t hf aug-cc-pvdz symm=none int=(grid=ultrafine) guess=(read,tcheck) s
 table=(opt,rrhf)
 ----------------------------------------------------------------------
 -----
 title
 -----
 Symbolic Z-matrix:
 Charge =  0 Multiplicity = 1

 SCF Done:  E(RHF) =  -1009.15855546     A.U. after   15 cycles
 Normal termination of Gaussian 16 at Wed Apr  9 00:00:45 2025.
 Gaussian 16:  ES64L-G16RevC.01  3-Jul-2019

 ----------------------------------------------------------------------
 #t hf aug-cc-pvdz iop(5/13=1,5/36=2,99/5=2) pseudo=read geom=check gue
 ss=(read,tcheck) scf=(maxcycle=1)
 ----------------------------------------------------------------------
 -----
 title
 -----
 Structure from the checkpoint file:  "BDE49_nonexpt_1969_mol1.chk"
 Charge =  0 Multiplicity = 1

                         Standard orientation:
 ---------------------------------------------------------------------
 Center     Atomic      Atomic             Coordinates (Angstroms)
 Number     Number       Type             X           Y           Z
 ---------------------------------------------------------------------
      1          6           0        0.523872   -0.347031    1.312475
      2         14           0       -0.347181    1.329782    1.061604
      3          6           0       -1.506490    1.439230   -0.486496
      4          1           0        0.681692    2.337301    0.726289
      5          1           0       -1.065999    1.737413    2.279555
      6          8           0       -1.500281    2.409355   -1.182758
      7          8           0       -2.349102    0.376792   -0.883347
      8          6           0       -2.684874   -0.592194    0.023555
      9          8           0       -2.459912   -0.476481    1.202297
     10          6           0       -3.335219   -1.763004   -0.644164
     11          1           0       -2.548321   -2.340412   -1.137655
     12          1           0       -4.041570   -1.430805   -1.405474
     13          1           0       -3.826511   -2.383237    0.102600
     14          6           0        0.853464   -1.012592    0.017321
     15          8           0        0.182390   -1.830922   -0.538256
     16          8           0        1.970648   -0.522110   -0.690393
     17          6           0        3.195864   -0.235066   -0.122024
     18          6           0        4.098610    0.376310   -1.156215
     19          1           0        3.662212    1.308626   -1.522027
     20          1           0        4.189746   -0.297601   -2.010414
     21          1           0        5.075666    0.565092   -0.717129
     22          8           0        3.479204   -0.475724    1.016950
     23          1           0       -0.148414   -0.999095    1.866717
     24          1           0        1.427094   -0.155435    1.892432
 ---------------------------------------------------------------------

 SCF Done:  E(RHF) =  -1012.37726005     A.U. after    2 cycles

 The electronic state is 1-A.
 Alpha  occ. eigenvalues --  -76.25436 -21.12314 -21.12280 -21.08760 -21.08204
 Alpha  occ. eigenvalues --  -21.08145 -21.07894 -11.56608 -11.55829 -11.55600
 Alpha  occ. eigenvalues --  -11.50970 -11.41430 -11.40848 -11.40496  -5.58899
 Alpha  occ. eigenvalues --   -2.23209  -2.21933  -2.21328  -1.89167  -1.88873
 Alpha  occ. eigenvalues --   -1.74758  -1.74428  -1.66828  -1.66233  -1.15213
 Alpha  occ. eigenvalues --   -1.12945  -1.11667  -0.90724  -0.88235  -0.82120
 Alpha  occ. eigenvalues --   -0.74111  -0.70393  -0.67025  -0.66059  -0.65149
 Alpha  occ. eigenvalues --   -0.64231  -0.63529  -0.61570  -0.60285  -0.59524
 Alpha  occ. eigenvalues --   -0.56839  -0.56044  -0.55026  -0.52127  -0.51607
 Alpha  occ. eigenvalues --   -0.50507  -0.49675  -0.47225  -0.46124  -0.45337
 Alpha  occ. eigenvalues --   -0.42221  -0.35728  -0.34506  -0.33478  -0.32865
 Alpha  occ. eigenvalues --   -0.30737  -0.28880
 Alpha virt. eigenvalues --    0.03118   0.04266   0.04853   0.05510   0.05693
 Alpha virt. eigenvalues --    0.06131   0.06631   0.06738   0.07229   0.07741
 Alpha virt. eigenvalues --    0.08251   0.08878   0.09408   0.10128   0.10498

 Mulliken charges:
               1
     1  C   -4.866825
     2  Si   6.898893
     3  C    2.840877
     4  H   -2.058290
     5  H   -2.487060
     6  O   -2.675093
     7  O   -3.620538
     8  C    6.222944
     9  O   -3.258211
    10  C   -4.663879
    11  H    1.377832
    12  H    1.330585
    13  H    1.264645
    14  C    6.111126
    15  O   -3.299055
    16  O   -3.686369
    17  C    5.529786
    18  C   -4.649759
    19  H    1.355714
    20  H    1.331604
    21  H    1.236160
    22  O   -3.101777
    23  H    1.326574
    24  H    1.540115
 Sum of Mulliken charges =   0.00000

 Dipole moment (field-independent basis, Debye):
    X=              0.0957    Y=             -0.9884    Z=             -0.6306  Tot=              1.1763

 Test job not archived.
 1\1\GINC-SE339\SP\RHF\Aug-CC-pVDZ\C7H10O6Si1\OHZDE\09-Apr-2025\0\\#t h
 f aug-cc-pvdz iop(5/13=1,5/36=2,99/5=2) pseudo=read geom=check guess=(
 read,tcheck) scf=(maxcycle=1)\\title\\0,1\C,0,0.523872,-0.347031,1.312
 475\Si,0,-0.347181,1.329782,1.061604\C,0,-1.50649,1.43923,-0.486496\H,
 0,0.681692,2.337301,0.726289\H,0,-1.065999,1.737413,2.279555\O,0,-1.50
 0281,2.409355,-1.182758\O,0,-2.349102,0.376792,-0.883347\C,0,-2.684874
 ,-0.592194,0.023555\O,0,-2.459912,-0.476481,1.202297\C,0,-3.335219,-1.
 763004,-0.644164\H,0,-2.548321,-2.340412,-1.137655\H,0,-4.04157,-1.430

 Normal termination of Gaussian 16 at Wed Apr  9 00:01:07 2025.
