 Gaussian 16, Revision C.01,

 ----------------------------------------------------------------------
 #t hf aug-cc-pvdz symm=none int=(grid=ultrafine) guess=(read,tcheck) s
 table=(opt,rrhf)
 ----------------------------------------------------------------------
 -----
 title
 -----
 Symbolic Z-matrix:
 Charge =  0 Multiplicity = 1

 SCF Done:  E(RHF) =  -923.023525243     A.U. after   13 cycles
 Normal termination of Gaussian 16 at Tue Apr  8 23:07:01 2025.
 Gaussian 16:  ES64L-G16RevC.01  3-Jul-2019

 ----------------------------------------------------------------------
 #t hf aug-cc-pvdz iop(5/13=1,5/36=2,99/5=2) pseudo=read geom=check gue
 ss=(read,tcheck) scf=(maxcycle=1)
 ----------------------------------------------------------------------
 -----
 title
 -----
 Structure from the checkpoint file:  "BDE49_expt_391_mol1.chk"
 Charge =  0 Multiplicity = 1

                         Standard orientation:
 ---------------------------------------------------------------------
 Center     Atomic      Atomic             Coordinates (Angstroms)
 Number     Number       Type             X           Y           Z
 ---------------------------------------------------------------------
      1          6           0        1.426986    1.467504    0.000000
      2         16           0        0.847443   -0.226754    0.000000
      3          1           0        1.072934    1.961663   -0.903148
      4          1           0        2.515770    1.400800    0.000001
      5          1           0        1.072933    1.961663    0.903148
      6          6           0       -1.014815    0.035083    0.000000
      7          9           0       -1.378198    0.725537    1.087224
      8          9           0       -1.620360   -1.146083   -0.000001
      9          9           0       -1.378197    0.725538   -1.087224
     10          8           0        1.168564   -0.841032    1.263620
     11          8           0        1.168565   -0.841032   -1.263619
 ---------------------------------------------------------------------

 SCF Done:  E(RHF) =  -925.290858502     A.U. after    2 cycles

 The electronic state is 1-A.
 Alpha  occ. eigenvalues --  -75.92032 -29.35189 -29.35150 -29.35009 -21.07908
 Alpha  occ. eigenvalues --  -21.07894 -13.55222 -13.44179 -13.36727 -11.62420
 Alpha  occ. eigenvalues --  -11.45310  -8.27335  -1.86386  -1.68248  -1.44785
 Alpha  occ. eigenvalues --   -1.18144  -0.97239  -0.93346  -0.92718  -0.76509
 Alpha  occ. eigenvalues --   -0.66014  -0.63996  -0.60242  -0.52264  -0.49039
 Alpha  occ. eigenvalues --   -0.48166  -0.46939  -0.46429  -0.42871  -0.40730
 Alpha  occ. eigenvalues --   -0.39849  -0.39649  -0.38052  -0.30121  -0.29013
 Alpha  occ. eigenvalues --   -0.27191  -0.24968
 Alpha virt. eigenvalues --    0.02701   0.05466   0.05525   0.09430   0.09654
 Alpha virt. eigenvalues --    0.12232   0.12324   0.12800   0.12923   0.13607
 Alpha virt. eigenvalues --    0.14789   0.16601   0.17073   0.18129   0.20591

 Mulliken charges:
               1
     1  C   -4.508433
     2  S    5.262105
     3  H    1.308137
     4  H    1.320867
     5  H    1.308137
     6  C   -1.112899
     7  F    0.376340
     8  F    0.638811
     9  F    0.376340
    10  O   -2.484701
    11  O   -2.484704
 Sum of Mulliken charges =  -0.00000

 Dipole moment (field-independent basis, Debye):
    X=             -2.1681    Y=              2.0010    Z=             -0.0000  Tot=              2.9503

 Test job not archived.
 1\1\GINC-SE058\SP\RHF\Aug-CC-pVDZ\C2H3F3O2S1\OHZDE\08-Apr-2025\0\\#t h
 f aug-cc-pvdz iop(5/13=1,5/36=2,99/5=2) pseudo=read geom=check guess=(
 read,tcheck) scf=(maxcycle=1)\\title\\0,1\C,0,1.426986,1.467504,0.\S,0
 ,0.847443,-0.226754,0.\H,0,1.072934,1.961663,-0.903148\H,0,2.51577,1.4
 008,0.000001\H,0,1.072933,1.961663,0.903148\C,0,-1.014815,0.035083,0.\
 F,0,-1.378198,0.725537,1.087224\F,0,-1.62036,-1.146083,-0.000001\F,0,-
 1.378197,0.725538,-1.087224\O,0,1.168564,-0.841032,1.26362\O,0,1.16856
 5,-0.841032,-1.263619\\Version=ES64L-G16RevC.01\State=1-A\HF=-925.2908

 Normal termination of Gaussian 16 at Tue Apr  8 23:07:06 2025.
