 Gaussian 16, Revision C.01,

 ----------------------------------------------------------------------
 #t hf aug-cc-pvdz symm=none int=(grid=ultrafine) guess=(read,tcheck) s
 table=(opt,rrhf)
 ----------------------------------------------------------------------
 -----
 title
 -----
 Symbolic Z-matrix:
 Charge =  0 Multiplicity = 1

 SCF Done:  E(RHF) =  -1165.03418001     A.U. after   17 cycles
 Normal termination of Gaussian 16 at Wed Apr  9 00:53:21 2025.
 Gaussian 16:  ES64L-G16RevC.01  3-Jul-2019

 ----------------------------------------------------------------------
 #t hf aug-cc-pvdz iop(5/13=1,5/36=2,99/5=2) pseudo=read geom=check gue
 ss=(read,tcheck) scf=(maxcycle=1)
 ----------------------------------------------------------------------
 -----
 title
 -----
 Structure from the checkpoint file:  "BDE49_nonexpt_917_mol1.chk"
 Charge =  0 Multiplicity = 1

                         Standard orientation:
 ---------------------------------------------------------------------
 Center     Atomic      Atomic             Coordinates (Angstroms)
 Number     Number       Type             X           Y           Z
 ---------------------------------------------------------------------
      1          5           0        1.393549   -0.015202   -0.000249
      2         16           0        2.716705   -1.288047    0.000073
      3         16           0        1.797048    1.762951    0.000050
      4          6           0       -0.079749   -0.534489   -0.000129
      5          6           0       -1.215293    0.316324   -0.000045
      6          1           0       -1.579012    3.563563   -0.000037
      7          1           0       -2.662925    2.468734   -0.894965
      8          1           0       -2.662788    2.468744    0.895067
      9          8           0       -0.964990    1.650617   -0.000073
     10          6           0       -2.041840    2.578522    0.000004
     11          6           0       -2.513589   -0.203997    0.000055
     12          1           0       -3.370391    0.455332    0.000115
     13          6           0       -2.710244   -1.581071    0.000080
     14          1           0       -3.721654   -1.972435    0.000159
     15          6           0       -1.621673   -2.447482    0.000006
     16          1           0       -1.770864   -3.520429    0.000025
     17          6           0       -0.337431   -1.918564   -0.000095
     18          1           0        0.499289   -2.607819   -0.000152
     19          1           0        3.137046    1.634780    0.000131
     20          1           0        3.782344   -0.473327    0.000266
 ---------------------------------------------------------------------

 SCF Done:  E(RHF) =  -1167.20424932     A.U. after    2 cycles

 The electronic state is 1-A.
 Alpha  occ. eigenvalues --  -75.68535 -75.68297 -21.08023 -13.17221 -13.15624
 Alpha  occ. eigenvalues --  -13.11585 -13.09089 -13.03510 -13.01911 -11.54030
 Alpha  occ. eigenvalues --  -11.47455 -11.43905 -11.42329 -11.41273 -11.41131
 Alpha  occ. eigenvalues --  -11.36997  -8.02505  -8.02175  -7.68633  -1.80226
 Alpha  occ. eigenvalues --   -1.33439  -1.20204  -1.10044  -1.09520  -1.07982
 Alpha  occ. eigenvalues --   -0.99620  -0.88753  -0.83979  -0.74263  -0.68594
 Alpha  occ. eigenvalues --   -0.64320  -0.63070  -0.62693  -0.61297  -0.54432
 Alpha  occ. eigenvalues --   -0.53123  -0.52679  -0.49898  -0.48824  -0.45874
 Alpha  occ. eigenvalues --   -0.42363  -0.41649  -0.38154  -0.37460  -0.30659
 Alpha  occ. eigenvalues --   -0.29423  -0.26961  -0.24095
 Alpha virt. eigenvalues --    0.02656   0.02872   0.04046   0.04383   0.05166
 Alpha virt. eigenvalues --    0.05571   0.06399   0.06451   0.07038   0.07892
 Alpha virt. eigenvalues --    0.08339   0.09441   0.09615   0.10153   0.11731

 Mulliken charges:
               1
     1  B    2.336021
     2  S   -2.996234
     3  S   -2.883689
     4  C   -5.495036
     5  C    9.879657
     6  H    1.424087
     7  H    1.430521
     8  H    1.430468
     9  O   -4.873497
    10  C   -3.811715
    11  C   -3.205821
    12  H    1.956310
    13  C   -0.724906
    14  H    1.564084
    15  C   -3.160245
    16  H    1.657072
    17  C    1.702496
    18  H    2.011501
    19  H    0.887552
    20  H    0.871373
 Sum of Mulliken charges =  -0.00000

 Dipole moment (field-independent basis, Debye):
    X=             -2.9234    Y=              0.9986    Z=              0.0010  Tot=              3.0893

 Test job not archived.
 1\1\GINC-SE342\SP\RHF\Aug-CC-pVDZ\C7H9B1O1S2\OHZDE\09-Apr-2025\0\\#t h
 f aug-cc-pvdz iop(5/13=1,5/36=2,99/5=2) pseudo=read geom=check guess=(
 read,tcheck) scf=(maxcycle=1)\\title\\0,1\B,0,1.393549,-0.015202,-0.00
 0249\S,0,2.716705,-1.288047,0.000073\S,0,1.797048,1.762951,0.00005\C,0
 ,-0.079749,-0.534489,-0.000129\C,0,-1.215293,0.316324,-0.000045\H,0,-1
 .579011,3.563563,-0.000037\H,0,-2.662924,2.468735,-0.894965\H,0,-2.662
 787,2.468745,0.895067\O,0,-0.96499,1.650617,-0.000073\C,0,-2.041839,2.
 578522,0.000004\C,0,-2.513589,-0.203996,0.000055\H,0,-3.370391,0.45533

 Normal termination of Gaussian 16 at Wed Apr  9 00:53:35 2025.
