 Gaussian 16, Revision C.01,

 ----------------------------------------------------------------------
 #t hf aug-cc-pvdz symm=none int=(grid=ultrafine) guess=(read,tcheck) s
 table=opt
 ----------------------------------------------------------------------
 -----
 title
 -----
 Symbolic Z-matrix:
 Charge =  0 Multiplicity = 2

 SCF Done:  E(UHF) =  -461.626940801     A.U. after   19 cycles
 Normal termination of Gaussian 16 at Wed Apr  9 00:00:50 2025.
 Gaussian 16:  ES64L-G16RevC.01  3-Jul-2019

 ----------------------------------------------------------------------
 #t hf aug-cc-pvdz iop(5/13=1,5/36=2,99/5=2) pseudo=read geom=check gue
 ss=(read,tcheck) scf=(maxcycle=1)
 ----------------------------------------------------------------------
 -----
 title
 -----
 Structure from the checkpoint file:  "BDE49_nonexpt_2090_mol2.chk"
 Charge =  0 Multiplicity = 2

                         Standard orientation:
 ---------------------------------------------------------------------
 Center     Atomic      Atomic             Coordinates (Angstroms)
 Number     Number       Type             X           Y           Z
 ---------------------------------------------------------------------
      1          7           0        0.328461   -0.535034   -0.000003
      2          6           0       -1.162156    1.436108    0.000009
      3          6           0       -0.837885   -0.045591   -0.000009
      4          6           0       -2.038640   -0.969030    0.000003
      5         14           0        1.967509    0.035096   -0.000004
      6          1           0       -0.253935    2.038406    0.000013
      7          1           0       -1.763864    1.690108    0.878832
      8          1           0       -1.763869    1.690126   -0.878805
      9          1           0       -1.714786   -2.008132    0.000006
     10          1           0       -2.663460   -0.780871   -0.879555
     11          1           0       -2.663452   -0.780864    0.879565
     12          1           0        2.605550   -0.561910   -1.207893
     13          1           0        2.605549   -0.561889    1.207897
 ---------------------------------------------------------------------

 SCF Done:  E(UHF) =  -462.610733781     A.U. after    2 cycles

 The electronic state is 2-A.
 Alpha  occ. eigenvalues --  -76.22486 -15.71189 -11.46363 -11.39201 -11.37330
 Alpha  occ. eigenvalues --   -5.55906  -2.20956  -2.17496  -2.16963  -1.36146
 Alpha  occ. eigenvalues --   -1.10667  -1.02998  -0.81370  -0.68331  -0.61465
 Alpha  occ. eigenvalues --   -0.61201  -0.59064  -0.54883  -0.50757  -0.49298
 Alpha  occ. eigenvalues --   -0.48396  -0.40457  -0.37708  -0.25054
 Alpha virt. eigenvalues --    0.03108   0.05186   0.05679   0.05802   0.06346
 Alpha virt. eigenvalues --    0.06695   0.07454   0.07694   0.07806   0.09222
 Alpha virt. eigenvalues --    0.10538   0.12272   0.13146   0.13593   0.14123

  Beta  occ. eigenvalues --  -76.22023 -15.70468 -11.46539 -11.39148 -11.37300
  Beta  occ. eigenvalues --   -5.55174  -2.20311  -2.17025  -2.14070  -1.35253
  Beta  occ. eigenvalues --   -1.09878  -1.02871  -0.79874  -0.66619  -0.61401
  Beta  occ. eigenvalues --   -0.60915  -0.57842  -0.54934  -0.50237  -0.48646
  Beta  occ. eigenvalues --   -0.47078  -0.39408  -0.33110
  Beta virt. eigenvalues --    0.02756   0.04872   0.05524   0.05808   0.06077
  Beta virt. eigenvalues --    0.06472   0.06762   0.07759   0.07886   0.08730
  Beta virt. eigenvalues --    0.10060   0.10838   0.12569   0.13772   0.14131

 Mulliken charges and spin densities:
               1          2
     1  N   -3.473079   0.120005
     2  C   -3.859228   0.027613
     3  C    2.475266  -0.063425
     4  C   -3.785552  -0.008276
     5  Si   3.682971   0.905588
     6  H    1.413600  -0.029456
     7  H    1.291643  -0.004872
     8  H    1.291647  -0.004872
     9  H    1.399452   0.001586
    10  H    1.268848  -0.005735
    11  H    1.268843  -0.005735
    12  H   -1.487207   0.033789
    13  H   -1.487205   0.033789
 Sum of Mulliken charges =   0.00000   1.00000

 Dipole moment (field-independent basis, Debye):
    X=             -2.4039    Y=              1.3492    Z=              0.0000  Tot=              2.7566
                          Isotropic Fermi Contact Couplings
        Atom                 a.u.       MegaHertz       Gauss      10(-4) cm-1
     1  N(14)              0.05022      16.22499       5.78948       5.41207
     2  C(13)              0.00113       1.27246       0.45404       0.42445
     3  C(13)             -0.01331     -14.95778      -5.33731      -4.98938
     4  C(13)              0.01297      14.58458       5.20414       4.86489
     5  Si(29)             0.41923    -372.58150    -132.94634    -124.27981
     6  H(1)              -0.00069      -3.06208      -1.09262      -1.02140
     7  H(1)              -0.00119      -5.30027      -1.89127      -1.76798
     8  H(1)              -0.00119      -5.30029      -1.89127      -1.76799

 Normal termination of Gaussian 16 at Wed Apr  9 00:00:53 2025.
