 Gaussian 16, Revision C.01,

 ----------------------------------------------------------------------
 #t hf aug-cc-pvdz symm=none int=(grid=ultrafine) guess=(read,tcheck) s
 table=(opt,rrhf)
 ----------------------------------------------------------------------
 -----
 title
 -----
 Symbolic Z-matrix:
 Charge =  0 Multiplicity = 1

 SCF Done:  E(RHF) =  -633.605620139     A.U. after   14 cycles

 1\1\GINC-SE195\Stability\RHF\Aug-CC-pVDZ\Cl1F1O1\OHZDE\08-Apr-2025\0\\
 #t hf aug-cc-pvdz symm=none int=(grid=ultrafine) guess=(read,tcheck) s
 table=(opt,rrhf)\\title\\0,1\F,0,1.419546,0.610663,0.\O,0,0.,0.828693,
 0.\Cl,0,-0.751524,-0.713266,0.\\Version=ES64L-G16RevC.01\HF=-633.60562
 01\RMSD=3.832e-09\Dipole=-0.4044132,-0.3461351,0.\Quadrupole=-0.143235
 7,0.6900669,-0.5468312,0.478841,0.,0.\PG=Unknown\\@
 The archive entry for this job was punched.

 Normal termination of Gaussian 16 at Tue Apr  8 23:19:48 2025.
 Gaussian 16:  ES64L-G16RevC.01  3-Jul-2019

 ----------------------------------------------------------------------
 #t hf aug-cc-pvdz iop(5/13=1,5/36=2,99/5=2) pseudo=read geom=check gue
 ss=(read,tcheck) scf=(maxcycle=1)
 ----------------------------------------------------------------------
 -----
 title
 -----
 Structure from the checkpoint file:  "BDE49_nonexpt_1079_mol1.chk"
 Charge =  0 Multiplicity = 1

                         Standard orientation:
 ---------------------------------------------------------------------
 Center     Atomic      Atomic             Coordinates (Angstroms)
 Number     Number       Type             X           Y           Z
 ---------------------------------------------------------------------
      1          9           0        1.419546    0.610663    0.000000
      2          8           0        0.000000    0.828693    0.000000
      3         17           0       -0.751524   -0.713266    0.000000
 ---------------------------------------------------------------------

 SCF Done:  E(RHF) =  -634.482727911     A.U. after    2 cycles

 The electronic state is 1-A'.
 Alpha  occ. eigenvalues --  -99.98221 -29.33136 -21.22156 -10.55037  -9.74818
 Alpha  occ. eigenvalues --   -9.73899  -9.73800  -1.85056  -1.28801  -0.76362
 Alpha  occ. eigenvalues --   -0.65994  -0.64618  -0.54175  -0.48776  -0.39059
 Alpha  occ. eigenvalues --   -0.31136  -0.25302
 Alpha virt. eigenvalues --    0.01656   0.10431   0.11865   0.12012   0.16644
 Alpha virt. eigenvalues --    0.18651   0.20124   0.24079   0.24458   0.27269
 Alpha virt. eigenvalues --    0.30574   0.31030   0.32047   0.33819   0.35161

 Mulliken charges:
               1
     1  F    0.190794
     2  O   -0.674011
     3  Cl   0.483217
 Sum of Mulliken charges =  -0.00000

 Dipole moment (field-independent basis, Debye):
    X=              2.7601    Y=              1.4648    Z=              0.0000  Tot=              3.1247

 Test job not archived.
 1\1\GINC-SE195\SP\RHF\Aug-CC-pVDZ\Cl1F1O1\OHZDE\08-Apr-2025\0\\#t hf a
 ug-cc-pvdz iop(5/13=1,5/36=2,99/5=2) pseudo=read geom=check guess=(rea
 d,tcheck) scf=(maxcycle=1)\\title\\0,1\F,0,1.419546,0.610663,0.\O,0,0.
 ,0.828693,0.\Cl,0,-0.751524,-0.713266,0.\\Version=ES64L-G16RevC.01\Sta
 te=1-A'\HF=-634.4827279\RMSD=2.850e-02\Dipole=1.0859116,0.5763017,0.\Q
 uadrupole=0.8781313,0.5499934,-1.4281247,1.1319832,0.,0.\PG=CS [SG(Cl1
 F1O1)]\\@

 Normal termination of Gaussian 16 at Tue Apr  8 23:19:50 2025.
