 Gaussian 16, Revision C.01,

 ----------------------------------------------------------------------
 #t hf aug-cc-pvdz symm=none int=(grid=ultrafine) guess=(read,tcheck) s
 table=(opt,rrhf)
 ----------------------------------------------------------------------
 -----
 title
 -----
 Symbolic Z-matrix:
 Charge =  0 Multiplicity = 1

 SCF Done:  E(RHF) =  -956.437436825     A.U. after   13 cycles

 1\1\GINC-SE128\Stability\RHF\Aug-CC-pVDZ\Cl1F1S1\OHZDE\08-Apr-2025\0\\
 #t hf aug-cc-pvdz symm=none int=(grid=ultrafine) guess=(read,tcheck) s
 table=(opt,rrhf)\\title\\0,1\Cl,0,-0.85103,-1.027503,0.\S,0,0.,0.83364
 1,0.\F,0,1.607502,0.458811,0.\\Version=ES64L-G16RevC.01\HF=-956.437436
 8\RMSD=6.030e-09\Dipole=-0.4190866,0.2668129,0.\Quadrupole=-0.9601448,
 1.9085637,-0.9484189,0.032312,0.,0.\PG=Unknown\\@
 The archive entry for this job was punched.

 Normal termination of Gaussian 16 at Tue Apr  8 22:59:36 2025.
 Gaussian 16:  ES64L-G16RevC.01  3-Jul-2019

 ----------------------------------------------------------------------
 #t hf aug-cc-pvdz iop(5/13=1,5/36=2,99/5=2) pseudo=read geom=check gue
 ss=(read,tcheck) scf=(maxcycle=1)
 ----------------------------------------------------------------------
 -----
 title
 -----
 Structure from the checkpoint file:  "BDE49_expt_1934_mol1.chk"
 Charge =  0 Multiplicity = 1

                         Standard orientation:
 ---------------------------------------------------------------------
 Center     Atomic      Atomic             Coordinates (Angstroms)
 Number     Number       Type             X           Y           Z
 ---------------------------------------------------------------------
      1         17           0       -0.851030   -1.027503    0.000000
      2         16           0        0.000000    0.833641   -0.000000
      3          9           0        1.607502    0.458811   -0.000000
 ---------------------------------------------------------------------

 SCF Done:  E(RHF) =  -957.236545153     A.U. after    2 cycles

 The electronic state is 1-A'.
 Alpha  occ. eigenvalues --  -99.93878 -75.82366 -29.30621 -13.24443 -13.14803
 Alpha  occ. eigenvalues --  -13.12047 -10.51104  -9.70733  -9.70057  -9.70012
 Alpha  occ. eigenvalues --   -8.16081  -1.38837  -1.16850  -0.72706  -0.60510
 Alpha  occ. eigenvalues --   -0.58921  -0.53655  -0.43325  -0.37242  -0.34156
 Alpha  occ. eigenvalues --   -0.20353
 Alpha virt. eigenvalues --    0.03744   0.06974   0.11017   0.11226   0.12140
 Alpha virt. eigenvalues --    0.14848   0.15424   0.16526   0.20509   0.23940
 Alpha virt. eigenvalues --    0.24091   0.26071   0.27800   0.29805   0.30872

 Mulliken charges:
               1
     1  Cl  -0.476499
     2  S    0.453522
     3  F    0.022978
 Sum of Mulliken charges =  -0.00000

 Dipole moment (field-independent basis, Debye):
    X=              3.8634    Y=              2.6044    Z=             -0.0000  Tot=              4.6593

 Test job not archived.
 1\1\GINC-SE128\SP\RHF\Aug-CC-pVDZ\Cl1F1S1\OHZDE\08-Apr-2025\0\\#t hf a
 ug-cc-pvdz iop(5/13=1,5/36=2,99/5=2) pseudo=read geom=check guess=(rea
 d,tcheck) scf=(maxcycle=1)\\title\\0,1\Cl,0,-0.85103,-1.027503,0.\S,0,
 0.,0.833641,0.\F,0,1.607502,0.458811,0.\\Version=ES64L-G16RevC.01\Stat
 e=1-A'\HF=-957.2365452\RMSD=2.965e-02\Dipole=1.5199885,1.0246537,0.\Qu
 adrupole=1.9660615,1.0494357,-3.0154972,0.8643678,0.,0.\PG=CS [SG(Cl1F
 1S1)]\\@

 Normal termination of Gaussian 16 at Tue Apr  8 22:59:38 2025.
