 Gaussian 16, Revision C.01,

 ----------------------------------------------------------------------
 #t hf aug-cc-pvdz symm=none int=(grid=ultrafine) guess=(read,tcheck) s
 table=(opt,rrhf)
 ----------------------------------------------------------------------
 -----
 title
 -----
 Symbolic Z-matrix:
 Charge =  0 Multiplicity = 1

 SCF Done:  E(RHF) =  -1123.91008051     A.U. after   16 cycles
 Normal termination of Gaussian 16 at Tue Apr  8 23:26:22 2025.
 Gaussian 16:  ES64L-G16RevC.01  3-Jul-2019

 ----------------------------------------------------------------------
 #t hf aug-cc-pvdz iop(5/13=1,5/36=2,99/5=2) pseudo=read geom=check gue
 ss=(read,tcheck) scf=(maxcycle=1)
 ----------------------------------------------------------------------
 -----
 title
 -----
 Structure from the checkpoint file:  "BDE49_nonexpt_1245_mol1.chk"
 Charge =  0 Multiplicity = 1

                         Standard orientation:
 ---------------------------------------------------------------------
 Center     Atomic      Atomic             Coordinates (Angstroms)
 Number     Number       Type             X           Y           Z
 ---------------------------------------------------------------------
      1         17           0        2.308175   -0.901339   -0.939266
      2         15           0        1.368951   -0.259507    0.891689
      3          6           0        1.313678    1.586555    0.577958
      4          7           0        0.144743    1.850112   -0.251642
      5          1           0       -0.150492    2.809242   -0.360547
      6          6           0       -0.381928   -0.333592    0.431260
      7          6           0       -1.257306   -1.412905    0.568684
      8          1           0       -0.905356   -2.341613    1.004553
      9          6           0       -3.010897   -0.087704   -0.420832
     10          1           0       -4.040433    0.005107   -0.749133
     11          6           0       -0.827380    0.877736   -0.142179
     12          6           0       -2.575554   -1.292366    0.145123
     13          1           0       -3.263075   -2.122329    0.251996
     14          6           0       -2.156836    0.997658   -0.570515
     15          1           0       -2.511139    1.921167   -1.015286
     16          1           0        1.223402    2.050848    1.572428
     17          1           0        2.237997    1.929874    0.112660
 ---------------------------------------------------------------------

 SCF Done:  E(RHF) =  -1125.88286238     A.U. after    2 cycles

 The electronic state is 1-A.
 Alpha  occ. eigenvalues -- -105.22324 -99.86586 -15.76146 -11.52574 -11.46413
 Alpha  occ. eigenvalues --  -11.44219 -11.41992 -11.41798 -11.40970 -11.37239
 Alpha  occ. eigenvalues --  -10.43796  -9.63715  -9.63084  -9.63053  -2.80587
 Alpha  occ. eigenvalues --   -1.57694  -1.52785  -1.47475  -1.43083  -1.28892
 Alpha  occ. eigenvalues --   -1.20813  -1.10352  -1.07074  -0.97274  -0.88423
 Alpha  occ. eigenvalues --   -0.82440  -0.74348  -0.68974  -0.65815  -0.64284
 Alpha  occ. eigenvalues --   -0.63245  -0.58889  -0.55104  -0.53728  -0.50548
 Alpha  occ. eigenvalues --   -0.50176  -0.49542  -0.46603  -0.42308  -0.38868
 Alpha  occ. eigenvalues --   -0.34960  -0.27882  -0.22556  -0.03716
 Alpha virt. eigenvalues --    0.03429   0.04700   0.04930   0.05860   0.06118
 Alpha virt. eigenvalues --    0.06937   0.07365   0.08754   0.09315   0.10030
 Alpha virt. eigenvalues --    0.10644   0.11919   0.12393   0.12413   0.13191

 Mulliken charges:
               1
     1  Cl  -1.326791
     2  P    4.666168
     3  C   -4.741094
     4  N   -3.554598
     5  H    0.683441
     6  C    1.844266
     7  C   -2.406905
     8  H    1.799820
     9  C   -1.202382
    10  H    1.422120
    11  C    0.609977
    12  C   -1.237635
    13  H    1.535944
    14  C   -2.321950
    15  H    1.688236
    16  H    1.266097
    17  H    1.275287
 Sum of Mulliken charges =   0.00000

 Dipole moment (field-independent basis, Debye):
    X=             -1.5558    Y=              1.2869    Z=              2.5554  Tot=              3.2568

 Test job not archived.
 1\1\GINC-SE343\SP\RHF\Aug-CC-pVDZ\C7H7Cl1N1P1\OHZDE\08-Apr-2025\0\\#t
 hf aug-cc-pvdz iop(5/13=1,5/36=2,99/5=2) pseudo=read geom=check guess=
 (read,tcheck) scf=(maxcycle=1)\\title\\0,1\Cl,0,2.308175,-0.901339,-0.
 939266\P,0,1.368951,-0.259507,0.891689\C,0,1.313678,1.586555,0.577958\
 N,0,0.144743,1.850112,-0.251642\H,0,-0.150492,2.809242,-0.360547\C,0,-
 0.381928,-0.333592,0.43126\C,0,-1.257306,-1.412905,0.568684\H,0,-0.905
 356,-2.341613,1.004553\C,0,-3.010897,-0.087704,-0.420832\H,0,-4.040433
 ,0.005107,-0.749133\C,0,-0.82738,0.877736,-0.142179\C,0,-2.575554,-1.2

 Normal termination of Gaussian 16 at Tue Apr  8 23:26:31 2025.
