 Gaussian 16, Revision C.01,

 ----------------------------------------------------------------------
 #t hf aug-cc-pvdz symm=none int=(grid=ultrafine) guess=(read,tcheck) s
 table=opt
 ----------------------------------------------------------------------
 -----
 title
 -----
 Symbolic Z-matrix:
 Charge =  0 Multiplicity = 2

 SCF Done:  E(UHF) =  -435.945923836     A.U. after   16 cycles
 Normal termination of Gaussian 16 at Tue Apr  8 23:38:10 2025.
 Gaussian 16:  ES64L-G16RevC.01  3-Jul-2019

 ----------------------------------------------------------------------
 #t hf aug-cc-pvdz iop(5/13=1,5/36=2,99/5=2) pseudo=read geom=check gue
 ss=(read,tcheck) scf=(maxcycle=1)
 ----------------------------------------------------------------------
 -----
 title
 -----
 Structure from the checkpoint file:  "BDE49_nonexpt_1538_mol2.chk"
 Charge =  0 Multiplicity = 2

                         Standard orientation:
 ---------------------------------------------------------------------
 Center     Atomic      Atomic             Coordinates (Angstroms)
 Number     Number       Type             X           Y           Z
 ---------------------------------------------------------------------
      1         15           0        1.153796   -0.249946   -0.000004
      2          6           0       -0.511169    0.626341    0.000004
      3          7           0       -1.674420   -0.256184    0.000004
      4          1           0       -0.564999    1.285236   -0.873824
      5          1           0       -0.564993    1.285231    0.873835
      6          1           0       -1.670523   -0.859999    0.815887
      7          1           0       -1.670544   -0.859972   -0.815899
      8          1           0        1.952067    0.933936    0.000011
 ---------------------------------------------------------------------

 SCF Done:  E(UHF) =  -436.573111281     A.U. after    2 cycles

 The electronic state is 2-A.
 Alpha  occ. eigenvalues -- -105.17494 -15.74003 -11.39283  -2.75374  -1.47763
 Alpha  occ. eigenvalues --   -1.44444  -1.42914  -1.31099  -0.93600  -0.68991
 Alpha  occ. eigenvalues --   -0.67470  -0.55652  -0.52774  -0.42602  -0.20181
 Alpha  occ. eigenvalues --   -0.06927   0.01669
 Alpha virt. eigenvalues --    0.04421   0.05821   0.06445   0.06725   0.07619
 Alpha virt. eigenvalues --    0.10300   0.11028   0.13057   0.14876   0.16085
 Alpha virt. eigenvalues --    0.17108   0.18763   0.20321   0.21895   0.22341

  Beta  occ. eigenvalues -- -105.16867 -15.74023 -11.39418  -2.73462  -1.45954
  Beta  occ. eigenvalues --   -1.41310  -1.30934  -1.20400  -0.93240  -0.67179
  Beta  occ. eigenvalues --   -0.64803  -0.55546  -0.52117  -0.42354  -0.20866
  Beta  occ. eigenvalues --   -0.05005
  Beta virt. eigenvalues --    0.04451   0.05860   0.05935   0.06554   0.07694
  Beta virt. eigenvalues --    0.09311   0.10439   0.11489   0.13286   0.15503
  Beta virt. eigenvalues --    0.17198   0.18385   0.18867   0.20435   0.22077

 Mulliken charges and spin densities:
               1          2
     1  P    2.481765   1.471732
     2  C   -2.913925  -0.500708
     3  N   -2.046422  -0.016880
     4  H    1.168781   0.074624
     5  H    1.168789   0.074623
     6  H    0.536943   0.034820
     7  H    0.536948   0.034817
     8  H   -0.932879  -0.173028
 Sum of Mulliken charges =  -0.00000   1.00000

 Dipole moment (field-independent basis, Debye):
    X=              0.4264    Y=             -1.6455    Z=             -0.0000  Tot=              1.6999
                          Isotropic Fermi Contact Couplings
        Atom                 a.u.       MegaHertz       Gauss      10(-4) cm-1
     1  P(31)              0.26511     480.13913     171.32558     160.15717
     2  C(13)             -0.00236      -2.65506      -0.94739      -0.88563
     3  N(14)             -0.00164      -0.52877      -0.18868      -0.17638
     4  H(1)               0.00575      25.71664       9.17634       8.57815
     5  H(1)               0.00575      25.71635       9.17623       8.57805
     6  H(1)              -0.00008      -0.37631      -0.13428      -0.12552
     7  H(1)              -0.00008      -0.37630      -0.13427      -0.12552
     8  H(1)              -0.00695     -31.07476     -11.08825     -10.36542

 Normal termination of Gaussian 16 at Tue Apr  8 23:38:15 2025.
