 Gaussian 16, Revision C.01,

 ----------------------------------------------------------------------
 #t hf aug-cc-pvdz symm=none int=(grid=ultrafine) guess=(read,tcheck) s
 table=opt
 ----------------------------------------------------------------------
 -----
 title
 -----
 Symbolic Z-matrix:
 Charge =  0 Multiplicity = 2

 SCF Done:  E(UHF) =  -165.006578634     A.U. after   16 cycles
 Normal termination of Gaussian 16 at Tue Apr  8 23:35:07 2025.
 Gaussian 16:  ES64L-G16RevC.01  3-Jul-2019

 ----------------------------------------------------------------------
 #t hf aug-cc-pvdz iop(5/13=1,5/36=2,99/5=2) pseudo=read geom=check gue
 ss=(read,tcheck) scf=(maxcycle=1)
 ----------------------------------------------------------------------
 -----
 title
 -----
 Structure from the checkpoint file:  "BDE49_nonexpt_147_mol2.chk"
 Charge =  0 Multiplicity = 2

                         Standard orientation:
 ---------------------------------------------------------------------
 Center     Atomic      Atomic             Coordinates (Angstroms)
 Number     Number       Type             X           Y           Z
 ---------------------------------------------------------------------
      1          5           0        1.470838   -0.943737   -0.000121
      2          5           0        0.176561    0.016856   -0.000096
      3          8           0        0.301318    1.388871    0.000043
      4          6           0       -1.256585   -0.678413    0.000031
      5          1           0       -0.549650    1.838617    0.000131
      6          1           0       -1.237222   -1.771773    0.000007
      7          1           0       -1.830610   -0.367762   -0.882905
      8          1           0       -1.830443   -0.367800    0.883089
      9          1           0        2.339891   -1.737367    0.000230
 ---------------------------------------------------------------------

 SCF Done:  E(UHF) =  -165.729131532     A.U. after    2 cycles

 The electronic state is 2-A.
 Alpha  occ. eigenvalues --  -21.05377 -11.33538  -7.62359  -7.59417  -1.72747
 Alpha  occ. eigenvalues --   -1.06782  -0.84536  -0.67630  -0.57407  -0.56648
 Alpha  occ. eigenvalues --   -0.55625  -0.44600  -0.42333  -0.36767  -0.26519
 Alpha virt. eigenvalues --    0.01773   0.02542   0.03870   0.03872   0.07601
 Alpha virt. eigenvalues --    0.08310   0.08572   0.08845   0.10040   0.10082
 Alpha virt. eigenvalues --    0.10981   0.11244   0.12588   0.14511   0.16496

  Beta  occ. eigenvalues --  -21.05180 -11.33580  -7.61191  -7.59453  -1.72309
  Beta  occ. eigenvalues --   -1.06321  -0.79633  -0.66386  -0.57338  -0.56513
  Beta  occ. eigenvalues --   -0.55108  -0.43987  -0.40062  -0.36360
  Beta virt. eigenvalues --    0.02034   0.02602   0.03004   0.03963   0.06745
  Beta virt. eigenvalues --    0.07751   0.08377   0.08839   0.10133   0.10210
  Beta virt. eigenvalues --    0.11271   0.11557   0.11679   0.12650   0.14747

 Mulliken charges and spin densities:
               1          2
     1  B   -1.299946   0.816438
     2  B    6.826728   0.154007
     3  O   -3.904185   0.101732
     4  C   -5.510925  -0.030134
     5  H    1.429102   0.003225
     6  H    1.468327  -0.015422
     7  H    1.044077   0.010082
     8  H    1.043946   0.010081
     9  H   -1.097123  -0.050009
 Sum of Mulliken charges =  -0.00000   1.00000

 Dipole moment (field-independent basis, Debye):
    X=             -0.6608    Y=              0.0666    Z=              0.0004  Tot=              0.6641
                          Isotropic Fermi Contact Couplings
        Atom                 a.u.       MegaHertz       Gauss      10(-4) cm-1
     1  B(11)              0.04370      62.68571      22.36782      20.90970
     2  B(11)             -0.01983     -28.45025     -10.15176      -9.48998
     3  O(17)              0.00693      -4.20296      -1.49972      -1.40196
     4  C(13)             -0.00672      -7.55901      -2.69724      -2.52141
     5  H(1)              -0.00153      -6.84675      -2.44309      -2.28383
     6  H(1)              -0.00015      -0.68707      -0.24516      -0.22918
     7  H(1)               0.00229      10.24230       3.65471       3.41646
     8  H(1)               0.00229      10.23398       3.65174       3.41369

 Normal termination of Gaussian 16 at Tue Apr  8 23:35:10 2025.
