 Gaussian 16, Revision C.01,

 ----------------------------------------------------------------------
 #t hf aug-cc-pvdz symm=none int=(grid=ultrafine) guess=(read,tcheck) s
 table=(opt,rrhf)
 ----------------------------------------------------------------------
 -----
 title
 -----
 Symbolic Z-matrix:
 Charge =  0 Multiplicity = 1

 SCF Done:  E(RHF) =  -748.088296248     A.U. after   13 cycles
 Normal termination of Gaussian 16 at Tue Apr  8 22:34:55 2025.
 Gaussian 16:  ES64L-G16RevC.01  3-Jul-2019

 ----------------------------------------------------------------------
 #t hf aug-cc-pvdz iop(5/13=1,5/36=2,99/5=2) pseudo=read geom=check gue
 ss=(read,tcheck) scf=(maxcycle=1)
 ----------------------------------------------------------------------
 -----
 title
 -----
 Structure from the checkpoint file:  "BDE49_expt_1048_mol1.chk"
 Charge =  0 Multiplicity = 1

                         Standard orientation:
 ---------------------------------------------------------------------
 Center     Atomic      Atomic             Coordinates (Angstroms)
 Number     Number       Type             X           Y           Z
 ---------------------------------------------------------------------
      1          6           0       -0.305427   -1.544018   -0.373693
      2          6           0        0.088438   -0.718714    0.593807
      3          6           0       -0.088438    0.718714    0.593807
      4          6           0        0.305427    1.544018   -0.373693
      5          9           0       -0.686573    1.248719    1.685255
      6          9           0        0.936270    1.150628   -1.462202
      7          9           0        0.088438    2.839409   -0.369796
      8          9           0       -0.088438   -2.839409   -0.369796
      9          9           0       -0.936270   -1.150628   -1.462202
     10          9           0        0.686573   -1.248719    1.685255
 ---------------------------------------------------------------------

 SCF Done:  E(RHF) =  -750.780026863     A.U. after    2 cycles

 The electronic state is 1-A.
 Alpha  occ. eigenvalues --  -29.35637 -29.35634 -29.35471 -29.35470 -29.31858
 Alpha  occ. eigenvalues --  -29.31849 -11.60525 -11.59005 -11.53214 -11.50112
 Alpha  occ. eigenvalues --   -1.44868  -1.35422  -1.19058  -1.06020  -0.92678
 Alpha  occ. eigenvalues --   -0.87047  -0.83646  -0.77604  -0.70393  -0.66200
 Alpha  occ. eigenvalues --   -0.63917  -0.49970  -0.48665  -0.45562  -0.44925
 Alpha  occ. eigenvalues --   -0.44346  -0.43744  -0.43135  -0.41733  -0.37313
 Alpha  occ. eigenvalues --   -0.36037  -0.34858  -0.34049  -0.32643  -0.30607
 Alpha  occ. eigenvalues --   -0.27531  -0.26458  -0.21075  -0.19297
 Alpha virt. eigenvalues --    0.09081   0.09442   0.10113   0.10185   0.10860
 Alpha virt. eigenvalues --    0.12215   0.12462   0.13054   0.14079   0.14654
 Alpha virt. eigenvalues --    0.15100   0.15238   0.15430   0.17053   0.19659

 Mulliken charges:
               1
     1  C   -0.558651
     2  C   -1.884760
     3  C   -1.884760
     4  C   -0.558651
     5  F    0.797952
     6  F    0.842509
     7  F    0.802950
     8  F    0.802950
     9  F    0.842509
    10  F    0.797952
 Sum of Mulliken charges =   0.00000

 Dipole moment (field-independent basis, Debye):
    X=             -0.0000    Y=             -0.0000    Z=             -1.4845  Tot=              1.4845

 Test job not archived.
 1\1\GINC-SE090\SP\RHF\Aug-CC-pVDZ\C4F6\OHZDE\08-Apr-2025\0\\#t hf aug-
 cc-pvdz iop(5/13=1,5/36=2,99/5=2) pseudo=read geom=check guess=(read,t
 check) scf=(maxcycle=1)\\title\\0,1\C,0,-0.305427,-1.544018,-0.373693\
 C,0,0.088438,-0.718714,0.593807\C,0,-0.088438,0.718714,0.593807\C,0,0.
 305427,1.544018,-0.373693\F,0,-0.686573,1.248719,1.685255\F,0,0.93627,
 1.150628,-1.462202\F,0,0.088438,2.839409,-0.369796\F,0,-0.088438,-2.83
 9409,-0.369796\F,0,-0.93627,-1.150628,-1.462202\F,0,0.686573,-1.248719
 ,1.685255\\Version=ES64L-G16RevC.01\State=1-A\HF=-750.7800269\RMSD=6.4

 Normal termination of Gaussian 16 at Tue Apr  8 22:35:00 2025.
