 Gaussian 16, Revision C.01,

 ----------------------------------------------------------------------
 #t hf aug-cc-pvdz symm=none int=(grid=ultrafine) guess=(read,tcheck) s
 table=opt
 ----------------------------------------------------------------------
 -----
 title
 -----
 Symbolic Z-matrix:
 Charge =  0 Multiplicity = 2

 SCF Done:  E(UHF) =  -634.855082803     A.U. after   14 cycles
 Normal termination of Gaussian 16 at Wed Apr  9 00:21:09 2025.
 Gaussian 16:  ES64L-G16RevC.01  3-Jul-2019

 ----------------------------------------------------------------------
 #t hf aug-cc-pvdz iop(5/13=1,5/36=2,99/5=2) pseudo=read geom=check gue
 ss=(read,tcheck) scf=(maxcycle=1)
 ----------------------------------------------------------------------
 -----
 title
 -----
 Structure from the checkpoint file:  "BDE49_nonexpt_2623_mol2.chk"
 Charge =  0 Multiplicity = 2

                         Standard orientation:
 ---------------------------------------------------------------------
 Center     Atomic      Atomic             Coordinates (Angstroms)
 Number     Number       Type             X           Y           Z
 ---------------------------------------------------------------------
      1         16           0        1.355136   -0.000001   -0.055917
      2          6           0       -0.402588   -0.000001    0.348483
      3          9           0       -1.043463    1.093074   -0.146524
      4          9           0       -1.043468   -1.093071   -0.146525
      5          1           0       -0.484257   -0.000001    1.441210
 ---------------------------------------------------------------------

 SCF Done:  E(UHF) =  -635.893601503     A.U. after    2 cycles

 The electronic state is 2-A.
 Alpha  occ. eigenvalues --  -75.74133 -29.30255 -29.30213 -13.13950 -13.07725
 Alpha  occ. eigenvalues --  -13.05712 -11.54158  -8.07941  -1.34635  -1.08125
 Alpha  occ. eigenvalues --   -0.81918  -0.77447  -0.61351  -0.45670  -0.40478
 Alpha  occ. eigenvalues --   -0.35405  -0.33690  -0.31386  -0.26223  -0.25546
 Alpha  occ. eigenvalues --   -0.21366
 Alpha virt. eigenvalues --    0.03979   0.06234   0.10474   0.11967   0.12937
 Alpha virt. eigenvalues --    0.13383   0.14152   0.17139   0.20858   0.22606
 Alpha virt. eigenvalues --    0.23852   0.25253   0.28710   0.29249   0.29731

  Beta  occ. eigenvalues --  -75.73137 -29.30231 -29.30189 -13.13392 -13.05132
  Beta  occ. eigenvalues --  -13.01708 -11.54291  -8.06825  -1.33173  -1.00332
  Beta  occ. eigenvalues --   -0.81941  -0.76556  -0.59833  -0.45576  -0.40345
  Beta  occ. eigenvalues --   -0.33206  -0.33037  -0.25604  -0.25534  -0.20781
  Beta virt. eigenvalues --    0.01817   0.04419   0.06438   0.10816   0.12386
  Beta virt. eigenvalues --    0.13043   0.14259   0.16086   0.17668   0.21863
  Beta virt. eigenvalues --    0.23013   0.24082   0.25568   0.29763   0.31372

 Mulliken charges and spin densities:
               1          2
     1  S    0.390408   1.117204
     2  C   -2.842261  -0.099875
     3  F    0.511833  -0.009953
     4  F    0.511834  -0.009952
     5  H    1.428185   0.002577
 Sum of Mulliken charges =  -0.00000   1.00000

 Dipole moment (field-independent basis, Debye):
    X=             -1.6462    Y=              0.0000    Z=             -0.9301  Tot=              1.8908
                          Isotropic Fermi Contact Couplings
        Atom                 a.u.       MegaHertz       Gauss      10(-4) cm-1
     1  S(33)              0.26719      91.77268      32.74678      30.61207
     2  C(13)             -0.01435     -16.12820      -5.75494      -5.37979
     3  F(19)              0.00552      23.23531       8.29093       7.75046
     4  F(19)              0.00552      23.23447       8.29064       7.75018
     5  H(1)               0.00914      40.86449      14.58147      13.63093
 --------------------------------------------------------
       Center         ----  Spin Dipole Couplings  ----
                      3XX-RR        3YY-RR        3ZZ-RR

 Normal termination of Gaussian 16 at Wed Apr  9 00:21:11 2025.
