 Gaussian 16, Revision C.01,

 ----------------------------------------------------------------------
 #t hf aug-cc-pvdz symm=none int=(grid=ultrafine) guess=(read,tcheck) s
 table=(opt,rrhf)
 ----------------------------------------------------------------------
 -----
 title
 -----
 Symbolic Z-matrix:
 Charge =  0 Multiplicity = 1

 SCF Done:  E(RHF) =  -633.544193315     A.U. after   14 cycles
 Normal termination of Gaussian 16 at Wed Apr  9 00:43:54 2025.
 Gaussian 16:  ES64L-G16RevC.01  3-Jul-2019

 ----------------------------------------------------------------------
 #t hf aug-cc-pvdz iop(5/13=1,5/36=2,99/5=2) pseudo=read geom=check gue
 ss=(read,tcheck) scf=(maxcycle=1)
 ----------------------------------------------------------------------
 -----
 title
 -----
 Structure from the checkpoint file:  "BDE49_nonexpt_728_mol1.chk"
 Charge =  0 Multiplicity = 1

                         Standard orientation:
 ---------------------------------------------------------------------
 Center     Atomic      Atomic             Coordinates (Angstroms)
 Number     Number       Type             X           Y           Z
 ---------------------------------------------------------------------
      1          6           0       -1.074865   -0.423562    0.453464
      2          5           0        1.678732    0.373133   -0.016394
      3          8           0        1.200960    1.642327   -0.105442
      4          8           0        3.028122    0.233066    0.114382
      5          6           0       -2.105721   -0.116228   -0.341366
      6          6           0       -3.384333    0.529475    0.104964
      7          1           0       -2.037921   -0.356849   -1.402026
      8          1           0       -3.384775    0.727772    1.178926
      9          1           0       -4.241322   -0.112036   -0.128003
     10          1           0       -3.552602    1.476176   -0.420139
     11          1           0        0.239735    1.663405   -0.159780
     12          1           0        3.322914   -0.678875    0.161993
     13         15           0        0.470681   -1.165242   -0.200879
     14          1           0       -1.143163   -0.208942    1.518581
     15          1           0        0.900099   -1.838925    0.971704
 ---------------------------------------------------------------------

 SCF Done:  E(RHF) =  -635.042874458     A.U. after    2 cycles

 The electronic state is 1-A.
 Alpha  occ. eigenvalues -- -105.16482 -21.06053 -21.05511 -11.44563 -11.40559
 Alpha  occ. eigenvalues --  -11.37814  -7.64768  -2.74339  -1.81207  -1.65787
 Alpha  occ. eigenvalues --   -1.48791  -1.45575  -1.42954  -1.20246  -0.99138
 Alpha  occ. eigenvalues --   -0.80798  -0.75802  -0.71936  -0.59263  -0.57877
 Alpha  occ. eigenvalues --   -0.56865  -0.56149  -0.50837  -0.49371  -0.48285
 Alpha  occ. eigenvalues --   -0.46539  -0.37619  -0.36281  -0.24692  -0.14624
 Alpha  occ. eigenvalues --   -0.02382
 Alpha virt. eigenvalues --    0.03323   0.04445   0.05366   0.05837   0.06167
 Alpha virt. eigenvalues --    0.06415   0.06793   0.08008   0.08691   0.09078
 Alpha virt. eigenvalues --    0.09885   0.10163   0.11161   0.11863   0.11961

 Mulliken charges:
               1
     1  C   -1.471348
     2  B    5.393783
     3  O   -3.944228
     4  O   -3.674747
     5  C   -1.769403
     6  C   -4.612613
     7  H    1.528430
     8  H    1.098669
     9  H    1.190594
    10  H    1.227579
    11  H    1.803082
    12  H    1.389578
    13  P    1.300704
    14  H    1.366717
    15  H   -0.826796
 Sum of Mulliken charges =   0.00000

 Dipole moment (field-independent basis, Debye):
    X=             -2.3716    Y=             -1.5721    Z=             -1.4382  Tot=              3.1881

 Test job not archived.
 1\1\GINC-SE105\SP\RHF\Aug-CC-pVDZ\C3H8B1O2P1\OHZDE\09-Apr-2025\0\\#t h
 f aug-cc-pvdz iop(5/13=1,5/36=2,99/5=2) pseudo=read geom=check guess=(
 read,tcheck) scf=(maxcycle=1)\\title\\0,1\C,0,-1.074865,-0.423562,0.45
 3464\B,0,1.678732,0.373133,-0.016394\O,0,1.20096,1.642327,-0.105442\O,
 0,3.028122,0.233066,0.114382\C,0,-2.105721,-0.116228,-0.341366\C,0,-3.
 384333,0.529475,0.104964\H,0,-2.037921,-0.356849,-1.402026\H,0,-3.3847
 75,0.727772,1.178926\H,0,-4.241322,-0.112036,-0.128003\H,0,-3.552602,1
 .476176,-0.420139\H,0,0.239735,1.663405,-0.15978\H,0,3.322914,-0.67887

 Normal termination of Gaussian 16 at Wed Apr  9 00:43:59 2025.
