 Gaussian 16, Revision C.01,

 ----------------------------------------------------------------------
 #t hf aug-cc-pvdz symm=none int=(grid=ultrafine) guess=(read,tcheck) s
 table=(opt,rrhf)
 ----------------------------------------------------------------------
 -----
 title
 -----
 Symbolic Z-matrix:
 Charge =  0 Multiplicity = 1

 SCF Done:  E(RHF) =  -879.616705776     A.U. after   14 cycles
 Normal termination of Gaussian 16 at Tue Apr  8 23:54:38 2025.
 Gaussian 16:  ES64L-G16RevC.01  3-Jul-2019

 ----------------------------------------------------------------------
 #t hf aug-cc-pvdz iop(5/13=1,5/36=2,99/5=2) pseudo=read geom=check gue
 ss=(read,tcheck) scf=(maxcycle=1)
 ----------------------------------------------------------------------
 -----
 title
 -----
 Structure from the checkpoint file:  "BDE49_nonexpt_1944_mol1.chk"
 Charge =  0 Multiplicity = 1

                         Standard orientation:
 ---------------------------------------------------------------------
 Center     Atomic      Atomic             Coordinates (Angstroms)
 Number     Number       Type             X           Y           Z
 ---------------------------------------------------------------------
      1         14           0        2.505690   -0.079031   -0.443033
      2          6           0        1.124723   -0.304764    0.848014
      3          6           0       -0.167780    0.337208    0.409140
      4          8           0       -0.321248    1.527349    0.280365
      5         16           0       -1.478156   -0.842856    0.052927
      6          1           0        2.052160   -0.592044   -1.754778
      7          1           0        3.685067   -0.855993    0.003109
      8          1           0        2.868244    1.347884   -0.562249
      9          6           0       -2.764998    0.312491   -0.512761
     10          1           0       -3.663321   -0.279688   -0.685472
     11          1           0       -2.452799    0.799796   -1.434885
     12          1           0       -2.947781    1.061781    0.255005
     13          1           0        1.451881    0.191429    1.767217
     14          1           0        0.995694   -1.369453    1.058407
 ---------------------------------------------------------------------

 SCF Done:  E(RHF) =  -880.893953223     A.U. after    2 cycles

 The electronic state is 1-A.
 Alpha  occ. eigenvalues --  -76.22655 -75.69727 -21.06072 -13.13236 -13.10531
 Alpha  occ. eigenvalues --  -13.02820 -11.50821 -11.39998 -11.38847  -8.03969
 Alpha  occ. eigenvalues --   -5.56095  -2.19685  -2.18405  -2.18318  -1.72240
 Alpha  occ. eigenvalues --   -1.22275  -1.11053  -0.96502  -0.78338  -0.72759
 Alpha  occ. eigenvalues --   -0.64490  -0.60571  -0.59281  -0.55824  -0.52393
 Alpha  occ. eigenvalues --   -0.48342  -0.47531  -0.46696  -0.41058  -0.39670
 Alpha  occ. eigenvalues --   -0.26695  -0.24997
 Alpha virt. eigenvalues --    0.03322   0.03847   0.04731   0.05555   0.06099
 Alpha virt. eigenvalues --    0.06543   0.07123   0.08300   0.08745   0.09978
 Alpha virt. eigenvalues --    0.10193   0.10852   0.12003   0.12622   0.13213

 Mulliken charges:
               1
     1  Si   6.002697
     2  C   -4.752727
     3  C    3.801718
     4  O   -3.183284
     5  S    0.905875
     6  H   -1.748455
     7  H   -1.656452
     8  H   -1.732992
     9  C   -4.936849
    10  H    1.301875
    11  H    1.501221
    12  H    1.472948
    13  H    1.348021
    14  H    1.676405
 Sum of Mulliken charges =   0.00000

 Dipole moment (field-independent basis, Debye):
    X=             -0.7727    Y=             -1.6118    Z=              0.2779  Tot=              1.8089

 Test job not archived.
 1\1\GINC-SE362\SP\RHF\Aug-CC-pVDZ\C3H8O1S1Si1\OHZDE\08-Apr-2025\0\\#t
 hf aug-cc-pvdz iop(5/13=1,5/36=2,99/5=2) pseudo=read geom=check guess=
 (read,tcheck) scf=(maxcycle=1)\\title\\0,1\Si,0,2.50569,-0.079031,-0.4
 43033\C,0,1.124723,-0.304764,0.848014\C,0,-0.16778,0.337208,0.40914\O,
 0,-0.321248,1.527349,0.280365\S,0,-1.478156,-0.842856,0.052927\H,0,2.0
 5216,-0.592044,-1.754778\H,0,3.685067,-0.855993,0.003109\H,0,2.868244,
 1.347884,-0.562249\C,0,-2.764998,0.312491,-0.512761\H,0,-3.663321,-0.2
 79688,-0.685472\H,0,-2.452799,0.799796,-1.434885\H,0,-2.947781,1.06178

 Normal termination of Gaussian 16 at Tue Apr  8 23:54:42 2025.
