 Gaussian 16, Revision C.01,

 ----------------------------------------------------------------------
 #t hf aug-cc-pvdz symm=none int=(grid=ultrafine) guess=(read,tcheck) s
 table=(opt,rrhf)
 ----------------------------------------------------------------------
 -----
 title
 -----
 Symbolic Z-matrix:
 Charge =  0 Multiplicity = 1

 SCF Done:  E(RHF) =  -1008.96684416     A.U. after   15 cycles
 Normal termination of Gaussian 16 at Tue Apr  8 23:29:19 2025.
 Gaussian 16:  ES64L-G16RevC.01  3-Jul-2019

 ----------------------------------------------------------------------
 #t hf aug-cc-pvdz iop(5/13=1,5/36=2,99/5=2) pseudo=read geom=check gue
 ss=(read,tcheck) scf=(maxcycle=1)
 ----------------------------------------------------------------------
 -----
 title
 -----
 Structure from the checkpoint file:  "BDE49_nonexpt_1192_mol1.chk"
 Charge =  0 Multiplicity = 1

                         Standard orientation:
 ---------------------------------------------------------------------
 Center     Atomic      Atomic             Coordinates (Angstroms)
 Number     Number       Type             X           Y           Z
 ---------------------------------------------------------------------
      1          8           0        0.954349    1.259716   -0.687870
      2         16           0       -0.639918    1.713503   -0.350445
      3          6           0       -1.413693    0.092117   -0.277325
      4          6           0        1.722718    0.744010    0.350288
      5          8           0        1.361504    0.703383    1.488206
      6          8           0       -0.790708   -0.929449   -0.400082
      7          6           0        3.011958    0.223530   -0.218449
      8          6           0        4.294526   -1.527918   -0.130067
      9          6           0        2.945051   -1.216682   -0.831305
     10          1           0        2.902759   -1.276657   -1.918836
     11          1           0        2.112965   -1.786578   -0.415719
     12          6           0       -2.895705    0.184985   -0.022654
     13          6           0       -3.820152   -0.704486   -0.910216
     14          6           0       -3.433679   -0.591614    1.222413
     15          1           0       -3.224346    1.228935   -0.014028
     16          6           0        4.081155   -0.286235    0.778267
     17          1           0        5.143509   -1.401808   -0.805754
     18          1           0        3.622618   -0.541674    1.734486
     19          1           0        4.936957    0.366193    0.957500
     20          6           0       -4.626159   -1.080840    0.360133
     21          1           0       -3.260031   -1.553706   -1.304458
     22          1           0       -4.925729   -2.123919    0.469812
     23          1           0       -5.507372   -0.447922    0.486583
     24          1           0       -3.647044    0.001062    2.112385
     25          1           0        3.404466    0.936456   -0.945547
     26          1           0       -2.756232   -1.406101    1.482911
     27          1           0       -4.344763   -0.204604   -1.725303
     28          1           0        4.383640   -2.496115    0.364548
 ---------------------------------------------------------------------

 SCF Done:  E(RHF) =  -1012.01021059     A.U. after    2 cycles

 The electronic state is 1-A.
 Alpha  occ. eigenvalues --  -75.75096 -21.10598 -21.06917 -21.05770 -13.25012
 Alpha  occ. eigenvalues --  -13.16971 -13.10858 -11.55137 -11.52831 -11.50798
 Alpha  occ. eigenvalues --  -11.49900 -11.41357 -11.40851 -11.40322 -11.39728
 Alpha  occ. eigenvalues --  -11.36264 -11.34978  -8.08897  -1.84097  -1.72847
 Alpha  occ. eigenvalues --   -1.67418  -1.34210  -1.32689  -1.14815  -1.02384
 Alpha  occ. eigenvalues --   -0.98627  -0.96909  -0.95874  -0.85028  -0.81741
 Alpha  occ. eigenvalues --   -0.75943  -0.73833  -0.68985  -0.67456  -0.66417
 Alpha  occ. eigenvalues --   -0.64036  -0.60522  -0.59134  -0.56220  -0.55597
 Alpha  occ. eigenvalues --   -0.54478  -0.54328  -0.53673  -0.50288  -0.47712
 Alpha  occ. eigenvalues --   -0.46042  -0.45440  -0.44590  -0.43619  -0.43166
 Alpha  occ. eigenvalues --   -0.40959  -0.40412  -0.38164  -0.35487  -0.29833
 Alpha  occ. eigenvalues --   -0.26704  -0.25536
 Alpha virt. eigenvalues --    0.03761   0.04792   0.04915   0.05089   0.05266
 Alpha virt. eigenvalues --    0.05718   0.05816   0.06148   0.06276   0.06666
 Alpha virt. eigenvalues --    0.07099   0.07622   0.08294   0.09116   0.09324

 Mulliken charges:
               1
     1  O   -2.814554
     2  S    1.230586
     3  C    2.886010
     4  C    5.918348
     5  O   -3.383000
     6  O   -3.763029
     7  C   -2.224172
     8  C   -3.269671
     9  C   -2.777474
    10  H    1.297008
    11  H    1.633224
    12  C   -0.923818
    13  C   -2.760766
    14  C   -2.837040
    15  H    1.849690
    16  C   -2.175173
    17  H    1.379138
    18  H    1.537553
    19  H    1.221199
    20  C   -3.069600
    21  H    1.560656
    22  H    1.244884
    23  H    1.349902
    24  H    1.292228
    25  H    1.501724
    26  H    1.521069
    27  H    1.294484
    28  H    1.280596
 Sum of Mulliken charges =  -0.00000

 Dipole moment (field-independent basis, Debye):
    X=             -0.8678    Y=              0.4544    Z=             -0.3690  Tot=              1.0468

 Test job not archived.
 1\1\GINC-SE090\SP\RHF\Aug-CC-pVDZ\C10H14O3S1\OHZDE\08-Apr-2025\0\\#t h
 f aug-cc-pvdz iop(5/13=1,5/36=2,99/5=2) pseudo=read geom=check guess=(
 read,tcheck) scf=(maxcycle=1)\\title\\0,1\O,0,0.954349,1.259716,-0.687
 87\S,0,-0.639918,1.713503,-0.350445\C,0,-1.413693,0.092117,-0.277325\C
 ,0,1.722718,0.74401,0.350288\O,0,1.361504,0.703383,1.488206\O,0,-0.790
 708,-0.929449,-0.400082\C,0,3.011958,0.22353,-0.218449\C,0,4.294526,-1
 .527918,-0.130067\C,0,2.945051,-1.216682,-0.831305\H,0,2.902759,-1.276
 657,-1.918836\H,0,2.112965,-1.786578,-0.415719\C,0,-2.895705,0.184985,

 Normal termination of Gaussian 16 at Tue Apr  8 23:29:46 2025.
