 Gaussian 16, Revision C.01,

 ----------------------------------------------------------------------
 #t hf aug-cc-pvdz symm=none int=(grid=ultrafine) guess=(read,tcheck) s
 table=(opt,rrhf)
 ----------------------------------------------------------------------
 -----
 title
 -----
 Symbolic Z-matrix:
 Charge =  0 Multiplicity = 1

 SCF Done:  E(RHF) =  -1409.50952094     A.U. after   16 cycles
 Normal termination of Gaussian 16 at Wed Apr  9 00:56:20 2025.
 Gaussian 16:  ES64L-G16RevC.01  3-Jul-2019

 ----------------------------------------------------------------------
 #t hf aug-cc-pvdz iop(5/13=1,5/36=2,99/5=2) pseudo=read geom=check gue
 ss=(read,tcheck) scf=(maxcycle=1)
 ----------------------------------------------------------------------
 -----
 title
 -----
 Structure from the checkpoint file:  "BDE49_nonexpt_945_mol1.chk"
 Charge =  0 Multiplicity = 1

                         Standard orientation:
 ---------------------------------------------------------------------
 Center     Atomic      Atomic             Coordinates (Angstroms)
 Number     Number       Type             X           Y           Z
 ---------------------------------------------------------------------
      1         17           0       -2.934169   -1.004116    0.114801
      2         17           0        0.985376    2.623054   -0.298257
      3          8           0       -1.895257    1.877319    0.360963
      4          8           0       -0.240695   -2.298937   -0.673965
      5          7           0       -1.375714   -0.359648   -0.101740
      6          7           0        0.288519    1.088129    0.062860
      7          6           0       -1.100192    1.017628    0.134729
      8          6           0       -0.268579   -1.120482   -0.453717
      9          6           0        0.901131   -0.120001   -0.508273
     10          1           0        1.127491    0.044613   -1.569665
     11          6           0        2.177744   -0.566448    0.232748
     12          1           0        2.820848    0.321722    0.241227
     13          6           0        1.897445   -0.966579    1.686136
     14          1           0        2.836519   -1.154880    2.211458
     15          1           0        1.301212   -1.882021    1.736752
     16          1           0        1.368630   -0.175675    2.223132
     17          6           0        2.906138   -1.670423   -0.546010
     18          1           0        3.848472   -1.916072   -0.050569
     19          1           0        2.301802   -2.576942   -0.605023
     20          1           0        3.140365   -1.351291   -1.566064
 ---------------------------------------------------------------------

 SCF Done:  E(RHF) =  -1412.21001581     A.U. after    2 cycles

 The electronic state is 1-A.
 Alpha  occ. eigenvalues --  -99.95546 -99.95133 -21.08182 -21.07736 -15.83496
 Alpha  occ. eigenvalues --  -15.81881 -11.57689 -11.56056 -11.51337 -11.44470
 Alpha  occ. eigenvalues --  -11.40094 -11.38079 -10.52660 -10.52221  -9.72894
 Alpha  occ. eigenvalues --   -9.72290  -9.71730  -9.71427  -9.71388  -9.71121
 Alpha  occ. eigenvalues --   -1.78409  -1.75127  -1.57733  -1.48636  -1.33123
 Alpha  occ. eigenvalues --   -1.26398  -1.18708  -1.07047  -1.02377  -0.90688
 Alpha  occ. eigenvalues --   -0.87724  -0.82750  -0.74706  -0.72087  -0.67874
 Alpha  occ. eigenvalues --   -0.65825  -0.63773  -0.63065  -0.60378  -0.58659
 Alpha  occ. eigenvalues --   -0.56616  -0.55513  -0.54504  -0.54223  -0.53825
 Alpha  occ. eigenvalues --   -0.52552  -0.50694  -0.48445  -0.47257  -0.46655
 Alpha  occ. eigenvalues --   -0.37238  -0.36276  -0.35845  -0.31387
 Alpha virt. eigenvalues --    0.01946   0.03256   0.04705   0.05054   0.05195
 Alpha virt. eigenvalues --    0.05744   0.05984   0.06643   0.07401   0.07704
 Alpha virt. eigenvalues --    0.09221   0.09879   0.11156   0.11678   0.11816

 Mulliken charges:
               1
     1  Cl   0.621818
     2  Cl   0.406518
     3  O   -3.375324
     4  O   -3.595002
     5  N   -2.427294
     6  N   -1.891417
     7  C    5.578793
     8  C    5.816215
     9  C   -2.535397
    10  H    1.820094
    11  C   -0.869949
    12  H    1.620879
    13  C   -4.791057
    14  H    1.160680
    15  H    1.358665
    16  H    1.399181
    17  C   -4.162450
    18  H    1.192318
    19  H    1.438449
    20  H    1.234281
 Sum of Mulliken charges =  -0.00000

 Dipole moment (field-independent basis, Debye):
    X=              2.2254    Y=             -1.0490    Z=             -0.2111  Tot=              2.4693

 Test job not archived.
 1\1\GINC-SE039\SP\RHF\Aug-CC-pVDZ\C6H8Cl2N2O2\OHZDE\09-Apr-2025\0\\#t
 hf aug-cc-pvdz iop(5/13=1,5/36=2,99/5=2) pseudo=read geom=check guess=
 (read,tcheck) scf=(maxcycle=1)\\title\\0,1\Cl,0,-2.934169,-1.004114,0.
 114801\Cl,0,0.985377,2.623054,-0.298257\O,0,-1.895256,1.87732,0.360963
 \O,0,-0.240696,-2.298937,-0.673965\N,0,-1.375714,-0.359647,-0.10174\N,
 0,0.288519,1.088129,0.06286\C,0,-1.100192,1.017629,0.134729\C,0,-0.268
 58,-1.120482,-0.453717\C,0,0.901131,-0.120001,-0.508273\H,0,1.127491,0
 .044613,-1.569665\C,0,2.177744,-0.566449,0.232748\H,0,2.820848,0.32172

 Normal termination of Gaussian 16 at Wed Apr  9 00:56:38 2025.
