 Gaussian 16, Revision C.01,

 ----------------------------------------------------------------------
 #t hf aug-cc-pvdz symm=none int=(grid=ultrafine) guess=(read,tcheck) s
 table=opt
 ----------------------------------------------------------------------
 -----
 title
 -----
 Symbolic Z-matrix:
 Charge =  0 Multiplicity = 2

 SCF Done:  E(UHF) =  -1606.17308585     A.U. after   31 cycles
 Normal termination of Gaussian 16 at Wed Apr  9 00:16:37 2025.
 Gaussian 16:  ES64L-G16RevC.01  3-Jul-2019

 ----------------------------------------------------------------------
 #t hf aug-cc-pvdz iop(5/13=1,5/36=2,99/5=2) pseudo=read geom=check gue
 ss=(read,tcheck) scf=(maxcycle=1)
 ----------------------------------------------------------------------
 -----
 title
 -----
 Structure from the checkpoint file:  "BDE49_nonexpt_2532_mol2.chk"
 Charge =  0 Multiplicity = 2

                         Standard orientation:
 ---------------------------------------------------------------------
 Center     Atomic      Atomic             Coordinates (Angstroms)
 Number     Number       Type             X           Y           Z
 ---------------------------------------------------------------------
      1         16           0        0.965329    1.746006   -0.177498
      2         14           0       -0.032947    0.007382    0.524358
      3         17           0       -1.963724   -0.066418   -0.198253
      4         17           0        1.089533   -1.576249   -0.183112
      5          1           0       -0.122772   -0.114095    1.982151
 ---------------------------------------------------------------------

 SCF Done:  E(UHF) =  -1606.99112397     A.U. after    2 cycles

 The electronic state is 2-A.
 Alpha  occ. eigenvalues --  -99.90940 -99.90762 -76.33657 -75.73615 -13.11046
 Alpha  occ. eigenvalues --  -13.08773 -13.06921 -10.48385 -10.48217  -9.68246
 Alpha  occ. eigenvalues --   -9.68058  -9.67604  -9.67565  -9.67408  -9.67372
 Alpha  occ. eigenvalues --   -8.07311  -5.67166  -2.29209  -2.28292  -2.28233
 Alpha  occ. eigenvalues --   -1.33247  -1.30044  -1.13103  -0.78755  -0.61157
 Alpha  occ. eigenvalues --   -0.60143  -0.58059  -0.55433  -0.53363  -0.52338
 Alpha  occ. eigenvalues --   -0.39683  -0.35722  -0.31372
 Alpha virt. eigenvalues --    0.03591   0.04884   0.05144   0.05377   0.07923
 Alpha virt. eigenvalues --    0.10561   0.10725   0.10991   0.12857   0.13082
 Alpha virt. eigenvalues --    0.13449   0.14465   0.14804   0.16633   0.17356

  Beta  occ. eigenvalues --  -99.90900 -99.90752 -76.33689 -75.72659 -13.10509
  Beta  occ. eigenvalues --  -13.06352 -13.02958 -10.48341 -10.48207  -9.68157
  Beta  occ. eigenvalues --   -9.68044  -9.67541  -9.67511  -9.67398  -9.67340
  Beta  occ. eigenvalues --   -8.06245  -5.67215  -2.29244  -2.28388  -2.28311
  Beta  occ. eigenvalues --   -1.33001  -1.29843  -1.03758  -0.77940  -0.60611
  Beta  occ. eigenvalues --   -0.60111  -0.57681  -0.55134  -0.53239  -0.52186
  Beta  occ. eigenvalues --   -0.38305  -0.29721
  Beta virt. eigenvalues --   -0.01424   0.03849   0.04927   0.05277   0.06000
  Beta virt. eigenvalues --    0.08058   0.10913   0.11045   0.11441   0.12950
  Beta virt. eigenvalues --    0.13213   0.13549   0.14910   0.15038   0.17060

 Mulliken charges and spin densities:
               1          2
     1  S   -1.116248   1.121255
     2  Si   4.645694  -0.143881
     3  Cl  -0.816098   0.006287
     4  Cl  -0.809072   0.025132
     5  H   -1.904276  -0.008793
 Sum of Mulliken charges =  -0.00000   1.00000

 Dipole moment (field-independent basis, Debye):
    X=              1.5109    Y=              2.8263    Z=             -0.0946  Tot=              3.2062
                          Isotropic Fermi Contact Couplings
        Atom                 a.u.       MegaHertz       Gauss      10(-4) cm-1
     1  S(33)              0.22572      77.52810      27.66395      25.86059
     2  Si(29)            -0.04078      36.23858      12.93082      12.08789
     3  Cl(35)             0.00510       2.23545       0.79767       0.74567
     4  Cl(35)             0.03501      15.35195       5.47796       5.12086
     5  H(1)              -0.00061      -2.70798      -0.96627      -0.90328
 --------------------------------------------------------
       Center         ----  Spin Dipole Couplings  ----
                      3XX-RR        3YY-RR        3ZZ-RR

 Normal termination of Gaussian 16 at Wed Apr  9 00:16:39 2025.
