 Gaussian 16, Revision C.01,

 ----------------------------------------------------------------------
 #t hf aug-cc-pvdz symm=none int=(grid=ultrafine) guess=(read,tcheck) s
 table=(opt,rrhf)
 ----------------------------------------------------------------------
 -----
 title
 -----
 Symbolic Z-matrix:
 Charge =  0 Multiplicity = 1

 SCF Done:  E(RHF) =  -1108.53616265     A.U. after   14 cycles

 1\1\GINC-SE404\Stability\RHF\Aug-CC-pVDZ\C8H18S2\OHZDE\08-Apr-2025\0\\
 #t hf aug-cc-pvdz symm=none int=(grid=ultrafine) guess=(read,tcheck) s
 table=(opt,rrhf)\\title\\0,1\S,0,-0.198518,-1.951213,-0.647876\S,0,0.9
 56152,-1.403149,0.996855\C,0,2.554785,-0.858471,0.252194\C,0,-1.247628
 ,-0.477404,-1.00043\C,0,-2.310021,-0.184713,0.055863\H,0,-1.711567,-0.
 733139,-1.960048\H,0,-0.599712,0.384608,-1.168729\C,0,2.55117,0.485636
 ,-0.475289\H,0,2.892542,-1.661157,-0.404589\H,0,3.229268,-0.83397,1.11
 5994\C,0,2.275063,1.70043,0.416328\H,0,1.826554,0.447052,-1.296225\H,0

 Normal termination of Gaussian 16 at Tue Apr  8 23:04:50 2025.
 Gaussian 16:  ES64L-G16RevC.01  3-Jul-2019

 ----------------------------------------------------------------------
 #t hf aug-cc-pvdz iop(5/13=1,5/36=2,99/5=2) pseudo=read geom=check gue
 ss=(read,tcheck) scf=(maxcycle=1)
 ----------------------------------------------------------------------
 -----
 title
 -----
 Structure from the checkpoint file:  "BDE49_expt_1959_mol1.chk"
 Charge =  0 Multiplicity = 1

                         Standard orientation:
 ---------------------------------------------------------------------
 Center     Atomic      Atomic             Coordinates (Angstroms)
 Number     Number       Type             X           Y           Z
 ---------------------------------------------------------------------
      1         16           0       -0.198518   -1.951213   -0.647876
      2         16           0        0.956152   -1.403149    0.996855
      3          6           0        2.554785   -0.858471    0.252194
      4          6           0       -1.247628   -0.477404   -1.000430
      5          6           0       -2.310021   -0.184713    0.055863
      6          1           0       -1.711567   -0.733139   -1.960048
      7          1           0       -0.599712    0.384608   -1.168729
      8          6           0        2.551170    0.485636   -0.475289
      9          1           0        2.892542   -1.661157   -0.404589
     10          1           0        3.229268   -0.833970    1.115994
     11          6           0        2.275063    1.700430    0.416328
     12          1           0        1.826554    0.447052   -1.296225
     13          1           0        3.534049    0.604747   -0.950298
     14          6           0       -3.185155    1.023995   -0.304137
     15          1           0       -1.818144   -0.006206    1.017939
     16          1           0       -2.938460   -1.072285    0.186974
     17          6           0       -4.253312    1.320290    0.752683
     18          1           0       -3.668737    0.848012   -1.272679
     19          1           0       -2.548402    1.906872   -0.437079
     20          1           0       -4.926933    0.467962    0.883219
     21          1           0       -4.861098    2.184704    0.472379
     22          1           0       -3.798509    1.533913    1.724678
     23          6           0        2.290420    3.022596   -0.355824
     24          1           0        3.025261    1.735313    1.215882
     25          1           0        1.307661    1.574094    0.912659
     26          1           0        3.258460    3.191048   -0.837968
     27          1           0        2.097259    3.871286    0.305570
     28          1           0        1.526426    3.032785   -1.139668
 ---------------------------------------------------------------------

 SCF Done:  E(RHF) =  -1110.64096839     A.U. after    2 cycles

 The electronic state is 1-A.
 Alpha  occ. eigenvalues --  -75.69419 -75.69237 -13.15512 -13.12940 -13.10163
 Alpha  occ. eigenvalues --  -13.08736 -13.06668 -13.05216 -11.43350 -11.43203
 Alpha  occ. eigenvalues --  -11.41137 -11.40918 -11.38118 -11.37834 -11.35237
 Alpha  occ. eigenvalues --  -11.35053  -8.03231  -8.03124  -1.29622  -1.24960
 Alpha  occ. eigenvalues --   -1.17985  -1.10993  -1.04569  -0.97793  -0.90617
 Alpha  occ. eigenvalues --   -0.86480  -0.83058  -0.81142  -0.66115  -0.64774
 Alpha  occ. eigenvalues --   -0.61521  -0.59250  -0.59153  -0.58887  -0.55929
 Alpha  occ. eigenvalues --   -0.54167  -0.52081  -0.50867  -0.50041  -0.47512
 Alpha  occ. eigenvalues --   -0.46550  -0.46118  -0.45922  -0.44020  -0.42025
 Alpha  occ. eigenvalues --   -0.38533  -0.32949  -0.23603  -0.23035
 Alpha virt. eigenvalues --    0.03821   0.03983   0.04338   0.04825   0.05314
 Alpha virt. eigenvalues --    0.05615   0.05769   0.05825   0.06423   0.06607
 Alpha virt. eigenvalues --    0.07052   0.07158   0.08040   0.08705   0.09422

 Mulliken charges:
               1
     1  S   -0.058711
     2  S    0.090985
     3  C   -3.757890
     4  C   -3.852300
     5  C   -3.023202
     6  H    1.574786
     7  H    2.068104
     8  C   -2.568384
     9  H    1.418455
    10  H    1.600250
    11  C   -3.455608
    12  H    1.996668
    13  H    1.374720
    14  C   -2.803648
    15  H    1.772651
    16  H    1.636048
    17  C   -4.027005
    18  H    1.435098
    19  H    1.552283
    20  H    1.301320
    21  H    1.113360
    22  H    1.333137
    23  C   -3.934170
    24  H    1.398088
    25  H    2.015994
    26  H    1.291583
    27  H    1.146756
    28  H    1.360633
 Sum of Mulliken charges =  -0.00000

 Dipole moment (field-independent basis, Debye):
    X=             -0.1679    Y=             -0.1156    Z=              0.3060  Tot=              0.3677

 Test job not archived.
 1\1\GINC-SE404\SP\RHF\Aug-CC-pVDZ\C8H18S2\OHZDE\08-Apr-2025\0\\#t hf a
 ug-cc-pvdz iop(5/13=1,5/36=2,99/5=2) pseudo=read geom=check guess=(rea
 d,tcheck) scf=(maxcycle=1)\\title\\0,1\S,0,-0.198518,-1.951213,-0.6478
 76\S,0,0.956152,-1.403149,0.996855\C,0,2.554785,-0.858471,0.252194\C,0
 ,-1.247628,-0.477404,-1.00043\C,0,-2.310021,-0.184713,0.055863\H,0,-1.
 711567,-0.733139,-1.960048\H,0,-0.599712,0.384608,-1.168729\C,0,2.5511
 7,0.485636,-0.475289\H,0,2.892542,-1.661157,-0.404589\H,0,3.229268,-0.
 83397,1.115994\C,0,2.275063,1.70043,0.416328\H,0,1.826554,0.447052,-1.

 Normal termination of Gaussian 16 at Tue Apr  8 23:05:11 2025.
