 Gaussian 16, Revision C.01,

 ----------------------------------------------------------------------
 #t hf aug-cc-pvdz symm=none int=(grid=ultrafine) guess=(read,tcheck) s
 table=(opt,rrhf)
 ----------------------------------------------------------------------
 -----
 title
 -----
 Symbolic Z-matrix:
 Charge =  0 Multiplicity = 1

 SCF Done:  E(RHF) =  -273.487015539     A.U. after   13 cycles
 Normal termination of Gaussian 16 at Tue Apr  8 22:58:34 2025.
 Gaussian 16:  ES64L-G16RevC.01  3-Jul-2019

 ----------------------------------------------------------------------
 #t hf aug-cc-pvdz iop(5/13=1,5/36=2,99/5=2) pseudo=read geom=check gue
 ss=(read,tcheck) scf=(maxcycle=1)
 ----------------------------------------------------------------------
 -----
 title
 -----
 Structure from the checkpoint file:  "BDE49_expt_1902_mol1.chk"
 Charge =  0 Multiplicity = 1

                         Standard orientation:
 ---------------------------------------------------------------------
 Center     Atomic      Atomic             Coordinates (Angstroms)
 Number     Number       Type             X           Y           Z
 ---------------------------------------------------------------------
      1          8           0        0.000000   -0.000000    0.598733
      2          9           0        0.000000    1.110049   -0.266104
      3          9           0       -0.000000   -1.110049   -0.266104
 ---------------------------------------------------------------------

 SCF Done:  E(RHF) =  -274.459102384     A.U. after    2 cycles

 The electronic state is 1-A1.
 Alpha  occ. eigenvalues --  -29.35884 -29.35856 -21.27165  -1.90100  -0.84184
 Alpha  occ. eigenvalues --   -0.69615  -0.61792  -0.47509  -0.42461  -0.34434
 Alpha  occ. eigenvalues --   -0.33029  -0.24706  -0.22418
 Alpha virt. eigenvalues --    0.13138   0.18478   0.19206   0.20492   0.24488
 Alpha virt. eigenvalues --    0.25247   0.27964   0.29749   0.30405   0.32719
 Alpha virt. eigenvalues --    0.42076   0.42415   0.58379   0.58867   0.59050

 Mulliken charges:
               1
     1  O   -0.301505
     2  F    0.150752
     3  F    0.150752
 Sum of Mulliken charges =  -0.00000

 Dipole moment (field-independent basis, Debye):
    X=             -0.0000    Y=              0.0000    Z=             -1.2325  Tot=              1.2325

 Test job not archived.
 1\1\GINC-SE096\SP\RHF\Aug-CC-pVDZ\F2O1\OHZDE\08-Apr-2025\0\\#t hf aug-
 cc-pvdz iop(5/13=1,5/36=2,99/5=2) pseudo=read geom=check guess=(read,t
 check) scf=(maxcycle=1)\\title\\0,1\O,0,0.,0.,0.598733\F,0,0.,1.110049
 ,-0.266104\F,0,0.,-1.110049,-0.266104\\Version=ES64L-G16RevC.01\State=
 1-A1\HF=-274.4591024\RMSD=3.427e-02\Dipole=0.,0.,-0.4849001\Quadrupole
 =-0.4219418,0.7291661,-0.3072243,0.,0.,0.\PG=C02V [C2(O1),SGV(F2)]\\@

 Normal termination of Gaussian 16 at Tue Apr  8 22:58:35 2025.
