 Gaussian 16, Revision C.01,

 ----------------------------------------------------------------------
 #t hf aug-cc-pvdz symm=none int=(grid=ultrafine) guess=(read,tcheck) s
 table=(opt,rrhf)
 ----------------------------------------------------------------------
 -----
 title
 -----
 Symbolic Z-matrix:
 Charge =  0 Multiplicity = 1

 SCF Done:  E(RHF) =  -1332.46914678     A.U. after   14 cycles
 Normal termination of Gaussian 16 at Tue Apr  8 23:25:03 2025.
 Gaussian 16:  ES64L-G16RevC.01  3-Jul-2019

 ----------------------------------------------------------------------
 #t hf aug-cc-pvdz iop(5/13=1,5/36=2,99/5=2) pseudo=read geom=check gue
 ss=(read,tcheck) scf=(maxcycle=1)
 ----------------------------------------------------------------------
 -----
 title
 -----
 Structure from the checkpoint file:  "BDE49_nonexpt_1223_mol1.chk"
 Charge =  0 Multiplicity = 1

                         Standard orientation:
 ---------------------------------------------------------------------
 Center     Atomic      Atomic             Coordinates (Angstroms)
 Number     Number       Type             X           Y           Z
 ---------------------------------------------------------------------
      1          6           0        2.873208   -0.235176   -0.055024
      2          8           0        1.647672   -0.071763   -0.681355
      3          9           0        3.400439    0.932894    0.306581
      4          9           0        3.666990   -0.812304   -0.947757
      5          9           0        2.778947   -1.019171    1.016263
      6          6           0        0.633614    0.512345    0.025022
      7          8           0       -0.401888    0.551785   -0.860985
      8          8           0        0.665957    0.902168    1.141993
      9         16           0       -1.875243    1.194006   -0.294228
     10          6           0       -2.686657   -0.401962    0.058832
     11          9           0       -3.882798   -0.083813    0.577612
     12          9           0       -2.873150   -1.147005   -1.032793
     13          9           0       -2.002766   -1.138697    0.939809
 ---------------------------------------------------------------------

 SCF Done:  E(RHF) =  -1336.07574229     A.U. after    2 cycles

 The electronic state is 1-A.
 Alpha  occ. eigenvalues --  -75.79966 -29.35035 -29.34518 -29.34366 -29.34345
 Alpha  occ. eigenvalues --  -29.34196 -29.34144 -21.16758 -21.16703 -21.11095
 Alpha  occ. eigenvalues --  -13.27130 -13.21086 -13.15643 -11.64824 -11.62498
 Alpha  occ. eigenvalues --  -11.60735  -8.13779  -1.99327  -1.83306  -1.74258
 Alpha  occ. eigenvalues --   -1.45966  -1.38047  -1.13286  -0.96777  -0.95536
 Alpha  occ. eigenvalues --   -0.94123  -0.92383  -0.89211  -0.74590  -0.72019
 Alpha  occ. eigenvalues --   -0.66798  -0.65821  -0.57038  -0.51601  -0.50615
 Alpha  occ. eigenvalues --   -0.49695  -0.47664  -0.47054  -0.46540  -0.46399
 Alpha  occ. eigenvalues --   -0.46075  -0.41199  -0.40759  -0.40123  -0.39407
 Alpha  occ. eigenvalues --   -0.36350  -0.35387  -0.33280  -0.32084  -0.29556
 Alpha  occ. eigenvalues --   -0.28638  -0.27993  -0.27555  -0.25270  -0.24387
 Alpha  occ. eigenvalues --   -0.24113
 Alpha virt. eigenvalues --    0.06016   0.07853   0.09332   0.09931   0.10491
 Alpha virt. eigenvalues --    0.11337   0.11731   0.13081   0.13402   0.13494
 Alpha virt. eigenvalues --    0.14706   0.15016   0.15962   0.16282   0.17859

 Mulliken charges:
               1
     1  C    0.705709
     2  O   -2.982788
     3  F    0.423869
     4  F    0.457425
     5  F    0.422750
     6  C    4.861287
     7  O   -2.381234
     8  O   -2.239832
     9  S    0.739910
    10  C   -1.420827
    11  F    0.550987
    12  F    0.434202
    13  F    0.428543
 Sum of Mulliken charges =  -0.00000

 Dipole moment (field-independent basis, Debye):
    X=             -0.1016    Y=             -1.8526    Z=              1.2845  Tot=              2.2566

 Test job not archived.
 1\1\GINC-SE253\SP\RHF\Aug-CC-pVDZ\C3F6O3S1\OHZDE\08-Apr-2025\0\\#t hf
 aug-cc-pvdz iop(5/13=1,5/36=2,99/5=2) pseudo=read geom=check guess=(re
 ad,tcheck) scf=(maxcycle=1)\\title\\0,1\C,0,-2.873208,0.235176,-0.0550
 24\O,0,-1.647672,0.071763,-0.681355\F,0,-3.400439,-0.932894,0.306581\F
 ,0,-3.66699,0.812304,-0.947757\F,0,-2.778947,1.019171,1.016263\C,0,-0.
 633614,-0.512345,0.025022\O,0,0.401888,-0.551785,-0.860985\O,0,-0.6659
 57,-0.902168,1.141993\S,0,1.875243,-1.194006,-0.294228\C,0,2.686657,0.
 401962,0.058832\F,0,3.882798,0.083813,0.577612\F,0,2.87315,1.147005,-1

 Normal termination of Gaussian 16 at Tue Apr  8 23:25:10 2025.
