 Gaussian 16, Revision C.01,

 ----------------------------------------------------------------------
 #t hf aug-cc-pvdz symm=none int=(grid=ultrafine) guess=(read,tcheck) s
 table=(opt,rrhf)
 ----------------------------------------------------------------------
 -----
 title
 -----
 Symbolic Z-matrix:
 Charge =  0 Multiplicity = 1

 SCF Done:  E(RHF) =  -573.912388504     A.U. after   14 cycles
 Normal termination of Gaussian 16 at Tue Apr  8 22:58:39 2025.
 Gaussian 16:  ES64L-G16RevC.01  3-Jul-2019

 ----------------------------------------------------------------------
 #t hf aug-cc-pvdz iop(5/13=1,5/36=2,99/5=2) pseudo=read geom=check gue
 ss=(read,tcheck) scf=(maxcycle=1)
 ----------------------------------------------------------------------
 -----
 title
 -----
 Structure from the checkpoint file:  "BDE49_expt_1924_mol1.chk"
 Charge =  0 Multiplicity = 1

                         Standard orientation:
 ---------------------------------------------------------------------
 Center     Atomic      Atomic             Coordinates (Angstroms)
 Number     Number       Type             X           Y           Z
 ---------------------------------------------------------------------
      1          8           0        0.000000    0.817052    0.000000
      2         17           0        0.812002   -0.719803    0.000000
      3          6           0       -1.415234    0.636498    0.000000
      4          1           0       -1.802249    1.658591    0.000000
      5          1           0       -1.755189    0.111333    0.897064
      6          1           0       -1.755189    0.111333   -0.897064
 ---------------------------------------------------------------------

 SCF Done:  E(RHF) =  -574.669393362     A.U. after    2 cycles

 The electronic state is 1-A'.
 Alpha  occ. eigenvalues --  -99.93258 -21.11582 -11.42265 -10.50031  -9.69872
 Alpha  occ. eigenvalues --   -9.69058  -9.68943  -1.77659  -1.25092  -0.98579
 Alpha  occ. eigenvalues --   -0.66079  -0.64305  -0.60819  -0.55419  -0.52627
 Alpha  occ. eigenvalues --   -0.44395  -0.34709
 Alpha virt. eigenvalues --    0.03233   0.04608   0.06161   0.06363   0.08746
 Alpha virt. eigenvalues --    0.13771   0.14086   0.14479   0.15458   0.15493
 Alpha virt. eigenvalues --    0.19105   0.21965   0.22215   0.25427   0.26328

 Mulliken charges:
               1
     1  O   -1.765233
     2  Cl   0.533859
     3  C   -2.466902
     4  H    1.151197
     5  H    1.273540
     6  H    1.273540
 Sum of Mulliken charges =  -0.00000

 Dipole moment (field-independent basis, Debye):
    X=             -2.2123    Y=              1.7965    Z=             -0.0000  Tot=              2.8498

 Test job not archived.
 1\1\GINC-SE365\SP\RHF\Aug-CC-pVDZ\C1H3Cl1O1\OHZDE\08-Apr-2025\0\\#t hf
  aug-cc-pvdz iop(5/13=1,5/36=2,99/5=2) pseudo=read geom=check guess=(r
 ead,tcheck) scf=(maxcycle=1)\\title\\0,1\O,0,0.,0.817052,0.\Cl,0,0.812
 002,-0.719803,0.\C,0,-1.415234,0.636498,0.\H,0,-1.802249,1.658591,0.\H
 ,0,-1.755189,0.111333,0.897064\H,0,-1.755189,0.111333,-0.897064\\Versi
 on=ES64L-G16RevC.01\State=1-A'\HF=-574.6693934\RMSD=4.996e-02\Dipole=-
 0.8703779,0.7067927,0.\Quadrupole=0.5618703,0.6658444,-1.2277147,-1.50
 77056,0.,0.\PG=CS [SG(C1H1Cl1O1),X(H2)]\\@

 Normal termination of Gaussian 16 at Tue Apr  8 22:58:40 2025.
