 Gaussian 16, Revision C.01,

 ----------------------------------------------------------------------
 #t hf aug-cc-pvdz symm=none int=(grid=ultrafine) guess=(read,tcheck) s
 table=(opt,rrhf)
 ----------------------------------------------------------------------
 -----
 title
 -----
 Symbolic Z-matrix:
 Charge =  0 Multiplicity = 1

 SCF Done:  E(RHF) =  -486.462149245     A.U. after   14 cycles
 Normal termination of Gaussian 16 at Tue Apr  8 22:56:36 2025.
 Gaussian 16:  ES64L-G16RevC.01  3-Jul-2019

 ----------------------------------------------------------------------
 #t hf aug-cc-pvdz iop(5/13=1,5/36=2,99/5=2) pseudo=read geom=check gue
 ss=(read,tcheck) scf=(maxcycle=1)
 ----------------------------------------------------------------------
 -----
 title
 -----
 Structure from the checkpoint file:  "BDE49_expt_1845_mol1.chk"
 Charge =  0 Multiplicity = 1

                         Standard orientation:
 ---------------------------------------------------------------------
 Center     Atomic      Atomic             Coordinates (Angstroms)
 Number     Number       Type             X           Y           Z
 ---------------------------------------------------------------------
      1          8           0       -1.886608   -0.023863   -0.119877
      2          8           0       -0.716350    0.824348   -0.086415
      3          1           0       -2.206449    0.082668    0.789068
      4          6           0        0.384922    0.007480   -0.003504
      5          9           0        1.431681    0.827577    0.014467
      6          9           0        0.490374   -0.826005   -1.036800
      7          9           0        0.380232   -0.727286    1.120365
 ---------------------------------------------------------------------

 SCF Done:  E(RHF) =  -488.223613358     A.U. after    2 cycles

 The electronic state is 1-A.
 Alpha  occ. eigenvalues --  -29.33396 -29.32954 -29.32834 -21.17236 -21.15709
 Alpha  occ. eigenvalues --  -11.62115  -2.03021  -1.57451  -1.29886  -0.94388
 Alpha  occ. eigenvalues --   -0.93690  -0.74507  -0.65626  -0.53163  -0.49898
 Alpha  occ. eigenvalues --   -0.46482  -0.45424  -0.42015  -0.40637  -0.37124
 Alpha  occ. eigenvalues --   -0.34086  -0.32505  -0.27361  -0.26365  -0.23234
 Alpha virt. eigenvalues --    0.04260   0.10738   0.11963   0.12190   0.14783
 Alpha virt. eigenvalues --    0.16174   0.18584   0.19792   0.20506   0.21520
 Alpha virt. eigenvalues --    0.23443   0.23923   0.25853   0.26522   0.29582

 Mulliken charges:
               1
     1  O   -0.959162
     2  O   -1.687384
     3  H    0.790080
     4  C   -0.007386
     5  F    0.709926
     6  F    0.601925
     7  F    0.552002
 Sum of Mulliken charges =  -0.00000

 Dipole moment (field-independent basis, Debye):
    X=              1.1243    Y=             -1.1752    Z=              0.8140  Tot=              1.8187

 Test job not archived.
 1\1\GINC-SE368\SP\RHF\Aug-CC-pVDZ\C1H1F3O2\OHZDE\08-Apr-2025\0\\#t hf
 aug-cc-pvdz iop(5/13=1,5/36=2,99/5=2) pseudo=read geom=check guess=(re
 ad,tcheck) scf=(maxcycle=1)\\title\\0,1\O,0,-1.886608,-0.023863,-0.119
 877\O,0,-0.71635,0.824348,-0.086415\H,0,-2.206449,0.082668,0.789068\C,
 0,0.384922,0.00748,-0.003504\F,0,1.431681,0.827577,0.014467\F,0,0.4903
 74,-0.826005,-1.0368\F,0,0.380232,-0.727286,1.120365\\Version=ES64L-G1
 6RevC.01\State=1-A\HF=-488.2236134\RMSD=3.181e-02\Dipole=0.4423419,-0.
 4623439,0.320253\Quadrupole=1.2378097,-1.4745423,0.2367326,1.0387999,-

 Normal termination of Gaussian 16 at Tue Apr  8 22:56:38 2025.
