 Gaussian 16, Revision C.01,

 ----------------------------------------------------------------------
 #t hf aug-cc-pvdz symm=none int=(grid=ultrafine) guess=(read,tcheck) s
 table=(opt,rrhf)
 ----------------------------------------------------------------------
 -----
 title
 -----
 Symbolic Z-matrix:
 Charge =  0 Multiplicity = 1

 SCF Done:  E(RHF) =  -653.685569988     A.U. after   13 cycles
 Normal termination of Gaussian 16 at Wed Apr  9 00:22:02 2025.
 Gaussian 16:  ES64L-G16RevC.01  3-Jul-2019

 ----------------------------------------------------------------------
 #t hf aug-cc-pvdz iop(5/13=1,5/36=2,99/5=2) pseudo=read geom=check gue
 ss=(read,tcheck) scf=(maxcycle=1)
 ----------------------------------------------------------------------
 -----
 title
 -----
 Structure from the checkpoint file:  "BDE49_nonexpt_2637_mol1.chk"
 Charge =  0 Multiplicity = 1

                         Standard orientation:
 ---------------------------------------------------------------------
 Center     Atomic      Atomic             Coordinates (Angstroms)
 Number     Number       Type             X           Y           Z
 ---------------------------------------------------------------------
      1          9           0       -1.999060    0.508230   -0.000244
      2         16           0       -0.965418   -0.817593    0.000076
      3          6           0        0.639496    0.082860    0.000038
      4          6           0        1.679900   -1.049698    0.000015
      5          1           0        1.592346   -1.680579    0.888570
      6          1           0        2.681977   -0.611121   -0.000018
      7          1           0        1.592295   -1.680591   -0.888527
      8          6           0        0.748691    0.942562   -1.265498
      9          1           0        1.691899    1.498906   -1.259959
     10          1           0       -0.071258    1.661279   -1.313031
     11          1           0        0.714554    0.324814   -2.165087
     12          6           0        0.748748    0.942561    1.265569
     13          1           0        0.714651    0.324813    2.165161
     14          1           0       -0.071198    1.661279    1.313141
     15          1           0        1.691956    1.498904    1.259987
 ---------------------------------------------------------------------

 SCF Done:  E(RHF) =  -655.073120886     A.U. after    2 cycles

 The electronic state is 1-A.
 Alpha  occ. eigenvalues --  -75.74235 -29.25557 -13.19766 -13.15970 -13.09785
 Alpha  occ. eigenvalues --  -11.44230 -11.40620 -11.39628 -11.36550  -8.08149
 Alpha  occ. eigenvalues --   -1.32716  -1.12573  -1.02791  -1.02090  -0.80971
 Alpha  occ. eigenvalues --   -0.67273  -0.63034  -0.62398  -0.58783  -0.55750
 Alpha  occ. eigenvalues --   -0.55396  -0.52828  -0.46591  -0.46318  -0.41995
 Alpha  occ. eigenvalues --   -0.38452  -0.32284  -0.26099  -0.16820
 Alpha virt. eigenvalues --    0.03350   0.05322   0.05504   0.05855   0.06177
 Alpha virt. eigenvalues --    0.06282   0.06843   0.07197   0.08693   0.09213
 Alpha virt. eigenvalues --    0.11615   0.13323   0.13766   0.14807   0.15756

 Mulliken charges:
               1
     1  F   -0.536804
     2  S    0.585637
     3  C    0.606507
     4  C   -3.361312
     5  H    1.299373
     6  H    1.171322
     7  H    1.299394
     8  C   -4.254629
     9  H    1.214979
    10  H    1.252364
    11  H    1.255291
    12  C   -4.254838
    13  H    1.255233
    14  H    1.252516
    15  H    1.214968
 Sum of Mulliken charges =  -0.00000

 Dipole moment (field-independent basis, Debye):
    X=             -1.0943    Y=              1.4511    Z=             -0.0004  Tot=              1.8175

 Test job not archived.
 1\1\GINC-SE071\SP\RHF\Aug-CC-pVDZ\C4H9F1S1\OHZDE\09-Apr-2025\0\\#t hf
 aug-cc-pvdz iop(5/13=1,5/36=2,99/5=2) pseudo=read geom=check guess=(re
 ad,tcheck) scf=(maxcycle=1)\\title\\0,1\F,0,-1.99906,0.508231,-0.00024
 4\S,0,-0.965418,-0.817593,0.000076\C,0,0.639496,0.08286,0.000038\C,0,1
 .6799,-1.049698,0.000015\H,0,1.592346,-1.680579,0.88857\H,0,2.681977,-
 0.611122,-0.000018\H,0,1.592295,-1.680591,-0.888527\C,0,0.748691,0.942
 562,-1.265498\H,0,1.691899,1.498906,-1.259959\H,0,-0.071258,1.661279,-
 1.313031\H,0,0.714554,0.324814,-2.165087\C,0,0.748748,0.942561,1.26556

 Normal termination of Gaussian 16 at Wed Apr  9 00:22:07 2025.
