 Gaussian 16, Revision C.01,

 ----------------------------------------------------------------------
 #t hf aug-cc-pvdz symm=none int=(grid=ultrafine) guess=(read,tcheck) s
 table=(opt,rrhf)
 ----------------------------------------------------------------------
 -----
 title
 -----
 Symbolic Z-matrix:
 Charge =  0 Multiplicity = 1

 SCF Done:  E(RHF) =  -963.019629237     A.U. after   14 cycles
 Normal termination of Gaussian 16 at Wed Apr  9 00:14:02 2025.
 Gaussian 16:  ES64L-G16RevC.01  3-Jul-2019

 ----------------------------------------------------------------------
 #t hf aug-cc-pvdz iop(5/13=1,5/36=2,99/5=2) pseudo=read geom=check gue
 ss=(read,tcheck) scf=(maxcycle=1)
 ----------------------------------------------------------------------
 -----
 title
 -----
 Structure from the checkpoint file:  "BDE49_nonexpt_2345_mol1.chk"
 Charge =  0 Multiplicity = 1

                         Standard orientation:
 ---------------------------------------------------------------------
 Center     Atomic      Atomic             Coordinates (Angstroms)
 Number     Number       Type             X           Y           Z
 ---------------------------------------------------------------------
      1         14           0       -1.629162    1.268819    0.485276
      2         14           0        0.462195    2.119193   -0.203985
      3          6           0        1.880678   -0.295463    0.345524
      4          8           0        1.217865   -0.285020    1.365913
      5          6           0        1.718488    0.785672   -0.706045
      6          1           0        1.390434    0.302341   -1.633398
      7          1           0        2.693083    1.236151   -0.929159
      8          1           0        1.014841    2.965920    0.881900
      9          1           0        0.257570    2.994478   -1.388839
     10          6           0       -2.212333   -0.246812   -0.537625
     11          1           0       -2.673011    2.307549    0.278279
     12          1           0       -1.631166    0.915600    1.923298
     13          6           0       -1.269284   -1.423957   -0.502513
     14          1           0       -3.201846   -0.515497   -0.156013
     15          1           0       -2.310151    0.087619   -1.573617
     16          8           0       -0.389261   -1.551673   -1.333508
     17          6           0        2.857227   -1.411967    0.052236
     18          1           0        3.009586   -2.019019    0.943993
     19          1           0        3.811873   -1.025699   -0.313781
     20          1           0        2.426035   -2.033373   -0.739535
     21          6           0       -1.426387   -2.411354    0.636096
     22          1           0       -1.086601   -1.938247    1.563292
     23          1           0       -0.811819   -3.290080    0.445207
     24          1           0       -2.470459   -2.703087    0.775015
 ---------------------------------------------------------------------

 SCF Done:  E(RHF) =  -965.108468670     A.U. after    2 cycles

 The electronic state is 1-A.
 Alpha  occ. eigenvalues --  -76.21478 -76.20881 -21.05030 -21.04443 -11.50147
 Alpha  occ. eigenvalues --  -11.49581 -11.38948 -11.38694 -11.37273 -11.37025
 Alpha  occ. eigenvalues --   -5.54915  -5.54413  -2.18527  -2.18478  -2.17253
 Alpha  occ. eigenvalues --   -2.17060  -2.16654  -2.15615  -1.71087  -1.70543
 Alpha  occ. eigenvalues --   -1.15372  -1.15122  -1.03633  -1.03334  -0.79697
 Alpha  occ. eigenvalues --   -0.75799  -0.72841  -0.68220  -0.62661  -0.62339
 Alpha  occ. eigenvalues --   -0.62086  -0.60615  -0.58831  -0.57278  -0.55736
 Alpha  occ. eigenvalues --   -0.52125  -0.49129  -0.48488  -0.46731  -0.46281
 Alpha  occ. eigenvalues --   -0.45364  -0.41807  -0.41049  -0.37566  -0.33843
 Alpha  occ. eigenvalues --   -0.28941  -0.28402
 Alpha virt. eigenvalues --    0.03356   0.04524   0.05012   0.05063   0.05409
 Alpha virt. eigenvalues --    0.06043   0.06261   0.06989   0.07149   0.07314
 Alpha virt. eigenvalues --    0.07391   0.08574   0.08780   0.09562   0.09749

 Mulliken charges:
               1
     1  Si   4.611122
     2  Si   4.749204
     3  C    4.243325
     4  O   -3.258884
     5  C   -4.312756
     6  H    1.921868
     7  H    1.324555
     8  H   -2.007471
     9  H   -1.907015
    10  C   -4.500355
    11  H   -2.009456
    12  H   -1.917565
    13  C    4.982035
    14  H    1.501267
    15  H    1.584854
    16  O   -3.687273
    17  C   -4.792070
    18  H    1.369267
    19  H    1.307594
    20  H    1.330283
    21  C   -4.668518
    22  H    1.458442
    23  H    1.392751
    24  H    1.284797
 Sum of Mulliken charges =  -0.00000

 Dipole moment (field-independent basis, Debye):
    X=              0.4264    Y=             -1.2931    Z=             -0.3440  Tot=              1.4044

 Test job not archived.
 1\1\GINC-SE412\SP\RHF\Aug-CC-pVDZ\C6H14O2Si2\OHZDE\09-Apr-2025\0\\#t h
 f aug-cc-pvdz iop(5/13=1,5/36=2,99/5=2) pseudo=read geom=check guess=(
 read,tcheck) scf=(maxcycle=1)\\title\\0,1\Si,0,1.629161,-1.26882,0.485
 276\Si,0,-0.462196,-2.119193,-0.203985\C,0,-1.880678,0.295464,0.345524
 \O,0,-1.217865,0.285021,1.365913\C,0,-1.718488,-0.785671,-0.706045\H,0
 ,-1.390434,-0.30234,-1.633398\H,0,-2.693083,-1.23615,-0.929159\H,0,-1.
 014842,-2.96592,0.8819\H,0,-0.257571,-2.994478,-1.388839\C,0,2.212333,
 0.246811,-0.537625\H,0,2.67301,-2.30755,0.278279\H,0,1.631166,-0.91560

 Normal termination of Gaussian 16 at Wed Apr  9 00:14:19 2025.
