 Gaussian 16, Revision C.01,

 ----------------------------------------------------------------------
 #t hf aug-cc-pvdz symm=none int=(grid=ultrafine) guess=(read,tcheck) s
 table=(opt,rrhf)
 ----------------------------------------------------------------------
 -----
 title
 -----
 Symbolic Z-matrix:
 Charge =  0 Multiplicity = 1

 SCF Done:  E(RHF) =  -616.248327108     A.U. after   12 cycles

 1\1\GINC-SE044\Stability\RHF\Aug-CC-pVDZ\C4H9Cl1\OHZDE\08-Apr-2025\0\\
 #t hf aug-cc-pvdz symm=none int=(grid=ultrafine) guess=(read,tcheck) s
 table=(opt,rrhf)\\title\\0,1\C,0,0.816605,-1.459295,0.061977\C,0,0.372
 996,-0.000019,0.000003\C,0,0.816746,0.675935,-1.294705\H,0,0.4503,-2.0
 17999,-0.800888\H,0,0.450198,-1.94292,0.96902\H,0,1.910888,-1.50492,0.
 063961\C,0,0.816717,0.783276,1.232742\Cl,0,-1.492557,0.000047,-0.00001
 1\H,0,0.450364,0.132293,-2.167107\H,0,1.911038,0.696972,-1.335114\H,0,
 0.450237,0.315552,2.148055\H,0,0.450538,1.810686,1.197899\H,0,1.911009

 Normal termination of Gaussian 16 at Tue Apr  8 22:48:56 2025.
 Gaussian 16:  ES64L-G16RevC.01  3-Jul-2019

 ----------------------------------------------------------------------
 #t hf aug-cc-pvdz iop(5/13=1,5/36=2,99/5=2) pseudo=read geom=check gue
 ss=(read,tcheck) scf=(maxcycle=1)
 ----------------------------------------------------------------------
 -----
 title
 -----
 Structure from the checkpoint file:  "BDE49_expt_1656_mol1.chk"
 Charge =  0 Multiplicity = 1

                         Standard orientation:
 ---------------------------------------------------------------------
 Center     Atomic      Atomic             Coordinates (Angstroms)
 Number     Number       Type             X           Y           Z
 ---------------------------------------------------------------------
      1          6           0        0.816605    1.459409   -0.059238
      2          6           0        0.372996    0.000019   -0.000003
      3          6           0        0.816746   -0.678364    1.293434
      4          1           0        0.450300    2.016492    0.804674
      5          1           0        0.450198    1.944735   -0.965372
      6          1           0        1.910888    1.505038   -0.061137
      7          6           0        0.816717   -0.780961   -1.234210
      8         17           0       -1.492557   -0.000047    0.000011
      9          1           0        0.450365   -0.136360    2.166855
     10          1           0        1.911038   -0.699476    1.333803
     11          1           0        0.450237   -0.311520   -2.148644
     12          1           0        0.450538   -1.808434   -1.201296
     13          1           0        1.911009   -0.805188   -1.272862
     14          1           0        0.450511   -1.705102    1.343890
 ---------------------------------------------------------------------

 SCF Done:  E(RHF) =  -617.324303469     A.U. after    2 cycles

 The electronic state is 1-A.
 Alpha  occ. eigenvalues --  -99.85919 -11.45841 -11.39901 -11.39900 -11.36607
 Alpha  occ. eigenvalues --  -10.43161  -9.63135  -9.62429  -9.62429  -1.35244
 Alpha  occ. eigenvalues --   -1.17902  -1.02398  -1.02397  -0.80577  -0.65795
 Alpha  occ. eigenvalues --   -0.62863  -0.62862  -0.56480  -0.56479  -0.52634
 Alpha  occ. eigenvalues --   -0.49302  -0.49301  -0.48303  -0.43973  -0.43973
 Alpha virt. eigenvalues --    0.03423   0.05704   0.05948   0.05948   0.06236
 Alpha virt. eigenvalues --    0.06236   0.07072   0.07072   0.08591   0.09101
 Alpha virt. eigenvalues --    0.10640   0.13956   0.13956   0.14494   0.15372

 Mulliken charges:
               1
     1  C   -3.627941
     2  C   -0.095236
     3  C   -3.628066
     4  H    1.247517
     5  H    1.247490
     6  H    1.239701
     7  C   -3.628030
     8  Cl  -0.224853
     9  H    1.247501
    10  H    1.239681
    11  H    1.247520
    12  H    1.247504
    13  H    1.239689
    14  H    1.247523
 Sum of Mulliken charges =   0.00000

 Dipole moment (field-independent basis, Debye):
    X=              2.8880    Y=              0.0001    Z=             -0.0000  Tot=              2.8880

 Test job not archived.
 1\1\GINC-SE044\SP\RHF\Aug-CC-pVDZ\C4H9Cl1\OHZDE\08-Apr-2025\0\\#t hf a
 ug-cc-pvdz iop(5/13=1,5/36=2,99/5=2) pseudo=read geom=check guess=(rea
 d,tcheck) scf=(maxcycle=1)\\title\\0,1\C,0,0.816605,-1.459295,0.061977
 \C,0,0.372996,-0.000019,0.000003\C,0,0.816746,0.675935,-1.294705\H,0,0
 .4503,-2.017999,-0.800888\H,0,0.450198,-1.94292,0.96902\H,0,1.910888,-
 1.50492,0.063961\C,0,0.816717,0.783276,1.232742\Cl,0,-1.492557,0.00004
 7,-0.000011\H,0,0.450364,0.132293,-2.167107\H,0,1.911038,0.696972,-1.3
 35114\H,0,0.450237,0.315552,2.148055\H,0,0.450538,1.810686,1.197899\H,

 Normal termination of Gaussian 16 at Tue Apr  8 22:49:00 2025.
