 Gaussian 16, Revision C.01,

 ----------------------------------------------------------------------
 #t hf aug-cc-pvdz symm=none int=(grid=ultrafine) guess=(read,tcheck) s
 table=opt
 ----------------------------------------------------------------------
 -----
 title
 -----
 Symbolic Z-matrix:
 Charge =  0 Multiplicity = 2

 SCF Done:  E(UHF) =  -241.828289932     A.U. after   14 cycles
 Normal termination of Gaussian 16 at Wed Apr  9 00:32:22 2025.
 Gaussian 16:  ES64L-G16RevC.01  3-Jul-2019

 ----------------------------------------------------------------------
 #t hf aug-cc-pvdz iop(5/13=1,5/36=2,99/5=2) pseudo=read geom=check gue
 ss=(read,tcheck) scf=(maxcycle=1)
 ----------------------------------------------------------------------
 -----
 title
 -----
 Structure from the checkpoint file:  "BDE49_nonexpt_373_mol2.chk"
 Charge =  0 Multiplicity = 2

                         Standard orientation:
 ---------------------------------------------------------------------
 Center     Atomic      Atomic             Coordinates (Angstroms)
 Number     Number       Type             X           Y           Z
 ---------------------------------------------------------------------
      1          9           0       -2.188181   -0.565528   -0.000001
      2          5           0       -1.613410    0.622681   -0.000000
      3          6           0       -0.062913    0.831468    0.000001
      4          6           0        0.800032   -0.447097   -0.000000
      5          1           0        0.179386    1.465075   -0.865359
      6          6           0        2.302654   -0.153439    0.000001
      7          1           0        0.544989   -1.055783   -0.873684
      8          1           0        0.544988   -1.055785    0.873683
      9          1           0        2.592581    0.424688   -0.882953
     10          1           0        2.888131   -1.077198   -0.000000
     11          1           0        0.179385    1.465073    0.865362
     12          1           0        2.592580    0.424686    0.882956
 ---------------------------------------------------------------------

 SCF Done:  E(UHF) =  -242.865340892     A.U. after    2 cycles

 The electronic state is 2-A.
 Alpha  occ. eigenvalues --  -29.25562 -11.41218 -11.37388 -11.34411  -7.67008
 Alpha  occ. eigenvalues --   -1.23231  -1.05509  -0.91282  -0.84728  -0.64098
 Alpha  occ. eigenvalues --   -0.60204  -0.55806  -0.54633  -0.49453  -0.46936
 Alpha  occ. eigenvalues --   -0.46918  -0.45168  -0.40824  -0.36585  -0.20664
 Alpha virt. eigenvalues --    0.03572   0.04033   0.04443   0.05115   0.06151
 Alpha virt. eigenvalues --    0.06688   0.06806   0.07319   0.09951   0.10621
 Alpha virt. eigenvalues --    0.11423   0.13489   0.14275   0.15733   0.15872

  Beta  occ. eigenvalues --  -29.25261 -11.41114 -11.37283 -11.34236  -7.65167
  Beta  occ. eigenvalues --   -1.22471  -1.04014  -0.89129  -0.84305  -0.63993
  Beta  occ. eigenvalues --   -0.59372  -0.54484  -0.54223  -0.47061  -0.46864
  Beta  occ. eigenvalues --   -0.46500  -0.40423  -0.39886  -0.34233
  Beta virt. eigenvalues --    0.03292   0.03973   0.04154   0.05157   0.06124
  Beta virt. eigenvalues --    0.06719   0.06723   0.07341   0.09572   0.10698
  Beta virt. eigenvalues --    0.10978   0.12211   0.14320   0.14680   0.16235

 Mulliken charges and spin densities:
               1          2
     1  F   -0.700408  -0.119975
     2  B    0.773800   1.136577
     3  C   -3.736275   0.051172
     4  C   -3.207485   0.004136
     5  H    1.853627  -0.020860
     6  C   -3.345635  -0.035611
     7  H    1.366589   0.001503
     8  H    1.366588   0.001503
     9  H    1.306049  -0.001280
    10  H    1.163472   0.004973
    11  H    1.853628  -0.020860
    12  H    1.306050  -0.001280
 Sum of Mulliken charges =   0.00000   1.00000

 Dipole moment (field-independent basis, Debye):
    X=             -0.4285    Y=             -3.2220    Z=             -0.0000  Tot=              3.2504
                          Isotropic Fermi Contact Couplings
        Atom                 a.u.       MegaHertz       Gauss      10(-4) cm-1
     1  F(19)              0.05998     252.36181      90.04897      84.17884
     2  B(11)              0.18250     261.77748      93.40872      87.31957
     3  C(13)              0.07167      80.57024      28.74946      26.87534
     4  C(13)              0.01466      16.47714       5.87945       5.49618
     5  H(1)              -0.00046      -2.06574      -0.73711      -0.68906
     6  C(13)              0.00534       6.00835       2.14393       2.00417
     7  H(1)              -0.00046      -2.07148      -0.73916      -0.69097
     8  H(1)              -0.00046      -2.07148      -0.73916      -0.69097

 Normal termination of Gaussian 16 at Wed Apr  9 00:32:26 2025.
