 Gaussian 16, Revision C.01,

 ----------------------------------------------------------------------
 #t hf aug-cc-pvdz symm=none int=(grid=ultrafine) guess=(read,tcheck) s
 table=(opt,rrhf)
 ----------------------------------------------------------------------
 -----
 title
 -----
 Symbolic Z-matrix:
 Charge =  0 Multiplicity = 1

 SCF Done:  E(RHF) =  -491.594742890     A.U. after   12 cycles
 Normal termination of Gaussian 16 at Tue Apr  8 23:38:10 2025.
 Gaussian 16:  ES64L-G16RevC.01  3-Jul-2019

 ----------------------------------------------------------------------
 #t hf aug-cc-pvdz iop(5/13=1,5/36=2,99/5=2) pseudo=read geom=check gue
 ss=(read,tcheck) scf=(maxcycle=1)
 ----------------------------------------------------------------------
 -----
 title
 -----
 Structure from the checkpoint file:  "BDE49_nonexpt_1538_mol1.chk"
 Charge =  0 Multiplicity = 1

                         Standard orientation:
 ---------------------------------------------------------------------
 Center     Atomic      Atomic             Coordinates (Angstroms)
 Number     Number       Type             X           Y           Z
 ---------------------------------------------------------------------
      1         15           0       -0.820915   -0.631994    0.092859
      2          6           0        0.993126   -0.566435   -0.369071
      3          7           0       -1.295992    1.004391   -0.065940
      4          7           0        1.647233    0.627253    0.179740
      5          1           0        1.043047   -0.515641   -1.460875
      6          1           0        1.447231   -1.524767   -0.070414
      7          1           0        2.561935    0.770080   -0.237045
      8          1           0        1.784798    0.525887    1.180664
      9          1           0       -0.566842   -0.642855    1.493759
     10          1           0       -1.851391    1.183709   -0.890945
     11          1           0       -0.522495    1.660608    0.009792
 ---------------------------------------------------------------------

 SCF Done:  E(RHF) =  -492.522830475     A.U. after    2 cycles

 The electronic state is 1-A.
 Alpha  occ. eigenvalues -- -105.17434 -15.74019 -15.72704 -11.38459  -2.75584
 Alpha  occ. eigenvalues --   -1.54245  -1.47131  -1.43154  -1.30792  -1.15864
 Alpha  occ. eigenvalues --   -0.92807  -0.69818  -0.64617  -0.64366  -0.59800
 Alpha  occ. eigenvalues --   -0.53435  -0.41239  -0.37617  -0.26360  -0.21121
 Alpha  occ. eigenvalues --   -0.01058
 Alpha virt. eigenvalues --    0.04053   0.05730   0.05967   0.06331   0.07321
 Alpha virt. eigenvalues --    0.07825   0.08074   0.10938   0.11878   0.12819
 Alpha virt. eigenvalues --    0.13359   0.15391   0.17143   0.18385   0.19043

 Mulliken charges:
               1
     1  P    3.673451
     2  C   -3.126572
     3  N   -2.306517
     4  N   -2.125686
     5  H    1.159616
     6  H    1.226377
     7  H    0.621752
     8  H    0.622764
     9  H   -0.792400
    10  H    0.480359
    11  H    0.566855
 Sum of Mulliken charges =   0.00000

 Dipole moment (field-independent basis, Debye):
    X=              2.1180    Y=              1.0014    Z=              0.1837  Tot=              2.3500

 Test job not archived.
 1\1\GINC-SE015\SP\RHF\Aug-CC-pVDZ\C1H7N2P1\OHZDE\08-Apr-2025\0\\#t hf
 aug-cc-pvdz iop(5/13=1,5/36=2,99/5=2) pseudo=read geom=check guess=(re
 ad,tcheck) scf=(maxcycle=1)\\title\\0,1\P,0,-0.820915,-0.631994,0.0928
 59\C,0,0.993126,-0.566435,-0.369071\N,0,-1.295991,1.004391,-0.06594\N,
 0,1.647233,0.627252,0.17974\H,0,1.043047,-0.515641,-1.460875\H,0,1.447
 231,-1.524767,-0.070414\H,0,2.561935,0.770079,-0.237045\H,0,1.784798,0
 .525886,1.180664\H,0,-0.566842,-0.642855,1.493759\H,0,-1.85139,1.18371
 ,-0.890945\H,0,-0.522494,1.660608,0.009792\\Version=ES64L-G16RevC.01\S

 Normal termination of Gaussian 16 at Tue Apr  8 23:38:13 2025.
