 Gaussian 16, Revision C.01,

 ----------------------------------------------------------------------
 #t hf aug-cc-pvdz symm=none int=(grid=ultrafine) guess=(read,tcheck) s
 table=(opt,rrhf)
 ----------------------------------------------------------------------
 -----
 title
 -----
 Symbolic Z-matrix:
 Charge =  0 Multiplicity = 1

 SCF Done:  E(RHF) =  -201.523025678     A.U. after   12 cycles
 Normal termination of Gaussian 16 at Wed Apr  9 00:00:23 2025.
 Gaussian 16:  ES64L-G16RevC.01  3-Jul-2019

 ----------------------------------------------------------------------
 #t hf aug-cc-pvdz iop(5/13=1,5/36=2,99/5=2) pseudo=read geom=check gue
 ss=(read,tcheck) scf=(maxcycle=1)
 ----------------------------------------------------------------------
 -----
 title
 -----
 Structure from the checkpoint file:  "BDE49_nonexpt_20_mol1.chk"
 Charge =  0 Multiplicity = 1

                         Standard orientation:
 ---------------------------------------------------------------------
 Center     Atomic      Atomic             Coordinates (Angstroms)
 Number     Number       Type             X           Y           Z
 ---------------------------------------------------------------------
      1          5           0       -0.786261    0.425691    0.321479
      2          5           0        0.786261    0.425693   -0.321476
      3          8           0        1.741868   -0.373847    0.224957
      4          1           0        2.602717   -0.285323   -0.196268
      5          8           0       -1.741870   -0.373838   -0.224966
      6          1           0       -2.602713   -0.285335    0.196275
      7          1           0        1.100855    1.147637   -1.235534
      8          1           0       -1.100839    1.147580    1.235587
 ---------------------------------------------------------------------

 SCF Done:  E(RHF) =  -202.367598085     A.U. after    2 cycles

 The electronic state is 1-A.
 Alpha  occ. eigenvalues --  -21.06421 -21.06419  -7.60225  -7.59747  -1.73857
 Alpha  occ. eigenvalues --   -1.73157  -0.85139  -0.69930  -0.61820  -0.61598
 Alpha  occ. eigenvalues --   -0.45446  -0.42763  -0.42267  -0.39801  -0.34519
 Alpha virt. eigenvalues --    0.02012   0.03640   0.03659   0.04392   0.08374
 Alpha virt. eigenvalues --    0.08884   0.09228   0.09469   0.10730   0.11229
 Alpha virt. eigenvalues --    0.12048   0.13170   0.14536   0.15523   0.21267

 Mulliken charges:
               1
     1  B    4.417967
     2  B    4.417951
     3  O   -3.111741
     4  H    1.259628
     5  O   -3.111732
     6  H    1.259630
     7  H   -2.565850
     8  H   -2.565853
 Sum of Mulliken charges =  -0.00000

 Dipole moment (field-independent basis, Debye):
    X=             -0.0000    Y=             -0.3510    Z=             -0.0000  Tot=              0.3510

 Test job not archived.
 1\1\GINC-SE336\SP\RHF\Aug-CC-pVDZ\B2H4O2\OHZDE\09-Apr-2025\0\\#t hf au
 g-cc-pvdz iop(5/13=1,5/36=2,99/5=2) pseudo=read geom=check guess=(read
 ,tcheck) scf=(maxcycle=1)\\title\\0,1\B,0,0.786261,0.425691,-0.321479\
 B,0,-0.786261,0.425693,0.321476\O,0,-1.741868,-0.373847,-0.224957\H,0,
 -2.602717,-0.285323,0.196268\O,0,1.74187,-0.373838,0.224966\H,0,2.6027
 13,-0.285335,-0.196275\H,0,-1.100855,1.147637,1.235534\H,0,1.100839,1.
 14758,-1.235587\\Version=ES64L-G16RevC.01\State=1-A\HF=-202.3675981\RM
 SD=2.152e-01\Dipole=0.0000023,-0.1380917,0.0000007\Quadrupole=4.515429

 Normal termination of Gaussian 16 at Wed Apr  9 00:00:25 2025.
