 Gaussian 16, Revision C.01,

 ----------------------------------------------------------------------
 #t hf aug-cc-pvdz symm=none int=(grid=ultrafine) guess=(read,tcheck) s
 table=(opt,rrhf)
 ----------------------------------------------------------------------
 -----
 title
 -----
 Symbolic Z-matrix:
 Charge =  0 Multiplicity = 1

 SCF Done:  E(RHF) =  -498.626201940     A.U. after   12 cycles

 1\1\GINC-SE218\Stability\RHF\Aug-CC-pVDZ\C4H11P1\OHZDE\08-Apr-2025\0\\
 #t hf aug-cc-pvdz symm=none int=(grid=ultrafine) guess=(read,tcheck) s
 table=(opt,rrhf)\\title\\0,1\P,0,-0.038317,-1.12518,-0.060766\C,0,1.35
 875,-0.021586,-0.637413\C,0,1.949891,0.980369,0.358357\H,0,0.999892,0.
 493671,-1.534944\H,0,2.136479,-0.708579,-0.987906\H,0,1.209632,1.71405
 3,0.686461\H,0,2.779794,1.534836,-0.091489\H,0,2.332196,0.473575,1.248
 735\C,0,-1.266965,0.086454,0.665748\H,0,0.553698,-1.518139,1.170291\C,
 0,-2.037564,0.8618,-0.409649\H,0,-0.783321,0.774572,1.363861\H,0,-1.96

 Normal termination of Gaussian 16 at Tue Apr  8 23:15:09 2025.
 Gaussian 16:  ES64L-G16RevC.01  3-Jul-2019

 ----------------------------------------------------------------------
 #t hf aug-cc-pvdz iop(5/13=1,5/36=2,99/5=2) pseudo=read geom=check gue
 ss=(read,tcheck) scf=(maxcycle=1)
 ----------------------------------------------------------------------
 -----
 title
 -----
 Structure from the checkpoint file:  "BDE49_expt_822_mol1.chk"
 Charge =  0 Multiplicity = 1

                         Standard orientation:
 ---------------------------------------------------------------------
 Center     Atomic      Atomic             Coordinates (Angstroms)
 Number     Number       Type             X           Y           Z
 ---------------------------------------------------------------------
      1         15           0       -0.038317   -1.125180   -0.060766
      2          6           0        1.358750   -0.021586   -0.637413
      3          6           0        1.949891    0.980369    0.358357
      4          1           0        0.999892    0.493671   -1.534944
      5          1           0        2.136479   -0.708579   -0.987906
      6          1           0        1.209632    1.714053    0.686461
      7          1           0        2.779794    1.534836   -0.091489
      8          1           0        2.332196    0.473575    1.248735
      9          6           0       -1.266965    0.086454    0.665748
     10          1           0        0.553698   -1.518139    1.170291
     11          6           0       -2.037564    0.861800   -0.409649
     12          1           0       -0.783321    0.774572    1.363861
     13          1           0       -1.962940   -0.520313    1.254240
     14          1           0       -1.376732    1.509902   -0.992413
     15          1           0       -2.804024    1.498786    0.040857
     16          1           0       -2.534595    0.183118   -1.108464
 ---------------------------------------------------------------------

 SCF Done:  E(RHF) =  -499.661899580     A.U. after    2 cycles

 The electronic state is 1-A.
 Alpha  occ. eigenvalues -- -105.15839 -11.39908 -11.39859 -11.35727 -11.35497
 Alpha  occ. eigenvalues --   -2.73447  -1.46920  -1.44604  -1.42382  -1.14521
 Alpha  occ. eigenvalues --   -1.10926  -0.89259  -0.85785  -0.66987  -0.62141
 Alpha  occ. eigenvalues --   -0.60086  -0.56744  -0.54265  -0.49894  -0.49566
 Alpha  occ. eigenvalues --   -0.49463  -0.48115  -0.23231  -0.18199  -0.00791
 Alpha virt. eigenvalues --    0.04048   0.05369   0.05980   0.06177   0.06363
 Alpha virt. eigenvalues --    0.06506   0.06870   0.07055   0.07690   0.08987
 Alpha virt. eigenvalues --    0.09329   0.11853   0.12215   0.13401   0.13669

 Mulliken charges:
               1
     1  P    4.774616
     2  C   -4.299721
     3  C   -4.225778
     4  H    1.347439
     5  H    1.215887
     6  H    1.388908
     7  H    1.098614
     8  H    1.278870
     9  C   -4.014496
    10  H   -0.663723
    11  C   -4.189902
    12  H    1.365532
    13  H    1.400055
    14  H    1.442397
    15  H    0.932312
    16  H    1.148992
 Sum of Mulliken charges =  -0.00000

 Dipole moment (field-independent basis, Debye):
    X=              1.0845    Y=              0.3657    Z=              0.0830  Tot=              1.1475

 Test job not archived.
 1\1\GINC-SE218\SP\RHF\Aug-CC-pVDZ\C4H11P1\OHZDE\08-Apr-2025\0\\#t hf a
 ug-cc-pvdz iop(5/13=1,5/36=2,99/5=2) pseudo=read geom=check guess=(rea
 d,tcheck) scf=(maxcycle=1)\\title\\0,1\P,0,-0.038317,-1.12518,-0.06076
 6\C,0,1.35875,-0.021586,-0.637413\C,0,1.949891,0.980369,0.358357\H,0,0
 .999892,0.493671,-1.534944\H,0,2.136479,-0.708579,-0.987906\H,0,1.2096
 32,1.714053,0.686461\H,0,2.779794,1.534836,-0.091489\H,0,2.332196,0.47
 3575,1.248735\C,0,-1.266965,0.086454,0.665748\H,0,0.553698,-1.518139,1
 .170291\C,0,-2.037564,0.8618,-0.409649\H,0,-0.783321,0.774572,1.363861

 Normal termination of Gaussian 16 at Tue Apr  8 23:15:14 2025.
