 Gaussian 16, Revision C.01,

 ----------------------------------------------------------------------
 #t hf aug-cc-pvdz symm=none int=(grid=ultrafine) guess=(read,tcheck) s
 table=opt
 ----------------------------------------------------------------------
 -----
 title
 -----
 Symbolic Z-matrix:
 Charge =  0 Multiplicity = 2

 SCF Done:  E(UHF) =  -1070.97534174     A.U. after   16 cycles
 Normal termination of Gaussian 16 at Wed Apr  9 00:02:07 2025.
 Gaussian 16:  ES64L-G16RevC.01  3-Jul-2019

 ----------------------------------------------------------------------
 #t hf aug-cc-pvdz iop(5/13=1,5/36=2,99/5=2) pseudo=read geom=check gue
 ss=(read,tcheck) scf=(maxcycle=1)
 ----------------------------------------------------------------------
 -----
 title
 -----
 Structure from the checkpoint file:  "BDE49_nonexpt_213_mol2.chk"
 Charge =  0 Multiplicity = 2

                         Standard orientation:
 ---------------------------------------------------------------------
 Center     Atomic      Atomic             Coordinates (Angstroms)
 Number     Number       Type             X           Y           Z
 ---------------------------------------------------------------------
      1         17           0       -2.381406    0.113082   -0.000002
      2          5           0       -0.841606    0.852499   -0.000004
      3         16           0        0.759588   -0.154296    0.000001
      4          8           0        0.813705   -0.866198   -1.269169
      5          6           0        2.082545    1.055811   -0.000006
      6          8           0        0.813705   -0.866183    1.269180
      7          1           0        2.006438    1.662905   -0.901294
      8          1           0        3.011092    0.482230   -0.000002
      9          1           0        2.006438    1.662915    0.901275
 ---------------------------------------------------------------------

 SCF Done:  E(UHF) =  -1072.38326866     A.U. after    2 cycles

 The electronic state is 2-A.
 Alpha  occ. eigenvalues --  -99.94310 -75.88555 -21.05210 -21.05188 -13.50399
 Alpha  occ. eigenvalues --  -13.38370 -13.31621 -11.43118 -10.51543  -9.71478
 Alpha  occ. eigenvalues --   -9.71103  -9.70821  -8.23598  -7.74330  -1.83316
 Alpha  occ. eigenvalues --   -1.65310  -1.39533  -1.16544  -0.97376  -0.80154
 Alpha  occ. eigenvalues --   -0.66516  -0.63842  -0.62811  -0.58629  -0.57190
 Alpha  occ. eigenvalues --   -0.56351  -0.45658  -0.45565  -0.40425  -0.37919
 Alpha  occ. eigenvalues --   -0.35944  -0.30826
 Alpha virt. eigenvalues --    0.00866   0.02131   0.02958   0.04294   0.04740
 Alpha virt. eigenvalues --    0.07126   0.07444   0.08914   0.11805   0.13474
 Alpha virt. eigenvalues --    0.13852   0.14321   0.14898   0.15756   0.16310

  Beta  occ. eigenvalues --  -99.94244 -75.88478 -21.05087 -21.05065 -13.50394
  Beta  occ. eigenvalues --  -13.38252 -13.31321 -11.43141 -10.51468  -9.71427
  Beta  occ. eigenvalues --   -9.70884  -9.70756  -8.23488  -7.72313  -1.82998
  Beta  occ. eigenvalues --   -1.64992  -1.38665  -1.16329  -0.95768  -0.77673
  Beta  occ. eigenvalues --   -0.65982  -0.63839  -0.60611  -0.58722  -0.56389
  Beta  occ. eigenvalues --   -0.54915  -0.45071  -0.40117  -0.39430  -0.36671
  Beta  occ. eigenvalues --   -0.35756
  Beta virt. eigenvalues --    0.00194   0.02563   0.02899   0.04205   0.04832
  Beta virt. eigenvalues --    0.05167   0.07142   0.07471   0.09711   0.12369
  Beta virt. eigenvalues --    0.13792   0.14290   0.14722   0.14922   0.15997

 Mulliken charges and spin densities:
               1          2
     1  Cl  -0.931104   0.066603
     2  B    1.266844   0.889250
     3  S    5.264058  -0.056398
     4  O   -2.523330   0.039338
     5  C   -4.620974   0.013024
     6  O   -2.523328   0.039338
     7  H    1.361383   0.005900
     8  H    1.345066  -0.002955
     9  H    1.361384   0.005900
 Sum of Mulliken charges =  -0.00000   1.00000

 Dipole moment (field-independent basis, Debye):
    X=              0.7473    Y=              1.1782    Z=             -0.0000  Tot=              1.3952
                          Isotropic Fermi Contact Couplings
        Atom                 a.u.       MegaHertz       Gauss      10(-4) cm-1
     1  Cl(35)             0.06747      29.58146      10.55540       9.86731
     2  B(11)              0.20570     295.04892     105.28079      98.41773
     3  S(33)              0.18460      63.40443      22.62428      21.14944
     4  O(17)              0.00880      -5.33392      -1.90327      -1.77920
     5  C(13)             -0.00509      -5.72639      -2.04332      -1.91012
     6  O(17)              0.00880      -5.33387      -1.90326      -1.77919
     7  H(1)               0.00017       0.74974       0.26753       0.25009
     8  H(1)              -0.00021      -0.94503      -0.33721      -0.31523

 Normal termination of Gaussian 16 at Wed Apr  9 00:02:11 2025.
