 Gaussian 16, Revision C.01,

 ----------------------------------------------------------------------
 #t hf aug-cc-pvdz symm=none int=(grid=ultrafine) guess=(read,tcheck) s
 table=opt
 ----------------------------------------------------------------------
 -----
 title
 -----
 Symbolic Z-matrix:
 Charge =  0 Multiplicity = 2

 SCF Done:  E(UHF) =  -921.354051147     A.U. after   16 cycles
 Normal termination of Gaussian 16 at Tue Apr  8 23:40:10 2025.
 Gaussian 16:  ES64L-G16RevC.01  3-Jul-2019

 ----------------------------------------------------------------------
 #t hf aug-cc-pvdz iop(5/13=1,5/36=2,99/5=2) pseudo=read geom=check gue
 ss=(read,tcheck) scf=(maxcycle=1)
 ----------------------------------------------------------------------
 -----
 title
 -----
 Structure from the checkpoint file:  "BDE49_nonexpt_161_mol2.chk"
 Charge =  0 Multiplicity = 2

                         Standard orientation:
 ---------------------------------------------------------------------
 Center     Atomic      Atomic             Coordinates (Angstroms)
 Number     Number       Type             X           Y           Z
 ---------------------------------------------------------------------
      1         17           0        1.824937    0.213651   -0.000042
      2         16           0       -1.234698   -0.663051    0.000034
      3          5           0        0.498569   -0.917798    0.000011
      4          6           0       -1.506168    1.170297    0.000015
      5          1           0       -2.585241    1.321271    0.000031
      6          1           0       -1.069696    1.611332   -0.893908
      7          1           0       -1.069666    1.611356    0.893910
 ---------------------------------------------------------------------

 SCF Done:  E(UHF) =  -922.112566476     A.U. after    2 cycles

 The electronic state is 2-A.
 Alpha  occ. eigenvalues --  -99.90494 -75.69792 -13.13730 -13.08895 -13.03694
 Alpha  occ. eigenvalues --  -11.41339 -10.47748  -9.67670  -9.67261  -9.67013
 Alpha  occ. eigenvalues --   -8.03925  -7.69331  -1.35753  -1.20895  -0.98696
 Alpha  occ. eigenvalues --   -0.74758  -0.61316  -0.60296  -0.56551  -0.55269
 Alpha  occ. eigenvalues --   -0.53473  -0.37423  -0.31627  -0.30110
 Alpha virt. eigenvalues --    0.01840   0.03658   0.03955   0.05005   0.07180
 Alpha virt. eigenvalues --    0.08515   0.08867   0.09310   0.11867   0.12930
 Alpha virt. eigenvalues --    0.14014   0.14918   0.15658   0.16608   0.17770

  Beta  occ. eigenvalues --  -99.90420 -75.69830 -13.13788 -13.09037 -13.03934
  Beta  occ. eigenvalues --  -11.41117 -10.47661  -9.67602  -9.67008  -9.66964
  Beta  occ. eigenvalues --   -8.03928  -7.67252  -1.34743  -1.20301  -0.97616
  Beta  occ. eigenvalues --   -0.71627  -0.60739  -0.60212  -0.55093  -0.54376
  Beta  occ. eigenvalues --   -0.49163  -0.36397  -0.29540
  Beta virt. eigenvalues --    0.01694   0.02572   0.03743   0.03996   0.07115
  Beta virt. eigenvalues --    0.08278   0.09253   0.09404   0.10639   0.12107
  Beta virt. eigenvalues --    0.13385   0.14807   0.15014   0.15785   0.16782

 Mulliken charges and spin densities:
               1          2
     1  Cl  -0.675995  -0.000851
     2  S   -0.100076  -0.179975
     3  B    1.268095   1.023262
     4  C   -4.557033   0.180627
     5  H    1.460028  -0.009333
     6  H    1.302491  -0.006864
     7  H    1.302491  -0.006864
 Sum of Mulliken charges =  -0.00000   1.00000

 Dipole moment (field-independent basis, Debye):
    X=             -3.4352    Y=              0.6358    Z=              0.0000  Tot=              3.4935
                          Isotropic Fermi Contact Couplings
        Atom                 a.u.       MegaHertz       Gauss      10(-4) cm-1
     1  Cl(35)             0.09276      40.67265      14.51301      13.56694
     2  S(33)              0.36683     125.99663      44.95873      42.02795
     3  B(11)              0.21943     314.74668     112.30944     104.98819
     4  C(13)              0.03101      34.85821      12.43828      11.62745
     5  H(1)               0.00089       3.95687       1.41191       1.31987
     6  H(1)              -0.00173      -7.74737      -2.76445      -2.58424
     7  H(1)              -0.00173      -7.74738      -2.76446      -2.58425
 --------------------------------------------------------

 1\1\GINC-SE435\SP\UHF\Aug-CC-pVDZ\C1H3B1Cl1S1(2)\OHZDE\08-Apr-2025\0\\
 #t hf aug-cc-pvdz iop(5/13=1,5/36=2,99/5=2) pseudo=read geom=check gue
 ss=(read,tcheck) scf=(maxcycle=1)\\title\\0,2\Cl,0,-1.824937,0.213651,
 0.000042\S,0,1.234698,-0.663051,-0.000034\B,0,-0.498569,-0.917798,-0.0
 00011\C,0,1.506168,1.170297,-0.000015\H,0,2.585241,1.321271,-0.000031\
 H,0,1.069696,1.611332,0.893908\H,0,1.069666,1.611356,-0.89391\\Version
 =ES64L-G16RevC.01\State=2-A\HF=-922.1125665\S2=0.762009\S2-1=0.\S2A=0.
 750104\RMSD=5.835e-02\Dipole=1.3515049,0.2501577,-0.0000183\Quadrupole

 Normal termination of Gaussian 16 at Tue Apr  8 23:40:12 2025.
