 Gaussian 16, Revision C.01,

 ----------------------------------------------------------------------
 #t hf aug-cc-pvdz symm=none int=(grid=ultrafine) guess=(read,tcheck) s
 table=(opt,rrhf)
 ----------------------------------------------------------------------
 -----
 title
 -----
 Symbolic Z-matrix:
 Charge =  0 Multiplicity = 1

 SCF Done:  E(RHF) =  -683.911276702     A.U. after   15 cycles
 Normal termination of Gaussian 16 at Tue Apr  8 23:33:36 2025.
 Gaussian 16:  ES64L-G16RevC.01  3-Jul-2019

 ----------------------------------------------------------------------
 #t hf aug-cc-pvdz iop(5/13=1,5/36=2,99/5=2) pseudo=read geom=check gue
 ss=(read,tcheck) scf=(maxcycle=1)
 ----------------------------------------------------------------------
 -----
 title
 -----
 Structure from the checkpoint file:  "BDE49_nonexpt_1404_mol1.chk"
 Charge =  0 Multiplicity = 1

                         Standard orientation:
 ---------------------------------------------------------------------
 Center     Atomic      Atomic             Coordinates (Angstroms)
 Number     Number       Type             X           Y           Z
 ---------------------------------------------------------------------
      1          6           0       -1.431950   -0.259357   -0.135725
      2          6           0       -1.283793    1.259764   -0.167837
      3         15           0        0.000000   -1.215849    0.626088
      4          6           0        1.431950   -0.259357   -0.135724
      5          6           0        1.283793    1.259764   -0.167837
      6          6           0        0.000000    1.804191    0.473323
      7          1           0        1.340093    1.546580   -1.225223
      8          1           0        2.174867    1.679201    0.309431
      9          1           0       -0.000000    2.893773    0.391053
     10          1           0        0.000000    1.584455    1.546903
     11          1           0       -2.174867    1.679200    0.309431
     12          1           0       -1.340094    1.546581   -1.225223
     13          8           0        2.420826   -0.826046   -0.526740
     14          8           0       -2.420826   -0.826046   -0.526740
     15          1           0        0.000000   -2.305352   -0.267054
 ---------------------------------------------------------------------

 SCF Done:  E(RHF) =  -685.624817932     A.U. after    2 cycles

 The electronic state is 1-A.
 Alpha  occ. eigenvalues -- -105.20011 -21.07514 -21.07488 -11.51082 -11.50004
 Alpha  occ. eigenvalues --  -11.45721 -11.42306 -11.39744  -2.78093  -1.73039
 Alpha  occ. eigenvalues --   -1.72977  -1.50488  -1.49703  -1.46486  -1.26580
 Alpha  occ. eigenvalues --   -1.09000  -0.94233  -0.84795  -0.74053  -0.69088
 Alpha  occ. eigenvalues --   -0.65767  -0.61623  -0.61058  -0.54727  -0.53658
 Alpha  occ. eigenvalues --   -0.52527  -0.50565  -0.44403  -0.44367  -0.41849
 Alpha  occ. eigenvalues --   -0.37769  -0.23004  -0.15229  -0.03827
 Alpha virt. eigenvalues --    0.03249   0.04995   0.05420   0.05748   0.05999
 Alpha virt. eigenvalues --    0.06408   0.07691   0.08149   0.08331   0.10396
 Alpha virt. eigenvalues --    0.11393   0.11920   0.12574   0.12700   0.13682

 Mulliken charges:
               1
     1  C    1.151788
     2  C   -2.766162
     3  P    3.295869
     4  C    1.151786
     5  C   -2.766163
     6  C   -2.510190
     7  H    1.428833
     8  H    1.376629
     9  H    1.223728
    10  H    1.334084
    11  H    1.376629
    12  H    1.428832
    13  O   -2.948615
    14  O   -2.948616
    15  H    0.171568
 Sum of Mulliken charges =  -0.00000

 Dipole moment (field-independent basis, Debye):
    X=              0.0000    Y=             -0.4338    Z=              3.3887  Tot=              3.4164

 Test job not archived.
 1\1\GINC-SE126\SP\RHF\Aug-CC-pVDZ\C5H7O2P1\OHZDE\08-Apr-2025\0\\#t hf
 aug-cc-pvdz iop(5/13=1,5/36=2,99/5=2) pseudo=read geom=check guess=(re
 ad,tcheck) scf=(maxcycle=1)\\title\\0,1\C,0,-1.43195,-0.259357,-0.1357
 25\C,0,-1.283793,1.259764,-0.167837\P,0,0.,-1.215849,0.626088\C,0,1.43
 195,-0.259357,-0.135724\C,0,1.283793,1.259764,-0.167837\C,0,0.,1.80419
 1,0.473323\H,0,1.340093,1.54658,-1.225223\H,0,2.174867,1.679201,0.3094
 31\H,0,0.,2.893773,0.391053\H,0,0.,1.584455,1.546903\H,0,-2.174867,1.6
 792,0.309431\H,0,-1.340094,1.546581,-1.225223\O,0,2.420826,-0.826046,-

 Normal termination of Gaussian 16 at Tue Apr  8 23:33:42 2025.
