 Gaussian 16, Revision C.01,

 ----------------------------------------------------------------------
 #t hf aug-cc-pvdz symm=none int=(grid=ultrafine) guess=(read,tcheck) s
 table=(opt,rrhf)
 ----------------------------------------------------------------------
 -----
 title
 -----
 Symbolic Z-matrix:
 Charge =  0 Multiplicity = 1

 SCF Done:  E(RHF) =  -877.483151518     A.U. after   13 cycles
 Normal termination of Gaussian 16 at Tue Apr  8 23:58:27 2025.
 Gaussian 16:  ES64L-G16RevC.01  3-Jul-2019

 ----------------------------------------------------------------------
 #t hf aug-cc-pvdz iop(5/13=1,5/36=2,99/5=2) pseudo=read geom=check gue
 ss=(read,tcheck) scf=(maxcycle=1)
 ----------------------------------------------------------------------
 -----
 title
 -----
 Structure from the checkpoint file:  "BDE49_nonexpt_2059_mol1.chk"
 Charge =  0 Multiplicity = 1

                         Standard orientation:
 ---------------------------------------------------------------------
 Center     Atomic      Atomic             Coordinates (Angstroms)
 Number     Number       Type             X           Y           Z
 ---------------------------------------------------------------------
      1         14           0       -1.770577    0.169165   -0.000002
      2         16           0        0.447955   -0.198505    0.000001
      3          8           0        0.777642   -0.842999   -1.266387
      4          6           0        1.249845    1.418167   -0.000005
      5          8           0        0.777640   -0.842988    1.266395
      6          1           0        0.967976    1.958684   -0.903343
      7          1           0        2.322081    1.212527   -0.000004
      8          1           0        0.967975    1.958691    0.903328
      9          1           0       -2.335898   -1.190933    0.000004
     10          1           0       -2.121332    0.923844   -1.219828
     11          1           0       -2.121333    0.923855    1.219818
 ---------------------------------------------------------------------

 SCF Done:  E(RHF) =  -878.743745805     A.U. after    2 cycles

 The electronic state is 1-A.
 Alpha  occ. eigenvalues --  -76.27298 -75.86837 -21.03728 -21.03694 -13.48533
 Alpha  occ. eigenvalues --  -13.35660 -13.29419 -11.42234  -8.21869  -5.60674
 Alpha  occ. eigenvalues --   -2.23071  -2.22823  -2.22785  -1.81264  -1.63667
 Alpha  occ. eigenvalues --   -1.14717  -0.92777  -0.79800  -0.64079  -0.63084
 Alpha  occ. eigenvalues --   -0.58456  -0.52967  -0.52041  -0.50887  -0.43614
 Alpha  occ. eigenvalues --   -0.38984  -0.37517  -0.34459  -0.31479
 Alpha virt. eigenvalues --    0.02364   0.03749   0.05163   0.05308   0.06570
 Alpha virt. eigenvalues --    0.06950   0.07850   0.08776   0.09395   0.11619
 Alpha virt. eigenvalues --    0.11842   0.12677   0.14278   0.14407   0.15335

 Mulliken charges:
               1
     1  Si   5.754785
     2  S    4.178506
     3  O   -2.310551
     4  C   -4.561948
     5  O   -2.310551
     6  H    1.369220
     7  H    1.334349
     8  H    1.369220
     9  H   -1.616138
    10  H   -1.603447
    11  H   -1.603445
 Sum of Mulliken charges =   0.00000

 Dipole moment (field-independent basis, Debye):
    X=             -1.0407    Y=              1.7060    Z=             -0.0000  Tot=              1.9984

 Test job not archived.
 1\1\GINC-SE455\SP\RHF\Aug-CC-pVDZ\C1H6O2S1Si1\OHZDE\08-Apr-2025\0\\#t
 hf aug-cc-pvdz iop(5/13=1,5/36=2,99/5=2) pseudo=read geom=check guess=
 (read,tcheck) scf=(maxcycle=1)\\title\\0,1\Si,0,-1.770577,0.169165,-0.
 000002\S,0,0.447955,-0.198505,0.000001\O,0,0.777642,-0.842999,-1.26638
 7\C,0,1.249845,1.418167,-0.000005\O,0,0.77764,-0.842988,1.266395\H,0,0
 .967976,1.958684,-0.903343\H,0,2.322081,1.212527,-0.000004\H,0,0.96797
 5,1.958691,0.903328\H,0,-2.335898,-1.190933,0.000004\H,0,-2.121332,0.9
 23844,-1.219828\H,0,-2.121333,0.923855,1.219818\\Version=ES64L-G16RevC

 Normal termination of Gaussian 16 at Tue Apr  8 23:58:30 2025.
