 Gaussian 16, Revision C.01,

 ----------------------------------------------------------------------
 #t hf aug-cc-pvdz symm=none int=(grid=ultrafine) guess=(read,tcheck) s
 table=opt
 ----------------------------------------------------------------------
 -----
 title
 -----
 Symbolic Z-matrix:
 Charge =  0 Multiplicity = 2

 SCF Done:  E(UHF) =  -950.594681304     A.U. after   18 cycles
 Normal termination of Gaussian 16 at Tue Apr  8 23:06:26 2025.
 Gaussian 16:  ES64L-G16RevC.01  3-Jul-2019

 ----------------------------------------------------------------------
 #t hf aug-cc-pvdz iop(5/13=1,5/36=2,99/5=2) pseudo=read geom=check gue
 ss=(read,tcheck) scf=(maxcycle=1)
 ----------------------------------------------------------------------
 -----
 title
 -----
 Structure from the checkpoint file:  "BDE49_expt_378_mol2.chk"
 Charge =  0 Multiplicity = 2

                         Standard orientation:
 ---------------------------------------------------------------------
 Center     Atomic      Atomic             Coordinates (Angstroms)
 Number     Number       Type             X           Y           Z
 ---------------------------------------------------------------------
      1         16           0        0.023775   -1.473973   -0.153754
      2          6           0        1.602959   -0.702121    0.359359
      3          6           0        1.640416    0.698029   -0.247224
      4          1           0        2.420433   -1.323463   -0.010602
      5          1           0        1.638826   -0.662920    1.449149
      6         16           0        0.002930    1.488011    0.019067
      7          1           0        1.833821    0.654667   -1.320049
      8          1           0        2.397233    1.322676    0.231041
      9          6           0       -0.905903   -0.020131    0.151710
     10          6           0       -2.394049   -0.009350    0.032679
     11          1           0       -2.740071    0.046356   -1.010322
     12          1           0       -2.816396    0.851855    0.559618
     13          1           0       -2.821655   -0.912349    0.477003
 ---------------------------------------------------------------------

 SCF Done:  E(UHF) =  -951.816555580     A.U. after    2 cycles

 The electronic state is 2-A.
 Alpha  occ. eigenvalues --  -75.68947 -75.68705 -13.13335 -13.12619 -13.11843
 Alpha  occ. eigenvalues --  -13.09487 -13.03012 -13.01848 -11.44321 -11.42077
 Alpha  occ. eigenvalues --  -11.39977 -11.37692  -8.03246  -8.02796  -1.35194
 Alpha  occ. eigenvalues --   -1.15054  -1.11443  -1.01000  -0.86310  -0.77455
 Alpha  occ. eigenvalues --   -0.66240  -0.63353  -0.59771  -0.58243  -0.54481
 Alpha  occ. eigenvalues --   -0.48769  -0.44316  -0.42268  -0.40910  -0.33537
 Alpha  occ. eigenvalues --   -0.23726  -0.16467
 Alpha virt. eigenvalues --    0.03021   0.03490   0.05139   0.05483   0.06722
 Alpha virt. eigenvalues --    0.06973   0.07578   0.08336   0.09915   0.10407
 Alpha virt. eigenvalues --    0.11961   0.13186   0.13610   0.14370   0.15185

  Beta  occ. eigenvalues --  -75.68940 -75.68666 -13.13448 -13.12859 -13.11968
  Beta  occ. eigenvalues --  -13.09673 -13.02540 -13.01351 -11.44294 -11.40718
  Beta  occ. eigenvalues --  -11.39968 -11.36870  -8.03228  -8.02755  -1.33555
  Beta  occ. eigenvalues --   -1.12865  -1.11043  -1.00689  -0.86117  -0.72056
  Beta  occ. eigenvalues --   -0.65971  -0.63096  -0.57827  -0.56011  -0.54293
  Beta  occ. eigenvalues --   -0.46611  -0.41875  -0.41696  -0.33054  -0.30715
  Beta  occ. eigenvalues --   -0.22080
  Beta virt. eigenvalues --    0.03004   0.03416   0.04954   0.05512   0.06666
  Beta virt. eigenvalues --    0.06960   0.07554   0.08437   0.10042   0.10387
  Beta virt. eigenvalues --    0.11204   0.12211   0.13253   0.13788   0.14416

 Mulliken charges and spin densities:
               1          2
     1  S    1.180361  -0.012983
     2  C   -3.617626   0.008447
     3  C   -3.432975  -0.037282
     4  H    1.339178   0.000192
     5  H    1.540104  -0.001250
     6  S    1.175336   0.031025
     7  H    1.507894  -0.007559
     8  H    1.362589  -0.000123
     9  C   -0.695672   1.260414
    10  C   -4.281599  -0.289625
    11  H    1.297067   0.032346
    12  H    1.312642   0.010770
    13  H    1.312699   0.005629
 Sum of Mulliken charges =   0.00000   1.00000

 Dipole moment (field-independent basis, Debye):
    X=              0.3478    Y=             -0.1526    Z=             -0.1835  Tot=              0.4218
                          Isotropic Fermi Contact Couplings
        Atom                 a.u.       MegaHertz       Gauss      10(-4) cm-1
     1  S(33)              0.02251       7.73127       2.75871       2.57888
     2  C(13)              0.00075       0.84092       0.30006       0.28050
     3  C(13)              0.00107       1.20443       0.42977       0.40175
     4  H(1)              -0.00088      -3.93788      -1.40513      -1.31354
     5  H(1)               0.00039       1.73610       0.61948       0.57910
     6  S(33)              0.07329      25.17345       8.98251       8.39696
     7  H(1)               0.00200       8.95685       3.19603       2.98768
     8  H(1)              -0.00057      -2.56550      -0.91543      -0.85576

 Normal termination of Gaussian 16 at Tue Apr  8 23:06:31 2025.
