 Gaussian 16, Revision C.01,

 ----------------------------------------------------------------------
 #t hf aug-cc-pvdz symm=none int=(grid=ultrafine) guess=(read,tcheck) s
 table=(opt,rrhf)
 ----------------------------------------------------------------------
 -----
 title
 -----
 Symbolic Z-matrix:
 Charge =  0 Multiplicity = 1

 SCF Done:  E(RHF) =  -477.653082946     A.U. after   15 cycles
 Normal termination of Gaussian 16 at Tue Apr  8 23:23:08 2025.
 Gaussian 16:  ES64L-G16RevC.01  3-Jul-2019

 ----------------------------------------------------------------------
 #t hf aug-cc-pvdz iop(5/13=1,5/36=2,99/5=2) pseudo=read geom=check gue
 ss=(read,tcheck) scf=(maxcycle=1)
 ----------------------------------------------------------------------
 -----
 title
 -----
 Structure from the checkpoint file:  "BDE49_nonexpt_1182_mol1.chk"
 Charge =  0 Multiplicity = 1

                         Standard orientation:
 ---------------------------------------------------------------------
 Center     Atomic      Atomic             Coordinates (Angstroms)
 Number     Number       Type             X           Y           Z
 ---------------------------------------------------------------------
      1          9           0        0.000142    1.555644    1.217589
      2          7           0       -1.118787   -0.558659   -0.385985
      3          7           0        1.118723   -0.558721   -0.386007
      4          6           0       -0.000015    0.224922   -0.774070
      5          6           0       -0.669292   -1.530609    0.533304
      6          1           0       -1.364619   -2.181236    1.035718
      7          6           0        0.669192   -1.530636    0.533302
      8          1           0        1.364495   -2.181292    1.035711
      9          6           0       -2.436741    0.045581   -0.312791
     10          1           0       -2.520240    0.767707    0.507281
     11          1           0       -3.179365   -0.742602   -0.176130
     12          6           0        2.436710    0.045450   -0.312842
     13          1           0        3.179294   -0.742772   -0.176190
     14          1           0        2.520264    0.767576    0.507223
     15          1           0        2.657773    0.559027   -1.251114
     16          8           0        0.000032    1.616648   -0.244757
     17          1           0       -0.000017    0.553852   -1.829164
     18          1           0       -2.657794    0.559175   -1.251056
 ---------------------------------------------------------------------

 SCF Done:  E(RHF) =  -479.751900031     A.U. after    2 cycles

 The electronic state is 1-A.
 Alpha  occ. eigenvalues --  -29.26411 -21.13077 -15.73558 -15.73529 -11.48956
 Alpha  occ. eigenvalues --  -11.46398 -11.40270 -11.39755 -11.38298  -1.77838
 Alpha  occ. eigenvalues --   -1.53659  -1.35478  -1.12212  -1.06185  -0.97249
 Alpha  occ. eigenvalues --   -0.84619  -0.82224  -0.72849  -0.67940  -0.64580
 Alpha  occ. eigenvalues --   -0.62811  -0.60308  -0.59533  -0.56660  -0.53654
 Alpha  occ. eigenvalues --   -0.53454  -0.51090  -0.49611  -0.45446  -0.43828
 Alpha  occ. eigenvalues --   -0.36794  -0.33043  -0.27233  -0.20768  -0.20332
 Alpha virt. eigenvalues --    0.03793   0.04942   0.05366   0.05458   0.05681
 Alpha virt. eigenvalues --    0.06667   0.07762   0.07857   0.08250   0.10677
 Alpha virt. eigenvalues --    0.11821   0.12059   0.12302   0.13370   0.14077

 Mulliken charges:
               1
     1  F   -0.300996
     2  N   -3.088853
     3  N   -3.088835
     4  C    2.762113
     5  C   -0.001675
     6  H    1.321695
     7  C   -0.001600
     8  H    1.321695
     9  C   -3.698919
    10  H    1.332197
    11  H    1.402097
    12  C   -3.698906
    13  H    1.402098
    14  H    1.332184
    15  H    1.380655
    16  O   -1.716041
    17  H    1.960423
    18  H    1.380667
 Sum of Mulliken charges =   0.00000

 Dipole moment (field-independent basis, Debye):
    X=              0.0000    Y=             -0.5019    Z=              1.2584  Tot=              1.3547

 Test job not archived.
 1\1\GINC-SE074\SP\RHF\Aug-CC-pVDZ\C5H9F1N2O1\OHZDE\08-Apr-2025\0\\#t h
 f aug-cc-pvdz iop(5/13=1,5/36=2,99/5=2) pseudo=read geom=check guess=(
 read,tcheck) scf=(maxcycle=1)\\title\\0,1\F,0,0.000142,1.555644,1.2175
 89\N,0,-1.118787,-0.558659,-0.385985\N,0,1.118723,-0.558721,-0.386007\
 C,0,-0.000015,0.224922,-0.77407\C,0,-0.669292,-1.530609,0.533304\H,0,-
 1.364619,-2.181236,1.035718\C,0,0.669192,-1.530636,0.533302\H,0,1.3644
 95,-2.181292,1.035711\C,0,-2.436741,0.045581,-0.312791\H,0,-2.52024,0.
 767707,0.507281\H,0,-3.179365,-0.742602,-0.17613\C,0,2.43671,0.045449,

 Normal termination of Gaussian 16 at Tue Apr  8 23:23:16 2025.
