 Gaussian 16, Revision C.01,

 ----------------------------------------------------------------------
 #t hf aug-cc-pvdz symm=none int=(grid=ultrafine) guess=(read,tcheck) s
 table=(opt,rrhf)
 ----------------------------------------------------------------------
 -----
 title
 -----
 Symbolic Z-matrix:
 Charge =  0 Multiplicity = 1

 SCF Done:  E(RHF) =  -463.112238903     A.U. after   12 cycles

 1\1\GINC-SE343\Stability\RHF\Aug-CC-pVDZ\C8H18O2\OHZDE\08-Apr-2025\0\\
 #t hf aug-cc-pvdz symm=none int=(grid=ultrafine) guess=(read,tcheck) s
 table=(opt,rrhf)\\title\\0,1\O,0,-0.487895,-0.000655,0.551187\O,0,0.48
 7895,-0.000656,-0.551187\C,0,-1.809075,-0.000017,-0.031953\C,0,-2.0229
 15,1.269605,-0.863538\H,0,-1.847574,2.156526,-0.250001\H,0,-3.047221,1
 .307551,-1.2444\H,0,-1.336579,1.294861,-1.710048\C,0,-2.701561,-0.0003
 29,1.213578\H,0,-2.512728,0.88599,1.823096\H,0,-2.513816,-0.887686,1.8
 21916\H,0,-3.752649,0.00053,0.915219\C,0,-2.0237,-1.268732,-0.864714\H

 Normal termination of Gaussian 16 at Tue Apr  8 22:48:06 2025.
 Gaussian 16:  ES64L-G16RevC.01  3-Jul-2019

 ----------------------------------------------------------------------
 #t hf aug-cc-pvdz iop(5/13=1,5/36=2,99/5=2) pseudo=read geom=check gue
 ss=(read,tcheck) scf=(maxcycle=1)
 ----------------------------------------------------------------------
 -----
 title
 -----
 Structure from the checkpoint file:  "BDE49_expt_1474_mol1.chk"
 Charge =  0 Multiplicity = 1

                         Standard orientation:
 ---------------------------------------------------------------------
 Center     Atomic      Atomic             Coordinates (Angstroms)
 Number     Number       Type             X           Y           Z
 ---------------------------------------------------------------------
      1          8           0       -0.487895   -0.000655    0.551187
      2          8           0        0.487895   -0.000656   -0.551187
      3          6           0       -1.809075   -0.000017   -0.031953
      4          6           0       -2.022915    1.269605   -0.863538
      5          1           0       -1.847574    2.156526   -0.250001
      6          1           0       -3.047221    1.307551   -1.244400
      7          1           0       -1.336579    1.294861   -1.710048
      8          6           0       -2.701561   -0.000329    1.213578
      9          1           0       -2.512728    0.885990    1.823096
     10          1           0       -2.513816   -0.887686    1.821916
     11          1           0       -3.752649    0.000530    0.915219
     12          6           0       -2.023700   -1.268732   -0.864714
     13          1           0       -1.337849   -1.293381   -1.711633
     14          1           0       -3.048235   -1.306005   -1.245035
     15          1           0       -1.848279   -2.156305   -0.252143
     16          6           0        1.809075   -0.000017    0.031953
     17          6           0        2.022915    1.269605    0.863537
     18          1           0        1.847574    2.156526    0.250000
     19          1           0        3.047221    1.307551    1.244400
     20          1           0        1.336579    1.294861    1.710048
     21          6           0        2.023700   -1.268731    0.864714
     22          1           0        1.848279   -2.156305    0.252143
     23          1           0        3.048235   -1.306005    1.245036
     24          1           0        1.337849   -1.293381    1.711633
     25          6           0        2.701561   -0.000329   -1.213578
     26          1           0        2.512728    0.885989   -1.823096
     27          1           0        2.513816   -0.887687   -1.821916
     28          1           0        3.752649    0.000529   -0.915219
 ---------------------------------------------------------------------

 SCF Done:  E(RHF) =  -465.365613534     A.U. after    2 cycles

 The electronic state is 1-A.
 Alpha  occ. eigenvalues --  -21.06643 -21.06446 -11.44593 -11.44562 -11.39234
 Alpha  occ. eigenvalues --  -11.39110 -11.39089 -11.38470 -11.34742 -11.34537
 Alpha  occ. eigenvalues --   -1.92491  -1.49468  -1.19731  -1.16762  -1.01362
 Alpha  occ. eigenvalues --   -1.00901  -1.00736  -1.00246  -0.79474  -0.75883
 Alpha  occ. eigenvalues --   -0.64250  -0.62449  -0.62274  -0.60980  -0.59653
 Alpha  occ. eigenvalues --   -0.59202  -0.55620  -0.54461  -0.54370  -0.53897
 Alpha  occ. eigenvalues --   -0.51145  -0.51006  -0.47770  -0.47384  -0.46401
 Alpha  occ. eigenvalues --   -0.45431  -0.42842  -0.39613  -0.38162  -0.33150
 Alpha  occ. eigenvalues --   -0.23526
 Alpha virt. eigenvalues --    0.04052   0.04407   0.04542   0.04982   0.05029
 Alpha virt. eigenvalues --    0.05395   0.05638   0.06745   0.06902   0.07146
 Alpha virt. eigenvalues --    0.07578   0.07688   0.08669   0.08957   0.09629

 Mulliken charges:
               1
     1  O   -2.785596
     2  O   -2.785596
     3  C    3.759097
     4  C   -4.342793
     5  H    1.333553
     6  H    1.176192
     7  H    1.386518
     8  C   -3.951459
     9  H    1.352080
    10  H    1.352018
    11  H    1.167173
    12  C   -4.343026
    13  H    1.386369
    14  H    1.176152
    15  H    1.333721
    16  C    3.759099
    17  C   -4.342792
    18  H    1.333553
    19  H    1.176192
    20  H    1.386517
    21  C   -4.343023
    22  H    1.333720
    23  H    1.176152
    24  H    1.386369
    25  C   -3.951459
    26  H    1.352081
    27  H    1.352017
    28  H    1.167172
 Sum of Mulliken charges =  -0.00000

 Dipole moment (field-independent basis, Debye):
    X=             -0.0000    Y=              0.0002    Z=              0.0000  Tot=              0.0002

 Test job not archived.
 1\1\GINC-SE343\SP\RHF\Aug-CC-pVDZ\C8H18O2\OHZDE\08-Apr-2025\0\\#t hf a
 ug-cc-pvdz iop(5/13=1,5/36=2,99/5=2) pseudo=read geom=check guess=(rea
 d,tcheck) scf=(maxcycle=1)\\title\\0,1\O,0,-0.487895,-0.000655,0.55118
 7\O,0,0.487895,-0.000656,-0.551187\C,0,-1.809075,-0.000017,-0.031953\C
 ,0,-2.022915,1.269605,-0.863538\H,0,-1.847574,2.156526,-0.250001\H,0,-
 3.047221,1.307551,-1.2444\H,0,-1.336579,1.294861,-1.710048\C,0,-2.7015
 61,-0.000329,1.213578\H,0,-2.512728,0.88599,1.823096\H,0,-2.513816,-0.
 887686,1.821916\H,0,-3.752649,0.00053,0.915219\C,0,-2.0237,-1.268732,-

 Normal termination of Gaussian 16 at Tue Apr  8 22:48:25 2025.
