 Gaussian 16, Revision C.01,

 ----------------------------------------------------------------------
 #t hf aug-cc-pvdz symm=none int=(grid=ultrafine) guess=(read,tcheck) s
 table=(opt,rrhf)
 ----------------------------------------------------------------------
 -----
 title
 -----
 Symbolic Z-matrix:
 Charge =  0 Multiplicity = 1

 SCF Done:  E(RHF) =  -520.208424294     A.U. after   13 cycles
 Normal termination of Gaussian 16 at Tue Apr  8 22:50:54 2025.
 Gaussian 16:  ES64L-G16RevC.01  3-Jul-2019

 ----------------------------------------------------------------------
 #t hf aug-cc-pvdz iop(5/13=1,5/36=2,99/5=2) pseudo=read geom=check gue
 ss=(read,tcheck) scf=(maxcycle=1)
 ----------------------------------------------------------------------
 -----
 title
 -----
 Structure from the checkpoint file:  "BDE49_expt_1439_mol1.chk"
 Charge =  0 Multiplicity = 1

                         Standard orientation:
 ---------------------------------------------------------------------
 Center     Atomic      Atomic             Coordinates (Angstroms)
 Number     Number       Type             X           Y           Z
 ---------------------------------------------------------------------
      1          7           0        0.000082    0.482989   -0.271120
      2          6           0        1.292469   -0.214858    0.022919
      3          6           0        1.247214   -1.582755   -0.692340
      4          6           0       -0.000412   -2.401069   -0.363061
      5          1           0        2.157625   -2.133223   -0.434278
      6          1           0        1.276839   -1.406086   -1.773525
      7          6           0       -1.247757   -1.582328   -0.692342
      8          1           0       -0.000464   -2.699570    0.690125
      9          1           0       -0.000570   -3.329844   -0.942446
     10          6           0       -1.292545   -0.214416    0.022918
     11          1           0       -2.158356   -2.132485   -0.434282
     12          1           0       -1.277320   -1.405649   -1.773527
     13          6           0       -1.619833   -0.377822    1.524807
     14          1           0       -2.670456   -0.659481    1.639682
     15          1           0       -1.462253    0.566453    2.046989
     16          1           0       -1.021296   -1.145772    2.013001
     17          6           0       -2.418764    0.619809   -0.615175
     18          1           0       -2.195283    0.827102   -1.663917
     19          1           0       -2.556777    1.566206   -0.089399
     20          1           0       -3.362062    0.068857   -0.563914
     21          6           0        2.418971    0.618982   -0.615174
     22          1           0        3.362083    0.067713   -0.563905
     23          1           0        2.557302    1.565336   -0.089403
     24          1           0        2.195565    0.826345   -1.663918
     25          6           0        1.619698   -0.378374    1.524809
     26          1           0        1.020900   -1.146119    2.013003
     27          1           0        1.462442    0.565956    2.046989
     28          1           0        2.670226   -0.660392    1.639685
     29          8           0        0.000296    1.731375    0.454160
     30          6           0        0.000500    2.844332   -0.434774
     31          1           0       -0.889399    2.859105   -1.069368
     32          1           0        0.890387    2.858758   -1.069393
     33          1           0        0.000680    3.725863    0.210824
 ---------------------------------------------------------------------

 SCF Done:  E(RHF) =  -522.821281585     A.U. after    2 cycles

 The electronic state is 1-A.
 Alpha  occ. eigenvalues --  -21.04220 -15.72624 -11.46260 -11.44686 -11.43051
 Alpha  occ. eigenvalues --  -11.41499 -11.39505 -11.38896 -11.38668 -11.37857
 Alpha  occ. eigenvalues --  -11.35271 -11.34282  -1.78150  -1.37619  -1.23597
 Alpha  occ. eigenvalues --   -1.16391  -1.06905  -1.00719  -0.99729  -0.98597
 Alpha  occ. eigenvalues --   -0.94788  -0.86023  -0.82215  -0.72577  -0.65490
 Alpha  occ. eigenvalues --   -0.64981  -0.63602  -0.61010  -0.60586  -0.58998
 Alpha  occ. eigenvalues --   -0.57927  -0.56808  -0.55558  -0.54560  -0.53340
 Alpha  occ. eigenvalues --   -0.52263  -0.50849  -0.50549  -0.49012  -0.46251
 Alpha  occ. eigenvalues --   -0.45557  -0.44871  -0.42102  -0.41998  -0.39138
 Alpha  occ. eigenvalues --   -0.36177  -0.28860  -0.28721
 Alpha virt. eigenvalues --    0.04457   0.04636   0.04708   0.04805   0.05084
 Alpha virt. eigenvalues --    0.05285   0.06102   0.06129   0.06840   0.07163
 Alpha virt. eigenvalues --    0.07297   0.07683   0.07732   0.07908   0.08016

 Mulliken charges:
               1
     1  N   -0.258475
     2  C    8.644646
     3  C   -4.873710
     4  C   -2.829715
     5  H    1.309722
     6  H    1.225090
     7  C   -4.873708
     8  H    1.473605
     9  H    1.152645
    10  C    8.644667
    11  H    1.309724
    12  H    1.225089
    13  C   -5.476886
    14  H    1.004508
    15  H    1.108842
    16  H    1.371617
    17  C   -6.238077
    18  H    1.247081
    19  H    1.212179
    20  H    1.056251
    21  C   -6.238093
    22  H    1.056249
    23  H    1.212191
    24  H    1.247085
    25  C   -5.476874
    26  H    1.371621
    27  H    1.108846
    28  H    1.004506
    29  O   -4.235762
    30  C   -2.967250
    31  H    1.546856
    32  H    1.546873
    33  H    1.388658
 Sum of Mulliken charges =   0.00000

 Dipole moment (field-independent basis, Debye):
    X=             -0.0001    Y=             -0.4027    Z=              0.0812  Tot=              0.4108

 Test job not archived.
 1\1\GINC-SE338\SP\RHF\Aug-CC-pVDZ\C10H21N1O1\OHZDE\08-Apr-2025\0\\#t h
 f aug-cc-pvdz iop(5/13=1,5/36=2,99/5=2) pseudo=read geom=check guess=(
 read,tcheck) scf=(maxcycle=1)\\title\\0,1\N,0,0.000086,0.482989,-0.271
 12\C,0,1.292467,-0.21487,0.022919\C,0,1.247199,-1.582766,-0.69234\C,0,
 -0.000434,-2.401069,-0.363061\H,0,2.157605,-2.133243,-0.434278\H,0,1.2
 76826,-1.406098,-1.773525\C,0,-1.247772,-1.582316,-0.692342\H,0,-0.000
 489,-2.69957,0.690125\H,0,-0.000601,-3.329844,-0.942446\C,0,-1.292547,
 -0.214404,0.022918\H,0,-2.158376,-2.132465,-0.434282\H,0,-1.277333,-1.

 Normal termination of Gaussian 16 at Tue Apr  8 22:51:26 2025.
