 Gaussian 16, Revision C.01,

 ----------------------------------------------------------------------
 #t hf aug-cc-pvdz symm=none int=(grid=ultrafine) guess=(read,tcheck) s
 table=opt
 ----------------------------------------------------------------------
 -----
 title
 -----
 Symbolic Z-matrix:
 Charge =  0 Multiplicity = 2

 SCF Done:  E(UHF) =  -292.507437124     A.U. after   21 cycles
 Normal termination of Gaussian 16 at Wed Apr  9 00:32:50 2025.
 Gaussian 16:  ES64L-G16RevC.01  3-Jul-2019

 ----------------------------------------------------------------------
 #t hf aug-cc-pvdz iop(5/13=1,5/36=2,99/5=2) pseudo=read geom=check gue
 ss=(read,tcheck) scf=(maxcycle=1)
 ----------------------------------------------------------------------
 -----
 title
 -----
 Structure from the checkpoint file:  "BDE49_nonexpt_389_mol2.chk"
 Charge =  0 Multiplicity = 2

                         Standard orientation:
 ---------------------------------------------------------------------
 Center     Atomic      Atomic             Coordinates (Angstroms)
 Number     Number       Type             X           Y           Z
 ---------------------------------------------------------------------
      1          9           0       -2.009249   -0.183591   -0.223582
      2          5           0       -0.946733   -0.296800    0.529461
      3          6           0        0.516117    0.102160    0.073453
      4          8           0        0.678558    1.313926   -0.019946
      5          7           0        1.500773   -0.814551   -0.100542
      6          1           0        1.346395   -1.793731    0.074504
      7          1           0        2.439934   -0.492458   -0.286922
 ---------------------------------------------------------------------

 SCF Done:  E(UHF) =  -293.642814661     A.U. after    2 cycles

 The electronic state is 2-A.
 Alpha  occ. eigenvalues --  -29.28179 -21.04566 -15.79916 -11.47400  -7.70877
 Alpha  occ. eigenvalues --   -1.71858  -1.35985  -1.04645  -0.83839  -0.73692
 Alpha  occ. eigenvalues --   -0.64814  -0.56960  -0.51280  -0.49195  -0.44848
 Alpha  occ. eigenvalues --   -0.40440  -0.34496  -0.32060  -0.21798
 Alpha virt. eigenvalues --    0.02571   0.04279   0.04656   0.06333   0.07533
 Alpha virt. eigenvalues --    0.08880   0.12434   0.14632   0.15454   0.16149
 Alpha virt. eigenvalues --    0.16738   0.17538   0.18831   0.20051   0.20639

  Beta  occ. eigenvalues --  -29.27882 -21.04360 -15.79910 -11.47125  -7.69005
  Beta  occ. eigenvalues --   -1.71396  -1.35821  -1.00941  -0.82904  -0.73429
  Beta  occ. eigenvalues --   -0.64044  -0.54758  -0.50772  -0.44266  -0.42545
  Beta  occ. eigenvalues --   -0.39263  -0.33557  -0.29333
  Beta virt. eigenvalues --    0.02506   0.04048   0.04478   0.06044   0.07563
  Beta virt. eigenvalues --    0.08130   0.11497   0.13430   0.15408   0.15557
  Beta virt. eigenvalues --    0.16929   0.17430   0.17677   0.19014   0.20694

 Mulliken charges and spin densities:
               1          2
     1  F   -0.367895  -0.083310
     2  B    1.020473   1.012334
     3  C    3.275492  -0.075300
     4  O   -2.674182   0.099880
     5  N   -2.706987   0.042137
     6  H    0.784415   0.006027
     7  H    0.668684  -0.001768
 Sum of Mulliken charges =   0.00000   1.00000

 Dipole moment (field-independent basis, Debye):
    X=             -1.5705    Y=             -1.7828    Z=             -2.1723  Tot=              3.2193
                          Isotropic Fermi Contact Couplings
        Atom                 a.u.       MegaHertz       Gauss      10(-4) cm-1
     1  F(19)              0.04967     208.98661      74.57162      69.71043
     2  B(11)              0.18394     263.83390      94.14250      88.00552
     3  C(13)              0.06303      70.85512      25.28287      23.63472
     4  O(17)              0.01201      -7.28135      -2.59817      -2.42880
     5  N(14)              0.00019       0.06136       0.02189       0.02047
     6  H(1)              -0.00014      -0.64317      -0.22950      -0.21454
     7  H(1)               0.00046       2.03970       0.72781       0.68037
 --------------------------------------------------------

 Normal termination of Gaussian 16 at Wed Apr  9 00:32:54 2025.
