 Gaussian 16, Revision C.01,

 ----------------------------------------------------------------------
 #t hf aug-cc-pvdz symm=none int=(grid=ultrafine) guess=(read,tcheck) s
 table=(opt,rrhf)
 ----------------------------------------------------------------------
 -----
 title
 -----
 Symbolic Z-matrix:
 Charge =  0 Multiplicity = 1

 SCF Done:  E(RHF) =  -561.356122984     A.U. after   12 cycles
 Normal termination of Gaussian 16 at Wed Apr  9 00:07:28 2025.
 Gaussian 16:  ES64L-G16RevC.01  3-Jul-2019

 ----------------------------------------------------------------------
 #t hf aug-cc-pvdz iop(5/13=1,5/36=2,99/5=2) pseudo=read geom=check gue
 ss=(read,tcheck) scf=(maxcycle=1)
 ----------------------------------------------------------------------
 -----
 title
 -----
 Structure from the checkpoint file:  "BDE49_nonexpt_2231_mol1.chk"
 Charge =  0 Multiplicity = 1

                         Standard orientation:
 ---------------------------------------------------------------------
 Center     Atomic      Atomic             Coordinates (Angstroms)
 Number     Number       Type             X           Y           Z
 ---------------------------------------------------------------------
      1          8           0       -0.302313   -0.346377   -0.176191
      2         14           0        1.172301   -0.991713    0.201296
      3          6           0        2.487442    0.165540   -0.456705
      4          6           0       -1.565278   -0.922246    0.160615
      5          6           0       -2.688030   -0.055395   -0.394661
      6          6           0       -2.716942    1.356198    0.194855
      7          1           0       -3.637133   -0.567583   -0.196627
      8          1           0       -2.576695   -0.004898   -1.482953
      9          1           0       -2.868147    1.328365    1.278847
     10          1           0       -3.526640    1.948206   -0.239578
     11          1           0       -1.775571    1.873343    0.000573
     12          6           0        2.461592    1.582488    0.143549
     13          1           0        2.381402    0.212699   -1.546658
     14          1           0        3.459488   -0.309011   -0.270048
     15          1           0        1.508577    2.077495   -0.057174
     16          1           0        3.256166    2.207490   -0.274099
     17          1           0        2.597920    1.558653    1.228731
     18          1           0       -1.655894   -1.002634    1.253319
     19          1           0       -1.634097   -1.935848   -0.255923
     20          1           0        1.309263   -2.341680   -0.409716
     21          1           0        1.294948   -1.149106    1.676767
 ---------------------------------------------------------------------

 SCF Done:  E(RHF) =  -562.859571438     A.U. after    2 cycles

 The electronic state is 1-A.
 Alpha  occ. eigenvalues --  -76.21495 -21.03109 -11.43802 -11.38990 -11.38940
 Alpha  occ. eigenvalues --  -11.34905 -11.34216  -5.55421  -2.22473  -2.18746
 Alpha  occ. eigenvalues --   -2.17055  -1.69000  -1.17909  -1.14285  -0.97571
 Alpha  occ. eigenvalues --   -0.88974  -0.83198  -0.72090  -0.64107  -0.61826
 Alpha  occ. eigenvalues --   -0.60330  -0.57149  -0.56970  -0.52620  -0.50228
 Alpha  occ. eigenvalues --   -0.48702  -0.48255  -0.47204  -0.46113  -0.45503
 Alpha  occ. eigenvalues --   -0.38490  -0.35192  -0.33868
 Alpha virt. eigenvalues --    0.04047   0.04920   0.05387   0.05480   0.05699
 Alpha virt. eigenvalues --    0.05973   0.06145   0.06361   0.06498   0.07666
 Alpha virt. eigenvalues --    0.08020   0.08212   0.09225   0.10369   0.10675

 Mulliken charges:
               1
     1  O   -3.772174
     2  Si   6.911138
     3  C   -4.267482
     4  C   -0.880358
     5  C   -3.490861
     6  C   -3.765165
     7  H    1.353450
     8  H    1.459665
     9  H    1.291128
    10  H    1.113116
    11  H    1.617256
    12  C   -3.609250
    13  H    1.522706
    14  H    1.369449
    15  H    1.477399
    16  H    1.123856
    17  H    1.337887
    18  H    1.746450
    19  H    1.512895
    20  H   -2.044847
    21  H   -2.006258
 Sum of Mulliken charges =   0.00000

 Dipole moment (field-independent basis, Debye):
    X=             -0.3333    Y=              0.6234    Z=             -0.4731  Tot=              0.8506

 Test job not archived.
 1\1\GINC-SE423\SP\RHF\Aug-CC-pVDZ\C5H14O1Si1\OHZDE\09-Apr-2025\0\\#t h
 f aug-cc-pvdz iop(5/13=1,5/36=2,99/5=2) pseudo=read geom=check guess=(
 read,tcheck) scf=(maxcycle=1)\\title\\0,1\O,0,-0.302313,-0.346377,-0.1
 76191\Si,0,1.172301,-0.991713,0.201296\C,0,2.487442,0.16554,-0.456705\
 C,0,-1.565278,-0.922246,0.160615\C,0,-2.68803,-0.055395,-0.394661\C,0,
 -2.716942,1.356198,0.194855\H,0,-3.637133,-0.567583,-0.196627\H,0,-2.5
 76695,-0.004898,-1.482953\H,0,-2.868147,1.328365,1.278847\H,0,-3.52664
 ,1.948206,-0.239578\H,0,-1.775571,1.873343,0.000573\C,0,2.461592,1.582

 Normal termination of Gaussian 16 at Wed Apr  9 00:07:37 2025.
