 Gaussian 16, Revision C.01,

 ----------------------------------------------------------------------
 #t hf aug-cc-pvdz symm=none int=(grid=ultrafine) guess=(read,tcheck) s
 table=(opt,rrhf)
 ----------------------------------------------------------------------
 -----
 title
 -----
 Symbolic Z-matrix:
 Charge =  0 Multiplicity = 1

 SCF Done:  E(RHF) =  -424.364615814     A.U. after   11 cycles
 Normal termination of Gaussian 16 at Tue Apr  8 23:57:29 2025.
 Gaussian 16:  ES64L-G16RevC.01  3-Jul-2019

 ----------------------------------------------------------------------
 #t hf aug-cc-pvdz iop(5/13=1,5/36=2,99/5=2) pseudo=read geom=check gue
 ss=(read,tcheck) scf=(maxcycle=1)
 ----------------------------------------------------------------------
 -----
 title
 -----
 Structure from the checkpoint file:  "BDE49_nonexpt_2012_mol1.chk"
 Charge =  0 Multiplicity = 1

                         Standard orientation:
 ---------------------------------------------------------------------
 Center     Atomic      Atomic             Coordinates (Angstroms)
 Number     Number       Type             X           Y           Z
 ---------------------------------------------------------------------
      1          7           0       -0.147668    0.367350   -0.000000
      2         14           0        0.020773   -1.349636    0.000000
      3          6           0        0.020773    1.147203    1.217761
      4          1           0        1.036815    1.559921    1.322609
      5          1           0       -0.184391    0.531787    2.096939
      6          1           0       -0.681667    1.990827    1.231603
      7          6           0        0.020773    1.147203   -1.217761
      8          1           0       -0.184391    0.531787   -2.096939
      9          1           0        1.036815    1.559921   -1.322609
     10          1           0       -0.681667    1.990827   -1.231603
     11          1           0       -0.634944   -1.872300    1.221457
     12          1           0        1.421961   -1.863458    0.000000
     13          1           0       -0.634944   -1.872300   -1.221457
 ---------------------------------------------------------------------

 SCF Done:  E(RHF) =  -425.212801979     A.U. after    2 cycles

 The electronic state is 1-A'.
 Alpha  occ. eigenvalues --  -76.21579 -15.69566 -11.39045 -11.38293  -5.55259
 Alpha  occ. eigenvalues --   -2.20681  -2.17534  -2.16778  -1.37010  -1.03308
 Alpha  occ. eigenvalues --   -0.90712  -0.74142  -0.62623  -0.60890  -0.59634
 Alpha  occ. eigenvalues --   -0.54041  -0.49705  -0.46896  -0.46589  -0.44431
 Alpha  occ. eigenvalues --   -0.32280
 Alpha virt. eigenvalues --    0.03569   0.05267   0.05527   0.06014   0.06714
 Alpha virt. eigenvalues --    0.07101   0.07164   0.07251   0.08458   0.09226
 Alpha virt. eigenvalues --    0.10642   0.10782   0.13297   0.13833   0.14845

 Mulliken charges:
               1
     1  N   -2.627731
     2  Si   5.809807
     3  C   -3.255052
     4  H    1.381087
     5  H    1.415596
     6  H    1.427678
     7  C   -3.255052
     8  H    1.415596
     9  H    1.381087
    10  H    1.427678
    11  H   -1.625490
    12  H   -1.869714
    13  H   -1.625490
 Sum of Mulliken charges =  -0.00000

 Dipole moment (field-independent basis, Debye):
    X=              0.0346    Y=              1.1323    Z=             -0.0000  Tot=              1.1329

 Test job not archived.
 1\1\GINC-SE097\SP\RHF\Aug-CC-pVDZ\C2H9N1Si1\OHZDE\08-Apr-2025\0\\#t hf
  aug-cc-pvdz iop(5/13=1,5/36=2,99/5=2) pseudo=read geom=check guess=(r
 ead,tcheck) scf=(maxcycle=1)\\title\\0,1\N,0,-0.147668,0.36735,0.\Si,0
 ,0.020773,-1.349636,0.\C,0,0.020773,1.147203,1.217761\H,0,1.036815,1.5
 59921,1.322609\H,0,-0.184391,0.531787,2.096939\H,0,-0.681667,1.990827,
 1.231603\C,0,0.020773,1.147203,-1.217761\H,0,-0.184391,0.531787,-2.096
 939\H,0,1.036815,1.559921,-1.322609\H,0,-0.681667,1.990827,-1.231603\H
 ,0,-0.634944,-1.8723,1.221457\H,0,1.421961,-1.863458,0.\H,0,-0.634944,

 Normal termination of Gaussian 16 at Tue Apr  8 23:57:31 2025.
