 Gaussian 16, Revision C.01,

 ----------------------------------------------------------------------
 #t hf aug-cc-pvdz symm=none int=(grid=ultrafine) guess=(read,tcheck) s
 table=(opt,rrhf)
 ----------------------------------------------------------------------
 -----
 title
 -----
 Symbolic Z-matrix:
 Charge =  0 Multiplicity = 1

 SCF Done:  E(RHF) =  -450.729228905     A.U. after   12 cycles
 Normal termination of Gaussian 16 at Tue Apr  8 22:52:36 2025.
 Gaussian 16:  ES64L-G16RevC.01  3-Jul-2019

 ----------------------------------------------------------------------
 #t hf aug-cc-pvdz iop(5/13=1,5/36=2,99/5=2) pseudo=read geom=check gue
 ss=(read,tcheck) scf=(maxcycle=1)
 ----------------------------------------------------------------------
 -----
 title
 -----
 Structure from the checkpoint file:  "BDE49_expt_174_mol1.chk"
 Charge =  0 Multiplicity = 1

                         Standard orientation:
 ---------------------------------------------------------------------
 Center     Atomic      Atomic             Coordinates (Angstroms)
 Number     Number       Type             X           Y           Z
 ---------------------------------------------------------------------
      1          6           0       -1.956596    0.022867   -0.000004
      2          8           0       -0.723026    0.767826   -0.000005
      3          1           0       -2.743913    0.771886   -0.000013
      4          1           0       -2.027442   -0.595589    0.896261
      5          1           0       -2.027434   -0.595604   -0.896259
      6          6           0        0.398600    0.037078    0.000001
      7          9           0        1.442241    0.864083    0.000000
      8          9           0        0.497270   -0.769988   -1.083312
      9          9           0        0.497264   -0.769981    1.083319
 ---------------------------------------------------------------------

 SCF Done:  E(RHF) =  -452.400854407     A.U. after    2 cycles

 The electronic state is 1-A.
 Alpha  occ. eigenvalues --  -29.31496 -29.31073 -29.31025 -21.10584 -11.61104
 Alpha  occ. eigenvalues --  -11.43952  -1.87454  -1.33296  -1.03430  -0.91365
 Alpha  occ. eigenvalues --   -0.91353  -0.73063  -0.63892  -0.61208  -0.49669
 Alpha  occ. eigenvalues --   -0.47276  -0.45613  -0.43556  -0.40309  -0.36189
 Alpha  occ. eigenvalues --   -0.32886  -0.31566  -0.25914  -0.24629  -0.21673
 Alpha virt. eigenvalues --    0.03690   0.05889   0.06127   0.10392   0.11370
 Alpha virt. eigenvalues --    0.12563   0.12926   0.14277   0.15058   0.16409
 Alpha virt. eigenvalues --    0.19901   0.21390   0.23933   0.24188   0.25054

 Mulliken charges:
               1
     1  C   -3.056131
     2  O   -2.996602
     3  H    1.273347
     4  H    1.229910
     5  H    1.229911
     6  C    0.588651
     7  F    0.715064
     8  F    0.507924
     9  F    0.507925
 Sum of Mulliken charges =   0.00000

 Dipole moment (field-independent basis, Debye):
    X=              0.7596    Y=             -1.2405    Z=              0.0000  Tot=              1.4546

 Test job not archived.
 1\1\GINC-SE340\SP\RHF\Aug-CC-pVDZ\C2H3F3O1\OHZDE\08-Apr-2025\0\\#t hf
 aug-cc-pvdz iop(5/13=1,5/36=2,99/5=2) pseudo=read geom=check guess=(re
 ad,tcheck) scf=(maxcycle=1)\\title\\0,1\C,0,-1.956596,0.022867,-0.0000
 04\O,0,-0.723026,0.767826,-0.000005\H,0,-2.743913,0.771887,-0.000013\H
 ,0,-2.027442,-0.595588,0.896261\H,0,-2.027434,-0.595603,-0.896259\C,0,
 0.3986,0.037078,0.000001\F,0,1.442241,0.864082,0.\F,0,0.49727,-0.76998
 8,-1.083312\F,0,0.497264,-0.769981,1.083319\\Version=ES64L-G16RevC.01\
 State=1-A\HF=-452.4008544\RMSD=4.557e-02\Dipole=0.2988601,-0.4880365,0

 Normal termination of Gaussian 16 at Tue Apr  8 22:52:38 2025.
