 Gaussian 16, Revision C.01,

 ----------------------------------------------------------------------
 #t hf aug-cc-pvdz symm=none int=(grid=ultrafine) guess=(read,tcheck) s
 table=(opt,rrhf)
 ----------------------------------------------------------------------
 -----
 title
 -----
 Symbolic Z-matrix:
 Charge =  0 Multiplicity = 1

 SCF Done:  E(RHF) =  -209.142761648     A.U. after   12 cycles
 Normal termination of Gaussian 16 at Tue Apr  8 22:36:25 2025.
 Gaussian 16:  ES64L-G16RevC.01  3-Jul-2019

 ----------------------------------------------------------------------
 #t hf aug-cc-pvdz iop(5/13=1,5/36=2,99/5=2) pseudo=read geom=check gue
 ss=(read,tcheck) scf=(maxcycle=1)
 ----------------------------------------------------------------------
 -----
 title
 -----
 Structure from the checkpoint file:  "BDE49_expt_1072_mol1.chk"
 Charge =  0 Multiplicity = 1

                         Standard orientation:
 ---------------------------------------------------------------------
 Center     Atomic      Atomic             Coordinates (Angstroms)
 Number     Number       Type             X           Y           Z
 ---------------------------------------------------------------------
      1          6           0        0.634042    0.659787   -0.267345
      2          6           0       -0.795632    0.558465    0.263986
      3          7           0        1.357887   -0.561912    0.120454
      4          8           0       -1.401360   -0.644947   -0.167655
      5          1           0       -0.693266   -1.303333   -0.099254
      6          1           0        1.105135    1.591764    0.079315
      7          1           0        0.597103    0.689507   -1.359815
      8          1           0        1.664127   -0.508977    1.087152
      9          1           0        2.184454   -0.698604   -0.449418
     10          1           0       -1.401185    1.390419   -0.105252
     11          1           0       -0.781156    0.622670    1.365486
 ---------------------------------------------------------------------

 SCF Done:  E(RHF) =  -210.118989498     A.U. after    2 cycles

 The electronic state is 1-A.
 Alpha  occ. eigenvalues --  -21.04674 -15.74160 -11.43329 -11.37768  -1.69539
 Alpha  occ. eigenvalues --   -1.33295  -1.04475  -0.85833  -0.68922  -0.64636
 Alpha  occ. eigenvalues --   -0.60732  -0.56053  -0.50245  -0.49512  -0.39178
 Alpha  occ. eigenvalues --   -0.37077  -0.30182
 Alpha virt. eigenvalues --    0.03760   0.05183   0.05503   0.05907   0.06417
 Alpha virt. eigenvalues --    0.06941   0.07731   0.11799   0.12234   0.14183
 Alpha virt. eigenvalues --    0.14890   0.16159   0.17658   0.18868   0.19126

 Mulliken charges:
               1
     1  C   -2.255496
     2  C   -0.621665
     3  N   -2.045948
     4  O   -2.571282
     5  H    0.890389
     6  H    1.379472
     7  H    1.383568
     8  H    0.608371
     9  H    0.596683
    10  H    1.313587
    11  H    1.322320
 Sum of Mulliken charges =   0.00000

 Dipole moment (field-independent basis, Debye):
    X=              1.8715    Y=              0.7713    Z=              0.2731  Tot=              2.0426

 Test job not archived.
 1\1\GINC-SE045\SP\RHF\Aug-CC-pVDZ\C2H7N1O1\OHZDE\08-Apr-2025\0\\#t hf
 aug-cc-pvdz iop(5/13=1,5/36=2,99/5=2) pseudo=read geom=check guess=(re
 ad,tcheck) scf=(maxcycle=1)\\title\\0,1\C,0,0.634042,0.659787,-0.26734
 5\C,0,-0.795632,0.558465,0.263986\N,0,1.357887,-0.561912,0.120454\O,0,
 -1.40136,-0.644947,-0.167655\H,0,-0.693266,-1.303333,-0.099254\H,0,1.1
 05135,1.591764,0.079315\H,0,0.597103,0.689507,-1.359815\H,0,1.664127,-
 0.508977,1.087152\H,0,2.184454,-0.698604,-0.449418\H,0,-1.401185,1.390
 419,-0.105252\H,0,-0.781156,0.62267,1.365486\\Version=ES64L-G16RevC.01

 Normal termination of Gaussian 16 at Tue Apr  8 22:36:29 2025.
