 Gaussian 16, Revision C.01,

 ----------------------------------------------------------------------
 #t hf aug-cc-pvdz symm=none int=(grid=ultrafine) guess=(read,tcheck) s
 table=opt
 ----------------------------------------------------------------------
 -----
 title
 -----
 Symbolic Z-matrix:
 Charge =  0 Multiplicity = 2

 SCF Done:  E(UHF) =  -364.329368857     A.U. after   19 cycles

 1\1\GINC-SE402\Stability\UHF\Aug-CC-pVDZ\H1O1Si1\OHZDE\08-Apr-2025\0\\
 #t hf aug-cc-pvdz symm=none int=(grid=ultrafine) guess=(read,tcheck) s
 table=opt\\title\\0,2\Si,0,0.058933,-0.501463,0.\O,0,0.058933,1.028698
 ,0.\H,0,-1.296519,-1.20911,0.\\Version=ES64L-G16RevC.01\HF=-364.329368
 9\S2=0.775565\S2-1=0.\S2A=0.750381\RMSD=8.724e-09\Dipole=-0.079127,-1.
 6177037,0.\Quadrupole=0.1137842,-1.9407489,1.8269647,-0.1380063,0.,0.\
 PG=Unknown\\@
 The archive entry for this job was punched.

 Normal termination of Gaussian 16 at Tue Apr  8 23:56:17 2025.
 Gaussian 16:  ES64L-G16RevC.01  3-Jul-2019

 ----------------------------------------------------------------------
 #t hf aug-cc-pvdz iop(5/13=1,5/36=2,99/5=2) pseudo=read geom=check gue
 ss=(read,tcheck) scf=(maxcycle=1)
 ----------------------------------------------------------------------
 -----
 title
 -----
 Structure from the checkpoint file:  "BDE49_nonexpt_1993_mol2.chk"
 Charge =  0 Multiplicity = 2

                         Standard orientation:
 ---------------------------------------------------------------------
 Center     Atomic      Atomic             Coordinates (Angstroms)
 Number     Number       Type             X           Y           Z
 ---------------------------------------------------------------------
      1         14           0        0.058933   -0.501463    0.000000
      2          8           0        0.058933    1.028698    0.000000
      3          1           0       -1.296519   -1.209110    0.000000
 ---------------------------------------------------------------------

 SCF Done:  E(UHF) =  -364.759911656     A.U. after    2 cycles

 The electronic state is 2-A'.
 Alpha  occ. eigenvalues --  -76.28038 -21.04956  -5.62301  -2.29692  -2.21699
 Alpha  occ. eigenvalues --   -2.19402  -1.54607  -0.70074  -0.46634  -0.37131
 Alpha  occ. eigenvalues --   -0.36878  -0.30933
 Alpha virt. eigenvalues --    0.02985   0.04430   0.06381   0.06822   0.10194
 Alpha virt. eigenvalues --    0.11070   0.16012   0.17498   0.18043   0.23868
 Alpha virt. eigenvalues --    0.27304   0.27743   0.27791   0.30141   0.30753

  Beta  occ. eigenvalues --  -76.27677 -21.03845  -5.61688  -2.29068  -2.19920
  Beta  occ. eigenvalues --   -2.18853  -1.51607  -0.63589  -0.38186  -0.36427
  Beta  occ. eigenvalues --   -0.34555
  Beta virt. eigenvalues --    0.00865   0.03965   0.04986   0.06618   0.07527
  Beta virt. eigenvalues --    0.11415   0.13210   0.17668   0.19151   0.19273
  Beta virt. eigenvalues --    0.24149   0.27377   0.28031   0.29918   0.30512

 Mulliken charges and spin densities:
               1          2
     1  Si   3.044735   0.500900
     2  O   -1.857058   0.251449
     3  H   -1.187677   0.247651
 Sum of Mulliken charges =  -0.00000   1.00000

 Dipole moment (field-independent basis, Debye):
    X=              0.2461    Y=             -2.4050    Z=              0.0000  Tot=              2.4176
                          Isotropic Fermi Contact Couplings
        Atom                 a.u.       MegaHertz       Gauss      10(-4) cm-1
     1  Si(29)             0.41649    -370.14998    -132.07872    -123.46874
     2  O(17)              0.06501     -39.41138     -14.06296     -13.14622
     3  H(1)               0.07157     319.90646     114.15058     106.70931
 --------------------------------------------------------
       Center         ----  Spin Dipole Couplings  ----
                      3XX-RR        3YY-RR        3ZZ-RR
 --------------------------------------------------------
     1   Atom        0.271890      0.353507     -0.625398

 Normal termination of Gaussian 16 at Tue Apr  8 23:56:18 2025.
