 Gaussian 16, Revision C.01,

 ----------------------------------------------------------------------
 #t hf aug-cc-pvdz symm=none int=(grid=ultrafine) guess=(read,tcheck) s
 table=opt
 ----------------------------------------------------------------------
 -----
 title
 -----
 Symbolic Z-matrix:
 Charge =  0 Multiplicity = 2

 SCF Done:  E(UHF) =  -648.155513873     A.U. after   23 cycles
 Normal termination of Gaussian 16 at Tue Apr  8 23:10:47 2025.
 Gaussian 16:  ES64L-G16RevC.01  3-Jul-2019

 ----------------------------------------------------------------------
 #t hf aug-cc-pvdz iop(5/13=1,5/36=2,99/5=2) pseudo=read geom=check gue
 ss=(read,tcheck) scf=(maxcycle=1)
 ----------------------------------------------------------------------
 -----
 title
 -----
 Structure from the checkpoint file:  "BDE49_expt_621_mol2.chk"
 Charge =  0 Multiplicity = 2

                         Standard orientation:
 ---------------------------------------------------------------------
 Center     Atomic      Atomic             Coordinates (Angstroms)
 Number     Number       Type             X           Y           Z
 ---------------------------------------------------------------------
      1          6           0        0.020000    0.774972    0.260646
      2          8           0        1.165209    0.312018   -0.457817
      3          8           0        1.803397   -0.640222    0.201495
      4          1           0        0.235209    0.761580    1.325075
      5          1           0       -0.194675    1.764314   -0.133227
      6         17           0       -1.406434   -0.267653   -0.041479
 ---------------------------------------------------------------------

 SCF Done:  E(UHF) =  -649.145763736     A.U. after    2 cycles

 The electronic state is 2-A.
 Alpha  occ. eigenvalues --  -99.90087 -21.17406 -21.15894 -11.49261 -10.47424
 Alpha  occ. eigenvalues --   -9.67235  -9.66483  -9.66469  -2.07414  -1.43154
 Alpha  occ. eigenvalues --   -1.30964  -0.97771  -0.72608  -0.68872  -0.63350
 Alpha  occ. eigenvalues --   -0.57550  -0.52633  -0.51047  -0.47772  -0.36246
 Alpha  occ. eigenvalues --   -0.33017
 Alpha virt. eigenvalues --    0.03248   0.05577   0.06701   0.10428   0.11051
 Alpha virt. eigenvalues --    0.13399   0.14202   0.14994   0.15453   0.18026
 Alpha virt. eigenvalues --    0.19507   0.20762   0.23167   0.23792   0.25129

  Beta  occ. eigenvalues --  -99.90076 -21.15289 -21.13487 -11.49322 -10.47413
  Beta  occ. eigenvalues --   -9.67185  -9.66480  -9.66459  -2.02257  -1.37470
  Beta  occ. eigenvalues --   -1.27751  -0.96952  -0.72385  -0.66773  -0.62402
  Beta  occ. eigenvalues --   -0.52225  -0.50786  -0.46842  -0.44047  -0.33904
  Beta virt. eigenvalues --    0.03286   0.05541   0.06209   0.09769   0.10724
  Beta virt. eigenvalues --    0.12075   0.13935   0.14373   0.15094   0.16555
  Beta virt. eigenvalues --    0.18076   0.19790   0.21114   0.23827   0.24108

 Mulliken charges and spin densities:
               1          2
     1  C   -2.076789  -0.016874
     2  O   -0.960173   0.094365
     3  O   -0.232415   0.913708
     4  H    1.739475  -0.009181
     5  H    1.471412  -0.000046
     6  Cl   0.058490   0.018028
 Sum of Mulliken charges =  -0.00000   1.00000

 Dipole moment (field-independent basis, Debye):
    X=              1.0903    Y=              1.3885    Z=              0.6037  Tot=              1.8657
                          Isotropic Fermi Contact Couplings
        Atom                 a.u.       MegaHertz       Gauss      10(-4) cm-1
     1  C(13)             -0.00880      -9.88876      -3.52856      -3.29854
     2  O(17)              0.05532     -33.53489     -11.96608     -11.18604
     3  O(17)              0.19652    -119.12904     -42.50820     -39.73717
     4  H(1)               0.00035       1.57359       0.56150       0.52489
     5  H(1)              -0.00043      -1.90699      -0.68046      -0.63610
     6  Cl(35)             0.01427       6.25766       2.23289       2.08733
 --------------------------------------------------------
       Center         ----  Spin Dipole Couplings  ----

 Normal termination of Gaussian 16 at Tue Apr  8 23:10:49 2025.
