 Gaussian 16, Revision C.01,

 ----------------------------------------------------------------------
 #t hf aug-cc-pvdz symm=none int=(grid=ultrafine) guess=(read,tcheck) s
 table=(opt,rrhf)
 ----------------------------------------------------------------------
 -----
 title
 -----
 Symbolic Z-matrix:
 Charge =  0 Multiplicity = 1

 SCF Done:  E(RHF) =  -623.355535476     A.U. after   14 cycles
 Normal termination of Gaussian 16 at Wed Apr  9 00:30:44 2025.
 Gaussian 16:  ES64L-G16RevC.01  3-Jul-2019

 ----------------------------------------------------------------------
 #t hf aug-cc-pvdz iop(5/13=1,5/36=2,99/5=2) pseudo=read geom=check gue
 ss=(read,tcheck) scf=(maxcycle=1)
 ----------------------------------------------------------------------
 -----
 title
 -----
 Structure from the checkpoint file:  "BDE49_nonexpt_34_mol1.chk"
 Charge =  0 Multiplicity = 1

                         Standard orientation:
 ---------------------------------------------------------------------
 Center     Atomic      Atomic             Coordinates (Angstroms)
 Number     Number       Type             X           Y           Z
 ---------------------------------------------------------------------
      1          5           0        0.061121    0.416260    0.171824
      2          5           0       -0.317464    1.979276   -0.152747
      3          6           0       -1.225001   -0.378668    0.089356
      4          8           0       -2.210258   -0.909445   -0.093841
      5         17           0        1.602615   -0.511717   -0.040001
      6          1           0       -1.439877    2.364094   -0.041998
      7          1           0        0.569928    2.748011   -0.344218
      8          1           0       -0.060721    1.156971    1.185440
 ---------------------------------------------------------------------

 SCF Done:  E(RHF) =  -624.308557684     A.U. after    2 cycles

 The electronic state is 1-A.
 Alpha  occ. eigenvalues --  -99.87833 -21.23334 -11.59604 -10.44984  -9.64990
 Alpha  occ. eigenvalues --   -9.64512  -9.64409  -7.64107  -7.61022  -1.86129
 Alpha  occ. eigenvalues --   -1.33227  -1.08443  -0.84496  -0.70901  -0.62728
 Alpha  occ. eigenvalues --   -0.61963  -0.59643  -0.54515  -0.52830  -0.48324
 Alpha  occ. eigenvalues --   -0.47647  -0.34027
 Alpha virt. eigenvalues --    0.02204   0.02647   0.03014   0.04235   0.06792
 Alpha virt. eigenvalues --    0.07552   0.08006   0.09004   0.09314   0.11229
 Alpha virt. eigenvalues --    0.12092   0.12379   0.13416   0.13818   0.14549

 Mulliken charges:
               1
     1  B    3.888558
     2  B    4.621814
     3  C    0.487966
     4  O   -2.314055
     5  Cl  -1.756393
     6  H   -1.969628
     7  H   -2.111218
     8  H   -0.847045
 Sum of Mulliken charges =   0.00000

 Dipole moment (field-independent basis, Debye):
    X=             -4.1194    Y=             -1.6364    Z=              0.1649  Tot=              4.4356

 Test job not archived.
 1\1\GINC-SE366\SP\RHF\Aug-CC-pVDZ\C1H3B2Cl1O1\OHZDE\09-Apr-2025\0\\#t
 hf aug-cc-pvdz iop(5/13=1,5/36=2,99/5=2) pseudo=read geom=check guess=
 (read,tcheck) scf=(maxcycle=1)\\title\\0,1\B,0,0.061121,0.41626,0.1718
 24\B,0,-0.317464,1.979276,-0.152747\C,0,-1.225001,-0.378668,0.089356\O
 ,0,-2.210258,-0.909445,-0.093841\Cl,0,1.602615,-0.511717,-0.040001\H,0
 ,-1.439877,2.364094,-0.041998\H,0,0.569928,2.748011,-0.344218\H,0,-0.0
 60721,1.156971,1.18544\\Version=ES64L-G16RevC.01\State=1-A\HF=-624.308
 5577\RMSD=1.504e-01\Dipole=-1.6207073,-0.6437924,0.0648934\Quadrupole=

 Normal termination of Gaussian 16 at Wed Apr  9 00:30:46 2025.
