 Gaussian 16, Revision C.01,

 ----------------------------------------------------------------------
 #t hf aug-cc-pvdz symm=none int=(grid=ultrafine) guess=(read,tcheck) s
 table=(opt,rrhf)
 ----------------------------------------------------------------------
 -----
 title
 -----
 Symbolic Z-matrix:
 Charge =  0 Multiplicity = 1

 SCF Done:  E(RHF) =  -287.507535326     A.U. after   15 cycles
 Normal termination of Gaussian 16 at Tue Apr  8 23:20:50 2025.
 Gaussian 16:  ES64L-G16RevC.01  3-Jul-2019

 ----------------------------------------------------------------------
 #t hf aug-cc-pvdz iop(5/13=1,5/36=2,99/5=2) pseudo=read geom=check gue
 ss=(read,tcheck) scf=(maxcycle=1)
 ----------------------------------------------------------------------
 -----
 title
 -----
 Structure from the checkpoint file:  "BDE49_nonexpt_1130_mol1.chk"
 Charge =  0 Multiplicity = 1

                         Standard orientation:
 ---------------------------------------------------------------------
 Center     Atomic      Atomic             Coordinates (Angstroms)
 Number     Number       Type             X           Y           Z
 ---------------------------------------------------------------------
      1          9           0       -1.317615   -0.508282   -0.000000
      2          8           0       -0.564265    0.704468   -0.000000
      3          6           0        0.777566    0.425665   -0.000000
      4          8           0        1.308733   -0.630637   -0.000000
      5          1           0        1.237400    1.429903    0.000001
 ---------------------------------------------------------------------

 SCF Done:  E(RHF) =  -288.606986503     A.U. after    2 cycles

 The electronic state is 1-A.
 Alpha  occ. eigenvalues --  -29.33413 -21.20821 -21.10924 -11.55566  -1.89856
 Alpha  occ. eigenvalues --   -1.72351  -0.95091  -0.72641  -0.67544  -0.61718
 Alpha  occ. eigenvalues --   -0.55438  -0.44407  -0.39521  -0.34449  -0.29695
 Alpha  occ. eigenvalues --   -0.25910
 Alpha virt. eigenvalues --    0.03495   0.09643   0.10133   0.11506   0.13588
 Alpha virt. eigenvalues --    0.16339   0.18517   0.20097   0.21873   0.22379
 Alpha virt. eigenvalues --    0.27467   0.28238   0.28334   0.29666   0.31936

 Mulliken charges:
               1
     1  F    0.038444
     2  O   -1.326147
     3  C    2.149437
     4  O   -2.227195
     5  H    1.365460
 Sum of Mulliken charges =  -0.00000

 Dipole moment (field-independent basis, Debye):
    X=             -1.0649    Y=             -0.1823    Z=              0.0000  Tot=              1.0804

 Test job not archived.
 1\1\GINC-SE336\SP\RHF\Aug-CC-pVDZ\C1H1F1O2\OHZDE\08-Apr-2025\0\\#t hf
 aug-cc-pvdz iop(5/13=1,5/36=2,99/5=2) pseudo=read geom=check guess=(re
 ad,tcheck) scf=(maxcycle=1)\\title\\0,1\F,0,1.317615,-0.508282,0.\O,0,
 0.564265,0.704468,0.\C,0,-0.777566,0.425665,0.\O,0,-1.308733,-0.630637
 ,0.\H,0,-1.2374,1.429903,-0.000001\\Version=ES64L-G16RevC.01\State=1-A
 \HF=-288.6069865\RMSD=5.333e-02\Dipole=0.4189623,-0.0717072,-0.0000003
 \Quadrupole=0.0728993,-0.1902864,0.1173871,-1.8644239,0.0000004,-0.000
 0004\PG=C01 [X(C1H1F1O2)]\\@

 Normal termination of Gaussian 16 at Tue Apr  8 23:20:52 2025.
