 Gaussian 16, Revision C.01,

 ----------------------------------------------------------------------
 #t hf aug-cc-pvdz symm=none int=(grid=ultrafine) guess=(read,tcheck) s
 table=(opt,rrhf)
 ----------------------------------------------------------------------
 -----
 title
 -----
 Symbolic Z-matrix:
 Charge =  0 Multiplicity = 1

 SCF Done:  E(RHF) =  -689.912350830     A.U. after   13 cycles
 Normal termination of Gaussian 16 at Tue Apr  8 22:41:57 2025.
 Gaussian 16:  ES64L-G16RevC.01  3-Jul-2019

 ----------------------------------------------------------------------
 #t hf aug-cc-pvdz iop(5/13=1,5/36=2,99/5=2) pseudo=read geom=check gue
 ss=(read,tcheck) scf=(maxcycle=1)
 ----------------------------------------------------------------------
 -----
 title
 -----
 Structure from the checkpoint file:  "BDE49_expt_1362_mol1.chk"
 Charge =  0 Multiplicity = 1

                         Standard orientation:
 ---------------------------------------------------------------------
 Center     Atomic      Atomic             Coordinates (Angstroms)
 Number     Number       Type             X           Y           Z
 ---------------------------------------------------------------------
      1          6           0       -1.667152    1.881641    0.000000
      2          8           0       -1.375617    0.553518    0.000000
      3          6           0        0.000000    0.185499    0.000000
      4          6           0        0.022549   -1.332997    0.000000
      5          6           0       -0.821739    2.911353    0.000000
      6          1           0       -2.742831    2.016598    0.000000
      7          1           0        0.254529    2.806270    0.000000
      8          1           0       -1.223983    3.915044    0.000000
      9          1           0        0.503026    0.580733    0.889389
     10          1           0        0.503026    0.580733   -0.889389
     11         17           0        1.730921   -1.925487    0.000000
     12          1           0       -0.458216   -1.733609   -0.889966
     13          1           0       -0.458216   -1.733609    0.889966
 ---------------------------------------------------------------------

 SCF Done:  E(RHF) =  -691.234688025     A.U. after    2 cycles

 The electronic state is 1-A'.
 Alpha  occ. eigenvalues --  -99.88455 -21.08625 -11.47672 -11.45578 -11.42081
 Alpha  occ. eigenvalues --  -11.37774 -10.45701  -9.65617  -9.64885  -9.64797
 Alpha  occ. eigenvalues --   -1.79985  -1.33493  -1.13876  -1.07569  -0.91842
 Alpha  occ. eigenvalues --   -0.80185  -0.69715  -0.68492  -0.62913  -0.58914
 Alpha  occ. eigenvalues --   -0.58621  -0.57281  -0.51174  -0.48162  -0.46543
 Alpha  occ. eigenvalues --   -0.45860  -0.41592  -0.28914
 Alpha virt. eigenvalues --    0.03459   0.05091   0.05372   0.05971   0.06244
 Alpha virt. eigenvalues --    0.07024   0.07119   0.07770   0.11487   0.11688
 Alpha virt. eigenvalues --    0.11923   0.13271   0.13725   0.14217   0.14684

 Mulliken charges:
               1
     1  C    1.086038
     2  O   -3.801160
     3  C   -0.820875
     4  C   -4.000784
     5  C   -3.367852
     6  H    1.800564
     7  H    1.476066
     8  H    1.271489
     9  H    1.648686
    10  H    1.648686
    11  Cl   0.037283
    12  H    1.510930
    13  H    1.510930
 Sum of Mulliken charges =   0.00000

 Dipole moment (field-independent basis, Debye):
    X=             -1.9531    Y=              0.4295    Z=             -0.0000  Tot=              1.9998

 Test job not archived.
 1\1\GINC-SE103\SP\RHF\Aug-CC-pVDZ\C4H7Cl1O1\OHZDE\08-Apr-2025\0\\#t hf
  aug-cc-pvdz iop(5/13=1,5/36=2,99/5=2) pseudo=read geom=check guess=(r
 ead,tcheck) scf=(maxcycle=1)\\title\\0,1\C,0,-1.667153,1.88164,0.\O,0,
 -1.375617,0.553517,0.\C,0,0.,0.185499,0.\C,0,0.02255,-1.332997,0.\C,0,
 -0.821741,2.911352,0.\H,0,-2.742832,2.016596,0.\H,0,0.254527,2.80627,0
 .\H,0,-1.223985,3.915043,0.\H,0,0.503026,0.580733,0.889389\H,0,0.50302
 6,0.580733,-0.889389\Cl,0,1.730922,-1.925486,0.\H,0,-0.458215,-1.73360
 9,-0.889966\H,0,-0.458215,-1.733609,0.889966\\Version=ES64L-G16RevC.01

 Normal termination of Gaussian 16 at Tue Apr  8 22:42:01 2025.
