 Gaussian 16, Revision C.01,

 ----------------------------------------------------------------------
 #t hf aug-cc-pvdz symm=none int=(grid=ultrafine) guess=(read,tcheck) s
 table=(opt,rrhf)
 ----------------------------------------------------------------------
 -----
 title
 -----
 Symbolic Z-matrix:
 Charge =  0 Multiplicity = 1

 SCF Done:  E(RHF) =  -394.579404211     A.U. after   11 cycles
 Normal termination of Gaussian 16 at Wed Apr  9 00:46:02 2025.
 Gaussian 16:  ES64L-G16RevC.01  3-Jul-2019

 ----------------------------------------------------------------------
 #t hf aug-cc-pvdz iop(5/13=1,5/36=2,99/5=2) pseudo=read geom=check gue
 ss=(read,tcheck) scf=(maxcycle=1)
 ----------------------------------------------------------------------
 -----
 title
 -----
 Structure from the checkpoint file:  "BDE49_nonexpt_786_mol1.chk"
 Charge =  0 Multiplicity = 1

                         Standard orientation:
 ---------------------------------------------------------------------
 Center     Atomic      Atomic             Coordinates (Angstroms)
 Number     Number       Type             X           Y           Z
 ---------------------------------------------------------------------
      1          5           0       -0.000013    2.017604   -0.236713
      2         14           0       -0.000001    0.080500    0.322018
      3          6           0       -1.551120   -0.859619   -0.206560
      4          1           0       -1.612731   -0.940846   -1.296004
      5          6           0        1.551131   -0.859600   -0.206560
      6          1           0        1.612743   -0.940826   -1.296004
      7          1           0        1.556585   -1.873694    0.203247
      8          1           0        2.454019   -0.350149    0.140862
      9          1           0       -2.454016   -0.350180    0.140862
     10          1           0       -1.556562   -1.873712    0.203247
     11          1           0       -1.015835    2.629040   -0.379576
     12          1           0        1.015803    2.629052   -0.379576
     13          1           0       -0.000001    0.171607    1.816969
 ---------------------------------------------------------------------

 SCF Done:  E(RHF) =  -395.291746622     A.U. after    2 cycles

 The electronic state is 1-A.
 Alpha  occ. eigenvalues --  -76.18361 -11.34281 -11.34190  -7.61151  -5.52295
 Alpha  occ. eigenvalues --   -2.16002  -2.15428  -2.14210  -1.05859  -1.00270
 Alpha  occ. eigenvalues --   -0.84525  -0.65964  -0.56108  -0.55902  -0.54352
 Alpha  occ. eigenvalues --   -0.54172  -0.48092  -0.42846  -0.38801  -0.34665
 Alpha virt. eigenvalues --    0.02068   0.03690   0.03944   0.04010   0.06507
 Alpha virt. eigenvalues --    0.06660   0.07188   0.07715   0.07991   0.08889
 Alpha virt. eigenvalues --    0.09055   0.09612   0.10190   0.10870   0.13268

 Mulliken charges:
               1
     1  B    2.503092
     2  Si   6.504417
     3  C   -5.081311
     4  H    1.323902
     5  C   -5.081310
     6  H    1.323902
     7  H    1.242683
     8  H    1.299586
     9  H    1.299585
    10  H    1.242684
    11  H   -2.154287
    12  H   -2.154288
    13  H   -2.268656
 Sum of Mulliken charges =  -0.00000

 Dipole moment (field-independent basis, Debye):
    X=              0.0000    Y=             -0.4406    Z=             -0.7175  Tot=              0.8420

 Test job not archived.
 1\1\GINC-SE103\SP\RHF\Aug-CC-pVDZ\C2H9B1Si1\OHZDE\09-Apr-2025\0\\#t hf
  aug-cc-pvdz iop(5/13=1,5/36=2,99/5=2) pseudo=read geom=check guess=(r
 ead,tcheck) scf=(maxcycle=1)\\title\\0,1\B,0,0.000002,2.017604,-0.2367
 13\Si,0,0.,0.0805,0.322018\C,0,-1.551126,-0.859608,-0.20656\H,0,-1.612
 738,-0.940834,-1.296004\C,0,1.551125,-0.859611,-0.20656\H,0,1.612736,-
 0.940838,-1.296004\H,0,1.556572,-1.873705,0.203247\H,0,2.454017,-0.350
 167,0.140862\H,0,-2.454018,-0.350162,0.140862\H,0,-1.556575,-1.873701,
 0.203247\H,0,-1.015816,2.629047,-0.379576\H,0,1.015822,2.629045,-0.379

 Normal termination of Gaussian 16 at Wed Apr  9 00:46:06 2025.
