 Gaussian 16, Revision C.01,

 ----------------------------------------------------------------------
 #t hf aug-cc-pvdz symm=none int=(grid=ultrafine) guess=(read,tcheck) s
 table=(opt,rrhf)
 ----------------------------------------------------------------------
 -----
 title
 -----
 Symbolic Z-matrix:
 Charge =  0 Multiplicity = 1

 SCF Done:  E(RHF) =  -413.706913871     A.U. after   13 cycles
 Normal termination of Gaussian 16 at Tue Apr  8 22:31:23 2025.
 Gaussian 16:  ES64L-G16RevC.01  3-Jul-2019

 ----------------------------------------------------------------------
 #t hf aug-cc-pvdz iop(5/13=1,5/36=2,99/5=2) pseudo=read geom=check gue
 ss=(read,tcheck) scf=(maxcycle=1)
 ----------------------------------------------------------------------
 -----
 title
 -----
 Structure from the checkpoint file:  "BDE49_expt_1022_mol1.chk"
 Charge =  0 Multiplicity = 1

                         Standard orientation:
 ---------------------------------------------------------------------
 Center     Atomic      Atomic             Coordinates (Angstroms)
 Number     Number       Type             X           Y           Z
 ---------------------------------------------------------------------
      1          6           0       -0.371488   -0.018643   -0.000000
      2          9           0       -0.327276    1.328396   -0.000001
      3          9           0       -1.085540   -0.398528    1.085363
      4          9           0       -1.085541   -0.398530   -1.085361
      5          6           0        0.983576   -0.649373   -0.000000
      6          6           0        2.111242    0.046603   -0.000000
      7          1           0        0.964323   -1.733358    0.000001
      8          1           0        2.107148    1.129761   -0.000001
      9          1           0        3.073760   -0.449966   -0.000000
 ---------------------------------------------------------------------

 SCF Done:  E(RHF) =  -415.261409917     A.U. after    2 cycles

 The electronic state is 1-A.
 Alpha  occ. eigenvalues --  -29.30718 -29.30307 -29.30266 -11.60750 -11.44885
 Alpha  occ. eigenvalues --  -11.41055  -1.43139  -1.15278  -0.91625  -0.87246
 Alpha  occ. eigenvalues --   -0.86155  -0.71836  -0.62002  -0.56163  -0.47312
 Alpha  occ. eigenvalues --   -0.43804  -0.43075  -0.41598  -0.35766  -0.34143
 Alpha  occ. eigenvalues --   -0.30308  -0.25229  -0.24543  -0.20997
 Alpha virt. eigenvalues --    0.03634   0.05663   0.06010   0.09842   0.10480
 Alpha virt. eigenvalues --    0.11902   0.12962   0.13412   0.14369   0.14411
 Alpha virt. eigenvalues --    0.15374   0.16868   0.19232   0.20100   0.21004

 Mulliken charges:
               1
     1  C   -0.352889
     2  F    0.596310
     3  F    0.351651
     4  F    0.351651
     5  C   -1.997546
     6  C   -3.003996
     7  H    1.261553
     8  H    1.461708
     9  H    1.331558
 Sum of Mulliken charges =  -0.00000

 Dipole moment (field-independent basis, Debye):
    X=             -0.8244    Y=              0.5019    Z=              0.0000  Tot=              0.9652

 Test job not archived.
 1\1\GINC-SE082\SP\RHF\Aug-CC-pVDZ\C3H3F3\OHZDE\08-Apr-2025\0\\#t hf au
 g-cc-pvdz iop(5/13=1,5/36=2,99/5=2) pseudo=read geom=check guess=(read
 ,tcheck) scf=(maxcycle=1)\\title\\0,1\C,0,-0.371488,-0.018643,0.\F,0,-
 0.327276,1.328396,-0.000001\F,0,-1.08554,-0.398528,1.085363\F,0,-1.085
 541,-0.39853,-1.085361\C,0,0.983576,-0.649373,0.\C,0,2.111242,0.046603
 ,0.\H,0,0.964323,-1.733358,0.000001\H,0,2.107148,1.129761,-0.000001\H,
 0,3.07376,-0.449966,0.\\Version=ES64L-G16RevC.01\State=1-A\HF=-415.261
 4099\RMSD=4.167e-01\Dipole=-0.324362,0.1974681,0.0000001\Quadrupole=1.

 Normal termination of Gaussian 16 at Tue Apr  8 22:31:26 2025.
