 Gaussian 16, Revision C.01,

 ----------------------------------------------------------------------
 #t hf aug-cc-pvdz symm=none int=(grid=ultrafine) guess=(read,tcheck) s
 table=(opt,rrhf)
 ----------------------------------------------------------------------
 -----
 title
 -----
 Symbolic Z-matrix:
 Charge =  0 Multiplicity = 1

 SCF Done:  E(RHF) =  -524.370545194     A.U. after   12 cycles
 Normal termination of Gaussian 16 at Wed Apr  9 00:35:48 2025.
 Gaussian 16:  ES64L-G16RevC.01  3-Jul-2019

 ----------------------------------------------------------------------
 #t hf aug-cc-pvdz iop(5/13=1,5/36=2,99/5=2) pseudo=read geom=check gue
 ss=(read,tcheck) scf=(maxcycle=1)
 ----------------------------------------------------------------------
 -----
 title
 -----
 Structure from the checkpoint file:  "BDE49_nonexpt_462_mol1.chk"
 Charge =  0 Multiplicity = 1

                         Standard orientation:
 ---------------------------------------------------------------------
 Center     Atomic      Atomic             Coordinates (Angstroms)
 Number     Number       Type             X           Y           Z
 ---------------------------------------------------------------------
      1          1           0       -1.637919   -1.598449    0.000024
      2          1           0       -2.877694    0.053241    0.000054
      3          5           0       -1.781956   -0.419858   -0.000050
      4          6           0       -0.594185    0.581293   -0.000007
      5         17           0        1.076623   -0.136837    0.000012
      6          1           0       -0.656055    1.241469    0.872143
      7          1           0       -0.656024    1.241495   -0.872140
 ---------------------------------------------------------------------

 SCF Done:  E(RHF) =  -524.943623744     A.U. after    2 cycles

 The electronic state is 1-A.
 Alpha  occ. eigenvalues --  -99.87544 -11.40381 -10.44743  -9.64578  -9.63925
 Alpha  occ. eigenvalues --   -9.63865  -7.62751  -1.32149  -1.06345  -0.80620
 Alpha  occ. eigenvalues --   -0.63224  -0.61660  -0.53693  -0.47798  -0.47442
 Alpha  occ. eigenvalues --   -0.43830
 Alpha virt. eigenvalues --    0.02643   0.03238   0.04103   0.04391   0.07094
 Alpha virt. eigenvalues --    0.07959   0.09504   0.10864   0.12136   0.12963
 Alpha virt. eigenvalues --    0.14715   0.16200   0.16262   0.17465   0.18252

 Mulliken charges:
               1
     1  H   -2.840336
     2  H   -2.920547
     3  B    7.316209
     4  C   -4.787542
     5  Cl  -0.134589
     6  H    1.683376
     7  H    1.683428
 Sum of Mulliken charges =  -0.00000

 Dipole moment (field-independent basis, Debye):
    X=             -1.9907    Y=              1.1124    Z=             -0.0002  Tot=              2.2805

 Test job not archived.
 1\1\GINC-SE143\SP\RHF\Aug-CC-pVDZ\C1H4B1Cl1\OHZDE\09-Apr-2025\0\\#t hf
  aug-cc-pvdz iop(5/13=1,5/36=2,99/5=2) pseudo=read geom=check guess=(r
 ead,tcheck) scf=(maxcycle=1)\\title\\0,1\H,0,-1.637919,-1.598449,0.000
 024\H,0,-2.877694,0.053241,0.000054\B,0,-1.781956,-0.419858,-0.00005\C
 ,0,-0.594185,0.581293,-0.000007\Cl,0,1.076623,-0.136837,0.000012\H,0,-
 0.656055,1.241469,0.872143\H,0,-0.656024,1.241495,-0.87214\\Version=ES
 64L-G16RevC.01\State=1-A\HF=-524.9436237\RMSD=1.496e-01\Dipole=-0.7832
 196,0.4376453,-0.0000746\Quadrupole=-1.1791568,-0.2284555,1.4076123,-0

 Normal termination of Gaussian 16 at Wed Apr  9 00:35:50 2025.
