 Gaussian 16, Revision C.01,

 ----------------------------------------------------------------------
 #t hf aug-cc-pvdz symm=none int=(grid=ultrafine) guess=(read,tcheck) s
 table=(opt,rrhf)
 ----------------------------------------------------------------------
 -----
 title
 -----
 Symbolic Z-matrix:
 Charge =  0 Multiplicity = 1

 SCF Done:  E(RHF) =  -714.459300233     A.U. after   12 cycles
 Normal termination of Gaussian 16 at Wed Apr  9 00:11:53 2025.
 Gaussian 16:  ES64L-G16RevC.01  3-Jul-2019

 ----------------------------------------------------------------------
 #t hf aug-cc-pvdz iop(5/13=1,5/36=2,99/5=2) pseudo=read geom=check gue
 ss=(read,tcheck) scf=(maxcycle=1)
 ----------------------------------------------------------------------
 -----
 title
 -----
 Structure from the checkpoint file:  "BDE49_nonexpt_2376_mol1.chk"
 Charge =  0 Multiplicity = 1

                         Standard orientation:
 ---------------------------------------------------------------------
 Center     Atomic      Atomic             Coordinates (Angstroms)
 Number     Number       Type             X           Y           Z
 ---------------------------------------------------------------------
      1         14           0       -2.242988    0.240710   -0.216339
      2         14           0       -0.215684   -0.837339    0.340006
      3          1           0       -2.405819    1.529354    0.503646
      4          1           0       -3.375980   -0.639150    0.167344
      5          1           0       -2.328527    0.512816   -1.672182
      6          7           0        1.163532    0.106769   -0.111379
      7          1           0       -0.114687   -2.115241   -0.407451
      8          1           0       -0.285627   -1.196806    1.790482
      9          6           0        1.295233    1.508096    0.265036
     10          1           0        1.885959    1.644467    1.184429
     11          1           0        0.314343    1.959815    0.429984
     12          1           0        1.790530    2.074017   -0.534235
     13          6           0        2.443151   -0.523130   -0.414587
     14          1           0        2.292818   -1.550813   -0.750673
     15          1           0        3.120165   -0.543982    0.453967
     16          1           0        2.953220    0.021162   -1.219688
 ---------------------------------------------------------------------

 SCF Done:  E(RHF) =  -715.466156593     A.U. after    2 cycles

 The electronic state is 1-A.
 Alpha  occ. eigenvalues --  -76.21757 -76.20974 -15.69851 -11.39270 -11.38506
 Alpha  occ. eigenvalues --   -5.55490  -5.54386  -2.20767  -2.17516  -2.16826
 Alpha  occ. eigenvalues --   -2.16504  -2.16431  -2.15437  -1.37124  -1.03443
 Alpha  occ. eigenvalues --   -0.90944  -0.78858  -0.70580  -0.62781  -0.60866
 Alpha  occ. eigenvalues --   -0.59430  -0.54201  -0.49995  -0.48187  -0.46955
 Alpha  occ. eigenvalues --   -0.45706  -0.44846  -0.35778  -0.31408
 Alpha virt. eigenvalues --    0.03740   0.04613   0.05543   0.05776   0.06218
 Alpha virt. eigenvalues --    0.06744   0.07072   0.07273   0.08292   0.08445
 Alpha virt. eigenvalues --    0.08810   0.08993   0.09507   0.10025   0.10680

 Mulliken charges:
               1
     1  Si   4.747690
     2  Si   3.891890
     3  H   -1.551568
     4  H   -1.633874
     5  H   -1.593061
     6  N   -2.136707
     7  H   -1.739379
     8  H   -1.930484
     9  C   -3.574801
    10  H    1.389569
    11  H    1.707519
    12  H    1.363869
    13  C   -3.334077
    14  H    1.479115
    15  H    1.423285
    16  H    1.491015
 Sum of Mulliken charges =  -0.00000

 Dipole moment (field-independent basis, Debye):
    X=              1.2574    Y=              0.5287    Z=             -0.1616  Tot=              1.3735

 Test job not archived.
 1\1\GINC-SE252\SP\RHF\Aug-CC-pVDZ\C2H11N1Si2\OHZDE\09-Apr-2025\0\\#t h
 f aug-cc-pvdz iop(5/13=1,5/36=2,99/5=2) pseudo=read geom=check guess=(
 read,tcheck) scf=(maxcycle=1)\\title\\0,1\Si,0,-2.242988,0.24071,-0.21
 6339\Si,0,-0.215684,-0.837339,0.340006\H,0,-2.405819,1.529354,0.503646
 \H,0,-3.37598,-0.63915,0.167344\H,0,-2.328527,0.512816,-1.672182\N,0,1
 .163532,0.106769,-0.111379\H,0,-0.114687,-2.115241,-0.407451\H,0,-0.28
 5627,-1.196806,1.790482\C,0,1.295233,1.508096,0.265036\H,0,1.885959,1.
 644467,1.184429\H,0,0.314343,1.959815,0.429984\H,0,1.79053,2.074017,-0

 Normal termination of Gaussian 16 at Wed Apr  9 00:11:58 2025.
