 Gaussian 16, Revision C.01,

 ----------------------------------------------------------------------
 #t hf aug-cc-pvdz symm=none int=(grid=ultrafine) guess=(read,tcheck) s
 table=(opt,rrhf)
 ----------------------------------------------------------------------
 -----
 title
 -----
 Symbolic Z-matrix:
 Charge =  0 Multiplicity = 1

 SCF Done:  E(RHF) =  -745.376874146     A.U. after   16 cycles

 1\1\GINC-SE073\Stability\RHF\Aug-CC-pVDZ\C9H12S1\OHZDE\08-Apr-2025\0\\
 #t hf aug-cc-pvdz symm=none int=(grid=ultrafine) guess=(read,tcheck) s
 table=(opt,rrhf)\\title\\0,1\C,0,2.038712,-0.004061,-0.005716\C,0,1.31
 5716,-1.196568,-0.013483\C,0,-0.07948,-1.221133,-0.000172\C,0,1.321388
 ,1.191321,-0.003029\C,0,-0.074955,1.225399,-0.005521\C,0,-0.773353,0.0
 03605,0.011104\H,0,1.86139,2.133463,-0.011992\S,0,-2.56688,-0.069204,-
 0.023188\H,0,1.849845,-2.142021,-0.025327\H,0,-2.804117,1.074403,0.635
 474\C,0,-0.783604,2.555669,-0.035204\H,0,-0.066603,3.370858,-0.143391\

 Normal termination of Gaussian 16 at Tue Apr  8 23:18:07 2025.
 Gaussian 16:  ES64L-G16RevC.01  3-Jul-2019

 ----------------------------------------------------------------------
 #t hf aug-cc-pvdz iop(5/13=1,5/36=2,99/5=2) pseudo=read geom=check gue
 ss=(read,tcheck) scf=(maxcycle=1)
 ----------------------------------------------------------------------
 -----
 title
 -----
 Structure from the checkpoint file:  "BDE49_expt_862_mol1.chk"
 Charge =  0 Multiplicity = 1

                         Standard orientation:
 ---------------------------------------------------------------------
 Center     Atomic      Atomic             Coordinates (Angstroms)
 Number     Number       Type             X           Y           Z
 ---------------------------------------------------------------------
      1          6           0        2.038712   -0.004060   -0.005716
      2          6           0        1.315716   -1.196568   -0.013483
      3          6           0       -0.079480   -1.221133   -0.000172
      4          6           0        1.321388    1.191321   -0.003029
      5          6           0       -0.074955    1.225399   -0.005521
      6          6           0       -0.773353    0.003605    0.011104
      7          1           0        1.861389    2.133463   -0.011992
      8         16           0       -2.566880   -0.069205   -0.023188
      9          1           0        1.849846   -2.142021   -0.025327
     10          1           0       -2.804117    1.074402    0.635474
     11          6           0       -0.783605    2.555669   -0.035204
     12          1           0       -0.066604    3.370858   -0.143391
     13          1           0       -1.349018    2.740443    0.885882
     14          1           0       -1.493023    2.611457   -0.866374
     15          6           0        3.548160   -0.008259    0.022186
     16          1           0        3.954719   -0.866006   -0.519010
     17          1           0        3.923540   -0.063178    1.050131
     18          1           0        3.957602    0.899646   -0.426760
     19          6           0       -0.806827   -2.543280   -0.002638
     20          1           0       -0.098627   -3.372323    0.039130
     21          1           0       -1.415534   -2.671052   -0.904078
     22          1           0       -1.484629   -2.624574    0.852159
 ---------------------------------------------------------------------

 SCF Done:  E(RHF) =  -747.333026353     A.U. after    2 cycles

 The electronic state is 1-A.
 Alpha  occ. eigenvalues --  -75.69043 -13.16677 -13.16135 -13.03525 -11.49906
 Alpha  occ. eigenvalues --  -11.46173 -11.44648 -11.44568 -11.42283 -11.39469
 Alpha  occ. eigenvalues --  -11.38938 -11.38652 -11.35809  -8.03044  -1.38204
 Alpha  occ. eigenvalues --   -1.19455  -1.17030  -1.09626  -1.02143  -0.98565
 Alpha  occ. eigenvalues --   -0.95907  -0.82440  -0.79917  -0.65936  -0.63966
 Alpha  occ. eigenvalues --   -0.59409  -0.59137  -0.56981  -0.56559  -0.56194
 Alpha  occ. eigenvalues --   -0.55726  -0.53961  -0.51503  -0.48077  -0.47220
 Alpha  occ. eigenvalues --   -0.45304  -0.42074  -0.37193  -0.34337  -0.31463
 Alpha  occ. eigenvalues --   -0.22475
 Alpha virt. eigenvalues --    0.03128   0.04413   0.04696   0.05304   0.05704
 Alpha virt. eigenvalues --    0.05967   0.06599   0.07183   0.07324   0.07498
 Alpha virt. eigenvalues --    0.07764   0.09168   0.10790   0.11192   0.11293

 Mulliken charges:
               1
     1  C    2.885226
     2  C   -2.580613
     3  C    1.846951
     4  C   -2.411202
     5  C    2.601887
     6  C    0.003220
     7  H    1.928088
     8  S   -1.096437
     9  H    1.957826
    10  H    1.000689
    11  C   -5.218512
    12  H    1.255990
    13  H    0.994893
    14  H    1.108305
    15  C   -5.554097
    16  H    1.134590
    17  H    1.026944
    18  H    1.168641
    19  C   -5.516081
    20  H    1.263399
    21  H    1.073464
    22  H    1.126831
 Sum of Mulliken charges =  -0.00000

 Dipole moment (field-independent basis, Debye):
    X=             -0.0620    Y=             -0.8322    Z=             -0.4372  Tot=              0.9421

 Test job not archived.
 1\1\GINC-SE073\SP\RHF\Aug-CC-pVDZ\C9H12S1\OHZDE\08-Apr-2025\0\\#t hf a
 ug-cc-pvdz iop(5/13=1,5/36=2,99/5=2) pseudo=read geom=check guess=(rea
 d,tcheck) scf=(maxcycle=1)\\title\\0,1\C,0,2.038712,-0.004061,-0.00571
 6\C,0,1.315716,-1.196568,-0.013483\C,0,-0.07948,-1.221133,-0.000172\C,
 0,1.321388,1.191321,-0.003029\C,0,-0.074955,1.225399,-0.005521\C,0,-0.
 773353,0.003605,0.011104\H,0,1.86139,2.133463,-0.011992\S,0,-2.56688,-
 0.069204,-0.023188\H,0,1.849845,-2.142021,-0.025327\H,0,-2.804117,1.07
 4403,0.635474\C,0,-0.783604,2.555669,-0.035204\H,0,-0.066603,3.370858,

 Normal termination of Gaussian 16 at Tue Apr  8 23:18:21 2025.
