 Gaussian 16, Revision C.01,

 ----------------------------------------------------------------------
 #t hf aug-cc-pvdz symm=none int=(grid=ultrafine) guess=(read,tcheck) s
 table=(opt,rrhf)
 ----------------------------------------------------------------------
 -----
 title
 -----
 Symbolic Z-matrix:
 Charge =  0 Multiplicity = 1

 SCF Done:  E(RHF) =  -671.973590830     A.U. after   12 cycles
 Normal termination of Gaussian 16 at Wed Apr  9 00:00:28 2025.
 Gaussian 16:  ES64L-G16RevC.01  3-Jul-2019

 ----------------------------------------------------------------------
 #t hf aug-cc-pvdz iop(5/13=1,5/36=2,99/5=2) pseudo=read geom=check gue
 ss=(read,tcheck) scf=(maxcycle=1)
 ----------------------------------------------------------------------
 -----
 title
 -----
 Structure from the checkpoint file:  "BDE49_nonexpt_2068_mol1.chk"
 Charge =  0 Multiplicity = 1

                         Standard orientation:
 ---------------------------------------------------------------------
 Center     Atomic      Atomic             Coordinates (Angstroms)
 Number     Number       Type             X           Y           Z
 ---------------------------------------------------------------------
      1         14           0        1.608936   -0.739770   -0.822460
      2          6           0       -0.016752    0.048221   -0.105926
      3          8           0       -0.997975   -0.378669   -1.003488
      4          8           0        0.041474    1.451909   -0.171837
      5          8           0       -0.350667   -0.269917    1.233343
      6          6           0       -2.286330    0.250125   -0.882199
      7          1           0       -2.961054   -0.344009   -1.497098
      8          1           0       -2.251135    1.276649   -1.249351
      9          1           0       -2.627071    0.244329    0.155619
     10          6           0        0.771281    2.128293    0.852151
     11          1           0        0.754882    3.182553    0.577030
     12          1           0        1.812415    1.789515    0.900084
     13          1           0        0.305842    1.991039    1.829108
     14          6           0       -0.436041   -1.656766    1.542800
     15          1           0       -0.856792   -1.720941    2.545931
     16          1           0        0.551494   -2.133916    1.545171
     17          1           0       -1.086713   -2.183612    0.839250
     18          1           0        1.855937   -0.126389   -2.142579
     19          1           0        1.486395   -2.207272   -0.968609
     20          1           0        2.755094   -0.456989    0.074783
 ---------------------------------------------------------------------

 SCF Done:  E(RHF) =  -673.854313137     A.U. after    2 cycles

 The electronic state is 1-A.
 Alpha  occ. eigenvalues --  -76.21351 -21.05077 -21.04926 -21.04762 -11.47062
 Alpha  occ. eigenvalues --  -11.41109 -11.40443 -11.39767  -5.54866  -2.19372
 Alpha  occ. eigenvalues --   -2.17448  -2.17435  -1.86844  -1.69917  -1.69108
 Alpha  occ. eigenvalues --   -1.04614  -0.98854  -0.97820  -0.84148  -0.74205
 Alpha  occ. eigenvalues --   -0.65936  -0.64935  -0.63340  -0.61500  -0.59365
 Alpha  occ. eigenvalues --   -0.58543  -0.56146  -0.53896  -0.50022  -0.47404
 Alpha  occ. eigenvalues --   -0.46706  -0.44266  -0.38854  -0.36067  -0.32755
 Alpha  occ. eigenvalues --   -0.29688  -0.27390
 Alpha virt. eigenvalues --    0.03869   0.04568   0.04907   0.05264   0.05455
 Alpha virt. eigenvalues --    0.05792   0.06391   0.06490   0.07140   0.08546
 Alpha virt. eigenvalues --    0.09175   0.09411   0.10173   0.11018   0.11560

 Mulliken charges:
               1
     1  Si   6.435876
     2  C    7.568513
     3  O   -3.506975
     4  O   -3.685917
     5  O   -3.711141
     6  C   -3.550445
     7  H    1.264993
     8  H    1.488398
     9  H    1.401829
    10  C   -3.267378
    11  H    1.290114
    12  H    1.476054
    13  H    1.518377
    14  C   -3.277027
    15  H    1.326909
    16  H    1.416829
    17  H    1.426143
    18  H   -1.979822
    19  H   -1.781657
    20  H   -1.853672
 Sum of Mulliken charges =  -0.00000

 Dipole moment (field-independent basis, Debye):
    X=             -0.7894    Y=              0.3846    Z=              0.8919  Tot=              1.2516

 Test job not archived.
 1\1\GINC-SE343\SP\RHF\Aug-CC-pVDZ\C4H12O3Si1\OHZDE\09-Apr-2025\0\\#t h
 f aug-cc-pvdz iop(5/13=1,5/36=2,99/5=2) pseudo=read geom=check guess=(
 read,tcheck) scf=(maxcycle=1)\\title\\0,1\Si,0,1.608936,-0.73977,-0.82
 246\C,0,-0.016752,0.048221,-0.105926\O,0,-0.997975,-0.378669,-1.003488
 \O,0,0.041474,1.451909,-0.171837\O,0,-0.350667,-0.269917,1.233343\C,0,
 -2.28633,0.250126,-0.882199\H,0,-2.961054,-0.344008,-1.497098\H,0,-2.2
 51135,1.27665,-1.249351\H,0,-2.627071,0.24433,0.155619\C,0,0.771282,2.
 128293,0.852151\H,0,0.754883,3.182553,0.57703\H,0,1.812416,1.789515,0.

 Normal termination of Gaussian 16 at Wed Apr  9 00:00:37 2025.
