 Gaussian 16, Revision C.01,

 ----------------------------------------------------------------------
 #t hf aug-cc-pvdz symm=none int=(grid=ultrafine) guess=(read,tcheck) s
 table=(opt,rrhf)
 ----------------------------------------------------------------------
 -----
 title
 -----
 Symbolic Z-matrix:
 Charge =  0 Multiplicity = 1

 SCF Done:  E(RHF) =  -962.594663172     A.U. after   16 cycles
 Normal termination of Gaussian 16 at Tue Apr  8 23:33:14 2025.
 Gaussian 16:  ES64L-G16RevC.01  3-Jul-2019

 ----------------------------------------------------------------------
 #t hf aug-cc-pvdz iop(5/13=1,5/36=2,99/5=2) pseudo=read geom=check gue
 ss=(read,tcheck) scf=(maxcycle=1)
 ----------------------------------------------------------------------
 -----
 title
 -----
 Structure from the checkpoint file:  "BDE49_nonexpt_1369_mol1.chk"
 Charge =  0 Multiplicity = 1

                         Standard orientation:
 ---------------------------------------------------------------------
 Center     Atomic      Atomic             Coordinates (Angstroms)
 Number     Number       Type             X           Y           Z
 ---------------------------------------------------------------------
      1          6           0       -0.692621    0.110574    0.336074
      2          6           0        0.803818    0.028401    0.162173
      3          6           0        1.631973   -0.137964    1.276687
      4          1           0        1.196972   -0.158924    2.269989
      5          6           0        3.007628   -0.265828    1.117256
      6          1           0        3.640866   -0.388269    1.988395
      7          6           0        3.571140   -0.227287   -0.157681
      8          1           0        4.643847   -0.322814   -0.280283
      9          6           0        2.753080   -0.058422   -1.271373
     10          1           0        3.186365   -0.020504   -2.264134
     11          6           0        1.374140    0.066355   -1.116224
     12          1           0        0.742496    0.217999   -1.983406
     13          7           0       -1.210278    1.276704   -0.413367
     14         15           0       -1.438667   -1.454191   -0.409762
     15          9           0       -0.835906    2.391756    0.365081
     16          9           0       -2.607558    1.240098   -0.207114
     17          9           0       -2.824889   -1.574148    0.441894
     18          1           0       -0.649942   -2.266645    0.444811
     19          1           0       -0.988418    0.200761    1.384404
 ---------------------------------------------------------------------

 SCF Done:  E(RHF) =  -965.332639368     A.U. after    2 cycles

 The electronic state is 1-A.
 Alpha  occ. eigenvalues -- -105.25982 -29.29564 -29.29469 -29.27493 -15.89864
 Alpha  occ. eigenvalues --  -11.54276 -11.48482 -11.45488 -11.45455 -11.43091
 Alpha  occ. eigenvalues --  -11.42595 -11.38359  -2.83751  -1.59084  -1.56577
 Alpha  occ. eigenvalues --   -1.50996  -1.50008  -1.35945  -1.15205  -1.11346
 Alpha  occ. eigenvalues --   -1.00570  -0.89007  -0.87674  -0.84019  -0.79479
 Alpha  occ. eigenvalues --   -0.74369  -0.73106  -0.67629  -0.61933  -0.60051
 Alpha  occ. eigenvalues --   -0.58489  -0.54699  -0.53328  -0.49791  -0.47227
 Alpha  occ. eigenvalues --   -0.46419  -0.44684  -0.40465  -0.37053  -0.35112
 Alpha  occ. eigenvalues --   -0.34511  -0.33525  -0.33012  -0.28870  -0.25453
 Alpha  occ. eigenvalues --   -0.22540  -0.20832  -0.19221  -0.02251
 Alpha virt. eigenvalues --    0.03178   0.04745   0.04768   0.06252   0.06634
 Alpha virt. eigenvalues --    0.07400   0.08197   0.08723   0.09656   0.10273
 Alpha virt. eigenvalues --    0.11097   0.11922   0.12350   0.12758   0.13373

 Mulliken charges:
               1
     1  C   -4.431786
     2  C    7.215964
     3  C   -2.959206
     4  H    1.882046
     5  C   -1.763251
     6  H    1.451450
     7  C   -2.964563
     8  H    1.563689
     9  C   -1.684514
    10  H    1.525121
    11  C   -2.885980
    12  H    1.598972
    13  N   -0.350381
    14  P    2.907384
    15  F   -0.252840
    16  F   -0.249153
    17  F   -0.364976
    18  H   -1.388013
    19  H    1.150035
 Sum of Mulliken charges =   0.00000

 Dipole moment (field-independent basis, Debye):
    X=             -4.9763    Y=              0.9434    Z=              2.2716  Tot=              5.5510

 Test job not archived.
 1\1\GINC-SE044\SP\RHF\Aug-CC-pVDZ\C7H7F3N1P1\OHZDE\08-Apr-2025\0\\#t h
 f aug-cc-pvdz iop(5/13=1,5/36=2,99/5=2) pseudo=read geom=check guess=(
 read,tcheck) scf=(maxcycle=1)\\title\\0,1\C,0,-0.692621,0.110574,0.336
 074\C,0,0.803818,0.028401,0.162173\C,0,1.631973,-0.137964,1.276687\H,0
 ,1.196972,-0.158924,2.269989\C,0,3.007628,-0.265828,1.117256\H,0,3.640
 866,-0.388269,1.988395\C,0,3.57114,-0.227287,-0.157681\H,0,4.643847,-0
 .322814,-0.280283\C,0,2.75308,-0.058422,-1.271373\H,0,3.186365,-0.0205
 04,-2.264134\C,0,1.37414,0.066355,-1.116224\H,0,0.742496,0.217999,-1.9

 Normal termination of Gaussian 16 at Tue Apr  8 23:33:27 2025.
