 Gaussian 16, Revision C.01,

 ----------------------------------------------------------------------
 #t hf aug-cc-pvdz symm=none int=(grid=ultrafine) guess=(read,tcheck) s
 table=(opt,rrhf)
 ----------------------------------------------------------------------
 -----
 title
 -----
 Symbolic Z-matrix:
 Charge =  0 Multiplicity = 1

 SCF Done:  E(RHF) =  -762.383084006     A.U. after   13 cycles
 Normal termination of Gaussian 16 at Tue Apr  8 23:28:41 2025.
 Gaussian 16:  ES64L-G16RevC.01  3-Jul-2019

 ----------------------------------------------------------------------
 #t hf aug-cc-pvdz iop(5/13=1,5/36=2,99/5=2) pseudo=read geom=check gue
 ss=(read,tcheck) scf=(maxcycle=1)
 ----------------------------------------------------------------------
 -----
 title
 -----
 Structure from the checkpoint file:  "BDE49_nonexpt_1285_mol1.chk"
 Charge =  0 Multiplicity = 1

                         Standard orientation:
 ---------------------------------------------------------------------
 Center     Atomic      Atomic             Coordinates (Angstroms)
 Number     Number       Type             X           Y           Z
 ---------------------------------------------------------------------
      1          6           0        1.581221   -0.041178   -0.044095
      2         15           0       -1.300501   -0.062169    0.053396
      3          8           0       -1.427989   -0.038677    1.521100
      4          6           0        2.739819   -0.405133   -0.993100
      5          1           0        2.643528    0.109053   -1.954435
      6          1           0        2.769474   -1.481564   -1.187623
      7          6           0        1.787046   -0.751700    1.307240
      8          1           0        1.856652   -1.835685    1.170742
      9          1           0        0.960577   -0.548748    1.990110
     10          1           0        2.716975   -0.415058    1.775101
     11          1           0        3.699558   -0.118484   -0.553418
     12          6           0        1.566130    1.484515    0.167517
     13          1           0        2.540603    1.822172    0.531744
     14          1           0        0.820338    1.775481    0.911542
     15          1           0        1.350352    2.017231   -0.762976
     16          6           0        0.268197   -0.536037   -0.712165
     17          1           0        0.265748   -1.629232   -0.752943
     18          1           0        0.208052   -0.180599   -1.746129
     19          8           0       -2.283817   -1.082750   -0.708586
     20          1           0       -3.160432   -1.115154   -0.305854
     21          8           0       -1.658684    1.372874   -0.606479
     22          1           0       -1.854472    2.018744    0.082538
 ---------------------------------------------------------------------

 SCF Done:  E(RHF) =  -764.550590012     A.U. after    2 cycles

 The electronic state is 1-A.
 Alpha  occ. eigenvalues -- -105.29355 -21.10931 -21.10528 -21.01431 -11.43525
 Alpha  occ. eigenvalues --  -11.40733 -11.39116 -11.38462 -11.34999  -2.91819
 Alpha  occ. eigenvalues --   -1.95918  -1.89131  -1.80494  -1.54224  -1.39409
 Alpha  occ. eigenvalues --   -1.28825  -1.25548  -1.01050  -1.00328  -0.98621
 Alpha  occ. eigenvalues --   -0.77605  -0.69005  -0.63926  -0.63137  -0.59995
 Alpha  occ. eigenvalues --   -0.59692  -0.57101  -0.55439  -0.53044  -0.52205
 Alpha  occ. eigenvalues --   -0.51230  -0.46066  -0.44189  -0.43277  -0.42730
 Alpha  occ. eigenvalues --   -0.38751  -0.33878  -0.33450  -0.29284  -0.24368
 Alpha  occ. eigenvalues --   -0.14787
 Alpha virt. eigenvalues --    0.03701   0.05268   0.05407   0.05712   0.05811
 Alpha virt. eigenvalues --    0.05907   0.06025   0.06520   0.07810   0.08143
 Alpha virt. eigenvalues --    0.09037   0.09302   0.09557   0.10894   0.11909

 Mulliken charges:
               1
     1  C    5.349502
     2  P   10.339225
     3  O   -3.020253
     4  C   -5.406391
     5  H    1.245749
     6  H    1.166215
     7  C   -4.968416
     8  H    1.231127
     9  H    1.389481
    10  H    1.143374
    11  H    1.262946
    12  C   -4.721175
    13  H    1.156165
    14  H    1.075634
    15  H    1.187868
    16  C   -6.418816
    17  H    1.188685
    18  H    1.128321
    19  O   -3.054209
    20  H    0.935858
    21  O   -2.989684
    22  H    0.778796
 Sum of Mulliken charges =   0.00000

 Dipole moment (field-independent basis, Debye):
    X=              0.0380    Y=              0.2205    Z=             -2.4447  Tot=              2.4549

 Test job not archived.
 1\1\GINC-SE455\SP\RHF\Aug-CC-pVDZ\C5H13O3P1\OHZDE\08-Apr-2025\0\\#t hf
  aug-cc-pvdz iop(5/13=1,5/36=2,99/5=2) pseudo=read geom=check guess=(r
 ead,tcheck) scf=(maxcycle=1)\\title\\0,1\C,0,1.581221,-0.041178,-0.044
 095\P,0,-1.300501,-0.062169,0.053396\O,0,-1.427989,-0.038677,1.5211\C,
 0,2.739819,-0.405133,-0.9931\H,0,2.643528,0.109053,-1.954435\H,0,2.769
 474,-1.481564,-1.187623\C,0,1.787046,-0.7517,1.30724\H,0,1.856652,-1.8
 35685,1.170742\H,0,0.960577,-0.548748,1.99011\H,0,2.716975,-0.415058,1
 .775101\H,0,3.699558,-0.118484,-0.553418\C,0,1.56613,1.484515,0.167517

 Normal termination of Gaussian 16 at Tue Apr  8 23:28:53 2025.
