 Gaussian 16, Revision C.01,

 ----------------------------------------------------------------------
 #t hf aug-cc-pvdz symm=none int=(grid=ultrafine) guess=(read,tcheck) s
 table=(opt,rrhf)
 ----------------------------------------------------------------------
 -----
 title
 -----
 Symbolic Z-matrix:
 Charge =  0 Multiplicity = 1

 SCF Done:  E(RHF) =  -268.869850221     A.U. after   13 cycles
 Normal termination of Gaussian 16 at Tue Apr  8 22:48:47 2025.
 Gaussian 16:  ES64L-G16RevC.01  3-Jul-2019

 ----------------------------------------------------------------------
 #t hf aug-cc-pvdz iop(5/13=1,5/36=2,99/5=2) pseudo=read geom=check gue
 ss=(read,tcheck) scf=(maxcycle=1)
 ----------------------------------------------------------------------
 -----
 title
 -----
 Structure from the checkpoint file:  "BDE49_expt_164_mol1.chk"
 Charge =  0 Multiplicity = 1

                         Standard orientation:
 ---------------------------------------------------------------------
 Center     Atomic      Atomic             Coordinates (Angstroms)
 Number     Number       Type             X           Y           Z
 ---------------------------------------------------------------------
      1          6           0        0.055230    1.208633    0.094845
      2          6           0        1.323246    0.888342   -0.150261
      3          6           0        1.564945   -0.599356   -0.046272
      4          6           0        0.132168   -1.182646    0.017807
      5          1           0        2.137284   -0.832628    0.860519
      6          1           0        2.145663   -0.992538   -0.886639
      7          6           0       -0.788377   -0.008558    0.408060
      8          1           0        0.041261   -2.033688    0.694361
      9          1           0       -0.187223   -1.507550   -0.975293
     10          1           0       -0.351496    2.214229    0.109659
     11          1           0        2.114637    1.595934   -0.372188
     12          8           0       -1.997540   -0.102217   -0.353344
     13          1           0       -1.036085   -0.032770    1.481068
     14          1           0       -2.606988    0.568255   -0.029807
 ---------------------------------------------------------------------

 SCF Done:  E(RHF) =  -270.142892391     A.U. after    2 cycles

 The electronic state is 1-A.
 Alpha  occ. eigenvalues --  -21.06313 -11.46969 -11.44562 -11.40400 -11.37930
 Alpha  occ. eigenvalues --  -11.34786  -1.70602  -1.29850  -1.03443  -1.00275
 Alpha  occ. eigenvalues --   -0.82013  -0.76421  -0.69164  -0.65805  -0.59184
 Alpha  occ. eigenvalues --   -0.53031  -0.49470  -0.48321  -0.46305  -0.44968
 Alpha  occ. eigenvalues --   -0.41247  -0.33069  -0.30812
 Alpha virt. eigenvalues --    0.03886   0.05198   0.05458   0.05913   0.06176
 Alpha virt. eigenvalues --    0.06438   0.06478   0.07549   0.12167   0.12514
 Alpha virt. eigenvalues --    0.12804   0.14191   0.14646   0.14714   0.15303

 Mulliken charges:
               1
     1  C   -0.164710
     2  C   -0.101188
     3  C   -3.622575
     4  C   -3.101522
     5  H    1.278576
     6  H    1.213182
     7  C   -0.062223
     8  H    1.227970
     9  H    1.363340
    10  H    1.352267
    11  H    1.342281
    12  O   -2.929887
    13  H    1.505380
    14  H    0.699108
 Sum of Mulliken charges =  -0.00000

 Dipole moment (field-independent basis, Debye):
    X=              0.3057    Y=              0.2788    Z=              0.5315  Tot=              0.6735

 Test job not archived.
 1\1\GINC-SE460\SP\RHF\Aug-CC-pVDZ\C5H8O1\OHZDE\08-Apr-2025\0\\#t hf au
 g-cc-pvdz iop(5/13=1,5/36=2,99/5=2) pseudo=read geom=check guess=(read
 ,tcheck) scf=(maxcycle=1)\\title\\0,1\C,0,0.05523,1.208633,0.094845\C,
 0,1.323246,0.888342,-0.150261\C,0,1.564945,-0.599356,-0.046272\C,0,0.1
 32168,-1.182646,0.017807\H,0,2.137284,-0.832629,0.860519\H,0,2.145663,
 -0.992539,-0.886639\C,0,-0.788377,-0.008558,0.40806\H,0,0.041261,-2.03
 3688,0.694361\H,0,-0.187223,-1.50755,-0.975293\H,0,-0.351495,2.214229,
 0.109659\H,0,2.114637,1.595933,-0.372188\O,0,-1.99754,-0.102217,-0.353

 Normal termination of Gaussian 16 at Tue Apr  8 22:48:51 2025.
