 Gaussian 16, Revision C.01,

 ----------------------------------------------------------------------
 #t hf aug-cc-pvdz symm=none int=(grid=ultrafine) guess=(read,tcheck) s
 table=(opt,rrhf)
 ----------------------------------------------------------------------
 -----
 title
 -----
 Symbolic Z-matrix:
 Charge =  0 Multiplicity = 1

 SCF Done:  E(RHF) =  -1190.07958790     A.U. after   17 cycles
 Normal termination of Gaussian 16 at Tue Apr  8 23:41:35 2025.
 Gaussian 16:  ES64L-G16RevC.01  3-Jul-2019

 ----------------------------------------------------------------------
 #t hf aug-cc-pvdz iop(5/13=1,5/36=2,99/5=2) pseudo=read geom=check gue
 ss=(read,tcheck) scf=(maxcycle=1)
 ----------------------------------------------------------------------
 -----
 title
 -----
 Structure from the checkpoint file:  "BDE49_nonexpt_1619_mol1.chk"
 Charge =  0 Multiplicity = 1

                         Standard orientation:
 ---------------------------------------------------------------------
 Center     Atomic      Atomic             Coordinates (Angstroms)
 Number     Number       Type             X           Y           Z
 ---------------------------------------------------------------------
      1         15           0       -0.571334   -0.203007   -0.829589
      2          7           0       -0.933485    1.455588   -0.009404
      3         15           0        1.487261   -0.419104   -0.004543
      4          6           0       -1.493677   -1.328666    0.318326
      5          6           0       -2.963871   -1.518024   -0.074514
      6          1           0       -1.391982   -0.965728    1.342767
      7          1           0       -0.949284   -2.277948    0.247384
      8          1           0       -3.513874   -0.579912    0.007159
      9          1           0       -3.436268   -2.245998    0.589722
     10          1           0       -3.058919   -1.886747   -1.098784
     11          8           0       -2.001523    1.606745    0.547378
     12          8           0       -0.091759    2.345652   -0.155905
     13          8           0        2.054230   -1.723144   -0.357741
     14          8           0        1.360909   -0.155387    1.581105
     15          1           0        1.669058   -0.913484    2.094395
     16          8           0        2.243434    0.854791   -0.563770
     17          1           0        1.699723    1.663236   -0.476239
 ---------------------------------------------------------------------

 SCF Done:  E(RHF) =  -1192.64934583     A.U. after    2 cycles

 The electronic state is 1-A.
 Alpha  occ. eigenvalues -- -105.33228-105.25963 -21.13614 -21.12694 -21.12457
 Alpha  occ. eigenvalues --  -21.11330 -21.04665 -16.00264 -11.44573 -11.39489
 Alpha  occ. eigenvalues --   -2.95450  -2.83952  -2.01162  -2.00709  -1.93234
 Alpha  occ. eigenvalues --   -1.80651  -1.71561  -1.60659  -1.56326  -1.52518
 Alpha  occ. eigenvalues --   -1.42278  -1.41513  -1.26853  -1.16704  -0.97543
 Alpha  occ. eigenvalues --   -0.90014  -0.75618  -0.71093  -0.68092  -0.65277
 Alpha  occ. eigenvalues --   -0.62976  -0.61552  -0.60033  -0.55188  -0.54245
 Alpha  occ. eigenvalues --   -0.52742  -0.50537  -0.46822  -0.42006  -0.37338
 Alpha  occ. eigenvalues --   -0.35810  -0.34952  -0.33960  -0.30044  -0.26451
 Alpha  occ. eigenvalues --   -0.19530  -0.10939   0.01821
 Alpha virt. eigenvalues --    0.03748   0.05043   0.05711   0.06416   0.06844
 Alpha virt. eigenvalues --    0.07304   0.07540   0.08741   0.09144   0.10485
 Alpha virt. eigenvalues --    0.10653   0.12073   0.12510   0.13127   0.14053

 Mulliken charges:
               1
     1  P    3.542216
     2  N    3.749622
     3  P    7.955210
     4  C   -4.039730
     5  C   -4.043634
     6  H    1.318276
     7  H    1.497599
     8  H    1.535950
     9  H    0.423032
    10  H    0.614042
    11  O   -2.566329
    12  O   -2.705461
    13  O   -2.964577
    14  O   -3.016720
    15  H    0.738187
    16  O   -3.412927
    17  H    1.375243
 Sum of Mulliken charges =  -0.00000

 Dipole moment (field-independent basis, Debye):
    X=              9.1930    Y=              3.5142    Z=             -0.5943  Tot=              9.8598

 Test job not archived.
 1\1\GINC-SE334\SP\RHF\Aug-CC-pVDZ\C2H7N1O5P2\OHZDE\08-Apr-2025\0\\#t h
 f aug-cc-pvdz iop(5/13=1,5/36=2,99/5=2) pseudo=read geom=check guess=(
 read,tcheck) scf=(maxcycle=1)\\title\\0,1\P,0,-0.571334,-0.203007,-0.8
 29589\N,0,-0.933485,1.455588,-0.009404\P,0,1.487261,-0.419104,-0.00454
 3\C,0,-1.493677,-1.328666,0.318326\C,0,-2.963871,-1.518024,-0.074514\H
 ,0,-1.391982,-0.965728,1.342767\H,0,-0.949284,-2.277948,0.247384\H,0,-
 3.513874,-0.579912,0.007159\H,0,-3.436268,-2.245998,0.589722\H,0,-3.05
 8919,-1.886747,-1.098784\O,0,-2.001523,1.606745,0.547378\O,0,-0.091759

 Normal termination of Gaussian 16 at Tue Apr  8 23:41:45 2025.
