 Gaussian 16, Revision C.01,

 ----------------------------------------------------------------------
 #t hf aug-cc-pvdz symm=none int=(grid=ultrafine) guess=(read,tcheck) s
 table=(opt,rrhf)
 ----------------------------------------------------------------------
 -----
 title
 -----
 Symbolic Z-matrix:
 Charge =  0 Multiplicity = 1

 SCF Done:  E(RHF) =  -447.186135598     A.U. after   15 cycles
 Normal termination of Gaussian 16 at Tue Apr  8 23:04:47 2025.
 Gaussian 16:  ES64L-G16RevC.01  3-Jul-2019

 ----------------------------------------------------------------------
 #t hf aug-cc-pvdz iop(5/13=1,5/36=2,99/5=2) pseudo=read geom=check gue
 ss=(read,tcheck) scf=(maxcycle=1)
 ----------------------------------------------------------------------
 -----
 title
 -----
 Structure from the checkpoint file:  "BDE49_expt_330_mol1.chk"
 Charge =  0 Multiplicity = 1

                         Standard orientation:
 ---------------------------------------------------------------------
 Center     Atomic      Atomic             Coordinates (Angstroms)
 Number     Number       Type             X           Y           Z
 ---------------------------------------------------------------------
      1          6           0       -0.075339   -0.888474   -0.000015
      2          7           0        1.234013   -0.150089   -0.000000
      3          7           0       -1.232450    0.096659   -0.000016
      4          1           0       -0.152739   -1.477601    0.908244
      5          1           0       -0.152724   -1.477587   -0.908285
      6          8           0        1.701408    0.119113    1.091109
      7          8           0        1.701450    0.119090   -1.091096
      8          8           0       -0.985027    1.281822   -0.000042
      9          8           0       -2.324511   -0.437519    0.000060
 ---------------------------------------------------------------------

 SCF Done:  E(RHF) =  -449.057112131     A.U. after    2 cycles

 The electronic state is 1-A.
 Alpha  occ. eigenvalues --  -21.14400 -21.13684 -21.13638 -21.13460 -16.04623
 Alpha  occ. eigenvalues --  -16.03752 -11.53638  -2.05650  -2.02000  -1.74078
 Alpha  occ. eigenvalues --   -1.73270  -1.29558  -1.02622  -0.87443  -0.78133
 Alpha  occ. eigenvalues --   -0.77220  -0.74574  -0.66247  -0.65673  -0.63695
 Alpha  occ. eigenvalues --   -0.60329  -0.42423  -0.37991  -0.36855  -0.34862
 Alpha  occ. eigenvalues --   -0.34723  -0.33411
 Alpha virt. eigenvalues --    0.03125   0.04760   0.08424   0.09762   0.10213
 Alpha virt. eigenvalues --    0.11223   0.13143   0.13944   0.14468   0.15076
 Alpha virt. eigenvalues --    0.15866   0.16779   0.18239   0.20032   0.21125

 Mulliken charges:
               1
     1  C   -1.307489
     2  N    4.248250
     3  N    4.465783
     4  H    1.717197
     5  H    1.717182
     6  O   -2.695303
     7  O   -2.695300
     8  O   -2.652468
     9  O   -2.797852
 Sum of Mulliken charges =  -0.00000

 Dipole moment (field-independent basis, Debye):
    X=             -0.2607    Y=             -1.6202    Z=             -0.0000  Tot=              1.6410

 Test job not archived.
 1\1\GINC-SE166\SP\RHF\Aug-CC-pVDZ\C1H2N2O4\OHZDE\08-Apr-2025\0\\#t hf
 aug-cc-pvdz iop(5/13=1,5/36=2,99/5=2) pseudo=read geom=check guess=(re
 ad,tcheck) scf=(maxcycle=1)\\title\\0,1\C,0,-0.075339,-0.888474,-0.000
 015\N,0,1.234013,-0.150089,0.\N,0,-1.23245,0.096659,-0.000016\H,0,-0.1
 52739,-1.477601,0.908244\H,0,-0.152724,-1.477587,-0.908285\O,0,1.70140
 8,0.119113,1.091109\O,0,1.70145,0.11909,-1.091096\O,0,-0.985027,1.2818
 22,-0.000042\O,0,-2.324511,-0.437519,0.00006\\Version=ES64L-G16RevC.01
 \State=1-A\HF=-449.0571121\RMSD=9.182e-02\Dipole=-0.102583,-0.6374292,

 Normal termination of Gaussian 16 at Tue Apr  8 23:04:50 2025.
