 Gaussian 16, Revision C.01,

 ----------------------------------------------------------------------
 #t hf aug-cc-pvdz symm=none int=(grid=ultrafine) guess=(read,tcheck) s
 table=(opt,rrhf)
 ----------------------------------------------------------------------
 -----
 title
 -----
 Symbolic Z-matrix:
 Charge =  0 Multiplicity = 1

 SCF Done:  E(RHF) =  -369.327742256     A.U. after   11 cycles

 1\1\GINC-SE340\Stability\RHF\Aug-CC-pVDZ\C2H8Si1\OHZDE\08-Apr-2025\0\\
 #t hf aug-cc-pvdz symm=none int=(grid=ultrafine) guess=(read,tcheck) s
 table=(opt,rrhf)\\title\\0,1\Si,0,-1.153943,-0.122962,0.\C,0,0.560496,
 0.665168,0.\C,0,1.722347,-0.344075,0.\H,0,0.631996,1.321967,-0.874631\
 H,0,1.690787,-0.990687,0.881677\H,0,2.691385,0.163331,0.\H,0,1.690787,
 -0.990688,-0.881676\H,0,0.631995,1.321967,0.874629\H,0,-1.334807,-0.97
 544,-1.201523\H,0,-2.209187,0.9199,-0.000001\H,0,-1.334808,-0.975438,1
 .201524\\Version=ES64L-G16RevC.01\HF=-369.3277423\RMSD=2.739e-09\Dipol

 Normal termination of Gaussian 16 at Tue Apr  8 23:57:21 2025.
 Gaussian 16:  ES64L-G16RevC.01  3-Jul-2019

 ----------------------------------------------------------------------
 #t hf aug-cc-pvdz iop(5/13=1,5/36=2,99/5=2) pseudo=read geom=check gue
 ss=(read,tcheck) scf=(maxcycle=1)
 ----------------------------------------------------------------------
 -----
 title
 -----
 Structure from the checkpoint file:  "BDE49_nonexpt_2030_mol1.chk"
 Charge =  0 Multiplicity = 1

                         Standard orientation:
 ---------------------------------------------------------------------
 Center     Atomic      Atomic             Coordinates (Angstroms)
 Number     Number       Type             X           Y           Z
 ---------------------------------------------------------------------
      1         14           0       -1.153943   -0.122962    0.000000
      2          6           0        0.560496    0.665168    0.000000
      3          6           0        1.722347   -0.344075    0.000000
      4          1           0        0.631996    1.321967   -0.874631
      5          1           0        1.690787   -0.990687    0.881677
      6          1           0        2.691385    0.163331    0.000000
      7          1           0        1.690787   -0.990688   -0.881676
      8          1           0        0.631995    1.321967    0.874629
      9          1           0       -1.334807   -0.975440   -1.201523
     10          1           0       -2.209187    0.919900   -0.000001
     11          1           0       -1.334808   -0.975438    1.201524
 ---------------------------------------------------------------------

 SCF Done:  E(RHF) =  -369.923587374     A.U. after    2 cycles

 The electronic state is 1-A.
 Alpha  occ. eigenvalues --  -76.20490 -11.39332 -11.34655  -5.54031  -2.17805
 Alpha  occ. eigenvalues --   -2.16316  -2.16151  -1.14977  -0.89559  -0.74138
 Alpha  occ. eigenvalues --   -0.61114  -0.57401  -0.50555  -0.49271  -0.45710
 Alpha  occ. eigenvalues --   -0.45417  -0.38858
 Alpha virt. eigenvalues --    0.03678   0.05117   0.05552   0.05924   0.06458
 Alpha virt. eigenvalues --    0.07142   0.07522   0.08103   0.09741   0.09995
 Alpha virt. eigenvalues --    0.11131   0.13452   0.14679   0.15229   0.16404

 Mulliken charges:
               1
     1  Si   6.046219
     2  C   -4.036671
     3  C   -3.388082
     4  H    1.386186
     5  H    1.286693
     6  H    1.161778
     7  H    1.286693
     8  H    1.386189
     9  H   -1.718663
    10  H   -1.691678
    11  H   -1.718663
 Sum of Mulliken charges =  -0.00000

 Dipole moment (field-independent basis, Debye):
    X=              0.9236    Y=              0.4752    Z=              0.0000  Tot=              1.0387

 Test job not archived.
 1\1\GINC-SE340\SP\RHF\Aug-CC-pVDZ\C2H8Si1\OHZDE\08-Apr-2025\0\\#t hf a
 ug-cc-pvdz iop(5/13=1,5/36=2,99/5=2) pseudo=read geom=check guess=(rea
 d,tcheck) scf=(maxcycle=1)\\title\\0,1\Si,0,-1.153943,-0.122962,0.\C,0
 ,0.560496,0.665168,0.\C,0,1.722347,-0.344075,0.\H,0,0.631996,1.321967,
 -0.874631\H,0,1.690787,-0.990687,0.881677\H,0,2.691385,0.163331,0.\H,0
 ,1.690787,-0.990688,-0.881676\H,0,0.631995,1.321967,0.874629\H,0,-1.33
 4807,-0.97544,-1.201523\H,0,-2.209187,0.9199,-0.000001\H,0,-1.334808,-
 0.975438,1.201524\\Version=ES64L-G16RevC.01\State=1-A\HF=-369.9235874\

 Normal termination of Gaussian 16 at Tue Apr  8 23:57:24 2025.
