 Gaussian 16, Revision C.01,

 ----------------------------------------------------------------------
 #t hf aug-cc-pvdz symm=none int=(grid=ultrafine) guess=(read,tcheck) s
 table=(opt,rrhf)
 ----------------------------------------------------------------------
 -----
 title
 -----
 Symbolic Z-matrix:
 Charge =  0 Multiplicity = 1

 SCF Done:  E(RHF) =  -1178.32633834     A.U. after   15 cycles
 Normal termination of Gaussian 16 at Wed Apr  9 00:20:37 2025.
 Gaussian 16:  ES64L-G16RevC.01  3-Jul-2019

 ----------------------------------------------------------------------
 #t hf aug-cc-pvdz iop(5/13=1,5/36=2,99/5=2) pseudo=read geom=check gue
 ss=(read,tcheck) scf=(maxcycle=1)
 ----------------------------------------------------------------------
 -----
 title
 -----
 Structure from the checkpoint file:  "BDE49_nonexpt_2595_mol1.chk"
 Charge =  0 Multiplicity = 1

                         Standard orientation:
 ---------------------------------------------------------------------
 Center     Atomic      Atomic             Coordinates (Angstroms)
 Number     Number       Type             X           Y           Z
 ---------------------------------------------------------------------
      1         17           0        2.618861   -0.113869    0.918356
      2         16           0        1.678089    0.248349   -0.900220
      3          8           0        0.132497    0.650671   -0.453541
      4          6           0       -0.801881   -0.405214   -0.250956
      5          8           0       -0.519117   -1.560565   -0.411211
      6          7           0       -1.992628    0.111068    0.130990
      7          6           0       -2.277822    1.531149    0.311017
      8          1           0       -1.370881    2.115319    0.202230
      9          1           0       -2.692563    1.696858    1.310209
     10          1           0       -3.012851    1.867658   -0.428293
     11          6           0       -3.103008   -0.808271    0.352971
     12          1           0       -3.473761   -0.709451    1.378074
     13          1           0       -2.759407   -1.826055    0.190162
     14          1           0       -3.922972   -0.586451   -0.338026
 ---------------------------------------------------------------------

 SCF Done:  E(RHF) =  -1180.22099691     A.U. after    2 cycles

 The electronic state is 1-A.
 Alpha  occ. eigenvalues --  -99.91162 -75.79095 -21.12129 -21.04682 -15.76827
 Alpha  occ. eigenvalues --  -13.26471 -13.14148 -13.12954 -11.53833 -11.41672
 Alpha  occ. eigenvalues --  -11.40730 -10.48301  -9.68039  -9.67417  -9.67301
 Alpha  occ. eigenvalues --   -8.12485  -1.86050  -1.68977  -1.44709  -1.32879
 Alpha  occ. eigenvalues --   -1.08217  -1.05570  -0.98290  -0.75987  -0.70175
 Alpha  occ. eigenvalues --   -0.68005  -0.64757  -0.60223  -0.57330  -0.56989
 Alpha  occ. eigenvalues --   -0.56683  -0.54895  -0.54152  -0.53917  -0.49981
 Alpha  occ. eigenvalues --   -0.43580  -0.39366  -0.31668  -0.31471  -0.25575
 Alpha virt. eigenvalues --    0.02892   0.03873   0.05058   0.05474   0.06193
 Alpha virt. eigenvalues --    0.06759   0.07197   0.07873   0.08883   0.11437
 Alpha virt. eigenvalues --    0.12032   0.12595   0.13198   0.13546   0.13972

 Mulliken charges:
               1
     1  Cl  -0.444397
     2  S    0.846161
     3  O   -2.147278
     4  C    5.629034
     5  O   -2.565716
     6  N   -2.933009
     7  C   -3.504290
     8  H    1.628287
     9  H    1.419963
    10  H    1.420962
    11  C   -3.521363
    12  H    1.395443
    13  H    1.388856
    14  H    1.387348
 Sum of Mulliken charges =  -0.00000

 Dipole moment (field-independent basis, Debye):
    X=             -3.2848    Y=              1.7052    Z=             -2.3301  Tot=              4.3735

 Test job not archived.
 1\1\GINC-SE116\SP\RHF\Aug-CC-pVDZ\C3H6Cl1N1O2S1\OHZDE\09-Apr-2025\0\\#
 t hf aug-cc-pvdz iop(5/13=1,5/36=2,99/5=2) pseudo=read geom=check gues
 s=(read,tcheck) scf=(maxcycle=1)\\title\\0,1\Cl,0,2.618861,-0.113869,0
 .918356\S,0,1.678089,0.248349,-0.90022\O,0,0.132497,0.650671,-0.453541
 \C,0,-0.801881,-0.405214,-0.250956\O,0,-0.519117,-1.560565,-0.411211\N
 ,0,-1.992628,0.111068,0.13099\C,0,-2.277822,1.531149,0.311017\H,0,-1.3
 70881,2.115319,0.20223\H,0,-2.692563,1.696858,1.310209\H,0,-3.012851,1
 .867658,-0.428293\C,0,-3.103008,-0.808271,0.352971\H,0,-3.473761,-0.70

 Normal termination of Gaussian 16 at Wed Apr  9 00:20:43 2025.
