 Gaussian 16, Revision C.01,

 ----------------------------------------------------------------------
 #t hf aug-cc-pvdz symm=none int=(grid=ultrafine) guess=(read,tcheck) s
 table=opt
 ----------------------------------------------------------------------
 -----
 title
 -----
 Symbolic Z-matrix:
 Charge =  0 Multiplicity = 2

 SCF Done:  E(UHF) =  -351.367025374     A.U. after   21 cycles
 Normal termination of Gaussian 16 at Wed Apr  9 00:32:23 2025.
 Gaussian 16:  ES64L-G16RevC.01  3-Jul-2019

 ----------------------------------------------------------------------
 #t hf aug-cc-pvdz iop(5/13=1,5/36=2,99/5=2) pseudo=read geom=check gue
 ss=(read,tcheck) scf=(maxcycle=1)
 ----------------------------------------------------------------------
 -----
 title
 -----
 Structure from the checkpoint file:  "BDE49_nonexpt_378_mol2.chk"
 Charge =  0 Multiplicity = 2

                         Standard orientation:
 ---------------------------------------------------------------------
 Center     Atomic      Atomic             Coordinates (Angstroms)
 Number     Number       Type             X           Y           Z
 ---------------------------------------------------------------------
      1          9           0        2.480180   -0.372452    0.292042
      2          5           0        1.490830   -0.181693   -0.535701
      3          6           0        0.029062    0.266336   -0.136912
      4          8           0       -0.231847    1.434590    0.045536
      5          8           0       -0.869025   -0.734109   -0.122806
      6          6           0       -2.237952   -0.353361    0.144508
      7          1           0       -2.807893   -1.277844    0.100123
      8          1           0       -2.587518    0.353447   -0.609001
      9          1           0       -2.320047    0.103229    1.131594
 ---------------------------------------------------------------------

 SCF Done:  E(UHF) =  -352.741723794     A.U. after    2 cycles

 The electronic state is 2-A.
 Alpha  occ. eigenvalues --  -29.28875 -21.10863 -21.07001 -11.49310 -11.42617
 Alpha  occ. eigenvalues --   -7.71668  -1.85280  -1.67600  -1.08449  -1.00704
 Alpha  occ. eigenvalues --   -0.79397  -0.69540  -0.64347  -0.58329  -0.57010
 Alpha  occ. eigenvalues --   -0.55166  -0.49378  -0.45828  -0.43848  -0.40362
 Alpha  occ. eigenvalues --   -0.34067  -0.32944  -0.22366
 Alpha virt. eigenvalues --    0.03405   0.04473   0.04618   0.05970   0.06205
 Alpha virt. eigenvalues --    0.06696   0.08552   0.12612   0.13326   0.14063
 Alpha virt. eigenvalues --    0.14184   0.15690   0.16814   0.17220   0.18055

  Beta  occ. eigenvalues --  -29.28579 -21.10859 -21.06728 -11.49096 -11.42614
  Beta  occ. eigenvalues --   -7.69734  -1.85116  -1.67121  -1.06354  -0.98843
  Beta  occ. eigenvalues --   -0.78378  -0.69161  -0.64061  -0.58074  -0.56716
  Beta  occ. eigenvalues --   -0.52446  -0.45551  -0.44185  -0.42847  -0.38884
  Beta  occ. eigenvalues --   -0.33106  -0.30312
  Beta virt. eigenvalues --    0.03235   0.04109   0.04619   0.05873   0.06178
  Beta virt. eigenvalues --    0.06577   0.08197   0.10429   0.13574   0.13968
  Beta virt. eigenvalues --    0.14176   0.14764   0.16501   0.17222   0.17975

 Mulliken charges and spin densities:
               1          2
     1  F   -0.471193  -0.069499
     2  B    1.004794   1.027643
     3  C    3.738595  -0.133512
     4  O   -2.572975   0.121077
     5  O   -2.902170   0.051246
     6  C   -2.732283   0.005391
     7  H    1.312732  -0.000901
     8  H    1.304862  -0.000389
     9  H    1.317636  -0.001055
 Sum of Mulliken charges =  -0.00000   1.00000

 Dipole moment (field-independent basis, Debye):
    X=              1.4085    Y=             -1.4794    Z=              2.4549  Tot=              3.1936
                          Isotropic Fermi Contact Couplings
        Atom                 a.u.       MegaHertz       Gauss      10(-4) cm-1
     1  F(19)              0.04859     204.43125      72.94615      68.19092
     2  B(11)              0.19542     280.29789     100.01726      93.49731
     3  C(13)              0.05890      66.21851      23.62841      22.08812
     4  O(17)              0.01518      -9.20141      -3.28329      -3.06926
     5  O(17)             -0.00056       0.34111       0.12172       0.11378
     6  C(13)              0.00126       1.41934       0.50646       0.47344
     7  H(1)               0.00028       1.23211       0.43965       0.41099
     8  H(1)               0.00014       0.63162       0.22538       0.21069

 Normal termination of Gaussian 16 at Wed Apr  9 00:32:27 2025.
