 Gaussian 16, Revision C.01,

 ----------------------------------------------------------------------
 #t hf aug-cc-pvdz symm=none int=(grid=ultrafine) guess=(read,tcheck) s
 table=(opt,rrhf)
 ----------------------------------------------------------------------
 -----
 title
 -----
 Symbolic Z-matrix:
 Charge =  0 Multiplicity = 1

 SCF Done:  E(RHF) =  -1346.86158424     A.U. after   15 cycles
 Normal termination of Gaussian 16 at Wed Apr  9 00:18:35 2025.
 Gaussian 16:  ES64L-G16RevC.01  3-Jul-2019

 ----------------------------------------------------------------------
 #t hf aug-cc-pvdz iop(5/13=1,5/36=2,99/5=2) pseudo=read geom=check gue
 ss=(read,tcheck) scf=(maxcycle=1)
 ----------------------------------------------------------------------
 -----
 title
 -----
 Structure from the checkpoint file:  "BDE49_nonexpt_2563_mol1.chk"
 Charge =  0 Multiplicity = 1

                         Standard orientation:
 ---------------------------------------------------------------------
 Center     Atomic      Atomic             Coordinates (Angstroms)
 Number     Number       Type             X           Y           Z
 ---------------------------------------------------------------------
      1         17           0        1.988376    0.721934   -0.264477
      2         16           0        0.728588   -0.664900    0.661103
      3          6           0       -1.950819    0.435259    0.021141
      4          7           0       -2.686645    1.265578    0.352146
      5         16           0       -0.934273   -0.819066   -0.542087
 ---------------------------------------------------------------------

 SCF Done:  E(RHF) =  -1347.93649826     A.U. after    2 cycles

 The electronic state is 1-A.
 Alpha  occ. eigenvalues --  -99.93796 -75.80463 -75.79933 -15.79652 -13.25208
 Alpha  occ. eigenvalues --  -13.19442 -13.16721 -13.14117 -13.12297 -13.11833
 Alpha  occ. eigenvalues --  -11.46100 -10.50874  -9.70569  -9.69921  -9.69880
 Alpha  occ. eigenvalues --   -8.14074  -8.13961  -1.39034  -1.33786  -1.23885
 Alpha  occ. eigenvalues --   -1.04965  -0.70388  -0.59981  -0.58686  -0.57945
 Alpha  occ. eigenvalues --   -0.53160  -0.51825  -0.50963  -0.38695  -0.32639
 Alpha  occ. eigenvalues --   -0.30780
 Alpha virt. eigenvalues --    0.00911   0.02762   0.04690   0.07508   0.08998
 Alpha virt. eigenvalues --    0.10844   0.11933   0.12421   0.13305   0.13559
 Alpha virt. eigenvalues --    0.14223   0.14812   0.15456   0.16220   0.18066

 Mulliken charges:
               1
     1  Cl  -0.293082
     2  S    0.264484
     3  C    1.176094
     4  N   -2.005989
     5  S    0.858493
 Sum of Mulliken charges =  -0.00000

 Dipole moment (field-independent basis, Debye):
    X=              0.3714    Y=             -4.9811    Z=              0.1813  Tot=              4.9982

 Test job not archived.
 1\1\GINC-SE090\SP\RHF\Aug-CC-pVDZ\C1Cl1N1S2\OHZDE\09-Apr-2025\0\\#t hf
  aug-cc-pvdz iop(5/13=1,5/36=2,99/5=2) pseudo=read geom=check guess=(r
 ead,tcheck) scf=(maxcycle=1)\\title\\0,1\Cl,0,1.988376,0.721934,-0.264
 477\S,0,0.728588,-0.6649,0.661103\C,0,-1.950819,0.435259,0.021141\N,0,
 -2.686645,1.265578,0.352146\S,0,-0.934273,-0.819066,-0.542087\\Version
 =ES64L-G16RevC.01\State=1-A\HF=-1347.9364983\RMSD=7.975e-02\Dipole=0.1
 461272,-1.9597011,0.0713441\Quadrupole=-4.8241932,1.625562,3.1986312,3
 .2282133,4.0520691,-0.9445492\PG=C01 [X(C1Cl1N1S2)]\\@

 Normal termination of Gaussian 16 at Wed Apr  9 00:18:37 2025.
