 Gaussian 16, Revision C.01,

 ----------------------------------------------------------------------
 #t hf aug-cc-pvdz symm=none int=(grid=ultrafine) guess=(read,tcheck) s
 table=(opt,rrhf)
 ----------------------------------------------------------------------
 -----
 title
 -----
 Symbolic Z-matrix:
 Charge =  0 Multiplicity = 1

 SCF Done:  E(RHF) =  -572.904730080     A.U. after   16 cycles
 Normal termination of Gaussian 16 at Wed Apr  9 00:07:45 2025.
 Gaussian 16:  ES64L-G16RevC.01  3-Jul-2019

 ----------------------------------------------------------------------
 #t hf aug-cc-pvdz iop(5/13=1,5/36=2,99/5=2) pseudo=read geom=check gue
 ss=(read,tcheck) scf=(maxcycle=1)
 ----------------------------------------------------------------------
 -----
 title
 -----
 Structure from the checkpoint file:  "BDE49_nonexpt_2259_mol1.chk"
 Charge =  0 Multiplicity = 1

                         Standard orientation:
 ---------------------------------------------------------------------
 Center     Atomic      Atomic             Coordinates (Angstroms)
 Number     Number       Type             X           Y           Z
 ---------------------------------------------------------------------
      1         14           0        0.790355    0.008134    0.356547
      2          8           0       -0.723414   -0.435964   -0.294435
      3          7           0       -1.883567    0.167238    0.312009
      4          8           0       -2.863467   -0.176405   -0.216026
      5          6           0        1.271901    1.702873   -0.262468
      6          1           0        1.339162    1.723215   -1.353917
      7          1           0        2.246326    1.995154    0.142137
      8          1           0        0.542683    2.456581    0.047193
      9          6           0        1.961279   -1.329523   -0.204680
     10          1           0        2.025275   -1.366771   -1.295412
     11          1           0        1.633933   -2.309919    0.149968
     12          1           0        2.965610   -1.143945    0.188708
     13          1           0        0.662990    0.019995    1.832174
 ---------------------------------------------------------------------

 SCF Done:  E(RHF) =  -574.318149090     A.U. after    2 cycles

 The electronic state is 1-A.
 Alpha  occ. eigenvalues --  -76.23187 -21.15709 -21.07596 -15.93955 -11.35599
 Alpha  occ. eigenvalues --  -11.35532  -5.57172  -2.23336  -2.20800  -2.19543
 Alpha  occ. eigenvalues --   -1.95392  -1.67969  -1.07047  -1.02279  -0.94949
 Alpha  occ. eigenvalues --   -0.72518  -0.62632  -0.61600  -0.60715  -0.57721
 Alpha  occ. eigenvalues --   -0.56600  -0.55850  -0.55515  -0.45448  -0.42645
 Alpha  occ. eigenvalues --   -0.38747  -0.35929  -0.29748
 Alpha virt. eigenvalues --    0.03069   0.05012   0.05728   0.06196   0.06654
 Alpha virt. eigenvalues --    0.06843   0.07363   0.08750   0.09292   0.09500
 Alpha virt. eigenvalues --    0.12272   0.13096   0.14319   0.15249   0.15935

 Mulliken charges:
               1
     1  Si   6.694721
     2  O   -2.844603
     3  N    2.615372
     4  O   -1.774554
     5  C   -5.113182
     6  H    1.268817
     7  H    1.268384
     8  H    1.222725
     9  C   -5.077640
    10  H    1.292863
    11  H    1.219915
    12  H    1.269175
    13  H   -2.041993
 Sum of Mulliken charges =  -0.00000

 Dipole moment (field-independent basis, Debye):
    X=              1.3012    Y=             -0.2166    Z=             -0.8674  Tot=              1.5788

 Test job not archived.
 1\1\GINC-SE341\SP\RHF\Aug-CC-pVDZ\C2H7N1O2Si1\OHZDE\09-Apr-2025\0\\#t
 hf aug-cc-pvdz iop(5/13=1,5/36=2,99/5=2) pseudo=read geom=check guess=
 (read,tcheck) scf=(maxcycle=1)\\title\\0,1\Si,0,0.790355,0.008134,0.35
 6547\O,0,-0.723414,-0.435964,-0.294435\N,0,-1.883567,0.167238,0.312009
 \O,0,-2.863467,-0.176405,-0.216026\C,0,1.271901,1.702873,-0.262468\H,0
 ,1.339162,1.723215,-1.353917\H,0,2.246326,1.995154,0.142137\H,0,0.5426
 83,2.456581,0.047193\C,0,1.961279,-1.329523,-0.20468\H,0,2.025275,-1.3
 66771,-1.295412\H,0,1.633933,-2.309919,0.149968\H,0,2.96561,-1.143945,

 Normal termination of Gaussian 16 at Wed Apr  9 00:07:49 2025.
