 Gaussian 16, Revision C.01,

 ----------------------------------------------------------------------
 #t hf aug-cc-pvdz symm=none int=(grid=ultrafine) guess=(read,tcheck) s
 table=(opt,rrhf)
 ----------------------------------------------------------------------
 -----
 title
 -----
 Symbolic Z-matrix:
 Charge =  0 Multiplicity = 1

 SCF Done:  E(RHF) =  -1409.95107100     A.U. after   14 cycles
 Normal termination of Gaussian 16 at Wed Apr  9 00:51:17 2025.
 Gaussian 16:  ES64L-G16RevC.01  3-Jul-2019

 ----------------------------------------------------------------------
 #t hf aug-cc-pvdz iop(5/13=1,5/36=2,99/5=2) pseudo=read geom=check gue
 ss=(read,tcheck) scf=(maxcycle=1)
 ----------------------------------------------------------------------
 -----
 title
 -----
 Structure from the checkpoint file:  "BDE49_nonexpt_904_mol1.chk"
 Charge =  0 Multiplicity = 1

                         Standard orientation:
 ---------------------------------------------------------------------
 Center     Atomic      Atomic             Coordinates (Angstroms)
 Number     Number       Type             X           Y           Z
 ---------------------------------------------------------------------
      1          6           0        2.836200   -0.804102    0.000052
      2          6           0        1.560567    0.020314   -0.000025
      3         16           0        0.081267   -1.058885   -0.000117
      4          8           0        1.541205    1.222210   -0.000122
      5          5           0       -1.434991   -0.015252   -0.000193
      6         16           0       -1.575025    1.781139    0.000075
      7          6           0        4.102318    0.049657    0.000067
      8          1           0        2.799036   -1.466307   -0.872047
      9          1           0        2.798971   -1.466242    0.872197
     10          1           0        4.143559    0.692534   -0.880774
     11          1           0        4.985946   -0.591949    0.000124
     12          1           0        4.143493    0.692599    0.880863
     13         16           0       -2.940062   -1.044989    0.000081
     14          1           0       -0.251316    2.040540    0.000142
     15          1           0       -3.827778   -0.034046    0.000251
 ---------------------------------------------------------------------

 SCF Done:  E(RHF) =  -1411.61592756     A.U. after    2 cycles

 The electronic state is 1-A.
 Alpha  occ. eigenvalues --  -75.70543 -75.69914 -75.69125 -21.08725 -13.17849
 Alpha  occ. eigenvalues --  -13.16895 -13.15724 -13.12254 -13.10847 -13.09037
 Alpha  occ. eigenvalues --  -13.04815 -13.04224 -13.03015 -11.53465 -11.43719
 Alpha  occ. eigenvalues --  -11.38415  -8.04842  -8.03820  -8.03067  -7.68842
 Alpha  occ. eigenvalues --   -1.75094  -1.25806  -1.20870  -1.11970  -1.09878
 Alpha  occ. eigenvalues --   -0.96113  -0.77294  -0.69274  -0.65271  -0.61752
 Alpha  occ. eigenvalues --   -0.55451  -0.54537  -0.53308  -0.52958  -0.49459
 Alpha  occ. eigenvalues --   -0.46988  -0.45568  -0.37803  -0.36859  -0.32786
 Alpha  occ. eigenvalues --   -0.27138  -0.26598  -0.24944
 Alpha virt. eigenvalues --    0.02061   0.02733   0.03067   0.03374   0.05084
 Alpha virt. eigenvalues --    0.06024   0.06851   0.07042   0.08091   0.08303
 Alpha virt. eigenvalues --    0.10255   0.10395   0.10418   0.12134   0.12629

 Mulliken charges:
               1
     1  C   -3.450929
     2  C    2.695020
     3  S   -0.691385
     4  O   -3.145175
     5  B    4.480197
     6  S   -2.601517
     7  C   -3.641827
     8  H    1.579238
     9  H    1.579287
    10  H    1.304129
    11  H    1.084215
    12  H    1.304110
    13  S   -2.544764
    14  H    1.266195
    15  H    0.783208
 Sum of Mulliken charges =   0.00000

 Dipole moment (field-independent basis, Debye):
    X=              0.2779    Y=             -1.7953    Z=              0.0009  Tot=              1.8167

 Test job not archived.
 1\1\GINC-SE092\SP\RHF\Aug-CC-pVDZ\C3H7B1O1S3\OHZDE\09-Apr-2025\0\\#t h
 f aug-cc-pvdz iop(5/13=1,5/36=2,99/5=2) pseudo=read geom=check guess=(
 read,tcheck) scf=(maxcycle=1)\\title\\0,1\C,0,-2.8362,-0.804102,-0.000
 052\C,0,-1.560567,0.020314,0.000025\S,0,-0.081267,-1.058885,0.000117\O
 ,0,-1.541205,1.22221,0.000122\B,0,1.434991,-0.015252,0.000193\S,0,1.57
 5025,1.781139,-0.000075\C,0,-4.102318,0.049657,-0.000067\H,0,-2.799036
 ,-1.466307,0.872047\H,0,-2.798971,-1.466242,-0.872197\H,0,-4.143559,0.
 692534,0.880774\H,0,-4.985946,-0.591949,-0.000124\H,0,-4.143493,0.6925

 Normal termination of Gaussian 16 at Wed Apr  9 00:51:25 2025.
