 Gaussian 16, Revision C.01,

 ----------------------------------------------------------------------
 #t hf aug-cc-pvdz symm=none int=(grid=ultrafine) guess=(read,tcheck) s
 table=(opt,rrhf)
 ----------------------------------------------------------------------
 -----
 title
 -----
 Symbolic Z-matrix:
 Charge =  0 Multiplicity = 1

 SCF Done:  E(RHF) =  -749.959378792     A.U. after   17 cycles
 Normal termination of Gaussian 16 at Wed Apr  9 00:45:58 2025.
 Gaussian 16:  ES64L-G16RevC.01  3-Jul-2019

 ----------------------------------------------------------------------
 #t hf aug-cc-pvdz iop(5/13=1,5/36=2,99/5=2) pseudo=read geom=check gue
 ss=(read,tcheck) scf=(maxcycle=1)
 ----------------------------------------------------------------------
 -----
 title
 -----
 Structure from the checkpoint file:  "BDE49_nonexpt_692_mol1.chk"
 Charge =  0 Multiplicity = 1

                         Standard orientation:
 ---------------------------------------------------------------------
 Center     Atomic      Atomic             Coordinates (Angstroms)
 Number     Number       Type             X           Y           Z
 ---------------------------------------------------------------------
      1          6           0       -2.040429   -1.536394    0.083224
      2          6           0       -3.350459   -1.129320    0.157017
      3          6           0       -3.673896    0.247353    0.136608
      4          6           0       -2.679186    1.190916    0.042988
      5          6           0       -1.317319    0.804258   -0.034231
      6          6           0       -0.989507   -0.587246   -0.015131
      7          1           0       -1.792145   -2.592519    0.098960
      8          1           0       -4.143967   -1.864317    0.231554
      9          1           0       -4.711803    0.554695    0.195641
     10          1           0       -2.924379    2.247774    0.027318
     11          6           0        0.373075   -0.975462   -0.089364
     12          6           0        1.381668   -0.039184   -0.178525
     13          6           0       -0.260673    1.747357   -0.133852
     14          6           0        1.046780    1.343312   -0.211392
     15          1           0       -0.503012    2.804849   -0.153247
     16          1           0        1.834720    2.083444   -0.295344
     17          5           0        4.264720    0.255938    0.868862
     18          1           0        0.606503   -2.035188   -0.065971
     19         15           0        3.126936   -0.534551   -0.344125
     20          1           0        4.081205    1.377367    1.216886
     21          1           0        5.277520   -0.311608    1.126111
     22          1           0        3.107384   -1.919464   -0.108396
 ---------------------------------------------------------------------

 SCF Done:  E(RHF) =  -752.105433458     A.U. after    2 cycles

 The electronic state is 1-A.
 Alpha  occ. eigenvalues -- -105.16898 -11.52536 -11.50030 -11.45454 -11.44284
 Alpha  occ. eigenvalues --  -11.44059 -11.43029 -11.41881 -11.41775 -11.39804
 Alpha  occ. eigenvalues --  -11.36818  -7.62085  -2.75360  -1.55923  -1.49652
 Alpha  occ. eigenvalues --   -1.42305  -1.39170  -1.23338  -1.14580  -1.07932
 Alpha  occ. eigenvalues --   -1.04509  -0.90206  -0.88052  -0.85282  -0.82810
 Alpha  occ. eigenvalues --   -0.72147  -0.70353  -0.67960  -0.63647  -0.60571
 Alpha  occ. eigenvalues --   -0.57709  -0.57074  -0.54420  -0.54058  -0.49896
 Alpha  occ. eigenvalues --   -0.49583  -0.45348  -0.44818  -0.42660  -0.38811
 Alpha  occ. eigenvalues --   -0.32338  -0.28315  -0.24722  -0.14179  -0.04837
 Alpha virt. eigenvalues --    0.03095   0.03910   0.04441   0.05135   0.05565
 Alpha virt. eigenvalues --    0.06133   0.06155   0.06543   0.07731   0.08392
 Alpha virt. eigenvalues --    0.08947   0.09263   0.09788   0.09940   0.10899

 Mulliken charges:
               1
     1  C   -2.780402
     2  C   -4.072763
     3  C   -4.110080
     4  C   -2.738888
     5  C    6.961988
     6  C    7.697240
     7  H    1.698612
     8  H    1.477839
     9  H    1.469105
    10  H    1.716691
    11  C   -3.325373
    12  C   -0.102613
    13  C   -2.592936
    14  C   -6.627791
    15  H    1.851350
    16  H    1.998424
    17  B    4.882722
    18  H    2.120128
    19  P    0.998259
    20  H   -2.308845
    21  H   -2.868666
    22  H   -1.344002
 Sum of Mulliken charges =   0.00000

 Dipole moment (field-independent basis, Debye):
    X=             -4.3193    Y=             -1.7337    Z=             -7.2887  Tot=              8.6480

 Test job not archived.
 1\1\GINC-SE102\SP\RHF\Aug-CC-pVDZ\C10H10B1P1\OHZDE\09-Apr-2025\0\\#t h
 f aug-cc-pvdz iop(5/13=1,5/36=2,99/5=2) pseudo=read geom=check guess=(
 read,tcheck) scf=(maxcycle=1)\\title\\0,1\C,0,-2.040429,-1.536394,0.08
 3224\C,0,-3.350459,-1.12932,0.157017\C,0,-3.673896,0.247353,0.136608\C
 ,0,-2.679186,1.190916,0.042988\C,0,-1.317319,0.804258,-0.034231\C,0,-0
 .989507,-0.587246,-0.015131\H,0,-1.792145,-2.592519,0.09896\H,0,-4.143
 967,-1.864317,0.231554\H,0,-4.711803,0.554695,0.195641\H,0,-2.924379,2
 .247774,0.027318\C,0,0.373075,-0.975462,-0.089364\C,0,1.381668,-0.0391

 Normal termination of Gaussian 16 at Wed Apr  9 00:46:15 2025.
