 Gaussian 16, Revision C.01,

 ----------------------------------------------------------------------
 #t hf aug-cc-pvdz symm=none int=(grid=ultrafine) guess=(read,tcheck) s
 table=(opt,rrhf)
 ----------------------------------------------------------------------
 -----
 title
 -----
 Symbolic Z-matrix:
 Charge =  0 Multiplicity = 1

 SCF Done:  E(RHF) =  -217.142275337     A.U. after   12 cycles
 Normal termination of Gaussian 16 at Tue Apr  8 22:45:31 2025.
 Gaussian 16:  ES64L-G16RevC.01  3-Jul-2019

 ----------------------------------------------------------------------
 #t hf aug-cc-pvdz iop(5/13=1,5/36=2,99/5=2) pseudo=read geom=check gue
 ss=(read,tcheck) scf=(maxcycle=1)
 ----------------------------------------------------------------------
 -----
 title
 -----
 Structure from the checkpoint file:  "BDE49_expt_1521_mol1.chk"
 Charge =  0 Multiplicity = 1

                         Standard orientation:
 ---------------------------------------------------------------------
 Center     Atomic      Atomic             Coordinates (Angstroms)
 Number     Number       Type             X           Y           Z
 ---------------------------------------------------------------------
      1          6           0       -0.800120    0.518748    0.296017
      2          6           0        0.595559    0.658891   -0.281410
      3          9           0       -1.394579   -0.662746   -0.169901
      4          6           0        1.530376   -0.485081    0.118576
      5          1           0        1.117643   -1.444658   -0.198968
      6          1           0        1.668540   -0.521823    1.203720
      7          1           0        2.514901   -0.369272   -0.340774
      8          1           0       -1.445003    1.349022   -0.006011
      9          1           0       -0.777221    0.459918    1.389362
     10          1           0        1.001893    1.620508    0.054818
     11          1           0        0.515568    0.715676   -1.372136
 ---------------------------------------------------------------------

 SCF Done:  E(RHF) =  -218.097289077     A.U. after    2 cycles

 The electronic state is 1-A.
 Alpha  occ. eigenvalues --  -29.23976 -11.45167 -11.39816 -11.35720  -1.25142
 Alpha  occ. eigenvalues --   -1.05125  -0.87710  -0.69069  -0.65571  -0.59785
 Alpha  occ. eigenvalues --   -0.57239  -0.49854  -0.48233  -0.47824  -0.35224
 Alpha  occ. eigenvalues --   -0.24138  -0.23936
 Alpha virt. eigenvalues --    0.04141   0.05283   0.05775   0.06192   0.06452
 Alpha virt. eigenvalues --    0.06744   0.07441   0.11338   0.12651   0.14375
 Alpha virt. eigenvalues --    0.14617   0.15554   0.16130   0.17636   0.17933

 Mulliken charges:
               1
     1  C   -2.534181
     2  C   -3.282307
     3  F    0.194212
     4  C   -3.607305
     5  H    1.327733
     6  H    1.248441
     7  H    1.155800
     8  H    1.359043
     9  H    1.431715
    10  H    1.356706
    11  H    1.350142
 Sum of Mulliken charges =  -0.00000

 Dipole moment (field-independent basis, Debye):
    X=             -0.3428    Y=             -0.7022    Z=             -0.3139  Tot=              0.8421

 Test job not archived.
 1\1\GINC-SE343\SP\RHF\Aug-CC-pVDZ\C3H7F1\OHZDE\08-Apr-2025\0\\#t hf au
 g-cc-pvdz iop(5/13=1,5/36=2,99/5=2) pseudo=read geom=check guess=(read
 ,tcheck) scf=(maxcycle=1)\\title\\0,1\C,0,-0.80012,0.518748,0.296017\C
 ,0,0.595559,0.658891,-0.28141\F,0,-1.394579,-0.662747,-0.169901\C,0,1.
 530376,-0.485081,0.118576\H,0,1.117643,-1.444658,-0.198968\H,0,1.66854
 ,-0.521823,1.20372\H,0,2.514901,-0.369271,-0.340774\H,0,-1.445003,1.34
 9021,-0.006011\H,0,-0.777221,0.459918,1.389362\H,0,1.001893,1.620508,0
 .054818\H,0,0.515568,0.715676,-1.372136\\Version=ES64L-G16RevC.01\Stat

 Normal termination of Gaussian 16 at Tue Apr  8 22:45:35 2025.
