 Gaussian 16, Revision C.01,

 ----------------------------------------------------------------------
 #t hf aug-cc-pvdz symm=none int=(grid=ultrafine) guess=(read,tcheck) s
 table=(opt,rrhf)
 ----------------------------------------------------------------------
 -----
 title
 -----
 Symbolic Z-matrix:
 Charge =  0 Multiplicity = 1

 SCF Done:  E(RHF) =  -1025.79441756     A.U. after   15 cycles
 Normal termination of Gaussian 16 at Tue Apr  8 23:01:15 2025.
 Gaussian 16:  ES64L-G16RevC.01  3-Jul-2019

 ----------------------------------------------------------------------
 #t hf aug-cc-pvdz iop(5/13=1,5/36=2,99/5=2) pseudo=read geom=check gue
 ss=(read,tcheck) scf=(maxcycle=1)
 ----------------------------------------------------------------------
 -----
 title
 -----
 Structure from the checkpoint file:  "BDE49_expt_1955_mol1.chk"
 Charge =  0 Multiplicity = 1

                         Standard orientation:
 ---------------------------------------------------------------------
 Center     Atomic      Atomic             Coordinates (Angstroms)
 Number     Number       Type             X           Y           Z
 ---------------------------------------------------------------------
      1          6           0        2.923397    0.119681   -0.388091
      2          6           0        2.202048    1.264728   -0.051149
      3          6           0        0.867885    1.163034    0.330910
      4          6           0        2.308677   -1.129886   -0.343824
      5          6           0        0.971145   -1.237042    0.030132
      6          6           0        0.246625   -0.089338    0.365213
      7          1           0        3.963826    0.201747   -0.681342
      8          1           0        2.680685    2.237003   -0.079974
      9          1           0        0.303950    2.047039    0.602494
     10          1           0        2.868441   -2.021684   -0.601947
     11          1           0        0.485791   -2.205068    0.065325
     12         16           0       -1.451689   -0.248473    0.920389
     13         16           0       -2.597298    0.257880   -0.770927
     14          1           0       -2.637576   -0.956608   -1.355091
 ---------------------------------------------------------------------

 SCF Done:  E(RHF) =  -1027.35146968     A.U. after    2 cycles

 The electronic state is 1-A.
 Alpha  occ. eigenvalues --  -75.71495 -75.71444 -13.19568 -13.14693 -13.10299
 Alpha  occ. eigenvalues --  -13.08378 -13.08176 -13.04462 -11.52324 -11.44529
 Alpha  occ. eigenvalues --  -11.44075 -11.42235 -11.41500 -11.37508  -8.05310
 Alpha  occ. eigenvalues --   -8.05133  -1.36732  -1.21384  -1.10252  -1.10014
 Alpha  occ. eigenvalues --   -0.98346  -0.87551  -0.83998  -0.71726  -0.64857
 Alpha  occ. eigenvalues --   -0.59419  -0.58454  -0.55552  -0.52751  -0.50657
 Alpha  occ. eigenvalues --   -0.46174  -0.42188  -0.40049  -0.34008  -0.31011
 Alpha  occ. eigenvalues --   -0.26139  -0.24631
 Alpha virt. eigenvalues --    0.02744   0.03739   0.04618   0.05153   0.05586
 Alpha virt. eigenvalues --    0.05982   0.07960   0.08853   0.10480   0.10820
 Alpha virt. eigenvalues --    0.11817   0.12417   0.12954   0.13725   0.14037

 Mulliken charges:
               1
     1  C   -2.490731
     2  C   -0.570732
     3  C   -4.094437
     4  C   -0.626395
     5  C   -4.032622
     6  C    4.038299
     7  H    1.513564
     8  H    1.546637
     9  H    1.751238
    10  H    1.537847
    11  H    1.790586
    12  S   -0.457843
    13  S   -1.111044
    14  H    1.205632
 Sum of Mulliken charges =  -0.00000

 Dipole moment (field-independent basis, Debye):
    X=              0.6441    Y=              0.8475    Z=              0.3491  Tot=              1.1202

 Test job not archived.
 1\1\GINC-SE453\SP\RHF\Aug-CC-pVDZ\C6H6S2\OHZDE\08-Apr-2025\0\\#t hf au
 g-cc-pvdz iop(5/13=1,5/36=2,99/5=2) pseudo=read geom=check guess=(read
 ,tcheck) scf=(maxcycle=1)\\title\\0,1\C,0,-2.923397,-0.119681,-0.38809
 1\C,0,-2.202048,-1.264728,-0.051149\C,0,-0.867885,-1.163034,0.33091\C,
 0,-2.308677,1.129886,-0.343824\C,0,-0.971145,1.237042,0.030132\C,0,-0.
 246625,0.089338,0.365213\H,0,-3.963826,-0.201747,-0.681342\H,0,-2.6806
 85,-2.237003,-0.079974\H,0,-0.30395,-2.047039,0.602494\H,0,-2.868441,2
 .021684,-0.601947\H,0,-0.485791,2.205068,0.065325\S,0,1.451689,0.24847

 Normal termination of Gaussian 16 at Tue Apr  8 23:01:21 2025.
