 Gaussian 16, Revision C.01,

 ----------------------------------------------------------------------
 #t hf aug-cc-pvdz symm=none int=(grid=ultrafine) guess=(read,tcheck) s
 table=opt
 ----------------------------------------------------------------------
 -----
 title
 -----
 Symbolic Z-matrix:
 Charge =  0 Multiplicity = 2

 SCF Done:  E(UHF) =  -530.015255483     A.U. after   23 cycles
 Normal termination of Gaussian 16 at Wed Apr  9 00:19:39 2025.
 Gaussian 16:  ES64L-G16RevC.01  3-Jul-2019

 ----------------------------------------------------------------------
 #t hf aug-cc-pvdz iop(5/13=1,5/36=2,99/5=2) pseudo=read geom=check gue
 ss=(read,tcheck) scf=(maxcycle=1)
 ----------------------------------------------------------------------
 -----
 title
 -----
 Structure from the checkpoint file:  "BDE49_nonexpt_2581_mol2.chk"
 Charge =  0 Multiplicity = 2

                         Standard orientation:
 ---------------------------------------------------------------------
 Center     Atomic      Atomic             Coordinates (Angstroms)
 Number     Number       Type             X           Y           Z
 ---------------------------------------------------------------------
      1         16           0       -1.733099   -0.068806    0.000028
      2          6           0       -0.030438    0.387972   -0.000045
      3          7           0        0.897858   -0.463082   -0.000014
      4          1           0        0.108552    1.481914   -0.000091
      5          6           0        2.267097    0.024185    0.000002
      6          1           0        2.786153   -0.367305   -0.879532
      7          1           0        2.786142   -0.367275    0.879556
      8          1           0        2.343775    1.122193   -0.000016
 ---------------------------------------------------------------------

 SCF Done:  E(UHF) =  -530.833105310     A.U. after    2 cycles

 The electronic state is 2-A.
 Alpha  occ. eigenvalues --  -75.72662 -15.74233 -13.15582 -13.06852 -13.03365
 Alpha  occ. eigenvalues --  -11.44752 -11.39282  -8.06425  -1.40535  -1.16300
 Alpha  occ. eigenvalues --   -0.99219  -0.80945  -0.63416  -0.60690  -0.59884
 Alpha  occ. eigenvalues --   -0.46734  -0.44979  -0.36474  -0.31492  -0.25521
 Alpha virt. eigenvalues --    0.03414   0.04959   0.06039   0.06632   0.07030
 Alpha virt. eigenvalues --    0.10787   0.11227   0.13036   0.13269   0.14125
 Alpha virt. eigenvalues --    0.15504   0.16403   0.16921   0.18327   0.19260

  Beta  occ. eigenvalues --  -75.71654 -15.74189 -13.15036 -13.02738 -13.00790
  Beta  occ. eigenvalues --  -11.44847 -11.39278  -8.05292  -1.40100  -1.10781
  Beta  occ. eigenvalues --   -0.96553  -0.79256  -0.62721  -0.60263  -0.59906
  Beta  occ. eigenvalues --   -0.46089  -0.44825  -0.36100  -0.24088
  Beta virt. eigenvalues --    0.03228   0.03588   0.05355   0.06183   0.06633
  Beta virt. eigenvalues --    0.07184   0.11263   0.11440   0.13103   0.13347
  Beta virt. eigenvalues --    0.15085   0.16214   0.16479   0.18351   0.18355

 Mulliken charges and spin densities:
               1          2
     1  S    0.975238   1.117916
     2  C   -0.888336  -0.006940
     3  N   -2.264897  -0.096070
     4  H    1.386731   0.007216
     5  C   -3.048071  -0.020302
     6  H    1.311837  -0.000980
     7  H    1.311832  -0.000980
     8  H    1.215667   0.000139
 Sum of Mulliken charges =   0.00000   1.00000

 Dipole moment (field-independent basis, Debye):
    X=             -0.8195    Y=              0.9011    Z=              0.0001  Tot=              1.2180
                          Isotropic Fermi Contact Couplings
        Atom                 a.u.       MegaHertz       Gauss      10(-4) cm-1
     1  S(33)              0.30623     105.18056      37.53104      35.08446
     2  C(13)             -0.01208     -13.58016      -4.84574      -4.52985
     3  N(14)              0.03328      10.75445       3.83745       3.58730
     4  H(1)               0.00679      30.36175      10.83383      10.12759
     5  C(13)             -0.00010      -0.11600      -0.04139      -0.03869
     6  H(1)              -0.00017      -0.76401      -0.27262      -0.25485
     7  H(1)              -0.00017      -0.76427      -0.27271      -0.25493
     8  H(1)               0.00005       0.21537       0.07685       0.07184

 Normal termination of Gaussian 16 at Wed Apr  9 00:19:42 2025.
