 Gaussian 16, Revision C.01,

 ----------------------------------------------------------------------
 #t hf aug-cc-pvdz symm=none int=(grid=ultrafine) guess=(read,tcheck) s
 table=(opt,rrhf)
 ----------------------------------------------------------------------
 -----
 title
 -----
 Symbolic Z-matrix:
 Charge =  0 Multiplicity = 1

 SCF Done:  E(RHF) =  -434.361760656     A.U. after   16 cycles
 Normal termination of Gaussian 16 at Tue Apr  8 22:39:06 2025.
 Gaussian 16:  ES64L-G16RevC.01  3-Jul-2019

 ----------------------------------------------------------------------
 #t hf aug-cc-pvdz iop(5/13=1,5/36=2,99/5=2) pseudo=read geom=check gue
 ss=(read,tcheck) scf=(maxcycle=1)
 ----------------------------------------------------------------------
 -----
 title
 -----
 Structure from the checkpoint file:  "BDE49_expt_1182_mol1.chk"
 Charge =  0 Multiplicity = 1

                         Standard orientation:
 ---------------------------------------------------------------------
 Center     Atomic      Atomic             Coordinates (Angstroms)
 Number     Number       Type             X           Y           Z
 ---------------------------------------------------------------------
      1          6           0       -0.469779    1.177247   -0.145740
      2          6           0       -1.863090    1.147387   -0.132133
      3          6           0        0.227932   -0.024247   -0.006773
      4          6           0       -0.511134   -1.200337    0.122201
      5          6           0       -1.899459   -1.118265    0.137404
      6          7           0       -2.576023    0.029250    0.014726
      7          1           0        0.001395   -2.149750    0.207771
      8          1           0       -2.499802   -2.015987    0.250805
      9          6           0        1.729496   -0.124619   -0.031461
     10          8           0        2.417076    1.006724    0.263045
     11          1           0        1.820503    1.689702    0.590936
     12          8           0        2.310368   -1.139584   -0.296164
     13          1           0       -2.429706    2.066686   -0.248404
     14          1           0        0.036418    2.124484   -0.300227
 ---------------------------------------------------------------------

 SCF Done:  E(RHF) =  -436.272410455     A.U. after    2 cycles

 The electronic state is 1-A.
 Alpha  occ. eigenvalues --  -21.13865 -21.06555 -15.76518 -11.54998 -11.50674
 Alpha  occ. eigenvalues --  -11.47503 -11.46514 -11.44705 -11.40761  -1.83923
 Alpha  occ. eigenvalues --   -1.67031  -1.46874  -1.22949  -1.13914  -0.96809
 Alpha  occ. eigenvalues --   -0.91847  -0.82162  -0.76356  -0.68143  -0.64285
 Alpha  occ. eigenvalues --   -0.63630  -0.61751  -0.59521  -0.54563  -0.54121
 Alpha  occ. eigenvalues --   -0.49308  -0.46943  -0.39532  -0.38607  -0.36549
 Alpha  occ. eigenvalues --   -0.34712  -0.31352
 Alpha virt. eigenvalues --    0.02554   0.04804   0.05474   0.06299   0.06793
 Alpha virt. eigenvalues --    0.07645   0.08370   0.09428   0.10359   0.10518
 Alpha virt. eigenvalues --    0.11512   0.11742   0.12237   0.12585   0.12899

 Mulliken charges:
               1
     1  C   -0.749377
     2  C   -1.714310
     3  C    4.095561
     4  C   -2.103246
     5  C   -1.393657
     6  N   -3.541556
     7  H    1.567619
     8  H    1.478208
     9  C    4.564567
    10  O   -3.163636
    11  H    1.112899
    12  O   -3.241801
    13  H    1.480296
    14  H    1.608432
 Sum of Mulliken charges =  -0.00000

 Dipole moment (field-independent basis, Debye):
    X=             -0.3902    Y=              1.2657    Z=              0.4002  Tot=              1.3836

 Test job not archived.
 1\1\GINC-SE329\SP\RHF\Aug-CC-pVDZ\C6H5N1O2\OHZDE\08-Apr-2025\0\\#t hf
 aug-cc-pvdz iop(5/13=1,5/36=2,99/5=2) pseudo=read geom=check guess=(re
 ad,tcheck) scf=(maxcycle=1)\\title\\0,1\C,0,-0.469779,1.177247,-0.1457
 4\C,0,-1.86309,1.147387,-0.132133\C,0,0.227932,-0.024247,-0.006773\C,0
 ,-0.511134,-1.200337,0.122201\C,0,-1.899459,-1.118265,0.137404\N,0,-2.
 576023,0.02925,0.014726\H,0,0.001395,-2.14975,0.207771\H,0,-2.499802,-
 2.015987,0.250805\C,0,1.729496,-0.124619,-0.031461\O,0,2.417076,1.0067
 24,0.263045\H,0,1.820503,1.689702,0.590936\O,0,2.310368,-1.139584,-0.2

 Normal termination of Gaussian 16 at Tue Apr  8 22:39:12 2025.
