 Gaussian 16, Revision C.01,

 ----------------------------------------------------------------------
 #t hf aug-cc-pvdz symm=none int=(grid=ultrafine) guess=(read,tcheck) s
 table=(opt,rrhf)
 ----------------------------------------------------------------------
 -----
 title
 -----
 Symbolic Z-matrix:
 Charge =  0 Multiplicity = 1

 SCF Done:  E(RHF) =  -1479.65928317     A.U. after   15 cycles
 Normal termination of Gaussian 16 at Wed Apr  9 00:17:09 2025.
 Gaussian 16:  ES64L-G16RevC.01  3-Jul-2019

 ----------------------------------------------------------------------
 #t hf aug-cc-pvdz iop(5/13=1,5/36=2,99/5=2) pseudo=read geom=check gue
 ss=(read,tcheck) scf=(maxcycle=1)
 ----------------------------------------------------------------------
 -----
 title
 -----
 Structure from the checkpoint file:  "BDE49_nonexpt_2550_mol1.chk"
 Charge =  0 Multiplicity = 1

                         Standard orientation:
 ---------------------------------------------------------------------
 Center     Atomic      Atomic             Coordinates (Angstroms)
 Number     Number       Type             X           Y           Z
 ---------------------------------------------------------------------
      1         17           0        2.202398   -0.407011   -0.019569
      2         16           0        0.764431    1.067734    0.083242
      3         16           0       -1.025850   -0.060516   -0.128559
      4          8           0       -2.012131    0.973386   -0.065129
      5          8           0       -0.916739   -1.013319   -1.193933
      6          8           0       -1.129510   -0.886823    1.254065
      7          1           0       -0.791020   -1.782251    1.097723
 ---------------------------------------------------------------------

 SCF Done:  E(RHF) =  -1481.31458726     A.U. after    2 cycles

 The electronic state is 1-A.
 Alpha  occ. eigenvalues --  -99.94961 -75.96586 -75.79655 -21.16746 -21.10290
 Alpha  occ. eigenvalues --  -21.10085 -13.60177 -13.48809 -13.38853 -13.17855
 Alpha  occ. eigenvalues --  -13.14766 -13.11347 -10.52080  -9.71789  -9.71172
 Alpha  occ. eigenvalues --   -9.71052  -8.31665  -8.13448  -1.94087  -1.75385
 Alpha  occ. eigenvalues --   -1.70488  -1.38310  -1.14663  -0.94801  -0.71117
 Alpha  occ. eigenvalues --   -0.66427  -0.62393  -0.59620  -0.58539  -0.56226
 Alpha  occ. eigenvalues --   -0.48616  -0.47446  -0.44230  -0.41825  -0.40157
 Alpha  occ. eigenvalues --   -0.36726  -0.30816
 Alpha virt. eigenvalues --    0.01985   0.02894   0.05259   0.09353   0.10051
 Alpha virt. eigenvalues --    0.11483   0.11619   0.12826   0.13083   0.13476
 Alpha virt. eigenvalues --    0.14706   0.15918   0.17629   0.18250   0.19387

 Mulliken charges:
               1
     1  Cl  -0.398761
     2  S    0.560048
     3  S    6.131311
     4  O   -2.380642
     5  O   -2.408687
     6  O   -2.300235
     7  H    0.796965
 Sum of Mulliken charges =   0.00000

 Dipole moment (field-independent basis, Debye):
    X=             -0.5390    Y=              1.6397    Z=              1.3827  Tot=              2.2116

 Test job not archived.
 1\1\GINC-SE058\SP\RHF\Aug-CC-pVDZ\Cl1H1O3S2\OHZDE\09-Apr-2025\0\\#t hf
  aug-cc-pvdz iop(5/13=1,5/36=2,99/5=2) pseudo=read geom=check guess=(r
 ead,tcheck) scf=(maxcycle=1)\\title\\0,1\Cl,0,2.202398,-0.407011,-0.01
 9569\S,0,0.764431,1.067734,0.083242\S,0,-1.02585,-0.060516,-0.128559\O
 ,0,-2.012131,0.973386,-0.065129\O,0,-0.916739,-1.013319,-1.193933\O,0,
 -1.12951,-0.886823,1.254065\H,0,-0.79102,-1.782251,1.097723\\Version=E
 S64L-G16RevC.01\State=1-A\HF=-1481.3145873\RMSD=5.829e-02\Dipole=-0.21
 20687,0.6450973,0.5440067\Quadrupole=-2.5319312,5.1811426,-2.6492114,1

 Normal termination of Gaussian 16 at Wed Apr  9 00:17:13 2025.
