 Gaussian 16, Revision C.01,

 ----------------------------------------------------------------------
 #t hf aug-cc-pvdz symm=none int=(grid=ultrafine) guess=(read,tcheck) s
 table=(opt,rrhf)
 ----------------------------------------------------------------------
 -----
 title
 -----
 Symbolic Z-matrix:
 Charge =  0 Multiplicity = 1

 SCF Done:  E(RHF) =  -940.833077443     A.U. after   16 cycles
 Normal termination of Gaussian 16 at Wed Apr  9 00:02:42 2025.
 Gaussian 16:  ES64L-G16RevC.01  3-Jul-2019

 ----------------------------------------------------------------------
 #t hf aug-cc-pvdz iop(5/13=1,5/36=2,99/5=2) pseudo=read geom=check gue
 ss=(read,tcheck) scf=(maxcycle=1)
 ----------------------------------------------------------------------
 -----
 title
 -----
 Structure from the checkpoint file:  "BDE49_nonexpt_2118_mol1.chk"
 Charge =  0 Multiplicity = 1

                         Standard orientation:
 ---------------------------------------------------------------------
 Center     Atomic      Atomic             Coordinates (Angstroms)
 Number     Number       Type             X           Y           Z
 ---------------------------------------------------------------------
      1         14           0        0.000012   -0.000046    0.453834
      2          7           0        1.535427   -0.713152   -0.281448
      3          7           0       -1.385474   -0.973219   -0.281047
      4          7           0       -0.150168    1.686347   -0.281162
      5          6           0        0.000499   -0.000082    2.282217
      6          8           0       -0.911276    1.959769   -1.188580
      7          8           0       -1.241863   -1.769078   -1.188481
      8          8           0        1.804573   -1.783648    0.268447
      9          8           0       -2.447053   -0.670531    0.268686
     10          8           0        2.152498   -0.190808   -1.189098
     11          8           0        0.642670    2.454488    0.268522
     12          1           0        0.052432   -1.027459    2.647534
     13          1           0       -0.914970    0.468773    2.647909
     14          1           0        0.864488    0.558447    2.647208
 ---------------------------------------------------------------------

 SCF Done:  E(RHF) =  -943.713361606     A.U. after    2 cycles

 The electronic state is 1-A.
 Alpha  occ. eigenvalues --  -76.39318 -21.15188 -21.15154 -21.15154 -21.14189
 Alpha  occ. eigenvalues --  -21.14188 -21.14167 -16.01999 -16.01998 -16.01967
 Alpha  occ. eigenvalues --  -11.44028  -5.73422  -2.37727  -2.37726  -2.37379
 Alpha  occ. eigenvalues --   -2.02576  -2.02513  -2.02512  -1.73710  -1.73709
 Alpha  occ. eigenvalues --   -1.73438  -1.16826  -1.08228  -1.01326  -1.01325
 Alpha  occ. eigenvalues --   -0.78933  -0.75251  -0.75250  -0.70655  -0.69865
 Alpha  occ. eigenvalues --   -0.69865  -0.65185  -0.65185  -0.64777  -0.63704
 Alpha  occ. eigenvalues --   -0.63704  -0.56925  -0.40382  -0.38784  -0.38783
 Alpha  occ. eigenvalues --   -0.36927  -0.36294  -0.34871  -0.34870  -0.34359
 Alpha  occ. eigenvalues --   -0.34358
 Alpha virt. eigenvalues --    0.02046   0.05150   0.05150   0.06983   0.06983
 Alpha virt. eigenvalues --    0.07060   0.08599   0.09073   0.09074   0.09253
 Alpha virt. eigenvalues --    0.12059   0.13533   0.13534   0.15096   0.15097

 Mulliken charges:
               1
     1  Si   5.786417
     2  N    3.048684
     3  N    3.048689
     4  N    3.048972
     5  C   -5.149649
     6  O   -2.241323
     7  O   -2.241236
     8  O   -2.240557
     9  O   -2.240614
    10  O   -2.241205
    11  O   -2.240604
    12  H    1.220833
    13  H    1.220866
    14  H    1.220727
 Sum of Mulliken charges =   0.00000

 Dipole moment (field-independent basis, Debye):
    X=              0.0002    Y=             -0.0001    Z=              2.8869  Tot=              2.8869

 Test job not archived.
 1\1\GINC-SE419\SP\RHF\Aug-CC-pVDZ\C1H3N3O6Si1\OHZDE\09-Apr-2025\0\\#t
 hf aug-cc-pvdz iop(5/13=1,5/36=2,99/5=2) pseudo=read geom=check guess=
 (read,tcheck) scf=(maxcycle=1)\\title\\0,1\Si,0,-0.000012,0.000046,0.4
 53834\N,0,-1.534682,0.714754,-0.281448\N,0,1.386489,0.971772,-0.281047
 \N,0,0.148408,-1.686503,-0.281162\C,0,-0.000499,0.000083,2.282217\O,0,
 0.90923,-1.960719,-1.18858\O,0,1.243709,1.767781,-1.188481\O,0,-1.8027
 1,1.78553,0.268447\O,0,2.447751,0.667977,0.268686\O,0,-2.152298,0.1930
 54,-1.189098\O,0,-0.645231,-2.453816,0.268522\H,0,-0.05136,1.027513,2.

 Normal termination of Gaussian 16 at Wed Apr  9 00:02:50 2025.
