 Gaussian 16, Revision C.01,

 ----------------------------------------------------------------------
 #t hf aug-cc-pvdz symm=none int=(grid=ultrafine) guess=(read,tcheck) s
 table=(opt,rrhf)
 ----------------------------------------------------------------------
 -----
 title
 -----
 Symbolic Z-matrix:
 Charge =  0 Multiplicity = 1

 SCF Done:  E(RHF) =  -687.466740420     A.U. after   17 cycles
 Normal termination of Gaussian 16 at Wed Apr  9 00:06:59 2025.
 Gaussian 16:  ES64L-G16RevC.01  3-Jul-2019

 ----------------------------------------------------------------------
 #t hf aug-cc-pvdz iop(5/13=1,5/36=2,99/5=2) pseudo=read geom=check gue
 ss=(read,tcheck) scf=(maxcycle=1)
 ----------------------------------------------------------------------
 -----
 title
 -----
 Structure from the checkpoint file:  "BDE49_nonexpt_2203_mol1.chk"
 Charge =  0 Multiplicity = 1

                         Standard orientation:
 ---------------------------------------------------------------------
 Center     Atomic      Atomic             Coordinates (Angstroms)
 Number     Number       Type             X           Y           Z
 ---------------------------------------------------------------------
      1          6           0       -2.101585    1.091891    0.000014
      2          6           0       -1.606326   -0.216839    0.000016
      3          6           0       -0.224593   -0.458333    0.000009
      4          6           0       -1.202810    2.154791    0.000004
      5          6           0        0.167549    1.926734   -0.000003
      6          6           0        0.661107    0.617860   -0.000001
      7          1           0       -1.574880    3.172431    0.000001
      8          1           0        0.876757    2.744989   -0.000010
      9          8           0        2.013540    0.461208   -0.000009
     10         14           0        2.963722   -0.909693    0.000004
     11          1           0       -3.169812    1.264104    0.000018
     12          1           0        0.137200   -1.479237    0.000010
     13          6           0       -2.512060   -1.325550    0.000024
     14          7           0       -3.241526   -2.221230   -0.000057
     15          1           0        4.346002   -0.404427   -0.000003
     16          1           0        2.693646   -1.723282   -1.205879
     17          1           0        2.693648   -1.723257    1.205904
 ---------------------------------------------------------------------

 SCF Done:  E(RHF) =  -689.423344983     A.U. after    2 cycles

 The electronic state is 1-A.
 Alpha  occ. eigenvalues --  -76.26086 -21.08727 -15.76477 -11.56593 -11.50210
 Alpha  occ. eigenvalues --  -11.47055 -11.44954 -11.44409 -11.43694 -11.39885
 Alpha  occ. eigenvalues --   -5.59567  -2.26153  -2.21602  -2.21107  -1.76077
 Alpha  occ. eigenvalues --   -1.37842  -1.28688  -1.13900  -1.10507  -0.93497
 Alpha  occ. eigenvalues --   -0.89525  -0.79087  -0.74272  -0.71144  -0.63699
 Alpha  occ. eigenvalues --   -0.62656  -0.59596  -0.58205  -0.53990  -0.52564
 Alpha  occ. eigenvalues --   -0.51595  -0.49377  -0.48565  -0.48156  -0.43605
 Alpha  occ. eigenvalues --   -0.43215  -0.39447  -0.35010  -0.30743
 Alpha virt. eigenvalues --    0.02752   0.04309   0.04702   0.05443   0.05654
 Alpha virt. eigenvalues --    0.06388   0.07062   0.07860   0.08730   0.09243
 Alpha virt. eigenvalues --    0.09441   0.10408   0.10663   0.11789   0.12008

 Mulliken charges:
               1
     1  C   -3.285081
     2  C    5.345316
     3  C   -4.162963
     4  C    0.397178
     5  C   -4.704182
     6  C    5.843179
     7  H    1.504851
     8  H    1.832342
     9  O   -4.985377
    10  Si   6.457043
    11  H    1.717331
    12  H    2.121220
    13  C   -0.341945
    14  N   -2.353619
    15  H   -1.869263
    16  H   -1.758014
    17  H   -1.758015
 Sum of Mulliken charges =  -0.00000

 Dipole moment (field-independent basis, Debye):
    X=              2.7738    Y=              3.2686    Z=              0.0001  Tot=              4.2869

 Test job not archived.
 1\1\GINC-SE103\SP\RHF\Aug-CC-pVDZ\C7H7N1O1Si1\OHZDE\09-Apr-2025\0\\#t
 hf aug-cc-pvdz iop(5/13=1,5/36=2,99/5=2) pseudo=read geom=check guess=
 (read,tcheck) scf=(maxcycle=1)\\title\\0,1\C,0,-2.101585,1.091891,0.00
 0014\C,0,-1.606326,-0.216839,0.000016\C,0,-0.224593,-0.458333,0.000009
 \C,0,-1.20281,2.154791,0.000004\C,0,0.167549,1.926734,-0.000003\C,0,0.
 661107,0.61786,-0.000001\H,0,-1.57488,3.172431,0.000001\H,0,0.876757,2
 .744989,-0.00001\O,0,2.01354,0.461208,-0.000009\Si,0,2.963722,-0.90969
 3,0.000004\H,0,-3.169812,1.264104,0.000018\H,0,0.1372,-1.479237,0.0000

 Normal termination of Gaussian 16 at Wed Apr  9 00:07:08 2025.
