 Gaussian 16, Revision C.01,

 ----------------------------------------------------------------------
 #t hf aug-cc-pvdz symm=none int=(grid=ultrafine) guess=(read,tcheck) s
 table=(opt,rrhf)
 ----------------------------------------------------------------------
 -----
 title
 -----
 Symbolic Z-matrix:
 Charge =  0 Multiplicity = 1

 SCF Done:  E(RHF) =  -1713.41196762     A.U. after   13 cycles
 Normal termination of Gaussian 16 at Wed Apr  9 00:15:11 2025.
 Gaussian 16:  ES64L-G16RevC.01  3-Jul-2019

 ----------------------------------------------------------------------
 #t hf aug-cc-pvdz iop(5/13=1,5/36=2,99/5=2) pseudo=read geom=check gue
 ss=(read,tcheck) scf=(maxcycle=1)
 ----------------------------------------------------------------------
 -----
 title
 -----
 Structure from the checkpoint file:  "BDE49_nonexpt_2447_mol1.chk"
 Charge =  0 Multiplicity = 1

                         Standard orientation:
 ---------------------------------------------------------------------
 Center     Atomic      Atomic             Coordinates (Angstroms)
 Number     Number       Type             X           Y           Z
 ---------------------------------------------------------------------
      1         14           0       -1.190830    1.766635    0.004672
      2         14           0        1.190772    1.766646   -0.004682
      3         15           0        1.808239   -0.420393    0.092247
      4          1           0        1.712753    2.443012    1.203007
      5          1           0        1.723610    2.405063   -1.228051
      6          8           0        1.517853   -1.107017   -1.312446
      7          8           0        3.407567   -0.407049    0.125355
      8          1           0        0.539622   -1.252655   -1.434079
      9          1           0        3.807892   -1.248784   -0.133656
     10          8           0        1.143629   -1.082601    1.249794
     11         15           0       -1.808234   -0.420413   -0.092243
     12          1           0       -1.712827    2.442976   -1.203024
     13          1           0       -1.723681    2.405047    1.228038
     14          8           0       -1.517798   -1.106998    1.312457
     15          1           0       -0.539558   -1.252560    1.434053
     16          8           0       -3.407562   -0.407119   -0.125352
     17          1           0       -3.807857   -1.248888    0.133584
     18          8           0       -1.143590   -1.082598   -1.249784
 ---------------------------------------------------------------------

 SCF Done:  E(RHF) =  -1715.98439508     A.U. after    2 cycles

 The electronic state is 1-A.
 Alpha  occ. eigenvalues -- -105.30851-105.30533 -76.25277 -76.25244 -21.12247
 Alpha  occ. eigenvalues --  -21.12239 -21.09135 -21.09135 -21.02926 -21.02923
 Alpha  occ. eigenvalues --   -5.58825  -5.58817  -2.92541  -2.92444  -2.21096
 Alpha  occ. eigenvalues --   -2.20874  -2.20829  -2.20789  -2.20614  -2.19415
 Alpha  occ. eigenvalues --   -1.97758  -1.97005  -1.90288  -1.90198  -1.79470
 Alpha  occ. eigenvalues --   -1.78808  -1.50606  -1.50468  -1.39619  -1.38846
 Alpha  occ. eigenvalues --   -1.29234  -1.26359  -0.82705  -0.74199  -0.70910
 Alpha  occ. eigenvalues --   -0.66076  -0.61928  -0.59992  -0.53765  -0.52552
 Alpha  occ. eigenvalues --   -0.51993  -0.49303  -0.44788  -0.43728  -0.42942
 Alpha  occ. eigenvalues --   -0.42282  -0.40958  -0.36051  -0.35579  -0.34980
 Alpha  occ. eigenvalues --   -0.34407  -0.29248  -0.28831  -0.23031  -0.21214
 Alpha  occ. eigenvalues --   -0.16767  -0.16420
 Alpha virt. eigenvalues --    0.03773   0.04638   0.05118   0.05876   0.06894
 Alpha virt. eigenvalues --    0.07130   0.07762   0.07899   0.08240   0.08654
 Alpha virt. eigenvalues --    0.08705   0.09696   0.10079   0.10872   0.11013

 Mulliken charges:
               1
     1  Si   3.486082
     2  Si   3.486124
     3  P    7.191029
     4  H   -1.709940
     5  H   -1.823321
     6  O   -3.571632
     7  O   -2.982094
     8  H    1.640504
     9  H    0.909779
    10  O   -3.140492
    11  P    7.191029
    12  H   -1.709943
    13  H   -1.823325
    14  O   -3.571657
    15  H    1.640605
    16  O   -2.982123
    17  H    0.909804
    18  O   -3.140429
 Sum of Mulliken charges =   0.00000

 Dipole moment (field-independent basis, Debye):
    X=             -0.0001    Y=             -2.6518    Z=             -0.0001  Tot=              2.6518

 Test job not archived.
 1\1\GINC-SE364\SP\RHF\Aug-CC-pVDZ\H8O6P2Si2\OHZDE\09-Apr-2025\0\\#t hf
  aug-cc-pvdz iop(5/13=1,5/36=2,99/5=2) pseudo=read geom=check guess=(r
 ead,tcheck) scf=(maxcycle=1)\\title\\0,1\Si,0,1.19083,1.766635,-0.0046
 72\Si,0,-1.190772,1.766646,0.004682\P,0,-1.808239,-0.420393,-0.092247\
 H,0,-1.712753,2.443012,-1.203007\H,0,-1.72361,2.405063,1.228051\O,0,-1
 .517853,-1.107017,1.312446\O,0,-3.407567,-0.407049,-0.125355\H,0,-0.53
 9622,-1.252655,1.434079\H,0,-3.807892,-1.248783,0.133656\O,0,-1.143629
 ,-1.082601,-1.249794\P,0,1.808234,-0.420413,0.092243\H,0,1.712827,2.44

 Normal termination of Gaussian 16 at Wed Apr  9 00:15:22 2025.
