 Gaussian 16, Revision C.01,

 ----------------------------------------------------------------------
 #t hf aug-cc-pvdz symm=none int=(grid=ultrafine) guess=(read,tcheck) s
 table=(opt,rrhf)
 ----------------------------------------------------------------------
 -----
 title
 -----
 Symbolic Z-matrix:
 Charge =  0 Multiplicity = 1

 SCF Done:  E(RHF) =  -296.547985688     A.U. after   13 cycles
 Normal termination of Gaussian 16 at Wed Apr  9 00:28:38 2025.
 Gaussian 16:  ES64L-G16RevC.01  3-Jul-2019

 ----------------------------------------------------------------------
 #t hf aug-cc-pvdz iop(5/13=1,5/36=2,99/5=2) pseudo=read geom=check gue
 ss=(read,tcheck) scf=(maxcycle=1)
 ----------------------------------------------------------------------
 -----
 title
 -----
 Structure from the checkpoint file:  "BDE49_nonexpt_288_mol1.chk"
 Charge =  0 Multiplicity = 1

                         Standard orientation:
 ---------------------------------------------------------------------
 Center     Atomic      Atomic             Coordinates (Angstroms)
 Number     Number       Type             X           Y           Z
 ---------------------------------------------------------------------
      1          6           0        0.865196   -0.017389    0.004418
      2          5           0       -1.783349    0.369653   -0.144082
      3          8           0       -2.954140   -0.304512    0.014927
      4          6           0        1.941456   -1.011478   -0.470716
      5          1           0        2.006259   -1.027231   -1.563207
      6          1           0        1.713868   -2.028024   -0.135273
      7          6           0        0.806830   -0.037923    1.544087
      8          1           0        0.521283   -1.027766    1.913780
      9          1           0        0.078205    0.685380    1.924981
     10          1           0        1.779295    0.213914    1.978839
     11          1           0        2.928194   -0.741849   -0.080138
     12          6           0        1.246735    1.394806   -0.477564
     13          1           0        2.227458    1.684165   -0.086845
     14          1           0        0.523183    2.144919   -0.149867
     15          1           0        1.299401    1.434748   -1.570333
     16          6           0       -0.511580   -0.444664   -0.574534
     17          1           0       -0.683384   -1.508800   -0.368228
     18          1           0       -0.460682   -0.369758   -1.673884
     19          1           0       -3.692840    0.268873    0.238900
     20          1           0       -1.782205    1.559149    0.018129
 ---------------------------------------------------------------------

 SCF Done:  E(RHF) =  -298.014789611     A.U. after    2 cycles

 The electronic state is 1-A.
 Alpha  occ. eigenvalues --  -21.06073 -11.40536 -11.38139 -11.37747 -11.36803
 Alpha  occ. eigenvalues --  -11.32784  -7.61349  -1.74121  -1.28560  -1.02271
 Alpha  occ. eigenvalues --   -0.99675  -0.99393  -0.79152  -0.72567  -0.64177
 Alpha  occ. eigenvalues --   -0.61546  -0.59671  -0.59071  -0.54988  -0.53588
 Alpha  occ. eigenvalues --   -0.50591  -0.50344  -0.47443  -0.42938  -0.41868
 Alpha  occ. eigenvalues --   -0.40734  -0.39452  -0.36608
 Alpha virt. eigenvalues --    0.03232   0.04142   0.04557   0.04840   0.06164
 Alpha virt. eigenvalues --    0.06183   0.06266   0.06510   0.06706   0.08638
 Alpha virt. eigenvalues --    0.09083   0.09332   0.09548   0.09598   0.10930

 Mulliken charges:
               1
     1  C    4.917869
     2  B    7.705948
     3  O   -3.773029
     4  C   -4.831332
     5  H    1.218197
     6  H    1.244293
     7  C   -4.877809
     8  H    1.247884
     9  H    1.181028
    10  H    1.169795
    11  H    1.204361
    12  C   -4.920446
    13  H    1.200853
    14  H    1.320924
    15  H    1.188333
    16  C   -5.328897
    17  H    1.597555
    18  H    1.496416
    19  H    1.057872
    20  H   -4.019815
 Sum of Mulliken charges =   0.00000

 Dipole moment (field-independent basis, Debye):
    X=             -0.6965    Y=              0.2536    Z=              0.1454  Tot=              0.7554

 Test job not archived.
 1\1\GINC-SE074\SP\RHF\Aug-CC-pVDZ\C5H13B1O1\OHZDE\09-Apr-2025\0\\#t hf
  aug-cc-pvdz iop(5/13=1,5/36=2,99/5=2) pseudo=read geom=check guess=(r
 ead,tcheck) scf=(maxcycle=1)\\title\\0,1\C,0,0.865196,-0.017389,0.0044
 18\B,0,-1.783349,0.369653,-0.144082\O,0,-2.95414,-0.304512,0.014927\C,
 0,1.941456,-1.011478,-0.470716\H,0,2.006259,-1.027231,-1.563207\H,0,1.
 713868,-2.028024,-0.135273\C,0,0.80683,-0.037923,1.544087\H,0,0.521283
 ,-1.027766,1.91378\H,0,0.078205,0.68538,1.924981\H,0,1.779295,0.213914
 ,1.978839\H,0,2.928194,-0.741849,-0.080138\C,0,1.246735,1.394806,-0.47

 Normal termination of Gaussian 16 at Wed Apr  9 00:28:46 2025.
