 Gaussian 16, Revision C.01,

 ----------------------------------------------------------------------
 #t hf aug-cc-pvdz symm=none int=(grid=ultrafine) guess=(read,tcheck) s
 table=(opt,rrhf)
 ----------------------------------------------------------------------
 -----
 title
 -----
 Symbolic Z-matrix:
 Charge =  0 Multiplicity = 1

 SCF Done:  E(RHF) =  -1455.99384189     A.U. after   12 cycles

 1\1\GINC-SE110\Stability\RHF\Aug-CC-pVDZ\C2H3Cl3\OHZDE\08-Apr-2025\0\\
 #t hf aug-cc-pvdz symm=none int=(grid=ultrafine) guess=(read,tcheck) s
 table=(opt,rrhf)\\title\\0,1\C,0,-0.000021,0.000028,0.257772\C,0,0.000
 026,0.000037,1.773986\Cl,0,1.093693,1.290252,-0.364818\Cl,0,-1.664283,
 0.302001,-0.364756\Cl,0,0.57058,-1.592282,-0.364728\H,0,-0.346535,0.96
 7745,2.137554\H,0,1.01139,-0.183681,2.13749\H,0,-0.664728,-0.783971,2.
 137548\\Version=ES64L-G16RevC.01\HF=-1455.9938419\RMSD=4.193e-09\Dipol
 e=-0.0000164,0.0000461,0.8032987\Quadrupole=-0.9128549,-0.913176,1.826

 Normal termination of Gaussian 16 at Tue Apr  8 22:31:22 2025.
 Gaussian 16:  ES64L-G16RevC.01  3-Jul-2019

 ----------------------------------------------------------------------
 #t hf aug-cc-pvdz iop(5/13=1,5/36=2,99/5=2) pseudo=read geom=check gue
 ss=(read,tcheck) scf=(maxcycle=1)
 ----------------------------------------------------------------------
 -----
 title
 -----
 Structure from the checkpoint file:  "BDE49_expt_1014_mol1.chk"
 Charge =  0 Multiplicity = 1

                         Standard orientation:
 ---------------------------------------------------------------------
 Center     Atomic      Atomic             Coordinates (Angstroms)
 Number     Number       Type             X           Y           Z
 ---------------------------------------------------------------------
      1          6           0        0.000021   -0.000028    0.257772
      2          6           0       -0.000026   -0.000037    1.773986
      3         17           0       -1.093701   -1.290245   -0.364818
      4         17           0        1.664281   -0.302011   -0.364756
      5         17           0       -0.570570    1.592285   -0.364728
      6          1           0        0.346529   -0.967747    2.137554
      7          1           0       -1.011389    0.183687    2.137490
      8          1           0        0.664733    0.783967    2.137548
 ---------------------------------------------------------------------

 SCF Done:  E(RHF) =  -1457.12129066     A.U. after    2 cycles

 The electronic state is 1-A.
 Alpha  occ. eigenvalues --  -99.91189 -99.91189 -99.91176 -11.56140 -11.41274
 Alpha  occ. eigenvalues --  -10.48735 -10.48408 -10.48408  -9.68470  -9.68470
 Alpha  occ. eigenvalues --   -9.68268  -9.67650  -9.67650  -9.67621  -9.67543
 Alpha  occ. eigenvalues --   -9.67458  -9.67458  -1.45888  -1.29988  -1.29987
 Alpha  occ. eigenvalues --   -1.12858  -0.91147  -0.71649  -0.71648  -0.67057
 Alpha  occ. eigenvalues --   -0.58991  -0.58990  -0.53459  -0.53459  -0.50603
 Alpha  occ. eigenvalues --   -0.50602  -0.49638  -0.48887
 Alpha virt. eigenvalues --    0.00558   0.03495   0.06332   0.06332   0.07071
 Alpha virt. eigenvalues --    0.07071   0.07828   0.11508   0.11607   0.11607
 Alpha virt. eigenvalues --    0.14282   0.14282   0.16046   0.16733   0.17581

 Mulliken charges:
               1
     1  C   -1.965404
     2  C   -2.496655
     3  Cl   0.240987
     4  Cl   0.240969
     5  Cl   0.240999
     6  H    1.246356
     7  H    1.246382
     8  H    1.246366
 Sum of Mulliken charges =   0.00000

 Dipole moment (field-independent basis, Debye):
    X=              0.0000    Y=             -0.0001    Z=              1.9959  Tot=              1.9959

 Test job not archived.
 1\1\GINC-SE110\SP\RHF\Aug-CC-pVDZ\C2H3Cl3\OHZDE\08-Apr-2025\0\\#t hf a
 ug-cc-pvdz iop(5/13=1,5/36=2,99/5=2) pseudo=read geom=check guess=(rea
 d,tcheck) scf=(maxcycle=1)\\title\\0,1\C,0,-0.000021,0.000028,0.257772
 \C,0,0.000026,0.000037,1.773986\Cl,0,1.093693,1.290252,-0.364818\Cl,0,
 -1.664283,0.302001,-0.364756\Cl,0,0.57058,-1.592282,-0.364728\H,0,-0.3
 46535,0.967745,2.137554\H,0,1.01139,-0.183681,2.13749\H,0,-0.664728,-0
 .783971,2.137548\\Version=ES64L-G16RevC.01\State=1-A\HF=-1457.1212907\
 RMSD=1.405e-01\Dipole=-0.000017,0.000048,0.7852618\Quadrupole=-0.60813

 Normal termination of Gaussian 16 at Tue Apr  8 22:31:25 2025.
