 Gaussian 16, Revision C.01,

 ----------------------------------------------------------------------
 #t hf aug-cc-pvdz symm=none int=(grid=ultrafine) guess=(read,tcheck) s
 table=(opt,rrhf)
 ----------------------------------------------------------------------
 -----
 title
 -----
 Symbolic Z-matrix:
 Charge =  0 Multiplicity = 1

 SCF Done:  E(RHF) =  -527.340991627     A.U. after   14 cycles
 Normal termination of Gaussian 16 at Tue Apr  8 22:55:33 2025.
 Gaussian 16:  ES64L-G16RevC.01  3-Jul-2019

 ----------------------------------------------------------------------
 #t hf aug-cc-pvdz iop(5/13=1,5/36=2,99/5=2) pseudo=read geom=check gue
 ss=(read,tcheck) scf=(maxcycle=1)
 ----------------------------------------------------------------------
 -----
 title
 -----
 Structure from the checkpoint file:  "BDE49_expt_1817_mol1.chk"
 Charge =  0 Multiplicity = 1

                         Standard orientation:
 ---------------------------------------------------------------------
 Center     Atomic      Atomic             Coordinates (Angstroms)
 Number     Number       Type             X           Y           Z
 ---------------------------------------------------------------------
      1          7           0        0.000000    0.927670    0.000000
      2          8           0        1.139103    1.159553    0.000000
      3         16           0       -0.459538   -0.947000    0.000000
      4          1           0       -1.760223   -0.618115    0.000000
 ---------------------------------------------------------------------

 SCF Done:  E(RHF) =  -528.108200837     A.U. after    2 cycles

 The electronic state is 1-A'.
 Alpha  occ. eigenvalues --  -75.72634 -21.18603 -15.94223 -13.13058 -13.09974
 Alpha  occ. eigenvalues --  -13.03175  -8.06298  -1.92650  -1.17244  -0.92990
 Alpha  occ. eigenvalues --   -0.65249  -0.60115  -0.58271  -0.48414  -0.27549
 Alpha  occ. eigenvalues --   -0.26006
 Alpha virt. eigenvalues --    0.03614   0.07252   0.09990   0.10053   0.12817
 Alpha virt. eigenvalues --    0.14254   0.15897   0.17111   0.19584   0.20165
 Alpha virt. eigenvalues --    0.21921   0.23327   0.25931   0.27569   0.31699

 Mulliken charges:
               1
     1  N    1.188480
     2  O   -1.753307
     3  S   -0.340236
     4  H    0.905064
 Sum of Mulliken charges =  -0.00000

 Dipole moment (field-independent basis, Debye):
    X=              1.0167    Y=             -1.2504    Z=              0.0000  Tot=              1.6115

 Test job not archived.
 1\1\GINC-SE058\SP\RHF\Aug-CC-pVDZ\H1N1O1S1\OHZDE\08-Apr-2025\0\\#t hf
 aug-cc-pvdz iop(5/13=1,5/36=2,99/5=2) pseudo=read geom=check guess=(re
 ad,tcheck) scf=(maxcycle=1)\\title\\0,1\N,0,0.,0.92767,0.\O,0,1.139103
 ,1.159553,0.\S,0,-0.459537,-0.947,0.\H,0,-1.760222,-0.618116,0.\\Versi
 on=ES64L-G16RevC.01\State=1-A'\HF=-528.1082008\RMSD=8.546e-02\Dipole=0
 .399986,-0.4919384,0.\Quadrupole=0.8881546,0.2840692,-1.1722238,0.5639
 463,0.,0.\PG=CS [SG(H1N1O1S1)]\\@

 Normal termination of Gaussian 16 at Tue Apr  8 22:55:34 2025.
