 Gaussian 16, Revision C.01,

 ----------------------------------------------------------------------
 #t hf aug-cc-pvdz symm=none int=(grid=ultrafine) guess=(read,tcheck) s
 table=(opt,rrhf)
 ----------------------------------------------------------------------
 -----
 title
 -----
 Symbolic Z-matrix:
 Charge =  0 Multiplicity = 1

 SCF Done:  E(RHF) =  -1372.70694096     A.U. after   15 cycles
 Normal termination of Gaussian 16 at Wed Apr  9 00:54:40 2025.
 Gaussian 16:  ES64L-G16RevC.01  3-Jul-2019

 ----------------------------------------------------------------------
 #t hf aug-cc-pvdz iop(5/13=1,5/36=2,99/5=2) pseudo=read geom=check gue
 ss=(read,tcheck) scf=(maxcycle=1)
 ----------------------------------------------------------------------
 -----
 title
 -----
 Structure from the checkpoint file:  "BDE49_nonexpt_981_mol1.chk"
 Charge =  0 Multiplicity = 1

                         Standard orientation:
 ---------------------------------------------------------------------
 Center     Atomic      Atomic             Coordinates (Angstroms)
 Number     Number       Type             X           Y           Z
 ---------------------------------------------------------------------
      1         16           0        1.176199    1.031605   -0.408065
      2          7           0        2.214747   -0.451094   -0.007219
      3          8           0        1.721289   -1.541973   -0.040329
      4          8           0        3.349736   -0.114893    0.245862
      5          8           0       -0.278588    0.285934   -0.786830
      6          6           0       -1.222979    0.184381    0.227393
      7         17           0       -2.596720   -0.710866   -0.439140
      8          9           0       -1.619855    1.402989    0.626868
      9          9           0       -0.733457   -0.447671    1.298794
 ---------------------------------------------------------------------

 SCF Done:  E(RHF) =  -1375.16495364     A.U. after    2 cycles

 The electronic state is 1-A.
 Alpha  occ. eigenvalues --  -99.93785 -75.83727 -29.34532 -29.34481 -21.16790
 Alpha  occ. eigenvalues --  -21.14511 -21.13659 -16.04646 -13.30420 -13.25274
 Alpha  occ. eigenvalues --  -13.17675 -11.63483 -10.51300  -9.71128  -9.70225
 Alpha  occ. eigenvalues --   -9.70184  -8.17128  -2.03907  -1.90258  -1.74529
 Alpha  occ. eigenvalues --   -1.42798  -1.24361  -1.17723  -0.93195  -0.92677
 Alpha  occ. eigenvalues --   -0.80614  -0.75950  -0.71932  -0.70329  -0.64836
 Alpha  occ. eigenvalues --   -0.57315  -0.56991  -0.51914  -0.49497  -0.48522
 Alpha  occ. eigenvalues --   -0.42718  -0.40630  -0.36519  -0.36003  -0.34435
 Alpha  occ. eigenvalues --   -0.33764  -0.32249  -0.30153  -0.26079
 Alpha virt. eigenvalues --    0.04876   0.05417   0.07024   0.08590   0.09436
 Alpha virt. eigenvalues --    0.11150   0.11434   0.12307   0.13499   0.14104
 Alpha virt. eigenvalues --    0.15188   0.16099   0.16451   0.17330   0.18034

 Mulliken charges:
               1
     1  S    1.410435
     2  N    4.342556
     3  O   -2.595291
     4  O   -2.575159
     5  O   -2.357780
     6  C    0.710976
     7  Cl  -0.487319
     8  F    0.785607
     9  F    0.765976
 Sum of Mulliken charges =  -0.00000

 Dipole moment (field-independent basis, Debye):
    X=              0.4366    Y=              3.7509    Z=              3.0352  Tot=              4.8448

 Test job not archived.
 1\1\GINC-SE165\SP\RHF\Aug-CC-pVDZ\C1Cl1F2N1O3S1\OHZDE\09-Apr-2025\0\\#
 t hf aug-cc-pvdz iop(5/13=1,5/36=2,99/5=2) pseudo=read geom=check gues
 s=(read,tcheck) scf=(maxcycle=1)\\title\\0,1\S,0,1.176199,1.031605,-0.
 408065\N,0,2.214747,-0.451094,-0.007219\O,0,1.721289,-1.541973,-0.0403
 29\O,0,3.349736,-0.114893,0.245862\O,0,-0.278588,0.285934,-0.78683\C,0
 ,-1.222979,0.184381,0.227393\Cl,0,-2.59672,-0.710866,-0.43914\F,0,-1.6
 19855,1.402989,0.626868\F,0,-0.733457,-0.447671,1.298794\\Version=ES64
 L-G16RevC.01\State=1-A\HF=-1375.1649536\RMSD=5.748e-02\Dipole=0.171761

 Normal termination of Gaussian 16 at Wed Apr  9 00:54:45 2025.
