 Gaussian 16, Revision C.01,

 ----------------------------------------------------------------------
 #t hf aug-cc-pvdz symm=none int=(grid=ultrafine) guess=(read,tcheck) s
 table=(opt,rrhf)
 ----------------------------------------------------------------------
 -----
 title
 -----
 Symbolic Z-matrix:
 Charge =  0 Multiplicity = 1

 SCF Done:  E(RHF) =  -815.564955800     A.U. after   17 cycles
 Normal termination of Gaussian 16 at Tue Apr  8 23:37:36 2025.
 Gaussian 16:  ES64L-G16RevC.01  3-Jul-2019

 ----------------------------------------------------------------------
 #t hf aug-cc-pvdz iop(5/13=1,5/36=2,99/5=2) pseudo=read geom=check gue
 ss=(read,tcheck) scf=(maxcycle=1)
 ----------------------------------------------------------------------
 -----
 title
 -----
 Structure from the checkpoint file:  "BDE49_nonexpt_1478_mol1.chk"
 Charge =  0 Multiplicity = 1

                         Standard orientation:
 ---------------------------------------------------------------------
 Center     Atomic      Atomic             Coordinates (Angstroms)
 Number     Number       Type             X           Y           Z
 ---------------------------------------------------------------------
      1          6           0       -1.984406    1.203134    0.401227
      2          6           0       -0.635369    1.446830    0.185368
      3          6           0       -2.533268   -0.042062    0.064013
      4          6           0       -1.712744   -1.031517   -0.494761
      5          6           0       -0.366831   -0.776608   -0.720243
      6          6           0        0.191643    0.462277   -0.373878
      7          1           0       -0.224481    2.411347    0.461222
      8          1           0       -2.616003    1.967712    0.836335
      9          1           0       -2.135544   -1.994359   -0.753443
     10          1           0        0.256649   -1.551892   -1.145205
     11         15           0        1.949486    0.813455   -0.760547
     12          6           0        2.835795   -0.528975    0.246419
     13          8           0        2.437415   -1.666534    0.234069
     14          6           0        4.109867   -0.108227    0.949932
     15          1           0        3.851739    0.424177    1.870854
     16          1           0        4.697623    0.573520    0.329130
     17          1           0        4.696253   -0.993309    1.198832
     18          6           0       -3.922101   -0.299232    0.289164
     19          7           0       -5.044148   -0.505165    0.471651
     20          1           0        2.145670    1.875700    0.152930
 ---------------------------------------------------------------------

 SCF Done:  E(RHF) =  -817.922560397     A.U. after    2 cycles

 The electronic state is 1-A.
 Alpha  occ. eigenvalues -- -105.21001 -21.07838 -15.76291 -11.55700 -11.50637
 Alpha  occ. eigenvalues --  -11.47956 -11.46859 -11.46340 -11.43881 -11.43821
 Alpha  occ. eigenvalues --  -11.40818 -11.39722  -2.78811  -1.73472  -1.55337
 Alpha  occ. eigenvalues --   -1.49752  -1.47278  -1.38401  -1.28789  -1.13387
 Alpha  occ. eigenvalues --   -1.12462  -1.11708  -0.91658  -0.89885  -0.81543
 Alpha  occ. eigenvalues --   -0.77657  -0.70725  -0.65806  -0.61941  -0.61226
 Alpha  occ. eigenvalues --   -0.61002  -0.60308  -0.57642  -0.55572  -0.54264
 Alpha  occ. eigenvalues --   -0.50375  -0.49051  -0.47398  -0.44985  -0.43331
 Alpha  occ. eigenvalues --   -0.42040  -0.35850  -0.34906  -0.27544  -0.18559
 Alpha  occ. eigenvalues --   -0.04305
 Alpha virt. eigenvalues --    0.02743   0.04184   0.05289   0.05603   0.06035
 Alpha virt. eigenvalues --    0.06587   0.06981   0.07536   0.07875   0.08423
 Alpha virt. eigenvalues --    0.08878   0.09649   0.09941   0.10802   0.11329

 Mulliken charges:
               1
     1  C   -2.505620
     2  C   -3.870790
     3  C    5.273643
     4  C   -2.587267
     5  C   -1.564264
     6  C    0.841554
     7  H    2.067598
     8  H    1.763219
     9  H    1.761468
    10  H    2.118865
    11  P    2.886859
    12  C    1.836381
    13  O   -3.079124
    14  C   -4.579579
    15  H    1.255631
    16  H    1.365829
    17  H    1.263271
    18  C   -1.294998
    19  N   -2.139253
    20  H   -0.813422
 Sum of Mulliken charges =  -0.00000

 Dipole moment (field-independent basis, Debye):
    X=              4.3159    Y=              1.6459    Z=             -3.0116  Tot=              5.5142

 Test job not archived.
 1\1\GINC-SE403\SP\RHF\Aug-CC-pVDZ\C9H8N1O1P1\OHZDE\08-Apr-2025\0\\#t h
 f aug-cc-pvdz iop(5/13=1,5/36=2,99/5=2) pseudo=read geom=check guess=(
 read,tcheck) scf=(maxcycle=1)\\title\\0,1\C,0,-1.984406,1.203134,0.401
 227\C,0,-0.635369,1.44683,0.185368\C,0,-2.533268,-0.042062,0.064013\C,
 0,-1.712744,-1.031517,-0.494761\C,0,-0.366831,-0.776608,-0.720243\C,0,
 0.191643,0.462277,-0.373878\H,0,-0.224481,2.411347,0.461222\H,0,-2.616
 003,1.967712,0.836335\H,0,-2.135544,-1.994359,-0.753443\H,0,0.256649,-
 1.551892,-1.145205\P,0,1.949486,0.813455,-0.760547\C,0,2.835795,-0.528

 Normal termination of Gaussian 16 at Tue Apr  8 23:37:49 2025.
