 Gaussian 16, Revision C.01,

 ----------------------------------------------------------------------
 #t hf aug-cc-pvdz symm=none int=(grid=ultrafine) guess=(read,tcheck) s
 table=(opt,rrhf)
 ----------------------------------------------------------------------
 -----
 title
 -----
 Symbolic Z-matrix:
 Charge =  0 Multiplicity = 1

 SCF Done:  E(RHF) =  -713.605418276     A.U. after   14 cycles
 Normal termination of Gaussian 16 at Wed Apr  9 00:32:45 2025.
 Gaussian 16:  ES64L-G16RevC.01  3-Jul-2019

 ----------------------------------------------------------------------
 #t hf aug-cc-pvdz iop(5/13=1,5/36=2,99/5=2) pseudo=read geom=check gue
 ss=(read,tcheck) scf=(maxcycle=1)
 ----------------------------------------------------------------------
 -----
 title
 -----
 Structure from the checkpoint file:  "BDE49_nonexpt_395_mol1.chk"
 Charge =  0 Multiplicity = 1

                         Standard orientation:
 ---------------------------------------------------------------------
 Center     Atomic      Atomic             Coordinates (Angstroms)
 Number     Number       Type             X           Y           Z
 ---------------------------------------------------------------------
      1          9           0       -2.216691    1.135746   -0.000036
      2          9           0       -2.216802   -1.135695   -0.000036
      3          5           0       -1.541114   -0.000008    0.000070
      4          7           0       -0.129272   -0.000080    0.000067
      5          6           0        1.063677    0.000064    0.000026
      6         16           0        2.633115   -0.000015   -0.000021
 ---------------------------------------------------------------------

 SCF Done:  E(RHF) =  -715.002114899     A.U. after    2 cycles

 The electronic state is 1-A.
 Alpha  occ. eigenvalues --  -75.71832 -29.28018 -29.27923 -15.78450 -13.25545
 Alpha  occ. eigenvalues --  -13.03260 -13.03001 -11.57972  -8.06133  -7.77245
 Alpha  occ. eigenvalues --   -1.47670  -1.23201  -1.11625  -0.82653  -0.79758
 Alpha  occ. eigenvalues --   -0.61658  -0.58968  -0.57998  -0.49325  -0.48333
 Alpha  occ. eigenvalues --   -0.47343  -0.37419  -0.36174  -0.31351  -0.29477
 Alpha  occ. eigenvalues --   -0.26798
 Alpha virt. eigenvalues --   -0.00879   0.03417   0.03714   0.05228   0.06793
 Alpha virt. eigenvalues --    0.08892   0.08959   0.09808   0.12104   0.15603
 Alpha virt. eigenvalues --    0.16085   0.16438   0.17218   0.17714   0.20897

 Mulliken charges:
               1
     1  F   -0.905188
     2  F   -0.905238
     3  B    1.736582
     4  N   -3.205589
     5  C    1.553624
     6  S    1.725810
 Sum of Mulliken charges =  -0.00000

 Dipole moment (field-independent basis, Debye):
    X=              0.1685    Y=              0.0000    Z=             -0.0003  Tot=              0.1685

 Test job not archived.
 1\1\GINC-SE342\SP\RHF\Aug-CC-pVDZ\C1B1F2N1S1\OHZDE\09-Apr-2025\0\\#t h
 f aug-cc-pvdz iop(5/13=1,5/36=2,99/5=2) pseudo=read geom=check guess=(
 read,tcheck) scf=(maxcycle=1)\\title\\0,1\F,0,-2.216691,1.135746,-0.00
 0036\F,0,-2.216802,-1.135695,-0.000036\B,0,-1.541114,-0.000008,0.00007
 \N,0,-0.129272,-0.00008,0.000067\C,0,1.063677,0.000064,0.000026\S,0,2.
 633115,-0.000015,-0.000021\\Version=ES64L-G16RevC.01\State=1-A\HF=-715
 .0021149\RMSD=3.609e-01\Dipole=0.0662941,0.0000058,-0.0001077\Quadrupo
 le=10.384612,-2.7851398,-7.5994722,-0.0007867,0.0000948,0.\PG=C01 [X(C

 Normal termination of Gaussian 16 at Wed Apr  9 00:32:53 2025.
