 Gaussian 16, Revision C.01,

 ----------------------------------------------------------------------
 #t hf aug-cc-pvdz symm=none int=(grid=ultrafine) guess=(read,tcheck) s
 table=(opt,rrhf)
 ----------------------------------------------------------------------
 -----
 title
 -----
 Symbolic Z-matrix:
 Charge =  0 Multiplicity = 1

 SCF Done:  E(RHF) =  -575.894820837     A.U. after   15 cycles
 Normal termination of Gaussian 16 at Wed Apr  9 00:02:17 2025.
 Gaussian 16:  ES64L-G16RevC.01  3-Jul-2019

 ----------------------------------------------------------------------
 #t hf aug-cc-pvdz iop(5/13=1,5/36=2,99/5=2) pseudo=read geom=check gue
 ss=(read,tcheck) scf=(maxcycle=1)
 ----------------------------------------------------------------------
 -----
 title
 -----
 Structure from the checkpoint file:  "BDE49_nonexpt_2126_mol1.chk"
 Charge =  0 Multiplicity = 1

                         Standard orientation:
 ---------------------------------------------------------------------
 Center     Atomic      Atomic             Coordinates (Angstroms)
 Number     Number       Type             X           Y           Z
 ---------------------------------------------------------------------
      1          6           0        0.064350   -0.196577    0.091309
      2          6           0       -0.839159   -1.251206   -0.110008
      3          6           0       -2.210980   -1.019649   -0.189054
      4          6           0       -2.704497    0.278166   -0.073590
      5          6           0       -1.823137    1.340943    0.119817
      6          6           0       -0.453281    1.104044    0.203100
      7          7           0        2.770714    0.793416   -0.460039
      8          1           0       -2.892898   -1.848396   -0.345725
      9          1           0       -3.771515    0.461581   -0.137995
     10          1           0       -2.204334    2.352795    0.206025
     11          1           0        0.227518    1.936966    0.345210
     12          1           0       -0.466850   -2.266105   -0.213432
     13         14           0        1.903898   -0.521396    0.243722
     14          1           0        2.638849    1.033206   -1.432525
     15          1           0        3.717970    0.982667   -0.166479
     16          1           0        2.142204   -1.866829   -0.350621
     17          1           0        2.359710   -0.574588    1.654265
 ---------------------------------------------------------------------

 SCF Done:  E(RHF) =  -577.434505996     A.U. after    2 cycles

 The electronic state is 1-A.
 Alpha  occ. eigenvalues --  -76.21306 -15.72725 -11.50686 -11.42469 -11.41933
 Alpha  occ. eigenvalues --  -11.40115 -11.39720 -11.35550  -5.55188  -2.20933
 Alpha  occ. eigenvalues --   -2.19047  -2.17300  -1.33345  -1.24814  -1.08647
 Alpha  occ. eigenvalues --   -1.08476  -0.85777  -0.85518  -0.75483  -0.69431
 Alpha  occ. eigenvalues --   -0.64781  -0.63034  -0.58101  -0.56440  -0.52886
 Alpha  occ. eigenvalues --   -0.50894  -0.49960  -0.46447  -0.44131  -0.39386
 Alpha  occ. eigenvalues --   -0.37259  -0.33198  -0.32600
 Alpha virt. eigenvalues --    0.03353   0.04706   0.05257   0.05580   0.05978
 Alpha virt. eigenvalues --    0.06355   0.07183   0.07924   0.08074   0.08504
 Alpha virt. eigenvalues --    0.09607   0.10409   0.11223   0.11871   0.12621

 Mulliken charges:
               1
     1  C   -0.773254
     2  C   -3.014454
     3  C   -0.676664
     4  C   -2.152091
     5  C   -0.594187
     6  C   -1.708790
     7  N   -2.351396
     8  H    1.539233
     9  H    1.520954
    10  H    1.524282
    11  H    1.833807
    12  H    1.819467
    13  Si   5.476781
    14  H    0.695462
    15  H    0.712156
    16  H   -1.722803
    17  H   -2.128504
 Sum of Mulliken charges =  -0.00000

 Dipole moment (field-independent basis, Debye):
    X=             -0.1438    Y=              0.7840    Z=             -0.9019  Tot=              1.2037

 Test job not archived.
 1\1\GINC-SE403\SP\RHF\Aug-CC-pVDZ\C6H9N1Si1\OHZDE\09-Apr-2025\0\\#t hf
  aug-cc-pvdz iop(5/13=1,5/36=2,99/5=2) pseudo=read geom=check guess=(r
 ead,tcheck) scf=(maxcycle=1)\\title\\0,1\C,0,0.06435,-0.196577,0.09130
 9\C,0,-0.839159,-1.251206,-0.110008\C,0,-2.21098,-1.019649,-0.189054\C
 ,0,-2.704497,0.278166,-0.07359\C,0,-1.823137,1.340943,0.119817\C,0,-0.
 453281,1.104044,0.2031\N,0,2.770714,0.793416,-0.460039\H,0,-2.892898,-
 1.848396,-0.345725\H,0,-3.771515,0.461581,-0.137995\H,0,-2.204334,2.35
 2795,0.206025\H,0,0.227518,1.936966,0.34521\H,0,-0.46685,-2.266105,-0.

 Normal termination of Gaussian 16 at Wed Apr  9 00:02:24 2025.
