 Gaussian 16, Revision C.01,

 ----------------------------------------------------------------------
 #t hf aug-cc-pvdz symm=none int=(grid=ultrafine) guess=(read,tcheck) s
 table=(opt,rrhf)
 ----------------------------------------------------------------------
 -----
 title
 -----
 Symbolic Z-matrix:
 Charge =  0 Multiplicity = 1

 SCF Done:  E(RHF) =  -483.640297594     A.U. after   14 cycles
 Normal termination of Gaussian 16 at Wed Apr  9 00:43:04 2025.
 Gaussian 16:  ES64L-G16RevC.01  3-Jul-2019

 ----------------------------------------------------------------------
 #t hf aug-cc-pvdz iop(5/13=1,5/36=2,99/5=2) pseudo=read geom=check gue
 ss=(read,tcheck) scf=(maxcycle=1)
 ----------------------------------------------------------------------
 -----
 title
 -----
 Structure from the checkpoint file:  "BDE49_nonexpt_719_mol1.chk"
 Charge =  0 Multiplicity = 1

                         Standard orientation:
 ---------------------------------------------------------------------
 Center     Atomic      Atomic             Coordinates (Angstroms)
 Number     Number       Type             X           Y           Z
 ---------------------------------------------------------------------
      1          5           0       -2.330612    0.695143    0.105876
      2          6           0        0.622379    0.005986    0.538521
      3          6           0        1.534613    0.922525   -0.252276
      4          6           0        1.924685   -0.511155   -0.040918
      5          1           0        1.871185   -1.181080   -0.890928
      6          1           0        2.723438   -0.732304    0.656852
      7          1           0        2.061040    1.691202    0.300167
      8          1           0        1.218494    1.221697   -1.244478
      9         15           0       -0.964669   -0.506364   -0.207422
     10          1           0        0.611210    0.163512    1.610938
     11          1           0       -3.450623    0.293715    0.098166
     12          1           0       -2.100925    1.862208    0.124535
     13          1           0       -1.300798   -1.703347    0.454734
 ---------------------------------------------------------------------

 SCF Done:  E(RHF) =  -484.552551988     A.U. after    2 cycles

 The electronic state is 1-A.
 Alpha  occ. eigenvalues -- -105.15461 -11.41728 -11.41348 -11.36745  -7.61345
 Alpha  occ. eigenvalues --   -2.73999  -1.53275  -1.47219  -1.40481  -1.27910
 Alpha  occ. eigenvalues --   -0.87629  -0.86643  -0.79717  -0.68265  -0.65092
 Alpha  occ. eigenvalues --   -0.57429  -0.51436  -0.49078  -0.42478  -0.41510
 Alpha  occ. eigenvalues --   -0.22983  -0.13459  -0.04219
 Alpha virt. eigenvalues --    0.03650   0.04236   0.04720   0.05869   0.05994
 Alpha virt. eigenvalues --    0.06510   0.07031   0.08519   0.08571   0.09581
 Alpha virt. eigenvalues --    0.10367   0.11564   0.12722   0.13149   0.13830

 Mulliken charges:
               1
     1  B    4.371606
     2  C   -1.737750
     3  C   -2.926964
     4  C   -2.832673
     5  H    1.353770
     6  H    1.146205
     7  H    1.216299
     8  H    1.294321
     9  P    2.427487
    10  H    1.143456
    11  H   -2.541895
    12  H   -1.989857
    13  H   -0.924005
 Sum of Mulliken charges =   0.00000

 Dipole moment (field-independent basis, Debye):
    X=              6.2573    Y=             -4.0679    Z=             -3.4316  Tot=              8.2145

 Test job not archived.
 1\1\GINC-SE460\SP\RHF\Aug-CC-pVDZ\C3H8B1P1\OHZDE\09-Apr-2025\0\\#t hf
 aug-cc-pvdz iop(5/13=1,5/36=2,99/5=2) pseudo=read geom=check guess=(re
 ad,tcheck) scf=(maxcycle=1)\\title\\0,1\B,0,-2.330612,0.695143,0.10587
 6\C,0,0.622379,0.005986,0.538521\C,0,1.534613,0.922525,-0.252276\C,0,1
 .924685,-0.511155,-0.040918\H,0,1.871185,-1.18108,-0.890928\H,0,2.7234
 38,-0.732304,0.656852\H,0,2.06104,1.691202,0.300167\H,0,1.218494,1.221
 697,-1.244478\P,0,-0.964669,-0.506364,-0.207422\H,0,0.61121,0.163512,1
 .610938\H,0,-3.450623,0.293714,0.098166\H,0,-2.100925,1.862208,0.12453

 Normal termination of Gaussian 16 at Wed Apr  9 00:43:08 2025.
