 Gaussian 16, Revision C.01,

 ----------------------------------------------------------------------
 #t hf aug-cc-pvdz symm=none int=(grid=ultrafine) guess=(read,tcheck) s
 table=(opt,rrhf)
 ----------------------------------------------------------------------
 -----
 title
 -----
 Symbolic Z-matrix:
 Charge =  0 Multiplicity = 1

 SCF Done:  E(RHF) =  -588.307248662     A.U. after   15 cycles
 Normal termination of Gaussian 16 at Tue Apr  8 23:38:28 2025.
 Gaussian 16:  ES64L-G16RevC.01  3-Jul-2019

 ----------------------------------------------------------------------
 #t hf aug-cc-pvdz iop(5/13=1,5/36=2,99/5=2) pseudo=read geom=check gue
 ss=(read,tcheck) scf=(maxcycle=1)
 ----------------------------------------------------------------------
 -----
 title
 -----
 Structure from the checkpoint file:  "BDE49_nonexpt_1549_mol1.chk"
 Charge =  0 Multiplicity = 1

                         Standard orientation:
 ---------------------------------------------------------------------
 Center     Atomic      Atomic             Coordinates (Angstroms)
 Number     Number       Type             X           Y           Z
 ---------------------------------------------------------------------
      1          6           0        1.827884    0.055648    0.075500
      2          7           0       -0.999763   -0.113823   -0.203623
      3          6           0       -1.856379   -0.215750    0.977554
      4          1           0       -1.776497   -1.214524    1.409758
      5          1           0       -2.900654   -0.050212    0.690576
      6          1           0       -1.591854    0.517600    1.751300
      7          6           0       -1.077216    1.175803   -0.889508
      8          1           0       -2.127944    1.428979   -1.064485
      9          1           0       -0.580756    1.110545   -1.859655
     10          1           0       -0.610342    1.983599   -0.313876
     11          8           0        1.751335    1.072811    0.720507
     12         15           0        0.384346   -1.082534   -0.263964
     13          1           0        2.811447   -0.314528   -0.311286
     14          1           0        0.633335   -1.103385   -1.662847
 ---------------------------------------------------------------------

 SCF Done:  E(RHF) =  -589.641667380     A.U. after    2 cycles

 The electronic state is 1-A.
 Alpha  occ. eigenvalues -- -105.20276 -21.07143 -15.72225 -11.46568 -11.39433
 Alpha  occ. eigenvalues --  -11.38851  -2.78355  -1.71431  -1.60278  -1.47807
 Alpha  occ. eigenvalues --   -1.47019  -1.30385  -1.04099  -0.91596  -0.82916
 Alpha  occ. eigenvalues --   -0.71123  -0.62961  -0.59632  -0.59171  -0.55162
 Alpha  occ. eigenvalues --   -0.54983  -0.50558  -0.45862  -0.41604  -0.35085
 Alpha  occ. eigenvalues --   -0.27460  -0.19392  -0.03070
 Alpha virt. eigenvalues --    0.03960   0.05240   0.05832   0.06506   0.06830
 Alpha virt. eigenvalues --    0.07248   0.07299   0.08118   0.09845   0.10504
 Alpha virt. eigenvalues --    0.11288   0.11904   0.13204   0.14158   0.14363

 Mulliken charges:
               1
     1  C   -0.808736
     2  N   -1.790791
     3  C   -3.546977
     4  H    1.390915
     5  H    1.365078
     6  H    1.445300
     7  C   -3.628375
     8  H    1.339017
     9  H    1.461402
    10  H    1.466189
    11  O   -2.450122
    12  P    3.264319
    13  H    1.330209
    14  H   -0.837428
 Sum of Mulliken charges =  -0.00000

 Dipole moment (field-independent basis, Debye):
    X=             -2.7979    Y=              0.1313    Z=              0.3861  Tot=              2.8275

 Test job not archived.
 1\1\GINC-SE403\SP\RHF\Aug-CC-pVDZ\C3H8N1O1P1\OHZDE\08-Apr-2025\0\\#t h
 f aug-cc-pvdz iop(5/13=1,5/36=2,99/5=2) pseudo=read geom=check guess=(
 read,tcheck) scf=(maxcycle=1)\\title\\0,1\C,0,1.827884,0.055648,0.0755
 \N,0,-0.999763,-0.113823,-0.203623\C,0,-1.856379,-0.21575,0.977554\H,0
 ,-1.776497,-1.214524,1.409758\H,0,-2.900654,-0.050212,0.690576\H,0,-1.
 591854,0.5176,1.7513\C,0,-1.077216,1.175803,-0.889508\H,0,-2.127944,1.
 428979,-1.064485\H,0,-0.580756,1.110545,-1.859655\H,0,-0.610342,1.9835
 99,-0.313876\O,0,1.751335,1.072811,0.720507\P,0,0.384346,-1.082534,-0.

 Normal termination of Gaussian 16 at Tue Apr  8 23:38:32 2025.
