 Gaussian 16, Revision C.01,

 ----------------------------------------------------------------------
 #t hf aug-cc-pvdz symm=none int=(grid=ultrafine) guess=(read,tcheck) s
 table=(opt,rrhf)
 ----------------------------------------------------------------------
 -----
 title
 -----
 Symbolic Z-matrix:
 Charge =  0 Multiplicity = 1

 SCF Done:  E(RHF) =  -723.830451892     A.U. after   17 cycles
 Normal termination of Gaussian 16 at Tue Apr  8 23:34:39 2025.
 Gaussian 16:  ES64L-G16RevC.01  3-Jul-2019

 ----------------------------------------------------------------------
 #t hf aug-cc-pvdz iop(5/13=1,5/36=2,99/5=2) pseudo=read geom=check gue
 ss=(read,tcheck) scf=(maxcycle=1)
 ----------------------------------------------------------------------
 -----
 title
 -----
 Structure from the checkpoint file:  "BDE49_nonexpt_1428_mol1.chk"
 Charge =  0 Multiplicity = 1

                         Standard orientation:
 ---------------------------------------------------------------------
 Center     Atomic      Atomic             Coordinates (Angstroms)
 Number     Number       Type             X           Y           Z
 ---------------------------------------------------------------------
      1          6           0        0.436047    1.159988   -0.002909
      2          6           0       -0.955499    1.199322    0.000889
      3          6           0       -1.703232    0.016708   -0.000253
      4          6           0        1.115559   -0.062725   -0.000199
      5          6           0        0.366866   -1.247462   -0.005010
      6          6           0       -1.018535   -1.208744   -0.016989
      7          1           0        0.985558    2.093632    0.000003
      8          1           0       -1.459073    2.159213    0.012011
      9         15           0       -3.546921    0.003633   -0.091698
     10          1           0       -1.576227   -2.139599   -0.039940
     11          1           0        0.900485   -2.189949   -0.007646
     12          6           0        2.612649   -0.167491    0.004322
     13          8           0        3.155831   -1.254410    0.007725
     14          6           0        3.435203    1.108768    0.004744
     15          1           0        3.217701    1.715561   -0.879079
     16          1           0        4.490112    0.840408    0.008807
     17          1           0        3.211753    1.718726    0.884930
     18          1           0       -3.748566    1.380098    0.177056
     19          1           0       -3.798940   -0.387484    1.249965
 ---------------------------------------------------------------------

 SCF Done:  E(RHF) =  -725.801555428     A.U. after    2 cycles

 The electronic state is 1-A.
 Alpha  occ. eigenvalues -- -105.19421 -21.04877 -11.53017 -11.50500 -11.45236
 Alpha  occ. eigenvalues --  -11.44344 -11.43449 -11.42281 -11.39972 -11.37840
 Alpha  occ. eigenvalues --   -2.76372  -1.70901  -1.51807  -1.46403  -1.44417
 Alpha  occ. eigenvalues --   -1.34415  -1.14309  -1.10741  -1.07122  -0.89700
 Alpha  occ. eigenvalues --   -0.88004  -0.78006  -0.75880  -0.66235  -0.64392
 Alpha  occ. eigenvalues --   -0.60515  -0.60097  -0.59181  -0.57024  -0.52545
 Alpha  occ. eigenvalues --   -0.52088  -0.47788  -0.45003  -0.44009  -0.34631
 Alpha  occ. eigenvalues --   -0.33500  -0.28722  -0.26610  -0.24461  -0.03530
 Alpha virt. eigenvalues --    0.03171   0.04894   0.05482   0.06010   0.06330
 Alpha virt. eigenvalues --    0.06817   0.07118   0.07529   0.08110   0.08537
 Alpha virt. eigenvalues --    0.09428   0.10283   0.10296   0.10976   0.12316

 Mulliken charges:
               1
     1  C    1.858298
     2  C   -4.795402
     3  C    2.089651
     4  C    2.696277
     5  C   -2.942499
     6  C   -3.641613
     7  H    1.926825
     8  H    1.960729
     9  P    0.667954
    10  H    1.899676
    11  H    1.898252
    12  C    3.530617
    13  O   -3.844722
    14  C   -5.485329
    15  H    1.271896
    16  H    1.133732
    17  H    1.249123
    18  H   -1.010731
    19  H   -0.462735
 Sum of Mulliken charges =   0.00000

 Dipole moment (field-independent basis, Debye):
    X=             -1.5713    Y=             -0.0516    Z=             -2.4400  Tot=              2.9026

 Test job not archived.
 1\1\GINC-SE331\SP\RHF\Aug-CC-pVDZ\C8H9O1P1\OHZDE\08-Apr-2025\0\\#t hf
 aug-cc-pvdz iop(5/13=1,5/36=2,99/5=2) pseudo=read geom=check guess=(re
 ad,tcheck) scf=(maxcycle=1)\\title\\0,1\C,0,0.436047,1.159988,-0.00290
 9\C,0,-0.955499,1.199322,0.000889\C,0,-1.703232,0.016708,-0.000253\C,0
 ,1.115559,-0.062725,-0.000199\C,0,0.366866,-1.247462,-0.00501\C,0,-1.0
 18535,-1.208744,-0.016989\H,0,0.985558,2.093632,0.000003\H,0,-1.459073
 ,2.159213,0.012011\P,0,-3.546921,0.003633,-0.091698\H,0,-1.576227,-2.1
 39599,-0.03994\H,0,0.900485,-2.189949,-0.007646\C,0,2.612649,-0.167491

 Normal termination of Gaussian 16 at Tue Apr  8 23:34:49 2025.
