 Gaussian 16, Revision C.01,

 ----------------------------------------------------------------------
 #t hf aug-cc-pvdz symm=none int=(grid=ultrafine) guess=(read,tcheck) s
 table=(opt,rrhf)
 ----------------------------------------------------------------------
 -----
 title
 -----
 Symbolic Z-matrix:
 Charge =  0 Multiplicity = 1

 SCF Done:  E(RHF) =  -603.514924715     A.U. after   13 cycles
 Normal termination of Gaussian 16 at Wed Apr  9 00:53:10 2025.
 Gaussian 16:  ES64L-G16RevC.01  3-Jul-2019

 ----------------------------------------------------------------------
 #t hf aug-cc-pvdz iop(5/13=1,5/36=2,99/5=2) pseudo=read geom=check gue
 ss=(read,tcheck) scf=(maxcycle=1)
 ----------------------------------------------------------------------
 -----
 title
 -----
 Structure from the checkpoint file:  "BDE49_nonexpt_948_mol1.chk"
 Charge =  0 Multiplicity = 1

                         Standard orientation:
 ---------------------------------------------------------------------
 Center     Atomic      Atomic             Coordinates (Angstroms)
 Number     Number       Type             X           Y           Z
 ---------------------------------------------------------------------
      1          9           0        3.905588    0.274949    0.000022
      2          7           0        0.436782    0.448850   -0.000020
      3          7           0        1.969406   -1.395109   -0.000025
      4          1           0        2.912385   -1.741365    0.000056
      5          1           0        1.171977   -2.010625    0.000039
      6          7           0        2.628810    0.889869    0.000004
      7          6           0        1.753776   -0.071394   -0.000009
      8          9           0       -3.905588   -0.274949    0.000012
      9          7           0       -0.436782   -0.448850   -0.000005
     10          7           0       -1.969406    1.395109   -0.000010
     11          1           0       -2.912385    1.741365   -0.000014
     12          1           0       -1.171977    2.010625   -0.000025
     13          7           0       -2.628810   -0.889869    0.000012
     14          6           0       -1.753776    0.071394   -0.000001
 ---------------------------------------------------------------------

 SCF Done:  E(RHF) =  -605.984247020     A.U. after    2 cycles

 The electronic state is 1-A.
 Alpha  occ. eigenvalues --  -29.27209 -29.27208 -15.86756 -15.86040 -15.81486
 Alpha  occ. eigenvalues --  -15.81454 -15.81145 -15.81127 -11.52175 -11.51060
 Alpha  occ. eigenvalues --   -1.67038  -1.53306  -1.43911  -1.33542  -1.32618
 Alpha  occ. eigenvalues --   -1.14410  -0.92167  -0.82519  -0.79068  -0.77348
 Alpha  occ. eigenvalues --   -0.74322  -0.70995  -0.67882  -0.61405  -0.61318
 Alpha  occ. eigenvalues --   -0.60919  -0.52786  -0.52581  -0.50621  -0.42418
 Alpha  occ. eigenvalues --   -0.42413  -0.41959  -0.37781  -0.36701  -0.25128
 Alpha  occ. eigenvalues --   -0.25103  -0.24534  -0.22173
 Alpha virt. eigenvalues --    0.03672   0.04503   0.06049   0.06760   0.06907
 Alpha virt. eigenvalues --    0.09489   0.09756   0.11460   0.12245   0.12501
 Alpha virt. eigenvalues --    0.12823   0.14913   0.16214   0.16226   0.16399

 Mulliken charges:
               1
     1  F   -0.255644
     2  N   -1.448596
     3  N   -2.161346
     4  H    0.565094
     5  H    0.822334
     6  N   -1.520074
     7  C    3.998232
     8  F   -0.255644
     9  N   -1.448596
    10  N   -2.161346
    11  H    0.565094
    12  H    0.822334
    13  N   -1.520074
    14  C    3.998232
 Sum of Mulliken charges =  -0.00000

 Dipole moment (field-independent basis, Debye):
    X=              0.0000    Y=              0.0000    Z=              0.0001  Tot=              0.0001

 Test job not archived.
 1\1\GINC-SE123\SP\RHF\Aug-CC-pVDZ\C2H4F2N6\OHZDE\09-Apr-2025\0\\#t hf
 aug-cc-pvdz iop(5/13=1,5/36=2,99/5=2) pseudo=read geom=check guess=(re
 ad,tcheck) scf=(maxcycle=1)\\title\\0,1\F,0,3.905588,0.274949,0.000022
 \N,0,0.436782,0.44885,-0.00002\N,0,1.969406,-1.395109,-0.000025\H,0,2.
 912385,-1.741365,0.000056\H,0,1.171977,-2.010625,0.000039\N,0,2.62881,
 0.889869,0.000004\C,0,1.753776,-0.071394,-0.000009\F,0,-3.905588,-0.27
 4949,0.000012\N,0,-0.436782,-0.44885,-0.000005\N,0,-1.969406,1.395109,
 -0.00001\H,0,-2.912385,1.741365,-0.000014\H,0,-1.171977,2.010625,-0.00

 Normal termination of Gaussian 16 at Wed Apr  9 00:53:15 2025.
