 Gaussian 16, Revision C.01,

 ----------------------------------------------------------------------
 #t hf aug-cc-pvdz symm=none int=(grid=ultrafine) guess=(read,tcheck) s
 table=(opt,rrhf)
 ----------------------------------------------------------------------
 -----
 title
 -----
 Symbolic Z-matrix:
 Charge =  0 Multiplicity = 1

 SCF Done:  E(RHF) =  -749.710812852     A.U. after   12 cycles
 Normal termination of Gaussian 16 at Tue Apr  8 23:41:34 2025.
 Gaussian 16:  ES64L-G16RevC.01  3-Jul-2019

 ----------------------------------------------------------------------
 #t hf aug-cc-pvdz iop(5/13=1,5/36=2,99/5=2) pseudo=read geom=check gue
 ss=(read,tcheck) scf=(maxcycle=1)
 ----------------------------------------------------------------------
 -----
 title
 -----
 Structure from the checkpoint file:  "BDE49_nonexpt_1636_mol1.chk"
 Charge =  0 Multiplicity = 1

                         Standard orientation:
 ---------------------------------------------------------------------
 Center     Atomic      Atomic             Coordinates (Angstroms)
 Number     Number       Type             X           Y           Z
 ---------------------------------------------------------------------
      1         15           0        1.249540   -1.436037   -0.236891
      2         14           0        0.183615    0.491080    0.393494
      3          6           0       -1.536617    0.537982   -0.387650
      4          6           0       -2.498141   -0.576866    0.059268
      5          1           0       -1.419908    0.519875   -1.477845
      6          1           0       -1.969215    1.518091   -0.149589
      7          1           0       -2.128239   -1.566272   -0.224132
      8          1           0       -3.485780   -0.457458   -0.395394
      9          6           0        1.222894    1.948840   -0.190284
     10          1           0        2.210592    1.945549    0.278590
     11          1           0        0.735644    2.894570    0.066004
     12          1           0        1.364582    1.925624   -1.274518
     13          1           0       -2.634316   -0.576652    1.144631
     14          1           0        0.519276   -2.281588    0.639109
     15          1           0        2.323956   -1.268349    0.676643
     16          1           0        0.040880    0.552308    1.872952
 ---------------------------------------------------------------------

 SCF Done:  E(RHF) =  -750.705003395     A.U. after    2 cycles

 The electronic state is 1-A.
 Alpha  occ. eigenvalues -- -105.16466 -76.20778 -11.39618 -11.34969 -11.34605
 Alpha  occ. eigenvalues --   -5.54568  -2.73156  -2.18600  -2.17367  -2.16147
 Alpha  occ. eigenvalues --   -1.43125  -1.43041  -1.40648  -1.15011  -1.03585
 Alpha  occ. eigenvalues --   -0.89068  -0.74912  -0.64741  -0.60697  -0.56753
 Alpha  occ. eigenvalues --   -0.56092  -0.55512  -0.49773  -0.48936  -0.43095
 Alpha  occ. eigenvalues --   -0.38399  -0.25446  -0.14288  -0.03075
 Alpha virt. eigenvalues --    0.03795   0.04621   0.06108   0.06204   0.06599
 Alpha virt. eigenvalues --    0.06715   0.06818   0.07117   0.07908   0.08636
 Alpha virt. eigenvalues --    0.09586   0.09830   0.10188   0.11601   0.12307

 Mulliken charges:
               1
     1  P    1.615065
     2  Si   4.244263
     3  C   -3.678885
     4  C   -3.922482
     5  H    1.509521
     6  H    1.376703
     7  H    1.378807
     8  H    1.119630
     9  C   -5.104870
    10  H    1.335779
    11  H    1.308396
    12  H    1.404201
    13  H    1.290724
    14  H   -0.793899
    15  H   -0.705472
    16  H   -2.377481
 Sum of Mulliken charges =   0.00000

 Dipole moment (field-independent basis, Debye):
    X=              1.0448    Y=             -1.5921    Z=             -4.9077  Tot=              5.2642

 Test job not archived.
 1\1\GINC-SE106\SP\RHF\Aug-CC-pVDZ\C3H11P1Si1\OHZDE\08-Apr-2025\0\\#t h
 f aug-cc-pvdz iop(5/13=1,5/36=2,99/5=2) pseudo=read geom=check guess=(
 read,tcheck) scf=(maxcycle=1)\\title\\0,1\P,0,1.24954,-1.436037,-0.236
 891\Si,0,0.183615,0.49108,0.393494\C,0,-1.536617,0.537982,-0.38765\C,0
 ,-2.498141,-0.576866,0.059268\H,0,-1.419908,0.519875,-1.477845\H,0,-1.
 969215,1.518091,-0.149589\H,0,-2.128239,-1.566272,-0.224132\H,0,-3.485
 78,-0.457457,-0.395394\C,0,1.222894,1.94884,-0.190284\H,0,2.210592,1.9
 45549,0.27859\H,0,0.735644,2.89457,0.066004\H,0,1.364582,1.925624,-1.2

 Normal termination of Gaussian 16 at Tue Apr  8 23:42:17 2025.
