 Gaussian 16, Revision C.01,

 ----------------------------------------------------------------------
 #t hf aug-cc-pvdz symm=none int=(grid=ultrafine) guess=(read,tcheck) s
 table=opt
 ----------------------------------------------------------------------
 -----
 title
 -----
 Symbolic Z-matrix:
 Charge =  0 Multiplicity = 2

 SCF Done:  E(UHF) =  -872.104179145     A.U. after   23 cycles
 Normal termination of Gaussian 16 at Tue Apr  8 23:28:52 2025.
 Gaussian 16:  ES64L-G16RevC.01  3-Jul-2019

 ----------------------------------------------------------------------
 #t hf aug-cc-pvdz iop(5/13=1,5/36=2,99/5=2) pseudo=read geom=check gue
 ss=(read,tcheck) scf=(maxcycle=1)
 ----------------------------------------------------------------------
 -----
 title
 -----
 Structure from the checkpoint file:  "BDE49_nonexpt_1247_mol2.chk"
 Charge =  0 Multiplicity = 2

                         Standard orientation:
 ---------------------------------------------------------------------
 Center     Atomic      Atomic             Coordinates (Angstroms)
 Number     Number       Type             X           Y           Z
 ---------------------------------------------------------------------
      1         15           0        0.311138    1.957567   -0.902777
      2          6           0        0.411869    1.722642    0.917850
      3          6           0        0.022949    0.453671    0.203987
      4          6           0       -1.429337    0.056839    0.320729
      5          8           0       -2.201674    0.552558    1.105080
      6          8           0       -1.762631   -0.871051   -0.583320
      7          6           0       -3.119466   -1.346560   -0.520188
      8          6           0        1.019557   -0.669829    0.161920
      9          8           0        0.771006   -1.832261    0.346156
     10          8           0        2.267113   -0.198922   -0.067443
     11          6           0        3.314580   -1.186605   -0.076447
     12          1           0        1.402153    1.753342    1.358316
     13          1           0       -0.376150    2.165743    1.519411
     14          1           0       -3.819244   -0.527123   -0.691032
     15          1           0       -3.319437   -1.793014    0.454698
     16          1           0       -3.199498   -2.093165   -1.306499
     17          1           0        3.130320   -1.928325   -0.854468
     18          1           0        4.229671   -0.635250   -0.279634
     19          1           0        3.373693   -1.689248    0.889982
 ---------------------------------------------------------------------

 SCF Done:  E(UHF) =  -874.567911097     A.U. after    2 cycles

 The electronic state is 2-A.
 Alpha  occ. eigenvalues -- -105.21109 -21.09982 -21.09219 -21.05677 -21.05377
 Alpha  occ. eigenvalues --  -11.55254 -11.53841 -11.45854 -11.42591 -11.41647
 Alpha  occ. eigenvalues --  -11.41321  -2.78715  -1.86381  -1.83507  -1.67165
 Alpha  occ. eigenvalues --   -1.66784  -1.56568  -1.51030  -1.45760  -1.18159
 Alpha  occ. eigenvalues --   -1.03798  -1.02586  -0.93211  -0.82532  -0.72654
 Alpha  occ. eigenvalues --   -0.70485  -0.69628  -0.64679  -0.62992  -0.61148
 Alpha  occ. eigenvalues --   -0.60616  -0.58442  -0.56379  -0.53677  -0.52849
 Alpha  occ. eigenvalues --   -0.50551  -0.49674  -0.43847  -0.41923  -0.33881
 Alpha  occ. eigenvalues --   -0.33260  -0.30964  -0.29885  -0.17238  -0.13895
 Alpha  occ. eigenvalues --    0.02708
 Alpha virt. eigenvalues --    0.03567   0.04768   0.05477   0.05875   0.06291
 Alpha virt. eigenvalues --    0.06372   0.07017   0.07736   0.07964   0.08119
 Alpha virt. eigenvalues --    0.10580   0.11644   0.11805   0.12737   0.13538

  Beta  occ. eigenvalues -- -105.20424 -21.09929 -21.09222 -21.05710 -21.05334
  Beta  occ. eigenvalues --  -11.55233 -11.53809 -11.45986 -11.42595 -11.41680
  Beta  occ. eigenvalues --  -11.41444  -2.76632  -1.86329  -1.83467  -1.67186
  Beta  occ. eigenvalues --   -1.66712  -1.55296  -1.42437  -1.26979  -1.18127
  Beta  occ. eigenvalues --   -1.03748  -1.02545  -0.93201  -0.82284  -0.72140
  Beta  occ. eigenvalues --   -0.69825  -0.68356  -0.64574  -0.62980  -0.60720
  Beta  occ. eigenvalues --   -0.59835  -0.58433  -0.56111  -0.53557  -0.52632
  Beta  occ. eigenvalues --   -0.50423  -0.48482  -0.43814  -0.41853  -0.33785
  Beta  occ. eigenvalues --   -0.33269  -0.30852  -0.29847  -0.18236  -0.12340
  Beta virt. eigenvalues --    0.03553   0.04773   0.05317   0.05557   0.06338
  Beta virt. eigenvalues --    0.06504   0.07017   0.07520   0.07987   0.08101
  Beta virt. eigenvalues --    0.09303   0.10646   0.11789   0.12109   0.13369

 Mulliken charges and spin densities:
               1          2
     1  P    2.627915   1.702087
     2  C   -4.178300  -0.444845
     3  C   -1.336354  -1.071763
     4  C    6.955283   0.571609
     5  O   -3.456019  -0.009270
     6  O   -3.460107   0.017161
     7  C   -3.105449  -0.065650
     8  C    6.017220   0.117125
     9  O   -3.383778   0.001743
    10  O   -3.702655  -0.093129
    11  C   -3.165701  -0.106679
    12  H    1.084942   0.026930
    13  H    1.117845   0.076111
    14  H    1.228687   0.140432
    15  H    1.392476  -0.060267
    16  H    1.358110   0.042970
    17  H    1.337600   0.005322
    18  H    1.442633   0.015083
    19  H    1.225652   0.135028
 Sum of Mulliken charges =   0.00000   1.00000

 Dipole moment (field-independent basis, Debye):
    X=              2.5092    Y=              4.3692    Z=             -6.4782  Tot=              8.2069
                          Isotropic Fermi Contact Couplings
        Atom                 a.u.       MegaHertz       Gauss      10(-4) cm-1
     1  P(31)              0.26915     487.44896     173.93391     162.59547
     2  C(13)             -0.01132     -12.72129      -4.53927      -4.24336
     3  C(13)             -0.01179     -13.24929      -4.72768      -4.41949
     4  C(13)              0.00666       7.48725       2.67164       2.49748
     5  O(17)              0.00632      -3.82867      -1.36616      -1.27711
     6  O(17)              0.00172      -1.04554      -0.37307      -0.34875
     7  C(13)              0.00234       2.63409       0.93991       0.87864
     8  C(13)              0.00759       8.53085       3.04402       2.84559

 Normal termination of Gaussian 16 at Tue Apr  8 23:29:05 2025.
