 Gaussian 16, Revision C.01,

 ----------------------------------------------------------------------
 #t hf aug-cc-pvdz symm=none int=(grid=ultrafine) guess=(read,tcheck) s
 table=(opt,rrhf)
 ----------------------------------------------------------------------
 -----
 title
 -----
 Symbolic Z-matrix:
 Charge =  0 Multiplicity = 1

 SCF Done:  E(RHF) =  -3335.22221614     A.U. after   11 cycles
 Normal termination of Gaussian 16 at Wed Apr  9 00:09:43 2025.
 Gaussian 16:  ES64L-G16RevC.01  3-Jul-2019

 ----------------------------------------------------------------------
 #t hf aug-cc-pvdz iop(5/13=1,5/36=2,99/5=2) pseudo=read geom=check gue
 ss=(read,tcheck) scf=(maxcycle=1)
 ----------------------------------------------------------------------
 -----
 title
 -----
 Structure from the checkpoint file:  "BDE49_nonexpt_2316_mol1.chk"
 Charge =  0 Multiplicity = 1

                         Standard orientation:
 ---------------------------------------------------------------------
 Center     Atomic      Atomic             Coordinates (Angstroms)
 Number     Number       Type             X           Y           Z
 ---------------------------------------------------------------------
      1         14           0        1.175698   -0.000004    0.000005
      2         14           0       -1.175698    0.000004   -0.000006
      3         17           0       -1.863279    1.932964   -0.110266
      4         17           0        1.863280   -1.932964    0.110266
      5         17           0       -1.863333   -0.870997    1.729090
      6         17           0        1.863333    0.870996   -1.729090
      7         17           0       -1.863269   -1.061951   -1.618880
      8         17           0        1.863268    1.061952    1.618880
 ---------------------------------------------------------------------

 SCF Done:  E(RHF) =  -3336.96453950     A.U. after    2 cycles

 The electronic state is 1-A.
 Alpha  occ. eigenvalues --  -99.92150 -99.92150 -99.92148 -99.92148 -99.92148
 Alpha  occ. eigenvalues --  -99.92145 -76.36409 -76.36378 -10.49649 -10.49649
 Alpha  occ. eigenvalues --  -10.49641 -10.49641 -10.49546 -10.49541  -9.69530
 Alpha  occ. eigenvalues --   -9.69477  -9.69477  -9.69439  -9.69439  -9.69416
 Alpha  occ. eigenvalues --   -9.68975  -9.68975  -9.68941  -9.68941  -9.68901
 Alpha  occ. eigenvalues --   -9.68864  -9.68864  -9.68742  -9.68684  -9.68684
 Alpha  occ. eigenvalues --   -9.68676  -9.68649  -5.70037  -5.70034  -2.31944
 Alpha  occ. eigenvalues --   -2.31944  -2.31835  -2.31835  -2.30606  -2.29490
 Alpha  occ. eigenvalues --   -1.35995  -1.34760  -1.31806  -1.31806  -1.31131
 Alpha  occ. eigenvalues --   -1.31131  -0.85212  -0.78279  -0.64461  -0.64461
 Alpha  occ. eigenvalues --   -0.62953  -0.62953  -0.62786  -0.58848  -0.58226
 Alpha  occ. eigenvalues --   -0.58225  -0.57920  -0.57920  -0.55379  -0.55379
 Alpha  occ. eigenvalues --   -0.54227  -0.54227  -0.53605  -0.52781  -0.43653
 Alpha virt. eigenvalues --    0.02462   0.03507   0.03593   0.03593   0.05593
 Alpha virt. eigenvalues --    0.06515   0.06515   0.06721   0.08374   0.08374
 Alpha virt. eigenvalues --    0.08463   0.09938   0.10492   0.10492   0.13127

 Mulliken charges:
               1
     1  Si   2.208770
     2  Si   2.208771
     3  Cl  -0.736255
     4  Cl  -0.736255
     5  Cl  -0.736261
     6  Cl  -0.736261
     7  Cl  -0.736254
     8  Cl  -0.736254
 Sum of Mulliken charges =  -0.00000

 Dipole moment (field-independent basis, Debye):
    X=             -0.0000    Y=              0.0000    Z=             -0.0000  Tot=              0.0000

 Test job not archived.
 1\1\GINC-SE331\SP\RHF\Aug-CC-pVDZ\Cl6Si2\OHZDE\09-Apr-2025\0\\#t hf au
 g-cc-pvdz iop(5/13=1,5/36=2,99/5=2) pseudo=read geom=check guess=(read
 ,tcheck) scf=(maxcycle=1)\\title\\0,1\Si,0,1.175698,-0.000004,0.000005
 \Si,0,-1.175698,0.000004,-0.000006\Cl,0,-1.863279,1.932365,-0.120312\C
 l,0,1.86328,-1.932365,0.120312\Cl,0,-1.863332,-0.861997,1.733595\Cl,0,
 1.863332,0.861996,-1.733595\Cl,0,-1.863269,-1.070352,-1.613337\Cl,0,1.
 863269,1.070353,1.613337\\Version=ES64L-G16RevC.01\State=1-A\HF=-3336.
 9645395\RMSD=2.685e-02\Dipole=-0.0000011,0.0000005,-0.0000046\Quadrupo

 Normal termination of Gaussian 16 at Wed Apr  9 00:09:48 2025.
