 Gaussian 16, Revision C.01,

 ----------------------------------------------------------------------
 #t hf aug-cc-pvdz symm=none int=(grid=ultrafine) guess=(read,tcheck) s
 table=(opt,rrhf)
 ----------------------------------------------------------------------
 -----
 title
 -----
 Symbolic Z-matrix:
 Charge =  0 Multiplicity = 1

 SCF Done:  E(RHF) =  -449.222392105     A.U. after   13 cycles
 Normal termination of Gaussian 16 at Wed Apr  9 00:54:19 2025.
 Gaussian 16:  ES64L-G16RevC.01  3-Jul-2019

 ----------------------------------------------------------------------
 #t hf aug-cc-pvdz iop(5/13=1,5/36=2,99/5=2) pseudo=read geom=check gue
 ss=(read,tcheck) scf=(maxcycle=1)
 ----------------------------------------------------------------------
 -----
 title
 -----
 Structure from the checkpoint file:  "BDE49_nonexpt_98_mol1.chk"
 Charge =  0 Multiplicity = 1

                         Standard orientation:
 ---------------------------------------------------------------------
 Center     Atomic      Atomic             Coordinates (Angstroms)
 Number     Number       Type             X           Y           Z
 ---------------------------------------------------------------------
      1          5           0        1.998164   -0.218551    0.000038
      2          5           0        0.557766    0.591098   -0.000175
      3         16           0       -1.039842   -0.219657   -0.000024
      4          1           0       -1.841705    0.861186    0.000338
      5          1           0        2.564294   -0.497803    1.015050
      6          1           0        2.564875   -0.497255   -1.014800
      7          1           0        0.570351    1.785657    0.000482
 ---------------------------------------------------------------------

 SCF Done:  E(RHF) =  -449.691472869     A.U. after    2 cycles

 The electronic state is 1-A.
 Alpha  occ. eigenvalues --  -75.69599 -13.15948 -13.09434 -13.03447  -8.03530
 Alpha  occ. eigenvalues --   -7.61441  -7.60128  -1.16415  -0.90035  -0.69176
 Alpha  occ. eigenvalues --   -0.54492  -0.48581  -0.38929  -0.35563  -0.29858
 Alpha virt. eigenvalues --    0.01152   0.01636   0.03015   0.03919   0.07617
 Alpha virt. eigenvalues --    0.08149   0.08924   0.10485   0.10535   0.10896
 Alpha virt. eigenvalues --    0.11975   0.13356   0.13562   0.13632   0.15123

 Mulliken charges:
               1
     1  B    5.606764
     2  B    2.205427
     3  S   -2.372572
     4  H    0.875823
     5  H   -2.437482
     6  H   -2.437582
     7  H   -1.440378
 Sum of Mulliken charges =   0.00000

 Dipole moment (field-independent basis, Debye):
    X=             -1.0184    Y=             -1.2812    Z=              0.0002  Tot=              1.6366

 Test job not archived.
 1\1\GINC-SE454\SP\RHF\Aug-CC-pVDZ\B2H4S1\OHZDE\09-Apr-2025\0\\#t hf au
 g-cc-pvdz iop(5/13=1,5/36=2,99/5=2) pseudo=read geom=check guess=(read
 ,tcheck) scf=(maxcycle=1)\\title\\0,1\B,0,-1.998164,-0.218551,-0.00003
 8\B,0,-0.557766,0.591098,0.000175\S,0,1.039842,-0.219657,0.000024\H,0,
 1.841705,0.861186,-0.000338\H,0,-2.564294,-0.497803,-1.01505\H,0,-2.56
 4875,-0.497255,1.0148\H,0,-0.570351,1.785657,-0.000482\\Version=ES64L-
 G16RevC.01\State=1-A\HF=-449.6914729\RMSD=1.465e-01\Dipole=0.4006578,-
 0.5040609,-0.0000734\Quadrupole=0.1432876,1.0146886,-1.1579762,-0.9888

 Normal termination of Gaussian 16 at Wed Apr  9 00:54:21 2025.
