 Gaussian 16, Revision C.01,

 ----------------------------------------------------------------------
 #t hf aug-cc-pvdz symm=none int=(grid=ultrafine) guess=(read,tcheck) s
 table=(opt,rrhf)
 ----------------------------------------------------------------------
 -----
 title
 -----
 Symbolic Z-matrix:
 Charge =  0 Multiplicity = 1

 SCF Done:  E(RHF) =  -1174.17873999     A.U. after   16 cycles
 Normal termination of Gaussian 16 at Tue Apr  8 23:26:32 2025.
 Gaussian 16:  ES64L-G16RevC.01  3-Jul-2019

 ----------------------------------------------------------------------
 #t hf aug-cc-pvdz iop(5/13=1,5/36=2,99/5=2) pseudo=read geom=check gue
 ss=(read,tcheck) scf=(maxcycle=1)
 ----------------------------------------------------------------------
 -----
 title
 -----
 Structure from the checkpoint file:  "BDE49_nonexpt_1246_mol1.chk"
 Charge =  0 Multiplicity = 1

                         Standard orientation:
 ---------------------------------------------------------------------
 Center     Atomic      Atomic             Coordinates (Angstroms)
 Number     Number       Type             X           Y           Z
 ---------------------------------------------------------------------
      1          6           0        0.857413   -1.266405    0.312891
      2          6           0       -1.093372   -0.435347    0.034711
      3          6           0       -2.796325    0.548411    1.442082
      4          6           0       -3.084658    0.533403   -1.028637
      5          1           0       -3.087172    1.626949   -1.115072
      6          1           0       -2.647796    0.109428   -1.928293
      7          1           0       -2.651626    1.628237    1.572230
      8          1           0       -2.244787    0.025815    2.220402
      9          7           0       -0.262137   -0.703692    0.989770
     10          7           0        0.525341   -1.339738   -1.123758
     11          7           0       -0.602032   -0.829937   -1.281648
     12         15           0        2.436757   -0.255991    0.609879
     13          7           0       -2.322738    0.106996    0.138518
     14         17           0        1.948594    1.537078   -0.370564
     15          1           0       -4.119748    0.191976   -0.935350
     16          1           0       -3.862522    0.325580    1.535576
     17          1           0        3.134071   -0.840472   -0.479022
     18          1           0        1.134743   -2.273742    0.654472
 ---------------------------------------------------------------------

 SCF Done:  E(RHF) =  -1176.34653870     A.U. after    2 cycles

 The electronic state is 1-A.
 Alpha  occ. eigenvalues -- -105.23752 -99.88740 -15.81346 -15.79993 -15.76136
 Alpha  occ. eigenvalues --  -15.71888 -11.49982 -11.43814 -11.41008 -11.40205
 Alpha  occ. eigenvalues --  -10.46033  -9.65904  -9.65354  -9.65137  -2.80995
 Alpha  occ. eigenvalues --   -1.65288  -1.52359  -1.50128  -1.49038  -1.46171
 Alpha  occ. eigenvalues --   -1.32028  -1.22321  -1.12889  -1.06568  -0.95873
 Alpha  occ. eigenvalues --   -0.86579  -0.77381  -0.74816  -0.71312  -0.66756
 Alpha  occ. eigenvalues --   -0.63802  -0.60184  -0.57523  -0.56522  -0.54016
 Alpha  occ. eigenvalues --   -0.52999  -0.52664  -0.52348  -0.51932  -0.44281
 Alpha  occ. eigenvalues --   -0.40189  -0.39773  -0.38114  -0.33665  -0.23412
 Alpha  occ. eigenvalues --   -0.06075
 Alpha virt. eigenvalues --    0.03599   0.05174   0.05474   0.05656   0.06620
 Alpha virt. eigenvalues --    0.06724   0.06970   0.07973   0.08112   0.09983
 Alpha virt. eigenvalues --    0.10151   0.10877   0.11715   0.11926   0.12727

 Mulliken charges:
               1
     1  C   -0.342955
     2  C    5.023145
     3  C   -3.838947
     4  C   -3.736006
     5  H    1.497926
     6  H    1.500388
     7  H    1.429205
     8  H    1.479156
     9  N   -3.130429
    10  N   -1.618234
    11  N   -0.816977
    12  P    3.308000
    13  N   -3.180957
    14  Cl  -1.314824
    15  H    1.454269
    16  H    1.433199
    17  H   -0.692536
    18  H    1.546581
 Sum of Mulliken charges =   0.00000

 Dipole moment (field-independent basis, Debye):
    X=              0.8735    Y=             -0.6000    Z=              5.6734  Tot=              5.7715

 Test job not archived.
 1\1\GINC-SE435\SP\RHF\Aug-CC-pVDZ\C4H8Cl1N4P1\OHZDE\08-Apr-2025\0\\#t
 hf aug-cc-pvdz iop(5/13=1,5/36=2,99/5=2) pseudo=read geom=check guess=
 (read,tcheck) scf=(maxcycle=1)\\title\\0,1\C,0,0.857413,-1.266405,0.31
 2891\C,0,-1.093372,-0.435347,0.034711\C,0,-2.796325,0.548411,1.442082\
 C,0,-3.084658,0.533403,-1.028637\H,0,-3.087172,1.626949,-1.115072\H,0,
 -2.647796,0.109428,-1.928293\H,0,-2.651626,1.628237,1.57223\H,0,-2.244
 787,0.025815,2.220402\N,0,-0.262137,-0.703692,0.98977\N,0,0.525341,-1.
 339738,-1.123758\N,0,-0.602032,-0.829937,-1.281648\P,0,2.436757,-0.255

 Normal termination of Gaussian 16 at Tue Apr  8 23:26:42 2025.
