 Gaussian 16, Revision C.01,

 ----------------------------------------------------------------------
 #t hf aug-cc-pvdz symm=none int=(grid=ultrafine) guess=(read,tcheck) s
 table=(opt,rrhf)
 ----------------------------------------------------------------------
 -----
 title
 -----
 Symbolic Z-matrix:
 Charge =  0 Multiplicity = 1

 SCF Done:  E(RHF) =  -515.803694762     A.U. after   12 cycles
 Normal termination of Gaussian 16 at Tue Apr  8 22:46:32 2025.
 Gaussian 16:  ES64L-G16RevC.01  3-Jul-2019

 ----------------------------------------------------------------------
 #t hf aug-cc-pvdz iop(5/13=1,5/36=2,99/5=2) pseudo=read geom=check gue
 ss=(read,tcheck) scf=(maxcycle=1)
 ----------------------------------------------------------------------
 -----
 title
 -----
 Structure from the checkpoint file:  "BDE49_expt_1562_mol1.chk"
 Charge =  0 Multiplicity = 1

                         Standard orientation:
 ---------------------------------------------------------------------
 Center     Atomic      Atomic             Coordinates (Angstroms)
 Number     Number       Type             X           Y           Z
 ---------------------------------------------------------------------
      1         16           0       -0.706743   -0.682544   -0.220488
      2          6           0       -1.495405    0.920961    0.135599
      3          1           0       -1.495962    1.125739    1.208159
      4          1           0       -2.527981    0.839848   -0.206411
      5          1           0       -1.014502    1.739459   -0.401273
      6          6           0        0.957752   -0.422443    0.499095
      7          6           0        1.848379    0.557317   -0.261676
      8          1           0        1.402876   -1.420600    0.503565
      9          1           0        0.836759   -0.121263    1.543591
     10          1           0        1.983387    0.238362   -1.297335
     11          1           0        2.834182    0.619745    0.210923
     12          1           0        1.424775    1.564409   -0.271522
 ---------------------------------------------------------------------

 SCF Done:  E(RHF) =  -516.662169780     A.U. after    2 cycles

 The electronic state is 1-A.
 Alpha  occ. eigenvalues --  -75.66636 -13.09555 -13.06895 -13.00743 -11.41508
 Alpha  occ. eigenvalues --  -11.38890 -11.36571  -8.00662  -1.24120  -1.09602
 Alpha  occ. eigenvalues --   -0.95309  -0.83939  -0.63050  -0.59885  -0.58226
 Alpha  occ. eigenvalues --   -0.56266  -0.51839  -0.50084  -0.42207  -0.35169
 Alpha  occ. eigenvalues --   -0.21623
 Alpha virt. eigenvalues --    0.03273   0.04098   0.05244   0.05822   0.06512
 Alpha virt. eigenvalues --    0.07123   0.07693   0.08135   0.09939   0.12798
 Alpha virt. eigenvalues --    0.13275   0.13401   0.14958   0.15714   0.16093

 Mulliken charges:
               1
     1  S    1.094728
     2  C   -4.741966
     3  H    1.374990
     4  H    1.359709
     5  H    1.539954
     6  C   -4.010769
     7  C   -3.455615
     8  H    1.504400
     9  H    1.498864
    10  H    1.338557
    11  H    1.171941
    12  H    1.325208
 Sum of Mulliken charges =   0.00000

 Dipole moment (field-independent basis, Debye):
    X=             -0.0626    Y=             -0.2235    Z=              0.0546  Tot=              0.2384

 Test job not archived.
 1\1\GINC-SE080\SP\RHF\Aug-CC-pVDZ\C3H8S1\OHZDE\08-Apr-2025\0\\#t hf au
 g-cc-pvdz iop(5/13=1,5/36=2,99/5=2) pseudo=read geom=check guess=(read
 ,tcheck) scf=(maxcycle=1)\\title\\0,1\S,0,-0.706743,-0.682544,-0.22048
 8\C,0,-1.495405,0.920961,0.135599\H,0,-1.495962,1.125739,1.208159\H,0,
 -2.527981,0.839848,-0.206411\H,0,-1.014502,1.739459,-0.401273\C,0,0.95
 7752,-0.422443,0.499095\C,0,1.848379,0.557317,-0.261676\H,0,1.402876,-
 1.4206,0.503565\H,0,0.836759,-0.121263,1.543591\H,0,1.983387,0.238362,
 -1.297335\H,0,2.834182,0.619745,0.210923\H,0,1.424775,1.564409,-0.2715

 Normal termination of Gaussian 16 at Tue Apr  8 22:46:35 2025.
