 Gaussian 16, Revision C.01,

 ----------------------------------------------------------------------
 #t hf aug-cc-pvdz symm=none int=(grid=ultrafine) guess=(read,tcheck) s
 table=(opt,rrhf)
 ----------------------------------------------------------------------
 -----
 title
 -----
 Symbolic Z-matrix:
 Charge =  0 Multiplicity = 1

 SCF Done:  E(RHF) =  -1752.59203245     A.U. after   12 cycles

 1\1\GINC-SE102\Stability\RHF\Aug-CC-pVDZ\C2Cl3F3\OHZDE\08-Apr-2025\0\\
 #t hf aug-cc-pvdz symm=none int=(grid=ultrafine) guess=(read,tcheck) s
 table=(opt,rrhf)\\title\\0,1\C,0,1.178002,-0.000015,0.00005\C,0,-0.386
 851,0.000007,0.000001\F,0,1.642457,0.893267,-0.877192\F,0,1.642406,-1.
 206384,-0.334942\F,0,1.642386,0.313035,1.21231\Cl,0,-0.962578,1.627554
 ,0.451214\Cl,0,-0.962687,-1.204552,1.183812\Cl,0,-0.962508,-0.422956,-
 1.635137\\Version=ES64L-G16RevC.01\HF=-1752.5920324\RMSD=6.296e-09\Dip
 ole=-0.2884976,0.0000063,0.0000099\Quadrupole=-0.8188557,0.4094954,0.4

 Normal termination of Gaussian 16 at Tue Apr  8 22:29:47 2025.
 Gaussian 16:  ES64L-G16RevC.01  3-Jul-2019

 ----------------------------------------------------------------------
 #t hf aug-cc-pvdz iop(5/13=1,5/36=2,99/5=2) pseudo=read geom=check gue
 ss=(read,tcheck) scf=(maxcycle=1)
 ----------------------------------------------------------------------
 -----
 title
 -----
 Structure from the checkpoint file:  "BDE49_expt_1000_mol1.chk"
 Charge =  0 Multiplicity = 1

                         Standard orientation:
 ---------------------------------------------------------------------
 Center     Atomic      Atomic             Coordinates (Angstroms)
 Number     Number       Type             X           Y           Z
 ---------------------------------------------------------------------
      1          6           0       -1.178002   -0.000013   -0.000050
      2          6           0        0.386851    0.000007   -0.000001
      3          9           0       -1.642457    0.865876    0.904241
      4          9           0       -1.642406   -1.216111    0.297695
      5          9           0       -1.642386    0.350159   -1.202112
      6         17           0        0.962578    1.640657   -0.400963
      7         17           0        0.962687   -1.167587   -1.220286
      8         17           0        0.962508   -0.473027    1.621360
 ---------------------------------------------------------------------

 SCF Done:  E(RHF) =  -1754.67570590     A.U. after    2 cycles

 The electronic state is 1-A.
 Alpha  occ. eigenvalues --  -99.93733 -99.93733 -99.93723 -29.33724 -29.33724
 Alpha  occ. eigenvalues --  -29.33651 -11.63722 -11.57613 -10.51283 -10.51002
 Alpha  occ. eigenvalues --  -10.51002  -9.71065  -9.71065  -9.70827  -9.70196
 Alpha  occ. eigenvalues --   -9.70196  -9.70145  -9.70109  -9.69996  -9.69996
 Alpha  occ. eigenvalues --   -1.53308  -1.39229  -1.33221  -1.33221  -1.02951
 Alpha  occ. eigenvalues --   -0.93119  -0.93118  -0.81197  -0.71217  -0.71217
 Alpha  occ. eigenvalues --   -0.58481  -0.58481  -0.56552  -0.53280  -0.53279
 Alpha  occ. eigenvalues --   -0.52158  -0.49561  -0.45731  -0.45731  -0.39053
 Alpha  occ. eigenvalues --   -0.39052  -0.35628  -0.28040  -0.28039  -0.23857
 Alpha virt. eigenvalues --    0.00067   0.05593   0.05593   0.06346   0.09943
 Alpha virt. eigenvalues --    0.09943   0.10546   0.12957   0.13388   0.13388
 Alpha virt. eigenvalues --    0.14996   0.14996   0.15516   0.17463   0.17463

 Mulliken charges:
               1
     1  C    0.977268
     2  C   -3.147170
     3  F    0.474890
     4  F    0.474908
     5  F    0.474885
     6  Cl   0.248407
     7  Cl   0.248408
     8  Cl   0.248405
 Sum of Mulliken charges =  -0.00000

 Dipole moment (field-independent basis, Debye):
    X=             -4.0060    Y=             -0.0001    Z=             -0.0001  Tot=              4.0060

 Test job not archived.
 1\1\GINC-SE102\SP\RHF\Aug-CC-pVDZ\C2Cl3F3\OHZDE\08-Apr-2025\0\\#t hf a
 ug-cc-pvdz iop(5/13=1,5/36=2,99/5=2) pseudo=read geom=check guess=(rea
 d,tcheck) scf=(maxcycle=1)\\title\\0,1\C,0,1.178002,-0.000015,0.00005\
 C,0,-0.386851,0.000007,0.000001\F,0,1.642457,0.893267,-0.877192\F,0,1.
 642406,-1.206384,-0.334942\F,0,1.642386,0.313035,1.21231\Cl,0,-0.96257
 8,1.627554,0.451214\Cl,0,-0.962687,-1.204552,1.183812\Cl,0,-0.962508,-
 0.422956,-1.635137\\Version=ES64L-G16RevC.01\State=1-A\HF=-1754.675705
 9\RMSD=1.434e-01\Dipole=1.5760879,-0.0000403,0.0000492\Quadrupole=0.85

 Normal termination of Gaussian 16 at Tue Apr  8 22:29:51 2025.
