 Gaussian 16, Revision C.01,

 ----------------------------------------------------------------------
 #t hf aug-cc-pvdz symm=none int=(grid=ultrafine) guess=(read,tcheck) s
 table=(opt,rrhf)
 ----------------------------------------------------------------------
 -----
 title
 -----
 Symbolic Z-matrix:
 Charge =  0 Multiplicity = 1

 SCF Done:  E(RHF) =  -432.402463231     A.U. after   13 cycles
 Normal termination of Gaussian 16 at Wed Apr  9 00:47:11 2025.
 Gaussian 16:  ES64L-G16RevC.01  3-Jul-2019

 ----------------------------------------------------------------------
 #t hf aug-cc-pvdz iop(5/13=1,5/36=2,99/5=2) pseudo=read geom=check gue
 ss=(read,tcheck) scf=(maxcycle=1)
 ----------------------------------------------------------------------
 -----
 title
 -----
 Structure from the checkpoint file:  "BDE49_nonexpt_809_mol1.chk"
 Charge =  0 Multiplicity = 1

                         Standard orientation:
 ---------------------------------------------------------------------
 Center     Atomic      Atomic             Coordinates (Angstroms)
 Number     Number       Type             X           Y           Z
 ---------------------------------------------------------------------
      1          5           0       -2.538942    0.707761   -0.068650
      2          6           0        0.665698    0.129392   -0.525092
      3          6           0        1.988755   -0.478309   -0.090482
      4          6           0        1.604515    0.884529    0.405037
      5          1           0        1.325149    0.986343    1.448202
      6          1           0        2.128702    1.743661    0.002917
      7          1           0        2.776535   -0.550385   -0.831423
      8          1           0        1.968972   -1.301768    0.614871
      9         14           0       -0.964368   -0.538561    0.097655
     10          1           0        0.650671    0.500402   -1.546977
     11          1           0       -0.764120   -0.985698    1.503631
     12          1           0       -1.361820   -1.748050   -0.686099
     13          1           0       -3.522597    0.533093    0.583507
     14          1           0       -2.559440    1.609775   -0.849328
 ---------------------------------------------------------------------

 SCF Done:  E(RHF) =  -433.282306633     A.U. after    2 cycles

 The electronic state is 1-A.
 Alpha  occ. eigenvalues --  -76.19194 -11.41221 -11.39749 -11.35185  -7.61726
 Alpha  occ. eigenvalues --   -5.52993  -2.17345  -2.15385  -2.15032  -1.28882
 Alpha  occ. eigenvalues --   -0.88900  -0.85768  -0.82894  -0.71116  -0.65783
 Alpha  occ. eigenvalues --   -0.59565  -0.50717  -0.48842  -0.47053  -0.43388
 Alpha  occ. eigenvalues --   -0.41655  -0.37762  -0.34287
 Alpha virt. eigenvalues --    0.02870   0.03710   0.03954   0.04146   0.06016
 Alpha virt. eigenvalues --    0.06208   0.06706   0.06798   0.08298   0.08766
 Alpha virt. eigenvalues --    0.09116   0.09611   0.10385   0.11109   0.12313

 Mulliken charges:
               1
     1  B    2.900214
     2  C   -1.753621
     3  C   -2.593037
     4  C   -2.498849
     5  H    1.232030
     6  H    1.244399
     7  H    1.222329
     8  H    1.177905
     9  Si   5.828181
    10  H    1.332184
    11  H   -1.862935
    12  H   -1.946383
    13  H   -2.191689
    14  H   -2.090728
 Sum of Mulliken charges =  -0.00000

 Dipole moment (field-independent basis, Debye):
    X=              0.7065    Y=              0.8464    Z=             -0.3674  Tot=              1.1621

 Test job not archived.
 1\1\GINC-SE054\SP\RHF\Aug-CC-pVDZ\C3H9B1Si1\OHZDE\09-Apr-2025\0\\#t hf
  aug-cc-pvdz iop(5/13=1,5/36=2,99/5=2) pseudo=read geom=check guess=(r
 ead,tcheck) scf=(maxcycle=1)\\title\\0,1\B,0,-2.538942,0.707761,-0.068
 65\C,0,0.665698,0.129392,-0.525092\C,0,1.988755,-0.478309,-0.090482\C,
 0,1.604515,0.884529,0.405037\H,0,1.325149,0.986343,1.448202\H,0,2.1287
 02,1.743661,0.002917\H,0,2.776535,-0.550385,-0.831423\H,0,1.968972,-1.
 301768,0.614871\Si,0,-0.964368,-0.538561,0.097655\H,0,0.650671,0.50040
 2,-1.546977\H,0,-0.76412,-0.985698,1.503631\H,0,-1.36182,-1.74805,-0.6

 Normal termination of Gaussian 16 at Wed Apr  9 00:47:15 2025.
