 Gaussian 16, Revision C.01,

 ----------------------------------------------------------------------
 #t hf aug-cc-pvdz symm=none int=(grid=ultrafine) guess=(read,tcheck) s
 table=(opt,rrhf)
 ----------------------------------------------------------------------
 -----
 title
 -----
 Symbolic Z-matrix:
 Charge =  0 Multiplicity = 1

 SCF Done:  E(RHF) =  -845.087840452     A.U. after   12 cycles
 Normal termination of Gaussian 16 at Wed Apr  9 00:08:51 2025.
 Gaussian 16:  ES64L-G16RevC.01  3-Jul-2019

 ----------------------------------------------------------------------
 #t hf aug-cc-pvdz iop(5/13=1,5/36=2,99/5=2) pseudo=read geom=check gue
 ss=(read,tcheck) scf=(maxcycle=1)
 ----------------------------------------------------------------------
 -----
 title
 -----
 Structure from the checkpoint file:  "BDE49_nonexpt_2276_mol1.chk"
 Charge =  0 Multiplicity = 1

                         Standard orientation:
 ---------------------------------------------------------------------
 Center     Atomic      Atomic             Coordinates (Angstroms)
 Number     Number       Type             X           Y           Z
 ---------------------------------------------------------------------
      1         14           0       -1.448229   -0.712584    0.220828
      2          6           0       -0.024332    0.153600   -0.684082
      3         14           0        1.723600   -0.476264   -0.393135
      4          8           0        2.105669    0.308817    1.022621
      5          1           0        3.012434    0.341517    1.333053
      6          8           0       -0.104821    1.562996   -0.288656
      7          1           0       -0.237645    0.126819   -1.758803
      8          1           0        0.473454    1.670690    0.478705
      9          8           0       -2.752466    0.295715    0.125040
     10          1           0       -2.508014    1.227196    0.084190
     11          1           0        2.669901   -0.081004   -1.464694
     12          1           0        1.763346   -1.951205   -0.242206
     13          1           0       -1.053831   -0.955543    1.630743
     14          1           0       -1.815904   -1.996421   -0.416241
 ---------------------------------------------------------------------

 SCF Done:  E(RHF) =  -846.541221338     A.U. after    2 cycles

 The electronic state is 1-A.
 Alpha  occ. eigenvalues --  -76.24357 -76.22567 -21.09078 -21.07645 -21.06198
 Alpha  occ. eigenvalues --  -11.37564  -5.58219  -5.56419  -2.24644  -2.23162
 Alpha  occ. eigenvalues --   -2.21862  -2.19902  -2.19799  -2.18086  -1.70788
 Alpha  occ. eigenvalues --   -1.67168  -1.64479  -0.98379  -0.76586  -0.73588
 Alpha  occ. eigenvalues --   -0.62045  -0.59379  -0.57539  -0.55109  -0.51712
 Alpha  occ. eigenvalues --   -0.49140  -0.47690  -0.42330  -0.40227  -0.38848
 Alpha  occ. eigenvalues --   -0.38446  -0.37185  -0.29423
 Alpha virt. eigenvalues --    0.03298   0.04721   0.05284   0.05842   0.06483
 Alpha virt. eigenvalues --    0.06842   0.07320   0.07699   0.07985   0.08926
 Alpha virt. eigenvalues --    0.09702   0.10401   0.11051   0.11337   0.13315

 Mulliken charges:
               1
     1  Si   6.030483
     2  C   -2.021690
     3  Si   6.119486
     4  O   -2.611183
     5  H    1.114627
     6  O   -2.429716
     7  H    1.532468
     8  H    0.973914
     9  O   -2.716383
    10  H    1.213961
    11  H   -1.880501
    12  H   -1.726484
    13  H   -1.779928
    14  H   -1.819053
 Sum of Mulliken charges =  -0.00000

 Dipole moment (field-independent basis, Debye):
    X=              1.3812    Y=              1.0750    Z=              0.2603  Tot=              1.7695

 Test job not archived.
 1\1\GINC-SE284\SP\RHF\Aug-CC-pVDZ\C1H8O3Si2\OHZDE\09-Apr-2025\0\\#t hf
  aug-cc-pvdz iop(5/13=1,5/36=2,99/5=2) pseudo=read geom=check guess=(r
 ead,tcheck) scf=(maxcycle=1)\\title\\0,1\Si,0,-1.448229,-0.712584,0.22
 0828\C,0,-0.024332,0.1536,-0.684082\Si,0,1.7236,-0.476264,-0.393135\O,
 0,2.105669,0.308817,1.022621\H,0,3.012434,0.341517,1.333053\O,0,-0.104
 821,1.562996,-0.288656\H,0,-0.237645,0.126819,-1.758803\H,0,0.473454,1
 .67069,0.478705\O,0,-2.752466,0.295715,0.12504\H,0,-2.508014,1.227196,
 0.08419\H,0,2.669901,-0.081004,-1.464694\H,0,1.763346,-1.951205,-0.242

 Normal termination of Gaussian 16 at Wed Apr  9 00:08:55 2025.
