 Gaussian 16, Revision C.01,

 ----------------------------------------------------------------------
 #t hf aug-cc-pvdz symm=none int=(grid=ultrafine) guess=(read,tcheck) s
 table=(opt,rrhf)
 ----------------------------------------------------------------------
 -----
 title
 -----
 Symbolic Z-matrix:
 Charge =  0 Multiplicity = 1

 SCF Done:  E(RHF) =  -857.268240269     A.U. after   13 cycles
 Normal termination of Gaussian 16 at Tue Apr  8 23:43:15 2025.
 Gaussian 16:  ES64L-G16RevC.01  3-Jul-2019

 ----------------------------------------------------------------------
 #t hf aug-cc-pvdz iop(5/13=1,5/36=2,99/5=2) pseudo=read geom=check gue
 ss=(read,tcheck) scf=(maxcycle=1)
 ----------------------------------------------------------------------
 -----
 title
 -----
 Structure from the checkpoint file:  "BDE49_nonexpt_1680_mol1.chk"
 Charge =  0 Multiplicity = 1

                         Standard orientation:
 ---------------------------------------------------------------------
 Center     Atomic      Atomic             Coordinates (Angstroms)
 Number     Number       Type             X           Y           Z
 ---------------------------------------------------------------------
      1         14           0        1.815056   -0.040707    0.002008
      2         15           0       -0.452455   -0.023005    0.123522
      3          8           0       -1.059354   -0.482112    1.385648
      4          8           0       -0.969851   -0.877056   -1.158158
      5          1           0       -1.400449   -1.692077   -0.869958
      6          8           0       -0.765747    1.489716   -0.325121
      7          1           0       -1.688978    1.746699   -0.193874
      8          1           0        2.229473   -1.440894    0.229309
      9          1           0        2.341839    0.837157    1.065958
     10          1           0        2.253771    0.419696   -1.331322
 ---------------------------------------------------------------------

 SCF Done:  E(RHF) =  -858.564053331     A.U. after    2 cycles

 The electronic state is 1-A.
 Alpha  occ. eigenvalues -- -105.29731 -76.24553 -21.11764 -21.11279 -21.02182
 Alpha  occ. eigenvalues --   -5.58079  -2.91670  -2.20170  -2.20149  -2.19993
 Alpha  occ. eigenvalues --   -1.96129  -1.88441  -1.78910  -1.49725  -1.39848
 Alpha  occ. eigenvalues --   -1.25660  -0.79162  -0.68436  -0.60384  -0.53510
 Alpha  occ. eigenvalues --   -0.49814  -0.49474  -0.45360  -0.40429  -0.34215
 Alpha  occ. eigenvalues --   -0.34017  -0.29691  -0.22293  -0.13974
 Alpha virt. eigenvalues --    0.03536   0.05230   0.05795   0.06787   0.06831
 Alpha virt. eigenvalues --    0.07945   0.09357   0.09589   0.11803   0.12460
 Alpha virt. eigenvalues --    0.12982   0.15424   0.16585   0.16871   0.17502

 Mulliken charges:
               1
     1  Si   5.392932
     2  P    6.090660
     3  O   -2.829803
     4  O   -2.642248
     5  H    0.743574
     6  O   -2.756953
     7  H    0.847728
     8  H   -1.648237
     9  H   -1.607106
    10  H   -1.590548
 Sum of Mulliken charges =   0.00000

 Dipole moment (field-independent basis, Debye):
    X=             -1.2699    Y=              0.7915    Z=             -2.4018  Tot=              2.8298

 Test job not archived.
 1\1\GINC-SE232\SP\RHF\Aug-CC-pVDZ\H5O3P1Si1\OHZDE\08-Apr-2025\0\\#t hf
  aug-cc-pvdz iop(5/13=1,5/36=2,99/5=2) pseudo=read geom=check guess=(r
 ead,tcheck) scf=(maxcycle=1)\\title\\0,1\Si,0,1.815056,-0.040706,0.002
 008\P,0,-0.452455,-0.023005,0.123522\O,0,-1.059354,-0.482112,1.385648\
 O,0,-0.969851,-0.877056,-1.158158\H,0,-1.400449,-1.692077,-0.869958\O,
 0,-0.765747,1.489716,-0.325121\H,0,-1.688978,1.746699,-0.193874\H,0,2.
 229473,-1.440893,0.229309\H,0,2.341839,0.837158,1.065958\H,0,2.253771,
 0.419697,-1.331322\\Version=ES64L-G16RevC.01\State=1-A\HF=-858.5640533

 Normal termination of Gaussian 16 at Tue Apr  8 23:43:19 2025.
