 Gaussian 16, Revision C.01,

 ----------------------------------------------------------------------
 #t hf aug-cc-pvdz symm=none int=(grid=ultrafine) guess=(read,tcheck) s
 table=(opt,rrhf)
 ----------------------------------------------------------------------
 -----
 title
 -----
 Symbolic Z-matrix:
 Charge =  0 Multiplicity = 1

 SCF Done:  E(RHF) =  -1933.89423900     A.U. after   13 cycles
 Normal termination of Gaussian 16 at Tue Apr  8 23:50:09 2025.
 Gaussian 16:  ES64L-G16RevC.01  3-Jul-2019

 ----------------------------------------------------------------------
 #t hf aug-cc-pvdz iop(5/13=1,5/36=2,99/5=2) pseudo=read geom=check gue
 ss=(read,tcheck) scf=(maxcycle=1)
 ----------------------------------------------------------------------
 -----
 title
 -----
 Structure from the checkpoint file:  "BDE49_nonexpt_1813_mol1.chk"
 Charge =  0 Multiplicity = 1

                         Standard orientation:
 ---------------------------------------------------------------------
 Center     Atomic      Atomic             Coordinates (Angstroms)
 Number     Number       Type             X           Y           Z
 ---------------------------------------------------------------------
      1          6           0       -0.785408    0.851951   -0.000001
      2          8           0       -0.897487    2.049865   -0.000009
      3         14           0        0.903417   -0.061970    0.000001
      4          8           0       -1.798437   -0.025074    0.000001
      5         17           0        1.064105   -1.237451   -1.676478
      6         17           0        1.064116   -1.237420    1.676500
      7         17           0        2.391974    1.337609   -0.000017
      8          6           0       -3.149867    0.527988   -0.000003
      9          6           0       -4.116217   -0.636455    0.000001
     10          1           0       -3.258883    1.160297   -0.883551
     11          1           0       -3.258885    1.160304    0.883541
     12          1           0       -3.977047   -1.258704   -0.886245
     13          1           0       -5.142944   -0.261407   -0.000002
     14          1           0       -3.977049   -1.258697    0.886251
 ---------------------------------------------------------------------

 SCF Done:  E(RHF) =  -1935.93755610     A.U. after    2 cycles

 The electronic state is 1-A.
 Alpha  occ. eigenvalues --  -99.91573 -99.91572 -99.91097 -76.35803 -21.11065
 Alpha  occ. eigenvalues --  -21.08095 -11.51189 -11.45858 -11.38570 -10.49057
 Alpha  occ. eigenvalues --  -10.49002 -10.48581  -9.68921  -9.68878  -9.68459
 Alpha  occ. eigenvalues --   -9.68358  -9.68295  -9.68272  -9.68138  -9.67799
 Alpha  occ. eigenvalues --   -9.67747  -5.69565  -2.32084  -2.31604  -2.31323
 Alpha  occ. eigenvalues --   -1.85607  -1.68630  -1.34854  -1.30881  -1.30601
 Alpha  occ. eigenvalues --   -1.15424  -0.93944  -0.85585  -0.75848  -0.67680
 Alpha  occ. eigenvalues --   -0.67267  -0.63136  -0.62953  -0.60267  -0.58066
 Alpha  occ. eigenvalues --   -0.57766  -0.57120  -0.55799  -0.54391  -0.53997
 Alpha  occ. eigenvalues --   -0.53632  -0.52394  -0.50598  -0.50499  -0.42307
 Alpha  occ. eigenvalues --   -0.34157  -0.31297
 Alpha virt. eigenvalues --    0.03239   0.04735   0.05262   0.05469   0.05918
 Alpha virt. eigenvalues --    0.06276   0.06413   0.06674   0.07228   0.08675
 Alpha virt. eigenvalues --    0.09264   0.10079   0.11371   0.12539   0.12968

 Mulliken charges:
               1
     1  C    3.948485
     2  O   -2.515542
     3  Si   2.998872
     4  O   -3.179708
     5  Cl  -0.765681
     6  Cl  -0.765681
     7  Cl  -0.686831
     8  C   -2.490269
     9  C   -3.549693
    10  H    1.647046
    11  H    1.647045
    12  H    1.304933
    13  H    1.102089
    14  H    1.304934
 Sum of Mulliken charges =  -0.00000

 Dipole moment (field-independent basis, Debye):
    X=             -2.9285    Y=             -0.0276    Z=             -0.0000  Tot=              2.9287

 Test job not archived.
 1\1\GINC-SE094\SP\RHF\Aug-CC-pVDZ\C3H5Cl3O2Si1\OHZDE\08-Apr-2025\0\\#t
  hf aug-cc-pvdz iop(5/13=1,5/36=2,99/5=2) pseudo=read geom=check guess
 =(read,tcheck) scf=(maxcycle=1)\\title\\0,1\C,0,-0.785408,0.851951,-0.
 000001\O,0,-0.897487,2.049865,-0.000009\Si,0,0.903417,-0.06197,0.00000
 1\O,0,-1.798437,-0.025074,0.000001\Cl,0,1.064105,-1.237451,-1.676478\C
 l,0,1.064116,-1.23742,1.6765\Cl,0,2.391974,1.337608,-0.000017\C,0,-3.1
 49867,0.527988,-0.000003\C,0,-4.116217,-0.636454,0.000001\H,0,-3.25888
 3,1.160297,-0.883551\H,0,-3.258885,1.160304,0.883541\H,0,-3.977047,-1.

 Normal termination of Gaussian 16 at Tue Apr  8 23:50:16 2025.
