 Gaussian 16, Revision C.01,

 ----------------------------------------------------------------------
 #t hf aug-cc-pvdz symm=none int=(grid=ultrafine) guess=(read,tcheck) s
 table=(opt,rrhf)
 ----------------------------------------------------------------------
 -----
 title
 -----
 Symbolic Z-matrix:
 Charge =  0 Multiplicity = 1

 SCF Done:  E(RHF) =  -1223.44516443     A.U. after   15 cycles
 Normal termination of Gaussian 16 at Tue Apr  8 23:13:31 2025.
 Gaussian 16:  ES64L-G16RevC.01  3-Jul-2019

 ----------------------------------------------------------------------
 #t hf aug-cc-pvdz iop(5/13=1,5/36=2,99/5=2) pseudo=read geom=check gue
 ss=(read,tcheck) scf=(maxcycle=1)
 ----------------------------------------------------------------------
 -----
 title
 -----
 Structure from the checkpoint file:  "BDE49_expt_763_mol1.chk"
 Charge =  0 Multiplicity = 1

                         Standard orientation:
 ---------------------------------------------------------------------
 Center     Atomic      Atomic             Coordinates (Angstroms)
 Number     Number       Type             X           Y           Z
 ---------------------------------------------------------------------
      1          6           0        0.012692   -1.687812    0.000000
      2          6           0        1.200450   -0.960233    0.000000
      3          6           0        1.210457    0.426724    0.000000
      4          6           0       -1.192545   -0.994661    0.000000
      5          6           0       -1.195734    0.393767    0.000000
      6          6           0        0.000000    1.124039    0.000000
      7          8           0        0.043609    2.474845    0.000000
      8          1           0       -0.861076    2.816728    0.000000
      9          1           0        2.135896    0.986133    0.000000
     10          1           0        0.029443   -2.768756    0.000000
     11         17           0        2.729930   -1.818114    0.000000
     12         17           0       -2.714166    1.282023    0.000000
     13          1           0       -2.133044   -1.530257    0.000000
 ---------------------------------------------------------------------

 SCF Done:  E(RHF) =  -1225.32147383     A.U. after    2 cycles

 The electronic state is 1-A'.
 Alpha  occ. eigenvalues --  -99.91787 -99.90390 -21.12310 -11.55126 -11.49763
 Alpha  occ. eigenvalues --  -11.47878 -11.46299 -11.44284 -11.40366 -10.49131
 Alpha  occ. eigenvalues --  -10.47739  -9.69139  -9.68413  -9.68077  -9.67762
 Alpha  occ. eigenvalues --   -9.66872  -9.66694  -1.78562  -1.42162  -1.35766
 Alpha  occ. eigenvalues --   -1.25725  -1.11634  -1.07834  -0.90966  -0.87848
 Alpha  occ. eigenvalues --   -0.73699  -0.70912  -0.67667  -0.61946  -0.61780
 Alpha  occ. eigenvalues --   -0.61416  -0.57259  -0.57047  -0.52109  -0.51933
 Alpha  occ. eigenvalues --   -0.50225  -0.49056  -0.45080  -0.44891  -0.35653
 Alpha  occ. eigenvalues --   -0.29669
 Alpha virt. eigenvalues --    0.03057   0.04847   0.05647   0.06406   0.07353
 Alpha virt. eigenvalues --    0.08443   0.08671   0.09467   0.10264   0.11064
 Alpha virt. eigenvalues --    0.11721   0.11896   0.12384   0.14094   0.14099

 Mulliken charges:
               1
     1  C   -1.472949
     2  C   -0.400131
     3  C   -1.015806
     4  C    0.383872
     5  C   -5.760052
     6  C    7.686790
     7  O   -4.432164
     8  H    1.099565
     9  H    1.900872
    10  H    1.763568
    11  Cl  -0.795482
    12  Cl  -0.816579
    13  H    1.858496
 Sum of Mulliken charges =   0.00000

 Dipole moment (field-independent basis, Debye):
    X=             -0.6536    Y=              0.4780    Z=              0.0000  Tot=              0.8097

 Test job not archived.
 1\1\GINC-SE118\SP\RHF\Aug-CC-pVDZ\C6H4Cl2O1\OHZDE\08-Apr-2025\0\\#t hf
  aug-cc-pvdz iop(5/13=1,5/36=2,99/5=2) pseudo=read geom=check guess=(r
 ead,tcheck) scf=(maxcycle=1)\\title\\0,1\C,0,0.968461,-1.382372,0.\C,0
 ,1.533365,-0.109178,0.\C,0,0.754359,1.038384,0.\C,0,-0.417248,-1.4958,
 0.\C,0,-1.207953,-0.354517,0.\C,0,-0.638011,0.925422,0.\O,0,-1.368833,
 2.062294,0.\H,0,-2.307715,1.830262,0.\H,0,1.19875,2.02423,0.\H,0,1.595
 802,-2.262806,0.\Cl,0,3.279525,0.052669,0.\Cl,0,-2.962258,-0.485086,0.
 \H,0,-0.887554,-2.47059,0.\\Version=ES64L-G16RevC.01\State=1-A'\HF=-12

 Normal termination of Gaussian 16 at Tue Apr  8 23:13:37 2025.
