 Gaussian 16, Revision C.01,

 ----------------------------------------------------------------------
 #t hf aug-cc-pvdz symm=none int=(grid=ultrafine) guess=(read,tcheck) s
 table=(opt,rrhf)
 ----------------------------------------------------------------------
 -----
 title
 -----
 Symbolic Z-matrix:
 Charge =  0 Multiplicity = 1

 SCF Done:  E(RHF) =  -732.732409606     A.U. after   13 cycles

 1\1\GINC-SE094\Stability\RHF\Aug-CC-pVDZ\C4H6Si2\OHZDE\09-Apr-2025\0\\
 #t hf aug-cc-pvdz symm=none int=(grid=ultrafine) guess=(read,tcheck) s
 table=(opt,rrhf)\\title\\0,1\Si,0,0.811404,0.857731,-0.00004\Si,0,-0.8
 11405,-0.857733,-0.000039\C,0,-2.477614,-0.101391,-0.000002\H,0,-0.665
 384,-1.704416,1.205715\H,0,-0.665415,-1.70439,-1.205815\C,0,2.477613,0
 .101389,-0.000007\H,0,0.665385,1.704411,1.205717\H,0,0.665411,1.70439,
 -1.205813\C,0,3.557828,-0.440871,0.000085\C,0,-3.557828,0.440872,0.000
 093\H,0,-4.512752,0.910268,0.00014\H,0,4.512777,-0.91022,0.000151\\Ver

 Normal termination of Gaussian 16 at Wed Apr  9 00:09:04 2025.
 Gaussian 16:  ES64L-G16RevC.01  3-Jul-2019

 ----------------------------------------------------------------------
 #t hf aug-cc-pvdz iop(5/13=1,5/36=2,99/5=2) pseudo=read geom=check gue
 ss=(read,tcheck) scf=(maxcycle=1)
 ----------------------------------------------------------------------
 -----
 title
 -----
 Structure from the checkpoint file:  "BDE49_nonexpt_2304_mol1.chk"
 Charge =  0 Multiplicity = 1

                         Standard orientation:
 ---------------------------------------------------------------------
 Center     Atomic      Atomic             Coordinates (Angstroms)
 Number     Number       Type             X           Y           Z
 ---------------------------------------------------------------------
      1         14           0       -0.811404    0.857731    0.000040
      2         14           0        0.811405   -0.857733    0.000039
      3          6           0        2.477614   -0.101391    0.000002
      4          1           0        0.665384   -1.704416   -1.205715
      5          1           0        0.665415   -1.704390    1.205815
      6          6           0       -2.477613    0.101389    0.000007
      7          1           0       -0.665385    1.704411   -1.205717
      8          1           0       -0.665411    1.704390    1.205813
      9          6           0       -3.557828   -0.440871   -0.000085
     10          6           0        3.557828    0.440872   -0.000093
     11          1           0        4.512752    0.910268   -0.000140
     12          1           0       -4.512777   -0.910220   -0.000151
 ---------------------------------------------------------------------

 SCF Done:  E(RHF) =  -733.768240558     A.U. after    2 cycles

 The electronic state is 1-A.
 Alpha  occ. eigenvalues --  -76.23395 -76.23389 -11.42283 -11.42080 -11.38722
 Alpha  occ. eigenvalues --  -11.38584  -5.56963  -5.56949  -2.21324  -2.21133
 Alpha  occ. eigenvalues --   -2.19217  -2.19071  -2.18709  -2.17802  -1.10163
 Alpha  occ. eigenvalues --   -1.09860  -0.84782  -0.79585  -0.73025  -0.70313
 Alpha  occ. eigenvalues --   -0.53319  -0.51315  -0.50247  -0.47761  -0.42743
 Alpha  occ. eigenvalues --   -0.40041  -0.39114  -0.39004  -0.33289
 Alpha virt. eigenvalues --    0.03192   0.03907   0.05536   0.06121   0.06289
 Alpha virt. eigenvalues --    0.07307   0.07372   0.07773   0.08492   0.09128
 Alpha virt. eigenvalues --    0.09269   0.09889   0.10036   0.10786   0.10868

 Mulliken charges:
               1
     1  Si   4.157860
     2  Si   4.157838
     3  C    0.447748
     4  H   -1.626382
     5  H   -1.626410
     6  C    0.447748
     7  H   -1.626384
     8  H   -1.626411
     9  C   -2.221666
    10  C   -2.221649
    11  H    0.868850
    12  H    0.868857
 Sum of Mulliken charges =  -0.00000

 Dipole moment (field-independent basis, Debye):
    X=             -0.0000    Y=              0.0001    Z=             -0.0002  Tot=              0.0002

 Test job not archived.
 1\1\GINC-SE094\SP\RHF\Aug-CC-pVDZ\C4H6Si2\OHZDE\09-Apr-2025\0\\#t hf a
 ug-cc-pvdz iop(5/13=1,5/36=2,99/5=2) pseudo=read geom=check guess=(rea
 d,tcheck) scf=(maxcycle=1)\\title\\0,1\Si,0,0.811404,0.857731,-0.00004
 \Si,0,-0.811405,-0.857733,-0.000039\C,0,-2.477614,-0.101391,-0.000002\
 H,0,-0.665384,-1.704416,1.205715\H,0,-0.665415,-1.70439,-1.205815\C,0,
 2.477613,0.101389,-0.000007\H,0,0.665385,1.704411,1.205717\H,0,0.66541
 1,1.70439,-1.205813\C,0,3.557828,-0.440871,0.000085\C,0,-3.557828,0.44
 0872,0.000093\H,0,-4.512752,0.910268,0.00014\H,0,4.512777,-0.91022,0.0

 Normal termination of Gaussian 16 at Wed Apr  9 00:09:08 2025.
