 Gaussian 16, Revision C.01,

 ----------------------------------------------------------------------
 #t hf aug-cc-pvdz symm=none int=(grid=ultrafine) guess=(read,tcheck) s
 table=(opt,rrhf)
 ----------------------------------------------------------------------
 -----
 title
 -----
 Symbolic Z-matrix:
 Charge =  0 Multiplicity = 1

 SCF Done:  E(RHF) =  -1057.91278736     A.U. after   14 cycles
 Normal termination of Gaussian 16 at Tue Apr  8 23:47:06 2025.
 Gaussian 16:  ES64L-G16RevC.01  3-Jul-2019

 ----------------------------------------------------------------------
 #t hf aug-cc-pvdz iop(5/13=1,5/36=2,99/5=2) pseudo=read geom=check gue
 ss=(read,tcheck) scf=(maxcycle=1)
 ----------------------------------------------------------------------
 -----
 title
 -----
 Structure from the checkpoint file:  "BDE49_nonexpt_1737_mol1.chk"
 Charge =  0 Multiplicity = 1

                         Standard orientation:
 ---------------------------------------------------------------------
 Center     Atomic      Atomic             Coordinates (Angstroms)
 Number     Number       Type             X           Y           Z
 ---------------------------------------------------------------------
      1          6           0        2.607664    1.353635    0.000003
      2          6           0        1.222629    1.197477    0.000004
      3          6           0        3.438284    0.235965   -0.000003
      4          6           0        2.879225   -1.040681   -0.000007
      5          6           0        1.495380   -1.192636   -0.000006
      6          6           0        0.638834   -0.077547   -0.000000
      7          1           0        0.589696    2.077486    0.000008
      8          1           0        3.037312    2.349373    0.000006
      9          1           0        4.515821    0.357666   -0.000003
     10          1           0        3.519956   -1.915654   -0.000011
     11          1           0        1.084016   -2.198332   -0.000010
     12         14           0       -1.216110   -0.368385    0.000004
     13          6           0       -1.762515   -1.268849    1.546012
     14          1           0       -1.278278   -2.248628    1.610306
     15          1           0       -2.844691   -1.424027    1.546115
     16          1           0       -1.496528   -0.702048    2.441318
     17          6           0       -1.762517   -1.268887   -1.545980
     18         17           0       -2.177892    1.506208   -0.000017
     19          1           0       -1.278282   -2.248668   -1.610251
     20          1           0       -1.496531   -0.702108   -2.441301
     21          1           0       -2.844693   -1.424064   -1.546078
 ---------------------------------------------------------------------

 SCF Done:  E(RHF) =  -1059.84925493     A.U. after    2 cycles

 The electronic state is 1-A.
 Alpha  occ. eigenvalues --  -99.86803 -76.23779 -11.51675 -11.43363 -11.42876
 Alpha  occ. eigenvalues --  -11.40982 -11.40858 -11.36400 -11.35649 -11.35469
 Alpha  occ. eigenvalues --  -10.44174  -9.64153  -9.63655  -9.63605  -5.57785
 Alpha  occ. eigenvalues --   -2.22268  -2.21096  -2.21075  -1.34064  -1.27147
 Alpha  occ. eigenvalues --   -1.09856  -1.09286  -1.05814  -1.01982  -0.86445
 Alpha  occ. eigenvalues --   -0.85820  -0.73502  -0.69013  -0.63588  -0.59315
 Alpha  occ. eigenvalues --   -0.58619  -0.57697  -0.56777  -0.56611  -0.55787
 Alpha  occ. eigenvalues --   -0.53365  -0.51624  -0.51224  -0.50389  -0.48564
 Alpha  occ. eigenvalues --   -0.44756  -0.40698  -0.38338  -0.33598  -0.33223
 Alpha virt. eigenvalues --    0.02671   0.04585   0.05077   0.05458   0.05848
 Alpha virt. eigenvalues --    0.06412   0.06672   0.06765   0.07057   0.07972
 Alpha virt. eigenvalues --    0.08037   0.08677   0.09567   0.10401   0.10637

 Mulliken charges:
               1
     1  C   -1.199199
     2  C   -2.318731
     3  C   -2.005952
     4  C   -1.596086
     5  C   -1.376631
     6  C   -1.016546
     7  H    1.738907
     8  H    1.603527
     9  H    1.546420
    10  H    1.509253
    11  H    1.771560
    12  Si   6.340447
    13  C   -5.552183
    14  H    1.332824
    15  H    1.152643
    16  H    1.066439
    17  C   -5.552195
    18  Cl  -0.996406
    19  H    1.332834
    20  H    1.066432
    21  H    1.152645
 Sum of Mulliken charges =  -0.00000

 Dipole moment (field-independent basis, Debye):
    X=              1.6828    Y=             -1.9094    Z=              0.0000  Tot=              2.5451

 Test job not archived.
 1\1\GINC-SE329\SP\RHF\Aug-CC-pVDZ\C8H11Cl1Si1\OHZDE\08-Apr-2025\0\\#t
 hf aug-cc-pvdz iop(5/13=1,5/36=2,99/5=2) pseudo=read geom=check guess=
 (read,tcheck) scf=(maxcycle=1)\\title\\0,1\C,0,2.607664,1.353635,0.000
 003\C,0,1.222629,1.197477,0.000004\C,0,3.438284,0.235965,-0.000003\C,0
 ,2.879225,-1.040681,-0.000007\C,0,1.49538,-1.192636,-0.000006\C,0,0.63
 8834,-0.077547,0.\H,0,0.589696,2.077486,0.000008\H,0,3.037312,2.349373
 ,0.000006\H,0,4.515821,0.357666,-0.000003\H,0,3.519956,-1.915654,-0.00
 0011\H,0,1.084016,-2.198332,-0.00001\Si,0,-1.21611,-0.368385,0.000004\

 Normal termination of Gaussian 16 at Tue Apr  8 23:47:19 2025.
