 Gaussian 16, Revision C.01,

 ----------------------------------------------------------------------
 #t hf aug-cc-pvdz symm=none int=(grid=ultrafine) guess=(read,tcheck) s
 table=(opt,rrhf)
 ----------------------------------------------------------------------
 -----
 title
 -----
 Symbolic Z-matrix:
 Charge =  0 Multiplicity = 1

 SCF Done:  E(RHF) =  -804.276238630     A.U. after   14 cycles
 Normal termination of Gaussian 16 at Wed Apr  9 00:55:06 2025.
 Gaussian 16:  ES64L-G16RevC.01  3-Jul-2019

 ----------------------------------------------------------------------
 #t hf aug-cc-pvdz iop(5/13=1,5/36=2,99/5=2) pseudo=read geom=check gue
 ss=(read,tcheck) scf=(maxcycle=1)
 ----------------------------------------------------------------------
 -----
 title
 -----
 Structure from the checkpoint file:  "BDE49_nonexpt_953_mol1.chk"
 Charge =  0 Multiplicity = 1

                         Standard orientation:
 ---------------------------------------------------------------------
 Center     Atomic      Atomic             Coordinates (Angstroms)
 Number     Number       Type             X           Y           Z
 ---------------------------------------------------------------------
      1          9           0        2.867673    1.636216   -0.361743
      2          9           0        1.274297   -2.095703   -0.138337
      3          9           0        0.485168   -1.206992    1.710301
      4          7           0       -1.606548    0.046369    0.151130
      5          6           0       -3.067710   -0.054770    0.127220
      6          6           0       -1.045453    1.306799    0.093817
      7          8           0       -1.671018    2.341453    0.133738
      8          7           0        0.358470    1.338580    0.012599
      9          6           0        1.209671    0.273485    0.038724
     10          7           0        2.479779    0.288179   -0.131499
     11          6           0        0.554156   -1.052063    0.355314
     12          6           0       -0.862471   -1.118196   -0.228424
     13          8           0       -0.804017   -1.201856   -1.639706
     14          1           0       -3.480133    0.889868    0.470506
     15          1           0       -3.429338   -0.257529   -0.884347
     16          1           0       -3.383816   -0.856944    0.796905
     17          1           0        0.759522    2.259288   -0.100452
     18          1           0       -1.346801   -1.998922    0.209574
     19          1           0       -0.314463   -1.997663   -1.881955
 ---------------------------------------------------------------------

 SCF Done:  E(RHF) =  -807.503297914     A.U. after    2 cycles

 The electronic state is 1-A.
 Alpha  occ. eigenvalues --  -29.32624 -29.32340 -29.28067 -21.12061 -21.05752
 Alpha  occ. eigenvalues --  -15.82844 -15.82254 -15.78505 -11.63136 -11.55955
 Alpha  occ. eigenvalues --  -11.55372 -11.50010 -11.42587  -1.79196  -1.75582
 Alpha  occ. eigenvalues --   -1.56131  -1.45771  -1.36641  -1.33739  -1.07265
 Alpha  occ. eigenvalues --   -1.02488  -0.97973  -0.87744  -0.83409  -0.80480
 Alpha  occ. eigenvalues --   -0.76130  -0.71596  -0.70631  -0.65921  -0.63841
 Alpha  occ. eigenvalues --   -0.60976  -0.58684  -0.58202  -0.54668  -0.54319
 Alpha  occ. eigenvalues --   -0.51672  -0.49943  -0.46548  -0.42718  -0.41106
 Alpha  occ. eigenvalues --   -0.39337  -0.38458  -0.35006  -0.34757  -0.33185
 Alpha  occ. eigenvalues --   -0.32882  -0.29547  -0.25479  -0.24754  -0.23335
 Alpha virt. eigenvalues --    0.03506   0.04920   0.05042   0.05996   0.06828
 Alpha virt. eigenvalues --    0.07267   0.09249   0.09941   0.10506   0.11623
 Alpha virt. eigenvalues --    0.12246   0.12557   0.13052   0.13247   0.13897

 Mulliken charges:
               1
     1  F   -0.324697
     2  F    0.285363
     3  F    0.116185
     4  N   -2.467957
     5  C   -3.811931
     6  C    5.486566
     7  O   -3.276445
     8  N   -2.198104
     9  C    0.745068
    10  N   -1.896610
    11  C    1.794410
    12  C    1.619807
    13  O   -3.252117
    14  H    1.338462
    15  H    1.368277
    16  H    1.409050
    17  H    0.516526
    18  H    1.832035
    19  H    0.716110
 Sum of Mulliken charges =   0.00000

 Dipole moment (field-independent basis, Debye):
    X=             -0.3556    Y=             -1.7837    Z=              0.6223  Tot=              1.9223

 Test job not archived.
 1\1\GINC-SE227\SP\RHF\Aug-CC-pVDZ\C5H6F3N3O2\OHZDE\09-Apr-2025\0\\#t h
 f aug-cc-pvdz iop(5/13=1,5/36=2,99/5=2) pseudo=read geom=check guess=(
 read,tcheck) scf=(maxcycle=1)\\title\\0,1\F,0,2.867673,1.636217,-0.361
 743\F,0,1.274298,-2.095703,-0.138337\F,0,0.485168,-1.206992,1.710301\N
 ,0,-1.606548,0.046369,0.15113\C,0,-3.06771,-0.054771,0.12722\C,0,-1.04
 5453,1.306799,0.093817\O,0,-1.671018,2.341453,0.133738\N,0,0.35847,1.3
 3858,0.012599\C,0,1.209671,0.273485,0.038724\N,0,2.479779,0.28818,-0.1
 31499\C,0,0.554156,-1.052063,0.355314\C,0,-0.862471,-1.118196,-0.22842

 Normal termination of Gaussian 16 at Wed Apr  9 00:55:19 2025.
