 Gaussian 16, Revision C.01,

 ----------------------------------------------------------------------
 #t hf aug-cc-pvdz symm=none int=(grid=ultrafine) guess=(read,tcheck) s
 table=(opt,rrhf)
 ----------------------------------------------------------------------
 -----
 title
 -----
 Symbolic Z-matrix:
 Charge =  0 Multiplicity = 1

 SCF Done:  E(RHF) =  -635.107402753     A.U. after   12 cycles
 Normal termination of Gaussian 16 at Wed Apr  9 00:00:23 2025.
 Gaussian 16:  ES64L-G16RevC.01  3-Jul-2019

 ----------------------------------------------------------------------
 #t hf aug-cc-pvdz iop(5/13=1,5/36=2,99/5=2) pseudo=read geom=check gue
 ss=(read,tcheck) scf=(maxcycle=1)
 ----------------------------------------------------------------------
 -----
 title
 -----
 Structure from the checkpoint file:  "BDE49_nonexpt_2085_mol1.chk"
 Charge =  0 Multiplicity = 1

                         Standard orientation:
 ---------------------------------------------------------------------
 Center     Atomic      Atomic             Coordinates (Angstroms)
 Number     Number       Type             X           Y           Z
 ---------------------------------------------------------------------
      1         14           0        0.000000    1.768381   -0.005291
      2          8           0        1.320945    0.794040   -0.147795
      3          8           0       -1.320945    0.794040   -0.147795
      4          6           0        0.000000   -1.268030   -0.108968
      5          6           0       -1.285814   -0.560578    0.345307
      6          6           0        1.285814   -0.560578    0.345307
      7          6           0        2.547679   -1.257009   -0.139239
      8          1           0        2.558551   -1.300607   -1.231279
      9          1           0        2.606362   -2.275517    0.254649
     10          1           0        3.429443   -0.703655    0.189340
     11          1           0        1.297422   -0.524284    1.445333
     12          1           0        0.000000   -1.336584   -1.203014
     13          1           0        0.000000   -2.289512    0.286960
     14          6           0       -2.547679   -1.257009   -0.139239
     15          1           0       -1.297422   -0.524284    1.445333
     16          1           0       -2.558551   -1.300607   -1.231280
     17          1           0       -3.429443   -0.703655    0.189340
     18          1           0       -2.606362   -2.275517    0.254648
     19          1           0        0.000000    2.753443   -1.098300
     20          1           0        0.000000    2.438026    1.318057
 ---------------------------------------------------------------------

 SCF Done:  E(RHF) =  -636.879276217     A.U. after    2 cycles

 The electronic state is 1-A.
 Alpha  occ. eigenvalues --  -76.23616 -21.03392 -21.03389 -11.46955 -11.45937
 Alpha  occ. eigenvalues --  -11.41198 -11.38082 -11.35982  -5.57783  -2.25451
 Alpha  occ. eigenvalues --   -2.23319  -2.18864  -1.72703  -1.66689  -1.21366
 Alpha  occ. eigenvalues --   -1.10561  -1.01248  -0.85906  -0.83562  -0.73450
 Alpha  occ. eigenvalues --   -0.64173  -0.63587  -0.60156  -0.59999  -0.56380
 Alpha  occ. eigenvalues --   -0.54271  -0.51843  -0.51494  -0.48046  -0.47767
 Alpha  occ. eigenvalues --   -0.45957  -0.44277  -0.41049  -0.34776  -0.34459
 Alpha  occ. eigenvalues --   -0.30690
 Alpha virt. eigenvalues --    0.04063   0.04831   0.05171   0.05386   0.05613
 Alpha virt. eigenvalues --    0.05705   0.06306   0.06342   0.06920   0.07881
 Alpha virt. eigenvalues --    0.08486   0.08693   0.09139   0.10040   0.11876

 Mulliken charges:
               1
     1  Si   6.224765
     2  O   -3.502745
     3  O   -3.502745
     4  C   -2.995999
     5  C    1.019241
     6  C    1.019241
     7  C   -4.257928
     8  H    1.244354
     9  H    1.255821
    10  H    1.159978
    11  H    1.803808
    12  H    1.542276
    13  H    1.477975
    14  C   -4.257927
    15  H    1.803808
    16  H    1.244353
    17  H    1.159978
    18  H    1.255821
    19  H   -1.830632
    20  H   -1.863444
 Sum of Mulliken charges =   0.00000

 Dipole moment (field-independent basis, Debye):
    X=              0.0000    Y=             -1.3286    Z=              0.1723  Tot=              1.3397

 Test job not archived.
 1\1\GINC-SE460\SP\RHF\Aug-CC-pVDZ\C5H12O2Si1\OHZDE\09-Apr-2025\0\\#t h
 f aug-cc-pvdz iop(5/13=1,5/36=2,99/5=2) pseudo=read geom=check guess=(
 read,tcheck) scf=(maxcycle=1)\\title\\0,1\Si,0,0.,1.768381,-0.005291\O
 ,0,1.320945,0.79404,-0.147795\O,0,-1.320945,0.79404,-0.147795\C,0,0.,-
 1.26803,-0.108968\C,0,-1.285814,-0.560578,0.345307\C,0,1.285814,-0.560
 578,0.345307\C,0,2.547679,-1.257009,-0.139239\H,0,2.558551,-1.300607,-
 1.231279\H,0,2.606362,-2.275517,0.254649\H,0,3.429443,-0.703655,0.1893
 4\H,0,1.297422,-0.524284,1.445333\H,0,0.,-1.336584,-1.203014\H,0,0.,-2

 Normal termination of Gaussian 16 at Wed Apr  9 00:00:32 2025.
