 Gaussian 16, Revision C.01,

 ----------------------------------------------------------------------
 #t hf aug-cc-pvdz symm=none int=(grid=ultrafine) guess=(read,tcheck) s
 table=(opt,rrhf)
 ----------------------------------------------------------------------
 -----
 title
 -----
 Symbolic Z-matrix:
 Charge =  0 Multiplicity = 1

 SCF Done:  E(RHF) =  -1950.65389133     A.U. after   14 cycles

 1\1\GINC-SE424\Stability\RHF\Aug-CC-pVDZ\C1Cl4O1\OHZDE\08-Apr-2025\0\\
 #t hf aug-cc-pvdz symm=none int=(grid=ultrafine) guess=(read,tcheck) s
 table=(opt,rrhf)\\title\\0,1\Cl,0,-0.719029,-2.188589,0.\O,0,0.602186,
 -1.046655,0.\C,0,0.221335,0.279894,0.\Cl,0,1.795588,1.116987,0.\Cl,0,-
 0.719029,0.732679,1.464252\Cl,0,-0.719029,0.732679,-1.464252\\Version=
 ES64L-G16RevC.01\HF=-1950.6538913\RMSD=6.004e-09\Dipole=-0.2358208,-0.
 1672888,0.\Quadrupole=0.199636,0.5014117,-0.7010477,1.9340358,0.,0.\PG
 =Unknown\\@

 Normal termination of Gaussian 16 at Tue Apr  8 23:17:52 2025.
 Gaussian 16:  ES64L-G16RevC.01  3-Jul-2019

 ----------------------------------------------------------------------
 #t hf aug-cc-pvdz iop(5/13=1,5/36=2,99/5=2) pseudo=read geom=check gue
 ss=(read,tcheck) scf=(maxcycle=1)
 ----------------------------------------------------------------------
 -----
 title
 -----
 Structure from the checkpoint file:  "BDE49_nonexpt_1031_mol1.chk"
 Charge =  0 Multiplicity = 1

                         Standard orientation:
 ---------------------------------------------------------------------
 Center     Atomic      Atomic             Coordinates (Angstroms)
 Number     Number       Type             X           Y           Z
 ---------------------------------------------------------------------
      1         17           0       -0.719029   -2.188589    0.000000
      2          8           0        0.602186   -1.046655    0.000000
      3          6           0        0.221335    0.279894   -0.000000
      4         17           0        1.795588    1.116987   -0.000000
      5         17           0       -0.719029    0.732679    1.464252
      6         17           0       -0.719029    0.732679   -1.464252
 ---------------------------------------------------------------------

 SCF Done:  E(RHF) =  -1952.11380260     A.U. after    2 cycles

 The electronic state is 1-A'.
 Alpha  occ. eigenvalues --  -99.97508 -99.92991 -99.92657 -99.92638 -21.17027
 Alpha  occ. eigenvalues --  -11.59984 -10.54196 -10.50454 -10.50044 -10.49948
 Alpha  occ. eigenvalues --   -9.74040  -9.73206  -9.73100  -9.70296  -9.69917
 Alpha  occ. eigenvalues --   -9.69711  -9.69402  -9.69354  -9.69067  -9.69029
 Alpha  occ. eigenvalues --   -9.69016  -9.68950  -1.86671  -1.43023  -1.32486
 Alpha  occ. eigenvalues --   -1.31944  -1.28454  -0.95949  -0.76137  -0.74962
 Alpha  occ. eigenvalues --   -0.72818  -0.62519  -0.61176  -0.57122  -0.56122
 Alpha  occ. eigenvalues --   -0.55484  -0.52181  -0.51934  -0.51194  -0.48480
 Alpha  occ. eigenvalues --   -0.41266
 Alpha virt. eigenvalues --   -0.01407  -0.00043   0.05219   0.06052   0.06137
 Alpha virt. eigenvalues --    0.09033   0.09775   0.09794   0.12828   0.13013
 Alpha virt. eigenvalues --    0.13841   0.14197   0.16195   0.16828   0.18001

 Mulliken charges:
               1
     1  Cl   0.656875
     2  O   -1.667471
     3  C   -0.601891
     4  Cl   0.457953
     5  Cl   0.577267
     6  Cl   0.577267
 Sum of Mulliken charges =   0.00000

 Dipole moment (field-independent basis, Debye):
    X=              1.3227    Y=             -0.3070    Z=              0.0000  Tot=              1.3578

 Test job not archived.
 1\1\GINC-SE424\SP\RHF\Aug-CC-pVDZ\C1Cl4O1\OHZDE\08-Apr-2025\0\\#t hf a
 ug-cc-pvdz iop(5/13=1,5/36=2,99/5=2) pseudo=read geom=check guess=(rea
 d,tcheck) scf=(maxcycle=1)\\title\\0,1\Cl,0,-0.719029,-2.188589,0.\O,0
 ,0.602186,-1.046655,0.\C,0,0.221335,0.279894,0.\Cl,0,1.795588,1.116987
 ,0.\Cl,0,-0.719029,0.732679,1.464252\Cl,0,-0.719029,0.732679,-1.464252
 \\Version=ES64L-G16RevC.01\State=1-A'\HF=-1952.1138026\RMSD=4.376e-02\
 Dipole=0.5203823,-0.1207988,0.\Quadrupole=1.3180545,-0.4767007,-0.8413
 539,1.1469212,0.,0.\PG=CS [SG(C1Cl2O1),X(Cl2)]\\@

 Normal termination of Gaussian 16 at Tue Apr  8 23:17:54 2025.
