 Gaussian 16, Revision C.01,

 ----------------------------------------------------------------------
 #t hf aug-cc-pvdz symm=none int=(grid=ultrafine) guess=(read,tcheck) s
 table=(opt,rrhf)
 ----------------------------------------------------------------------
 -----
 title
 -----
 Symbolic Z-matrix:
 Charge =  0 Multiplicity = 1

 SCF Done:  E(RHF) =  -1350.86032006     A.U. after   15 cycles
 Normal termination of Gaussian 16 at Tue Apr  8 23:55:04 2025.
 Gaussian 16:  ES64L-G16RevC.01  3-Jul-2019

 ----------------------------------------------------------------------
 #t hf aug-cc-pvdz iop(5/13=1,5/36=2,99/5=2) pseudo=read geom=check gue
 ss=(read,tcheck) scf=(maxcycle=1)
 ----------------------------------------------------------------------
 -----
 title
 -----
 Structure from the checkpoint file:  "BDE49_nonexpt_1941_mol1.chk"
 Charge =  0 Multiplicity = 1

                         Standard orientation:
 ---------------------------------------------------------------------
 Center     Atomic      Atomic             Coordinates (Angstroms)
 Number     Number       Type             X           Y           Z
 ---------------------------------------------------------------------
      1          6           0       -1.230257    1.073071    0.759788
      2         14           0        0.478377    1.468692    0.039229
      3          6           0        1.613681   -0.043997    0.431247
      4          1           0        1.062209    2.612439    0.772268
      5          1           0        0.433866    1.741908   -1.410977
      6          8           0        1.507585   -0.621277    1.484497
      7         16           0        2.847772   -0.494962   -0.819319
      8          1           0        3.404434   -1.474535   -0.081196
      9          6           0       -2.089544    0.250141   -0.168663
     10          8           0       -2.780493    0.712953   -1.034358
     11         16           0       -1.948338   -1.541900    0.112787
     12          1           0       -2.759490   -1.851500   -0.912729
     13          1           0       -1.746459    2.020235    0.936132
     14          1           0       -1.062809    0.570841    1.716446
 ---------------------------------------------------------------------

 SCF Done:  E(RHF) =  -1352.60714048     A.U. after    2 cycles

 The electronic state is 1-A.
 Alpha  occ. eigenvalues --  -76.25420 -75.71824 -75.71520 -21.08960 -21.07533
 Alpha  occ. eigenvalues --  -13.16851 -13.16341 -13.12777 -13.12435 -13.04685
 Alpha  occ. eigenvalues --  -13.03613 -11.52606 -11.49287 -11.40594  -8.05847
 Alpha  occ. eigenvalues --   -8.05538  -5.59075  -2.23172  -2.22265  -2.21424
 Alpha  occ. eigenvalues --   -1.73861  -1.73271  -1.19719  -1.16549  -1.09093
 Alpha  occ. eigenvalues --   -0.86985  -0.77706  -0.71054  -0.65299  -0.59159
 Alpha  occ. eigenvalues --   -0.56788  -0.56259  -0.54538  -0.51699  -0.51200
 Alpha  occ. eigenvalues --   -0.48698  -0.46283  -0.45490  -0.41666  -0.27694
 Alpha  occ. eigenvalues --   -0.27126  -0.26969  -0.26073
 Alpha virt. eigenvalues --    0.02722   0.04246   0.04964   0.05046   0.06232
 Alpha virt. eigenvalues --    0.06346   0.07383   0.08175   0.08410   0.08640
 Alpha virt. eigenvalues --    0.09657   0.10446   0.11522   0.11664   0.11995

 Mulliken charges:
               1
     1  C   -4.228314
     2  Si   5.938790
     3  C    1.036805
     4  H   -1.935648
     5  H   -1.821949
     6  O   -2.540970
     7  S   -0.557535
     8  H    1.035506
     9  C    2.959539
    10  O   -3.095305
    11  S   -0.789559
    12  H    1.095793
    13  H    1.285044
    14  H    1.617802
 Sum of Mulliken charges =   0.00000

 Dipole moment (field-independent basis, Debye):
    X=              0.9572    Y=             -0.3846    Z=              0.3361  Tot=              1.0850

 Test job not archived.
 1\1\GINC-SE096\SP\RHF\Aug-CC-pVDZ\C3H6O2S2Si1\OHZDE\08-Apr-2025\0\\#t
 hf aug-cc-pvdz iop(5/13=1,5/36=2,99/5=2) pseudo=read geom=check guess=
 (read,tcheck) scf=(maxcycle=1)\\title\\0,1\C,0,-1.230257,1.073071,0.75
 9788\Si,0,0.478377,1.468692,0.039229\C,0,1.613681,-0.043997,0.431247\H
 ,0,1.062209,2.612439,0.772268\H,0,0.433866,1.741908,-1.410977\O,0,1.50
 7585,-0.621277,1.484497\S,0,2.847772,-0.494962,-0.819319\H,0,3.404434,
 -1.474535,-0.081196\C,0,-2.089544,0.250141,-0.168663\O,0,-2.780493,0.7
 12953,-1.034358\S,0,-1.948338,-1.5419,0.112787\H,0,-2.75949,-1.8515,-0

 Normal termination of Gaussian 16 at Tue Apr  8 23:55:11 2025.
