 Gaussian 16, Revision C.01,

 ----------------------------------------------------------------------
 #t hf aug-cc-pvdz symm=none int=(grid=ultrafine) guess=(read,tcheck) s
 table=(opt,rrhf)
 ----------------------------------------------------------------------
 -----
 title
 -----
 Symbolic Z-matrix:
 Charge =  0 Multiplicity = 1

 SCF Done:  E(RHF) =  -1406.90058740     A.U. after   15 cycles
 Normal termination of Gaussian 16 at Wed Apr  9 00:19:03 2025.
 Gaussian 16:  ES64L-G16RevC.01  3-Jul-2019

 ----------------------------------------------------------------------
 #t hf aug-cc-pvdz iop(5/13=1,5/36=2,99/5=2) pseudo=read geom=check gue
 ss=(read,tcheck) scf=(maxcycle=1)
 ----------------------------------------------------------------------
 -----
 title
 -----
 Structure from the checkpoint file:  "BDE49_nonexpt_2577_mol1.chk"
 Charge =  0 Multiplicity = 1

                         Standard orientation:
 ---------------------------------------------------------------------
 Center     Atomic      Atomic             Coordinates (Angstroms)
 Number     Number       Type             X           Y           Z
 ---------------------------------------------------------------------
      1         17           0        2.429767    0.425316    0.000046
      2         16           0        0.889259   -1.005251   -0.000016
      3          6           0       -0.610739   -0.125367   -0.000082
      4         16           0       -1.921466   -1.121090    0.000030
      5          8           0       -0.540751    1.185017   -0.000058
      6          6           0       -1.773088    1.943403   -0.000009
      7          1           0       -1.455691    2.982575    0.000003
      8          1           0       -2.353015    1.710066    0.893017
      9          1           0       -2.353062    1.710100   -0.893014
 ---------------------------------------------------------------------

 SCF Done:  E(RHF) =  -1408.26850774     A.U. after    2 cycles

 The electronic state is 1-A.
 Alpha  occ. eigenvalues --  -99.91880 -75.77595 -75.67704 -21.14423 -13.20626
 Alpha  occ. eigenvalues --  -13.14654 -13.13846 -13.08667 -13.03063 -12.99237
 Alpha  occ. eigenvalues --  -11.54093 -11.44514 -10.48935  -9.68694  -9.68132
 Alpha  occ. eigenvalues --   -9.67949  -8.11473  -8.01934  -1.85739  -1.35276
 Alpha  occ. eigenvalues --   -1.22767  -1.08288  -1.04298  -0.77963  -0.68703
 Alpha  occ. eigenvalues --   -0.65748  -0.62259  -0.57764  -0.56525  -0.53934
 Alpha  occ. eigenvalues --   -0.51927  -0.47389  -0.39727  -0.32597  -0.25906
 Alpha  occ. eigenvalues --   -0.24323
 Alpha virt. eigenvalues --    0.02330   0.04717   0.05705   0.06076   0.06079
 Alpha virt. eigenvalues --    0.08097   0.08177   0.08501   0.11490   0.12836
 Alpha virt. eigenvalues --    0.12894   0.14216   0.14833   0.15120   0.16154

 Mulliken charges:
               1
     1  Cl  -0.516609
     2  S    1.628272
     3  C   -0.548405
     4  S    1.059537
     5  O   -2.899203
     6  C   -2.871737
     7  H    1.383005
     8  H    1.382588
     9  H    1.382551
 Sum of Mulliken charges =  -0.00000

 Dipole moment (field-independent basis, Debye):
    X=             -4.0082    Y=             -1.5966    Z=              0.0004  Tot=              4.3145

 Test job not archived.
 1\1\GINC-SE159\SP\RHF\Aug-CC-pVDZ\C2H3Cl1O1S2\OHZDE\09-Apr-2025\0\\#t
 hf aug-cc-pvdz iop(5/13=1,5/36=2,99/5=2) pseudo=read geom=check guess=
 (read,tcheck) scf=(maxcycle=1)\\title\\0,1\Cl,0,2.429767,0.425316,0.00
 0046\S,0,0.889259,-1.005251,-0.000016\C,0,-0.610739,-0.125367,-0.00008
 2\S,0,-1.921466,-1.12109,0.00003\O,0,-0.540751,1.185017,-0.000058\C,0,
 -1.773088,1.943403,-0.000009\H,0,-1.455691,2.982575,0.000003\H,0,-2.35
 3015,1.710066,0.893017\H,0,-2.353062,1.7101,-0.893014\\Version=ES64L-G
 16RevC.01\State=1-A\HF=-1408.2685077\RMSD=1.012e-01\Dipole=-1.576948,-

 Normal termination of Gaussian 16 at Wed Apr  9 00:19:08 2025.
