 Gaussian 16, Revision C.01,

 ----------------------------------------------------------------------
 #t hf aug-cc-pvdz symm=none int=(grid=ultrafine) guess=(read,tcheck) s
 table=(opt,rrhf)
 ----------------------------------------------------------------------
 -----
 title
 -----
 Symbolic Z-matrix:
 Charge =  0 Multiplicity = 1

 SCF Done:  E(RHF) =  -494.795194986     A.U. after   14 cycles
 Normal termination of Gaussian 16 at Wed Apr  9 00:07:27 2025.
 Gaussian 16:  ES64L-G16RevC.01  3-Jul-2019

 ----------------------------------------------------------------------
 #t hf aug-cc-pvdz iop(5/13=1,5/36=2,99/5=2) pseudo=read geom=check gue
 ss=(read,tcheck) scf=(maxcycle=1)
 ----------------------------------------------------------------------
 -----
 title
 -----
 Structure from the checkpoint file:  "BDE49_nonexpt_2269_mol1.chk"
 Charge =  0 Multiplicity = 1

                         Standard orientation:
 ---------------------------------------------------------------------
 Center     Atomic      Atomic             Coordinates (Angstroms)
 Number     Number       Type             X           Y           Z
 ---------------------------------------------------------------------
      1         14           0       -1.482669   -0.078207   -0.000001
      2          8           0        0.091399    0.545074   -0.000006
      3          7           0        1.165075   -0.446667    0.000004
      4          8           0        2.204656    0.066667    0.000004
      5          1           0       -2.343334    1.117278   -0.000056
      6          1           0       -1.711648   -0.894772    1.209833
      7          1           0       -1.711619   -0.894864   -1.209778
 ---------------------------------------------------------------------

 SCF Done:  E(RHF) =  -495.792751584     A.U. after    2 cycles

 The electronic state is 1-A.
 Alpha  occ. eigenvalues --  -76.25800 -21.17468 -21.08758 -15.95492  -5.59259
 Alpha  occ. eigenvalues --   -2.25290  -2.21181  -2.20867  -1.96555  -1.68717
 Alpha  occ. eigenvalues --   -0.96753  -0.78193  -0.64952  -0.62700  -0.61797
 Alpha  occ. eigenvalues --   -0.50436  -0.49561  -0.40647  -0.37981  -0.30928
 Alpha virt. eigenvalues --    0.04225   0.05941   0.06322   0.06380   0.08537
 Alpha virt. eigenvalues --    0.09090   0.12269   0.12558   0.14751   0.15930
 Alpha virt. eigenvalues --    0.16765   0.17084   0.18041   0.19077   0.19492

 Mulliken charges:
               1
     1  Si   6.178201
     2  O   -2.264647
     3  N    2.503559
     4  O   -1.665607
     5  H   -1.544707
     6  H   -1.603406
     7  H   -1.603395
 Sum of Mulliken charges =  -0.00000

 Dipole moment (field-independent basis, Debye):
    X=             -0.0388    Y=              0.5290    Z=             -0.0000  Tot=              0.5304

 Test job not archived.
 1\1\GINC-SE071\SP\RHF\Aug-CC-pVDZ\H3N1O2Si1\OHZDE\09-Apr-2025\0\\#t hf
  aug-cc-pvdz iop(5/13=1,5/36=2,99/5=2) pseudo=read geom=check guess=(r
 ead,tcheck) scf=(maxcycle=1)\\title\\0,1\Si,0,-1.482669,-0.078207,-0.0
 00001\O,0,0.091399,0.545074,-0.000006\N,0,1.165075,-0.446667,0.000004\
 O,0,2.204656,0.066667,0.000004\H,0,-2.343334,1.117278,-0.000056\H,0,-1
 .711648,-0.894772,1.209833\H,0,-1.711619,-0.894864,-1.209778\\Version=
 ES64L-G16RevC.01\State=1-A\HF=-495.7927516\RMSD=8.331e-02\Dipole=-0.01
 5274,0.2081279,-0.0000022\Quadrupole=1.0570335,-1.317027,0.2599935,0.2

 Normal termination of Gaussian 16 at Wed Apr  9 00:07:29 2025.
