 Gaussian 16, Revision C.01,

 ----------------------------------------------------------------------
 #t hf aug-cc-pvdz symm=none int=(grid=ultrafine) guess=(read,tcheck) s
 table=(opt,rrhf)
 ----------------------------------------------------------------------
 -----
 title
 -----
 Symbolic Z-matrix:
 Charge =  0 Multiplicity = 1

 SCF Done:  E(RHF) =  -859.827922780     A.U. after   13 cycles
 Normal termination of Gaussian 16 at Wed Apr  9 00:15:08 2025.
 Gaussian 16:  ES64L-G16RevC.01  3-Jul-2019

 ----------------------------------------------------------------------
 #t hf aug-cc-pvdz iop(5/13=1,5/36=2,99/5=2) pseudo=read geom=check gue
 ss=(read,tcheck) scf=(maxcycle=1)
 ----------------------------------------------------------------------
 -----
 title
 -----
 Structure from the checkpoint file:  "BDE49_nonexpt_2458_mol1.chk"
 Charge =  0 Multiplicity = 1

                         Standard orientation:
 ---------------------------------------------------------------------
 Center     Atomic      Atomic             Coordinates (Angstroms)
 Number     Number       Type             X           Y           Z
 ---------------------------------------------------------------------
      1         14           0       -1.071438   -1.268301   -0.495130
      2         14           0        1.075702   -1.220866    0.494567
      3          5           0        2.128748    0.479246   -0.005187
      4          1           0        1.815735   -2.465945    0.152631
      5          1           0        0.861656   -1.257314    1.971461
      6          8           0        1.490670    1.659695   -0.183736
      7          6           0        3.691567    0.447073   -0.180858
      8          1           0        3.969831   -0.231526   -0.997016
      9          1           0        4.183941    0.044092    0.712314
     10          1           0        4.108866    1.435442   -0.394937
     11          5           0       -2.118976    0.420130   -0.010539
     12          1           0       -1.841388   -2.485266   -0.121335
     13          1           0       -0.925462   -1.297033   -1.978880
     14          8           0       -1.350023    1.554354    0.099235
     15          6           0       -3.669447    0.475232    0.232157
     16          1           0       -4.210933    0.078665   -0.634391
     17          1           0       -4.062268    1.476735    0.448716
     18          1           0       -3.940720   -0.181148    1.067940
     19          1           0        0.524937    1.635617   -0.083944
     20          1           0       -1.850644    2.352914    0.312164
 ---------------------------------------------------------------------

 SCF Done:  E(RHF) =  -861.403942725     A.U. after    2 cycles

 The electronic state is 1-A.
 Alpha  occ. eigenvalues --  -76.19246 -76.18792 -21.09053 -21.04186 -11.35129
 Alpha  occ. eigenvalues --  -11.32296  -7.63359  -7.60873  -5.52888  -5.52407
 Alpha  occ. eigenvalues --   -2.15826  -2.15280  -2.15072  -2.14780  -2.14316
 Alpha  occ. eigenvalues --   -2.13516  -1.76635  -1.71965  -1.07837  -1.05036
 Alpha  occ. eigenvalues --   -0.82552  -0.75887  -0.69976  -0.67146  -0.60336
 Alpha  occ. eigenvalues --   -0.57890  -0.56660  -0.55700  -0.53951  -0.51532
 Alpha  occ. eigenvalues --   -0.47124  -0.46100  -0.44794  -0.44247  -0.41862
 Alpha  occ. eigenvalues --   -0.40820  -0.38184  -0.32975  -0.29021
 Alpha virt. eigenvalues --    0.02370   0.03744   0.04030   0.04265   0.05511
 Alpha virt. eigenvalues --    0.06085   0.06438   0.07490   0.08073   0.08295
 Alpha virt. eigenvalues --    0.08319   0.08471   0.08561   0.09140   0.09455

 Mulliken charges:
               1
     1  Si   4.258029
     2  Si   4.067087
     3  B    5.065708
     4  H   -1.935479
     5  H   -1.690538
     6  O   -4.817353
     7  C   -6.018081
     8  H    0.922215
     9  H    0.903026
    10  H    1.408048
    11  B    4.724418
    12  H   -1.985452
    13  H   -1.758570
    14  O   -4.226587
    15  C   -6.035054
    16  H    1.010302
    17  H    1.293216
    18  H    0.971612
    19  H    2.427055
    20  H    1.416400
 Sum of Mulliken charges =   0.00000

 Dipole moment (field-independent basis, Debye):
    X=             -2.0548    Y=              1.9308    Z=              0.2855  Tot=              2.8340

 Test job not archived.
 1\1\GINC-SE345\SP\RHF\Aug-CC-pVDZ\C2H12B2O2Si2\OHZDE\09-Apr-2025\0\\#t
  hf aug-cc-pvdz iop(5/13=1,5/36=2,99/5=2) pseudo=read geom=check guess
 =(read,tcheck) scf=(maxcycle=1)\\title\\0,1\Si,0,-1.071438,-1.268301,-
 0.49513\Si,0,1.075702,-1.220866,0.494567\B,0,2.128748,0.479246,-0.0051
 87\H,0,1.815735,-2.465945,0.152631\H,0,0.861656,-1.257314,1.971461\O,0
 ,1.49067,1.659695,-0.183736\C,0,3.691567,0.447073,-0.180858\H,0,3.9698
 31,-0.231526,-0.997016\H,0,4.183941,0.044092,0.712314\H,0,4.108866,1.4
 35442,-0.394937\B,0,-2.118976,0.42013,-0.010539\H,0,-1.841388,-2.48526

 Normal termination of Gaussian 16 at Wed Apr  9 00:15:17 2025.
