 Gaussian 16, Revision C.01,

 ----------------------------------------------------------------------
 #t hf aug-cc-pvdz symm=none int=(grid=ultrafine) guess=(read,tcheck) s
 table=(opt,rrhf)
 ----------------------------------------------------------------------
 -----
 title
 -----
 Symbolic Z-matrix:
 Charge =  0 Multiplicity = 1

 SCF Done:  E(RHF) =  -812.882192345     A.U. after   16 cycles
 Normal termination of Gaussian 16 at Wed Apr  9 00:33:54 2025.
 Gaussian 16:  ES64L-G16RevC.01  3-Jul-2019

 ----------------------------------------------------------------------
 #t hf aug-cc-pvdz iop(5/13=1,5/36=2,99/5=2) pseudo=read geom=check gue
 ss=(read,tcheck) scf=(maxcycle=1)
 ----------------------------------------------------------------------
 -----
 title
 -----
 Structure from the checkpoint file:  "BDE49_nonexpt_322_mol1.chk"
 Charge =  0 Multiplicity = 1

                         Standard orientation:
 ---------------------------------------------------------------------
 Center     Atomic      Atomic             Coordinates (Angstroms)
 Number     Number       Type             X           Y           Z
 ---------------------------------------------------------------------
      1          6           0       -0.846778   -1.129782    0.000122
      2          6           0       -1.480113    0.103046    0.000062
      3          6           0        0.537928   -1.253312    0.000103
      4          6           0        1.349607   -0.113816    0.000028
      5          6           0        0.721323    1.140881   -0.000025
      6          6           0       -0.664480    1.225802   -0.000012
      7          1           0       -2.556632    0.186235    0.000075
      8          7           0       -1.309024    2.565354   -0.000076
      9          8           0       -2.530072    2.598947    0.000092
     10          8           0       -0.574578    3.540765   -0.000005
     11          1           0        1.308894    2.048654   -0.000077
     12          5           0        2.925439   -0.192219    0.000009
     13          7           0       -1.679497   -2.358393    0.000208
     14          1           0        0.946432   -2.256239    0.000161
     15          8           0       -2.891576   -2.216503   -0.000223
     16          8           0       -1.093716   -3.432192   -0.000203
     17          8           0        3.640179   -1.354628   -0.000093
     18          8           0        3.600386    0.987906    0.000098
     19          1           0        4.556265    0.868682    0.000068
     20          1           0        3.127584   -2.166243   -0.000201
 ---------------------------------------------------------------------

 SCF Done:  E(RHF) =  -816.346710732     A.U. after    2 cycles

 The electronic state is 1-A.
 Alpha  occ. eigenvalues --  -21.11781 -21.11566 -21.11344 -21.11210 -21.09268
 Alpha  occ. eigenvalues --  -21.08146 -16.02411 -16.02001 -11.58837 -11.52570
 Alpha  occ. eigenvalues --  -11.51220 -11.50276 -11.49753 -11.43276  -7.69988
 Alpha  occ. eigenvalues --   -2.02618  -2.01221  -1.85130  -1.71588  -1.70892
 Alpha  occ. eigenvalues --   -1.68731  -1.41702  -1.23362  -1.19475  -1.04386
 Alpha  occ. eigenvalues --   -1.03083  -0.92892  -0.83105  -0.79427  -0.77970
 Alpha  occ. eigenvalues --   -0.71706  -0.71231  -0.70411  -0.69689  -0.69145
 Alpha  occ. eigenvalues --   -0.68081  -0.62979  -0.62028  -0.58418  -0.56490
 Alpha  occ. eigenvalues --   -0.54745  -0.54210  -0.51177  -0.45727  -0.42047
 Alpha  occ. eigenvalues --   -0.39823  -0.39428  -0.39022  -0.37915  -0.36783
 Alpha  occ. eigenvalues --   -0.33621  -0.33484  -0.32991  -0.32683
 Alpha virt. eigenvalues --    0.02257   0.03585   0.04127   0.04326   0.04863
 Alpha virt. eigenvalues --    0.05661   0.06770   0.07407   0.07921   0.08326
 Alpha virt. eigenvalues --    0.09759   0.10473   0.10830   0.10994   0.12166

 Mulliken charges:
               1
     1  C    4.042502
     2  C   -4.176490
     3  C   -2.410890
     4  C    2.675438
     5  C   -3.644062
     6  C    4.397804
     7  H    2.043622
     8  N    3.674041
     9  O   -3.066746
    10  O   -3.127933
    11  H    2.387638
    12  B    4.464419
    13  N    3.690039
    14  H    2.152754
    15  O   -3.072664
    16  O   -3.170126
    17  O   -5.129251
    18  O   -4.583251
    19  H    1.247723
    20  H    1.605433
 Sum of Mulliken charges =  -0.00000

 Dipole moment (field-independent basis, Debye):
    X=              3.0626    Y=             -0.8533    Z=             -0.0002  Tot=              3.1793

 Test job not archived.
 1\1\GINC-SE015\SP\RHF\Aug-CC-pVDZ\C6H5B1N2O6\OHZDE\09-Apr-2025\0\\#t h
 f aug-cc-pvdz iop(5/13=1,5/36=2,99/5=2) pseudo=read geom=check guess=(
 read,tcheck) scf=(maxcycle=1)\\title\\0,1\C,0,0.846778,-1.129782,-0.00
 0122\C,0,1.480113,0.103046,-0.000062\C,0,-0.537928,-1.253312,-0.000103
 \C,0,-1.349607,-0.113816,-0.000028\C,0,-0.721323,1.140881,0.000025\C,0
 ,0.66448,1.225802,0.000012\H,0,2.556632,0.186235,-0.000075\N,0,1.30902
 4,2.565354,0.000076\O,0,2.530072,2.598947,-0.000092\O,0,0.574578,3.540
 765,0.000005\H,0,-1.308894,2.048654,0.000077\B,0,-2.925439,-0.192219,-

 Normal termination of Gaussian 16 at Wed Apr  9 00:34:11 2025.
