 Gaussian 16, Revision C.01,

 ----------------------------------------------------------------------
 #t hf aug-cc-pvdz symm=none int=(grid=ultrafine) guess=(read,tcheck) s
 table=(opt,rrhf)
 ----------------------------------------------------------------------
 -----
 title
 -----
 Symbolic Z-matrix:
 Charge =  0 Multiplicity = 1

 SCF Done:  E(RHF) =  -267.701253387     A.U. after   14 cycles
 Normal termination of Gaussian 16 at Tue Apr  8 23:01:46 2025.
 Gaussian 16:  ES64L-G16RevC.01  3-Jul-2019

 ----------------------------------------------------------------------
 #t hf aug-cc-pvdz iop(5/13=1,5/36=2,99/5=2) pseudo=read geom=check gue
 ss=(read,tcheck) scf=(maxcycle=1)
 ----------------------------------------------------------------------
 -----
 title
 -----
 Structure from the checkpoint file:  "BDE49_expt_199_mol1.chk"
 Charge =  0 Multiplicity = 1

                         Standard orientation:
 ---------------------------------------------------------------------
 Center     Atomic      Atomic             Coordinates (Angstroms)
 Number     Number       Type             X           Y           Z
 ---------------------------------------------------------------------
      1          8           0        0.073497   -1.062308    0.000004
      2          6           0        1.397950   -0.731623   -0.000012
      3          6           0        1.546652    0.616363    0.000018
      4          6           0        0.219154    1.162394   -0.000016
      5          6           0       -0.638503    0.105368   -0.000000
      6          1           0       -0.057509    2.204915   -0.000027
      7          1           0        2.088639   -1.557584   -0.000019
      8          1           0        2.478535    1.159044    0.000033
      9          6           0       -2.120549   -0.014826    0.000005
     10          1           0       -2.574342    0.977092   -0.000018
     11          1           0       -2.475763   -0.555504    0.882917
     12          1           0       -2.475764   -0.555545   -0.882881
 ---------------------------------------------------------------------

 SCF Done:  E(RHF) =  -268.946080119     A.U. after    2 cycles

 The electronic state is 1-A.
 Alpha  occ. eigenvalues --  -21.10344 -11.47119 -11.44102 -11.41754 -11.39510
 Alpha  occ. eigenvalues --  -11.36095  -1.83711  -1.19413  -1.13200  -0.98064
 Alpha  occ. eigenvalues --   -0.80057  -0.76081  -0.70970  -0.60360  -0.58353
 Alpha  occ. eigenvalues --   -0.52992  -0.52981  -0.49823  -0.48925  -0.42032
 Alpha  occ. eigenvalues --   -0.32660  -0.30234
 Alpha virt. eigenvalues --    0.03449   0.04850   0.05405   0.05909   0.06713
 Alpha virt. eigenvalues --    0.06866   0.09902   0.11353   0.11966   0.13054
 Alpha virt. eigenvalues --    0.13742   0.13908   0.14596   0.14769   0.15739

 Mulliken charges:
               1
     1  O   -4.055034
     2  C    0.294935
     3  C   -1.243884
     4  C   -3.183673
     5  C    5.418861
     6  H    1.321338
     7  H    1.416968
     8  H    1.278920
     9  C   -4.587354
    10  H    1.084291
    11  H    1.127315
    12  H    1.127318
 Sum of Mulliken charges =   0.00000

 Dipole moment (field-independent basis, Debye):
    X=             -0.4095    Y=             -0.0336    Z=              0.0000  Tot=              0.4109

 Test job not archived.
 1\1\GINC-SE072\SP\RHF\Aug-CC-pVDZ\C5H6O1\OHZDE\08-Apr-2025\0\\#t hf au
 g-cc-pvdz iop(5/13=1,5/36=2,99/5=2) pseudo=read geom=check guess=(read
 ,tcheck) scf=(maxcycle=1)\\title\\0,1\O,0,0.073497,-1.062308,0.000004\
 C,0,1.39795,-0.731623,-0.000012\C,0,1.546652,0.616363,0.000018\C,0,0.2
 19154,1.162394,-0.000016\C,0,-0.638503,0.105368,0.\H,0,-0.057509,2.204
 915,-0.000027\H,0,2.088639,-1.557584,-0.000019\H,0,2.478535,1.159044,0
 .000033\C,0,-2.120549,-0.014826,0.000005\H,0,-2.574342,0.977092,-0.000
 018\H,0,-2.475763,-0.555504,0.882917\H,0,-2.475764,-0.555545,-0.882881

 Normal termination of Gaussian 16 at Tue Apr  8 23:01:49 2025.
