 Gaussian 16, Revision C.01,

 ----------------------------------------------------------------------
 #t hf aug-cc-pvdz symm=none int=(grid=ultrafine) guess=(read,tcheck) s
 table=opt
 ----------------------------------------------------------------------
 -----
 title
 -----
 Symbolic Z-matrix:
 Charge =  0 Multiplicity = 2

 SCF Done:  E(UHF) =  -1085.72908548     A.U. after   19 cycles

 1\1\GINC-SE343\Stability\UHF\Aug-CC-pVDZ\H3S2Si1\OHZDE\08-Apr-2025\0\\
 #t hf aug-cc-pvdz symm=none int=(grid=ultrafine) guess=(read,tcheck) s
 table=opt\\title\\0,2\Si,0,-1.688674,-0.361087,0.001935\S,0,0.007857,0
 .970514,0.012505\H,0,-1.746531,-1.169916,-1.240041\H,0,-1.691976,-1.24
 3544,1.195711\S,0,1.576517,-0.463015,-0.088718\H,0,1.729942,-0.651319,
 1.236655\\Version=ES64L-G16RevC.01\HF=-1085.7290855\S2=0.758644\S2-1=0
 .\S2A=0.750037\RMSD=6.146e-09\Dipole=-0.2773888,-0.3706615,0.3372254\Q
 uadrupole=1.0794105,-1.2486929,0.1692824,-0.6651462,1.446989,-0.659095

 Normal termination of Gaussian 16 at Tue Apr  8 23:53:19 2025.
 Gaussian 16:  ES64L-G16RevC.01  3-Jul-2019

 ----------------------------------------------------------------------
 #t hf aug-cc-pvdz iop(5/13=1,5/36=2,99/5=2) pseudo=read geom=check gue
 ss=(read,tcheck) scf=(maxcycle=1)
 ----------------------------------------------------------------------
 -----
 title
 -----
 Structure from the checkpoint file:  "BDE49_nonexpt_1928_mol2.chk"
 Charge =  0 Multiplicity = 2

                         Standard orientation:
 ---------------------------------------------------------------------
 Center     Atomic      Atomic             Coordinates (Angstroms)
 Number     Number       Type             X           Y           Z
 ---------------------------------------------------------------------
      1         14           0       -1.688674   -0.361087    0.001935
      2         16           0        0.007857    0.970514    0.012505
      3          1           0       -1.746531   -1.169916   -1.240041
      4          1           0       -1.691976   -1.243544    1.195711
      5         16           0        1.576517   -0.463015   -0.088718
      6          1           0        1.729942   -0.651319    1.236655
 ---------------------------------------------------------------------

 SCF Done:  E(UHF) =  -1086.31780365     A.U. after    2 cycles

 The electronic state is 2-A.
 Alpha  occ. eigenvalues --  -76.26326 -75.72733 -75.70993 -13.15566 -13.10461
 Alpha  occ. eigenvalues --  -13.09548 -13.06535 -13.05246 -13.04155  -8.06331
 Alpha  occ. eigenvalues --   -8.04901  -5.59540  -2.21406  -2.21161  -2.20150
 Alpha  occ. eigenvalues --   -1.20943  -1.00218  -0.75403  -0.53202  -0.49430
 Alpha  occ. eigenvalues --   -0.42402  -0.39397  -0.30233  -0.27920  -0.22732
 Alpha virt. eigenvalues --    0.02807   0.03706   0.03916   0.05480   0.07895
 Alpha virt. eigenvalues --    0.09065   0.10174   0.11091   0.12621   0.13509
 Alpha virt. eigenvalues --    0.14337   0.15161   0.15955   0.16415   0.17433

  Beta  occ. eigenvalues --  -76.25767 -75.72635 -75.71006 -13.15434 -13.10519
  Beta  occ. eigenvalues --  -13.09047 -13.06598 -13.05233 -13.04168  -8.06219
  Beta  occ. eigenvalues --   -8.04898  -5.58664  -2.20748  -2.20522  -2.16537
  Beta  occ. eigenvalues --   -1.20449  -0.99488  -0.70942  -0.52973  -0.48569
  Beta  occ. eigenvalues --   -0.41245  -0.38030  -0.28143  -0.25134
  Beta virt. eigenvalues --    0.00688   0.03231   0.04007   0.05476   0.07156
  Beta virt. eigenvalues --    0.08704   0.09756   0.10403   0.11337   0.12738
  Beta virt. eigenvalues --    0.14029   0.15635   0.15885   0.16580   0.16752

 Mulliken charges and spin densities:
               1          2
     1  Si   4.555859   1.005568
     2  S   -1.360086  -0.066675
     3  H   -1.542027  -0.005783
     4  H   -1.518807  -0.007660
     5  S   -1.357766   0.089932
     6  H    1.222828  -0.015383
 Sum of Mulliken charges =  -0.00000   1.00000

 Dipole moment (field-independent basis, Debye):
    X=              1.0511    Y=              1.2108    Z=             -0.8863  Tot=              1.8320
                          Isotropic Fermi Contact Couplings
        Atom                 a.u.       MegaHertz       Gauss      10(-4) cm-1
     1  Si(29)             0.41948    -372.79935    -133.02408    -124.35248
     2  S(33)              0.12086      41.51387      14.81318      13.84754
     3  H(1)               0.00601      26.87981       9.59138       8.96614
     4  H(1)               0.00563      25.14558       8.97257       8.38766
     5  S(33)              0.03398      11.67172       4.16476       3.89327
     6  H(1)              -0.00074      -3.31777      -1.18386      -1.10669
 --------------------------------------------------------
       Center         ----  Spin Dipole Couplings  ----

 Normal termination of Gaussian 16 at Tue Apr  8 23:53:22 2025.
