 Gaussian 16, Revision C.01,

 ----------------------------------------------------------------------
 #t hf aug-cc-pvdz symm=none int=(grid=ultrafine) guess=(read,tcheck) s
 table=(opt,rrhf)
 ----------------------------------------------------------------------
 -----
 title
 -----
 Symbolic Z-matrix:
 Charge =  0 Multiplicity = 1

 SCF Done:  E(RHF) =  -666.126227935     A.U. after   15 cycles
 Normal termination of Gaussian 16 at Tue Apr  8 23:40:35 2025.
 Gaussian 16:  ES64L-G16RevC.01  3-Jul-2019

 ----------------------------------------------------------------------
 #t hf aug-cc-pvdz iop(5/13=1,5/36=2,99/5=2) pseudo=read geom=check gue
 ss=(read,tcheck) scf=(maxcycle=1)
 ----------------------------------------------------------------------
 -----
 title
 -----
 Structure from the checkpoint file:  "BDE49_nonexpt_1573_mol1.chk"
 Charge =  0 Multiplicity = 1

                         Standard orientation:
 ---------------------------------------------------------------------
 Center     Atomic      Atomic             Coordinates (Angstroms)
 Number     Number       Type             X           Y           Z
 ---------------------------------------------------------------------
      1         15           0        2.474966   -0.289469   -0.410841
      2          7           0        0.929662   -1.004114   -0.192931
      3          6           0       -0.354251   -0.448107   -0.103635
      4          6           0       -1.434355   -1.273485    0.252493
      5          6           0       -0.609986    0.903566   -0.375223
      6          6           0       -1.906390    1.404821   -0.290221
      7          6           0       -2.972516    0.582267    0.062582
      8          6           0       -2.723704   -0.763458    0.330497
      9          1           0       -3.978108    0.980077    0.127151
     10          1           0       -3.539377   -1.423450    0.605082
     11          1           0       -1.253276   -2.322482    0.467291
     12          1           0        0.198525    1.560830   -0.667578
     13          1           0       -2.079880    2.453339   -0.506872
     14          6           0        2.637042    0.923470    0.986372
     15          1           0        1.749113    1.535926    1.147651
     16          1           0        3.484833    1.578582    0.762457
     17          1           0        2.864707    0.378418    1.904695
     18          1           0        2.152982    0.662164   -1.415007
     19          1           0        0.953318   -2.007007   -0.088934
 ---------------------------------------------------------------------

 SCF Done:  E(RHF) =  -667.904780745     A.U. after    2 cycles

 The electronic state is 1-A.
 Alpha  occ. eigenvalues -- -105.19597 -15.74553 -11.52073 -11.45018 -11.42766
 Alpha  occ. eigenvalues --  -11.40114 -11.39984 -11.36916 -11.35853  -2.77132
 Alpha  occ. eigenvalues --   -1.57719  -1.47279  -1.45689  -1.36185  -1.22893
 Alpha  occ. eigenvalues --   -1.09063  -1.04744  -0.99617  -0.86821  -0.84259
 Alpha  occ. eigenvalues --   -0.71692  -0.69745  -0.66808  -0.59681  -0.57946
 Alpha  occ. eigenvalues --   -0.56361  -0.56131  -0.55335  -0.52915  -0.47195
 Alpha  occ. eigenvalues --   -0.44637  -0.43188  -0.33055  -0.30002  -0.27421
 Alpha  occ. eigenvalues --   -0.23298  -0.02144
 Alpha virt. eigenvalues --    0.03764   0.05007   0.05453   0.05666   0.06164
 Alpha virt. eigenvalues --    0.06576   0.07168   0.07691   0.08354   0.08962
 Alpha virt. eigenvalues --    0.10506   0.11284   0.11684   0.12016   0.12906

 Mulliken charges:
               1
     1  P    3.739631
     2  N   -4.000618
     3  C    3.181460
     4  C   -3.136765
     5  C   -2.357626
     6  C   -0.648387
     7  C   -2.874591
     8  C   -0.068554
     9  H    1.537907
    10  H    1.506237
    11  H    1.731543
    12  H    2.457465
    13  H    1.500847
    14  C   -5.617408
    15  H    1.249500
    16  H    1.274116
    17  H    1.188399
    18  H   -1.346738
    19  H    0.683585
 Sum of Mulliken charges =  -0.00000

 Dipole moment (field-independent basis, Debye):
    X=             -0.6820    Y=             -0.8010    Z=             -0.1960  Tot=              1.0701

 Test job not archived.
 1\1\GINC-SE060\SP\RHF\Aug-CC-pVDZ\C7H10N1P1\OHZDE\08-Apr-2025\0\\#t hf
  aug-cc-pvdz iop(5/13=1,5/36=2,99/5=2) pseudo=read geom=check guess=(r
 ead,tcheck) scf=(maxcycle=1)\\title\\0,1\P,0,2.474966,-0.289469,-0.410
 841\N,0,0.929662,-1.004114,-0.192931\C,0,-0.354251,-0.448107,-0.103635
 \C,0,-1.434355,-1.273485,0.252493\C,0,-0.609986,0.903566,-0.375223\C,0
 ,-1.90639,1.404821,-0.290221\C,0,-2.972516,0.582267,0.062582\C,0,-2.72
 3704,-0.763458,0.330497\H,0,-3.978108,0.980077,0.127151\H,0,-3.539377,
 -1.42345,0.605082\H,0,-1.253276,-2.322482,0.467291\H,0,0.198525,1.5608

 Normal termination of Gaussian 16 at Tue Apr  8 23:40:45 2025.
