 Gaussian 16, Revision C.01,

 ----------------------------------------------------------------------
 #t hf aug-cc-pvdz symm=none int=(grid=ultrafine) guess=(read,tcheck) s
 table=(opt,rrhf)
 ----------------------------------------------------------------------
 -----
 title
 -----
 Symbolic Z-matrix:
 Charge =  0 Multiplicity = 1

 SCF Done:  E(RHF) =  -631.952592255     A.U. after   13 cycles
 Normal termination of Gaussian 16 at Wed Apr  9 00:07:57 2025.
 Gaussian 16:  ES64L-G16RevC.01  3-Jul-2019

 ----------------------------------------------------------------------
 #t hf aug-cc-pvdz iop(5/13=1,5/36=2,99/5=2) pseudo=read geom=check gue
 ss=(read,tcheck) scf=(maxcycle=1)
 ----------------------------------------------------------------------
 -----
 title
 -----
 Structure from the checkpoint file:  "BDE49_nonexpt_2265_mol1.chk"
 Charge =  0 Multiplicity = 1

                         Standard orientation:
 ---------------------------------------------------------------------
 Center     Atomic      Atomic             Coordinates (Angstroms)
 Number     Number       Type             X           Y           Z
 ---------------------------------------------------------------------
      1          8           0        1.162386   -0.932500    0.088484
      2         14           0       -0.031005    0.167528   -0.071050
      3          6           0        2.555618   -0.650497    0.194120
      4          8           0       -0.247002    1.121149    1.259131
      5          6           0       -1.560908   -0.807374   -0.441807
      6          1           0        2.866029    0.084314   -0.554125
      7          1           0        3.099850   -1.581618    0.028971
      8          1           0        2.801009   -0.269331    1.190889
      9          6           0       -2.749163   -0.554428    0.112393
     10          1           0       -1.486933   -1.626175   -1.155765
     11          1           0       -2.884631    0.250311    0.830046
     12          1           0       -3.638537   -1.131683   -0.125891
     13          1           0       -0.485316    0.689570    2.082837
     14          8           0        0.408704    1.210989   -1.259952
     15          1           0        0.096615    2.115929   -1.191789
 ---------------------------------------------------------------------

 SCF Done:  E(RHF) =  -633.611847280     A.U. after    2 cycles

 The electronic state is 1-A.
 Alpha  occ. eigenvalues --  -76.23865 -21.07409 -21.06767 -21.03818 -11.41559
 Alpha  occ. eigenvalues --  -11.40245 -11.36308  -5.59029  -2.27163  -2.25826
 Alpha  occ. eigenvalues --   -2.23419  -1.71588  -1.65727  -1.63540  -1.13887
 Alpha  occ. eigenvalues --   -0.97969  -0.82259  -0.70550  -0.63477  -0.62313
 Alpha  occ. eigenvalues --   -0.60574  -0.59374  -0.56631  -0.53111  -0.47979
 Alpha  occ. eigenvalues --   -0.44921  -0.41572  -0.39521  -0.37569  -0.36467
 Alpha  occ. eigenvalues --   -0.34872  -0.33398
 Alpha virt. eigenvalues --    0.03364   0.05108   0.05707   0.06008   0.06102
 Alpha virt. eigenvalues --    0.06504   0.07285   0.07335   0.08434   0.08610
 Alpha virt. eigenvalues --    0.09371   0.10567   0.12570   0.14708   0.15835

 Mulliken charges:
               1
     1  O   -4.016086
     2  Si   8.785119
     3  C   -2.808136
     4  O   -3.019087
     5  C   -2.624542
     6  H    1.384190
     7  H    1.277334
     8  H    1.343689
     9  C   -2.880387
    10  H    1.170536
    11  H    1.290744
    12  H    1.360375
    13  H    0.998593
    14  O   -3.166570
    15  H    0.904228
 Sum of Mulliken charges =   0.00000

 Dipole moment (field-independent basis, Debye):
    X=             -0.2934    Y=              0.1896    Z=              0.5682  Tot=              0.6670

 Test job not archived.
 1\1\GINC-SE457\SP\RHF\Aug-CC-pVDZ\C3H8O3Si1\OHZDE\09-Apr-2025\0\\#t hf
  aug-cc-pvdz iop(5/13=1,5/36=2,99/5=2) pseudo=read geom=check guess=(r
 ead,tcheck) scf=(maxcycle=1)\\title\\0,1\O,0,1.162386,-0.9325,0.088484
 \Si,0,-0.031005,0.167528,-0.07105\C,0,2.555618,-0.650497,0.19412\O,0,-
 0.247002,1.121149,1.259131\C,0,-1.560908,-0.807374,-0.441807\H,0,2.866
 029,0.084314,-0.554125\H,0,3.09985,-1.581618,0.028971\H,0,2.801009,-0.
 269331,1.190889\C,0,-2.749163,-0.554428,0.112393\H,0,-1.486933,-1.6261
 75,-1.155765\H,0,-2.884631,0.250311,0.830046\H,0,-3.638537,-1.131683,-

 Normal termination of Gaussian 16 at Wed Apr  9 00:08:02 2025.
