 Gaussian 16, Revision C.01,

 ----------------------------------------------------------------------
 #t hf aug-cc-pvdz symm=none int=(grid=ultrafine) guess=(read,tcheck) s
 table=(opt,rrhf)
 ----------------------------------------------------------------------
 -----
 title
 -----
 Symbolic Z-matrix:
 Charge =  0 Multiplicity = 1

 SCF Done:  E(RHF) =  -292.234638715     A.U. after   13 cycles
 Normal termination of Gaussian 16 at Wed Apr  9 00:28:54 2025.
 Gaussian 16:  ES64L-G16RevC.01  3-Jul-2019

 ----------------------------------------------------------------------
 #t hf aug-cc-pvdz iop(5/13=1,5/36=2,99/5=2) pseudo=read geom=check gue
 ss=(read,tcheck) scf=(maxcycle=1)
 ----------------------------------------------------------------------
 -----
 title
 -----
 Structure from the checkpoint file:  "BDE49_nonexpt_308_mol1.chk"
 Charge =  0 Multiplicity = 1

                         Standard orientation:
 ---------------------------------------------------------------------
 Center     Atomic      Atomic             Coordinates (Angstroms)
 Number     Number       Type             X           Y           Z
 ---------------------------------------------------------------------
      1          6           0       -0.319092   -0.486421   -0.177480
      2          5           0        1.170049   -0.019679   -0.035611
      3          8           0        1.546062    1.295273   -0.040305
      4          8           0        2.194563   -0.914222    0.112823
      5          6           0       -1.382297    0.276257    0.104590
      6          1           0       -0.522243   -1.514274   -0.487398
      7          6           0       -2.820255   -0.138618    0.024078
      8          1           0       -1.221562    1.301622    0.444511
      9          1           0       -2.922898   -1.170587   -0.318145
     10          1           0       -3.376412    0.509893   -0.662376
     11          1           0       -3.309076   -0.048131    1.000650
     12          1           0        0.817726    1.887093   -0.240637
     13          1           0        1.889091   -1.822940    0.154178
 ---------------------------------------------------------------------

 SCF Done:  E(RHF) =  -293.538226543     A.U. after    2 cycles

 The electronic state is 1-A.
 Alpha  occ. eigenvalues --  -21.04869 -21.04694 -11.44150 -11.39643 -11.35898
 Alpha  occ. eigenvalues --   -7.63496  -1.80614  -1.64466  -1.21367  -1.01461
 Alpha  occ. eigenvalues --   -0.81877  -0.74088  -0.66381  -0.58937  -0.57588
 Alpha  occ. eigenvalues --   -0.56016  -0.53686  -0.49491  -0.47895  -0.45457
 Alpha  occ. eigenvalues --   -0.35547  -0.35118  -0.33405
 Alpha virt. eigenvalues --    0.02847   0.04253   0.05188   0.05749   0.06243
 Alpha virt. eigenvalues --    0.06389   0.06954   0.08067   0.08849   0.09746
 Alpha virt. eigenvalues --    0.10200   0.11176   0.12211   0.13965   0.15216

 Mulliken charges:
               1
     1  C   -3.887922
     2  B    6.714402
     3  O   -3.856807
     4  O   -4.204648
     5  C    0.852870
     6  H    1.451918
     7  C   -4.375498
     8  H    1.302024
     9  H    1.259560
    10  H    1.183179
    11  H    1.165589
    12  H    1.220057
    13  H    1.175276
 Sum of Mulliken charges =   0.00000

 Dipole moment (field-independent basis, Debye):
    X=             -2.4063    Y=             -0.2490    Z=             -0.0528  Tot=              2.4197

 Test job not archived.
 1\1\GINC-SE462\SP\RHF\Aug-CC-pVDZ\C3H7B1O2\OHZDE\09-Apr-2025\0\\#t hf
 aug-cc-pvdz iop(5/13=1,5/36=2,99/5=2) pseudo=read geom=check guess=(re
 ad,tcheck) scf=(maxcycle=1)\\title\\0,1\C,0,-0.319092,-0.486421,-0.177
 48\B,0,1.170049,-0.019679,-0.035611\O,0,1.546062,1.295273,-0.040305\O,
 0,2.194563,-0.914222,0.112823\C,0,-1.382297,0.276257,0.10459\H,0,-0.52
 2243,-1.514274,-0.487398\C,0,-2.820255,-0.138618,0.024078\H,0,-1.22156
 2,1.301622,0.444511\H,0,-2.922898,-1.170587,-0.318145\H,0,-3.376412,0.
 509893,-0.662376\H,0,-3.309076,-0.048131,1.00065\H,0,0.817726,1.887093

 Normal termination of Gaussian 16 at Wed Apr  9 00:28:57 2025.
