 Gaussian 16, Revision C.01,

 ----------------------------------------------------------------------
 #t hf aug-cc-pvdz symm=none int=(grid=ultrafine) guess=(read,tcheck) s
 table=(opt,rrhf)
 ----------------------------------------------------------------------
 -----
 title
 -----
 Symbolic Z-matrix:
 Charge =  0 Multiplicity = 1

 SCF Done:  E(RHF) =  -385.032782774     A.U. after   13 cycles

 1\1\GINC-SE036\Stability\RHF\Aug-CC-pVDZ\C6H14O2\OHZDE\08-Apr-2025\0\\
 #t hf aug-cc-pvdz symm=none int=(grid=ultrafine) guess=(read,tcheck) s
 table=(opt,rrhf)\\title\\0,1\C,0,1.662005,-0.104394,0.320361\O,0,0.540
 114,0.489667,-0.352594\O,0,-0.540114,-0.489666,-0.352594\C,0,-1.662006
 ,0.104394,0.320361\C,0,2.658018,1.040182,0.474331\C,0,-2.658018,-1.040
 183,0.47433\H,0,2.225539,1.857856,1.054229\H,0,2.949351,1.426162,-0.50
 5836\H,0,-2.225538,-1.857857,1.054228\H,0,-2.949351,-1.426163,-0.50583
 6\C,0,2.219277,-1.285807,-0.466786\H,0,1.449125,-2.044529,-0.608526\H,

 Normal termination of Gaussian 16 at Tue Apr  8 22:57:58 2025.
 Gaussian 16:  ES64L-G16RevC.01  3-Jul-2019

 ----------------------------------------------------------------------
 #t hf aug-cc-pvdz iop(5/13=1,5/36=2,99/5=2) pseudo=read geom=check gue
 ss=(read,tcheck) scf=(maxcycle=1)
 ----------------------------------------------------------------------
 -----
 title
 -----
 Structure from the checkpoint file:  "BDE49_expt_1855_mol1.chk"
 Charge =  0 Multiplicity = 1

                         Standard orientation:
 ---------------------------------------------------------------------
 Center     Atomic      Atomic             Coordinates (Angstroms)
 Number     Number       Type             X           Y           Z
 ---------------------------------------------------------------------
      1          6           0       -1.662005    0.104394    0.320361
      2          8           0       -0.540114   -0.489667   -0.352594
      3          8           0        0.540114    0.489666   -0.352594
      4          6           0        1.662006   -0.104394    0.320361
      5          6           0       -2.658018   -1.040182    0.474331
      6          6           0        2.658018    1.040183    0.474330
      7          1           0       -2.225539   -1.857856    1.054229
      8          1           0       -2.949351   -1.426162   -0.505836
      9          1           0        2.225538    1.857857    1.054228
     10          1           0        2.949351    1.426163   -0.505836
     11          6           0       -2.219277    1.285807   -0.466786
     12          1           0       -1.449125    2.044529   -0.608526
     13          1           0       -3.059178    1.739594    0.067467
     14          1           0       -2.567739    0.956038   -1.449394
     15          6           0        2.219278   -1.285806   -0.466786
     16          1           0        1.449127   -2.044530   -0.608526
     17          1           0        3.059180   -1.739593    0.067467
     18          1           0        2.567740   -0.956038   -1.449394
     19          1           0        1.325567   -0.440839    1.309464
     20          1           0        3.556308    0.686213    0.985919
     21          1           0       -1.325567    0.440839    1.309464
     22          1           0       -3.556308   -0.686211    0.985919
 ---------------------------------------------------------------------

 SCF Done:  E(RHF) =  -386.866045270     A.U. after    2 cycles

 The electronic state is 1-A.
 Alpha  occ. eigenvalues --  -21.07295 -21.07071 -11.44619 -11.43857 -11.38929
 Alpha  occ. eigenvalues --  -11.38613 -11.35401 -11.35321  -1.93543  -1.48181
 Alpha  occ. eigenvalues --   -1.16635  -1.13055  -1.00823  -1.00653  -0.83404
 Alpha  occ. eigenvalues --   -0.81098  -0.67096  -0.63005  -0.61428  -0.60444
 Alpha  occ. eigenvalues --   -0.56710  -0.56665  -0.53743  -0.53582  -0.51947
 Alpha  occ. eigenvalues --   -0.48774  -0.48345  -0.47591  -0.44587  -0.44097
 Alpha  occ. eigenvalues --   -0.37436  -0.31259  -0.26644
 Alpha virt. eigenvalues --    0.04135   0.04825   0.05009   0.05104   0.05211
 Alpha virt. eigenvalues --    0.05801   0.05929   0.06597   0.06878   0.07938
 Alpha virt. eigenvalues --    0.08406   0.08702   0.09135   0.09582   0.13267

 Mulliken charges:
               1
     1  C   -0.041724
     2  O   -2.210006
     3  O   -2.210005
     4  C   -0.041733
     5  C   -3.695041
     6  C   -3.695041
     7  H    1.324440
     8  H    1.283333
     9  H    1.324440
    10  H    1.283334
    11  C   -3.816113
    12  H    1.418267
    13  H    1.193344
    14  H    1.297034
    15  C   -3.816110
    16  H    1.418266
    17  H    1.193343
    18  H    1.297034
    19  H    2.031619
    20  H    1.214849
    21  H    2.031619
    22  H    1.214849
 Sum of Mulliken charges =   0.00000

 Dipole moment (field-independent basis, Debye):
    X=              0.0000    Y=              0.0000    Z=              0.7235  Tot=              0.7235

 Test job not archived.
 1\1\GINC-SE036\SP\RHF\Aug-CC-pVDZ\C6H14O2\OHZDE\08-Apr-2025\0\\#t hf a
 ug-cc-pvdz iop(5/13=1,5/36=2,99/5=2) pseudo=read geom=check guess=(rea
 d,tcheck) scf=(maxcycle=1)\\title\\0,1\C,0,1.662005,-0.104394,0.320361
 \O,0,0.540114,0.489667,-0.352594\O,0,-0.540114,-0.489666,-0.352594\C,0
 ,-1.662006,0.104394,0.320361\C,0,2.658018,1.040182,0.474331\C,0,-2.658
 018,-1.040183,0.47433\H,0,2.225539,1.857856,1.054229\H,0,2.949351,1.42
 6162,-0.505836\H,0,-2.225538,-1.857857,1.054228\H,0,-2.949351,-1.42616
 3,-0.505836\C,0,2.219277,-1.285807,-0.466786\H,0,1.449125,-2.044529,-0

 Normal termination of Gaussian 16 at Tue Apr  8 22:58:08 2025.
