 Gaussian 16, Revision C.01,

 ----------------------------------------------------------------------
 #t hf aug-cc-pvdz symm=none int=(grid=ultrafine) guess=(read,tcheck) s
 table=opt
 ----------------------------------------------------------------------
 -----
 title
 -----
 Symbolic Z-matrix:
 Charge =  0 Multiplicity = 2

 SCF Done:  E(UHF) =  -446.796652818     A.U. after   15 cycles
 Normal termination of Gaussian 16 at Tue Apr  8 23:45:42 2025.
 Gaussian 16:  ES64L-G16RevC.01  3-Jul-2019

 ----------------------------------------------------------------------
 #t hf aug-cc-pvdz iop(5/13=1,5/36=2,99/5=2) pseudo=read geom=check gue
 ss=(read,tcheck) scf=(maxcycle=1)
 ----------------------------------------------------------------------
 -----
 title
 -----
 Structure from the checkpoint file:  "BDE49_nonexpt_1744_mol2.chk"
 Charge =  0 Multiplicity = 2

                         Standard orientation:
 ---------------------------------------------------------------------
 Center     Atomic      Atomic             Coordinates (Angstroms)
 Number     Number       Type             X           Y           Z
 ---------------------------------------------------------------------
      1         14           0       -1.364549   -0.659540    0.081344
      2          6           0        0.458334   -0.627067   -0.439743
      3          6           0        1.355316    0.320767    0.385510
      4          1           0        0.510447   -0.355414   -1.501420
      5          1           0        0.846662   -1.650542   -0.372846
      6          6           0       -2.215080    1.014156   -0.133936
      7          1           0       -1.737315    1.780798    0.486730
      8          1           0       -3.266160    0.955280    0.159775
      9          1           0       -2.174110    1.347667   -1.174317
     10          6           0        2.822955    0.292769   -0.057761
     11          1           0        1.291992    0.051828    1.445839
     12          1           0        0.976490    1.346065    0.309125
     13          1           0        3.244446   -0.712130    0.041891
     14          1           0        3.433435    0.972613    0.543948
     15          1           0        2.923514    0.591524   -1.105708
     16          1           0       -1.474859   -1.097877    1.503747
 ---------------------------------------------------------------------

 SCF Done:  E(UHF) =  -447.771376557     A.U. after    2 cycles

 The electronic state is 2-A.
 Alpha  occ. eigenvalues --  -76.20538 -11.40935 -11.37120 -11.34862 -11.34183
 Alpha  occ. eigenvalues --   -5.54137  -2.18292  -2.16776  -2.15714  -1.20445
 Alpha  occ. eigenvalues --   -1.03847  -0.98866  -0.84482  -0.69372  -0.63420
 Alpha  occ. eigenvalues --   -0.57358  -0.55922  -0.55716  -0.53451  -0.51217
 Alpha  occ. eigenvalues --   -0.46442  -0.46243  -0.42730  -0.37779  -0.24973
 Alpha virt. eigenvalues --    0.03649   0.04794   0.05498   0.05774   0.06113
 Alpha virt. eigenvalues --    0.06308   0.06565   0.06737   0.07368   0.08254
 Alpha virt. eigenvalues --    0.08698   0.09382   0.10121   0.10875   0.12946

  Beta  occ. eigenvalues --  -76.20007 -11.40863 -11.37086 -11.34812 -11.34126
  Beta  occ. eigenvalues --   -5.53305  -2.17676  -2.16050  -2.12367  -1.20141
  Beta  occ. eigenvalues --   -1.03170  -0.98628  -0.84199  -0.65716  -0.63305
  Beta  occ. eigenvalues --   -0.57108  -0.55591  -0.54966  -0.53383  -0.50671
  Beta  occ. eigenvalues --   -0.46381  -0.45854  -0.41835  -0.36975
  Beta virt. eigenvalues --    0.03285   0.04792   0.05136   0.05824   0.06005
  Beta virt. eigenvalues --    0.06142   0.06352   0.06649   0.07272   0.08115
  Beta virt. eigenvalues --    0.08685   0.08951   0.09947   0.10612   0.11058

 Mulliken charges and spin densities:
               1          2
     1  Si   4.085002   1.107806
     2  C   -3.879697  -0.000490
     3  C   -2.844016  -0.004607
     4  H    1.468176  -0.036076
     5  H    1.407347   0.010145
     6  C   -5.121778  -0.029760
     7  H    1.300078   0.002687
     8  H    1.328931  -0.035643
     9  H    1.269705  -0.016936
    10  C   -3.947617   0.012988
    11  H    1.507219  -0.021186
    12  H    1.561694  -0.007121
    13  H    1.279550  -0.000479
    14  H    1.139449  -0.001214
    15  H    1.248113   0.002273
    16  H   -1.802155   0.017613
 Sum of Mulliken charges =   0.00000   1.00000

 Dipole moment (field-independent basis, Debye):
    X=              0.4796    Y=              0.6584    Z=             -0.4287  Tot=              0.9205
                          Isotropic Fermi Contact Couplings
        Atom                 a.u.       MegaHertz       Gauss      10(-4) cm-1
     1  Si(29)             0.43168    -383.64406    -136.89374    -127.96989
     2  C(13)              0.01676      18.84087       6.72289       6.28464
     3  C(13)              0.01745      19.61628       6.99958       6.54329
     4  H(1)               0.00014       0.64684       0.23081       0.21576
     5  H(1)               0.00050       2.21296       0.78964       0.73816
     6  C(13)              0.01805      20.28694       7.23888       6.76699
     7  H(1)               0.00755      33.74068      12.03952      11.25468
     8  H(1)               0.00039       1.74435       0.62243       0.58185

 Normal termination of Gaussian 16 at Tue Apr  8 23:45:47 2025.
