 Gaussian 16, Revision C.01,

 ----------------------------------------------------------------------
 #t hf aug-cc-pvdz symm=none int=(grid=ultrafine) guess=(read,tcheck) s
 table=(opt,rrhf)
 ----------------------------------------------------------------------
 -----
 title
 -----
 Symbolic Z-matrix:
 Charge =  0 Multiplicity = 1

 SCF Done:  E(RHF) =  -312.591758983     A.U. after   13 cycles
 Normal termination of Gaussian 16 at Wed Apr  9 00:38:32 2025.
 Gaussian 16:  ES64L-G16RevC.01  3-Jul-2019

 ----------------------------------------------------------------------
 #t hf aug-cc-pvdz iop(5/13=1,5/36=2,99/5=2) pseudo=read geom=check gue
 ss=(read,tcheck) scf=(maxcycle=1)
 ----------------------------------------------------------------------
 -----
 title
 -----
 Structure from the checkpoint file:  "BDE49_nonexpt_567_mol1.chk"
 Charge =  0 Multiplicity = 1

                         Standard orientation:
 ---------------------------------------------------------------------
 Center     Atomic      Atomic             Coordinates (Angstroms)
 Number     Number       Type             X           Y           Z
 ---------------------------------------------------------------------
      1          6           0       -0.730179   -0.023405    0.000006
      2          5           0        1.743778    0.805428   -0.000014
      3          8           0        2.286851   -0.462503   -0.000016
      4          6           0       -0.629366   -0.900031    1.262451
      5          1           0       -0.708325   -0.282701    2.161427
      6          1           0        0.327469   -1.423026    1.288344
      7          6           0       -0.629384   -0.900038   -1.262437
      8          1           0        0.327451   -1.423032   -1.288341
      9          1           0       -0.708355   -0.282712   -2.161415
     10          1           0       -1.432441   -1.642972   -1.281989
     11          1           0       -1.432423   -1.642966    1.282018
     12          6           0       -2.068909    0.729457    0.000013
     13          1           0       -2.906309    0.028065    0.000021
     14          1           0       -2.159606    1.363014   -0.888069
     15          1           0       -2.159594    1.363018    0.888093
     16          7           0        0.352927    0.987005   -0.000005
     17          1           0        3.245446   -0.443424   -0.000024
     18          1           0        2.447625    1.775413   -0.000023
     19          1           0        0.021903    1.939273   -0.000005
 ---------------------------------------------------------------------

 SCF Done:  E(RHF) =  -314.093461741     A.U. after    2 cycles

 The electronic state is 1-A.
 Alpha  occ. eigenvalues --  -21.04614 -15.68947 -11.43194 -11.38716 -11.37487
 Alpha  occ. eigenvalues --  -11.34030  -7.61969  -1.73541  -1.38377  -1.16222
 Alpha  occ. eigenvalues --   -1.00506  -0.99734  -0.83148  -0.74898  -0.65720
 Alpha  occ. eigenvalues --   -0.60726  -0.60459  -0.58254  -0.55430  -0.54417
 Alpha  occ. eigenvalues --   -0.51068  -0.50733  -0.47250  -0.46158  -0.41961
 Alpha  occ. eigenvalues --   -0.41828  -0.36764  -0.32138
 Alpha virt. eigenvalues --    0.03480   0.03890   0.04404   0.04974   0.06203
 Alpha virt. eigenvalues --    0.06341   0.06420   0.06831   0.07091   0.08639
 Alpha virt. eigenvalues --    0.09038   0.09094   0.09525   0.10240   0.11308

 Mulliken charges:
               1
     1  C    5.238344
     2  B    7.255767
     3  O   -3.474898
     4  C   -4.577402
     5  H    1.275776
     6  H    1.344085
     7  C   -4.577406
     8  H    1.344086
     9  H    1.275775
    10  H    1.176624
    11  H    1.176623
    12  C   -3.928486
    13  H    1.171141
    14  H    1.262083
    15  H    1.262083
    16  N   -5.644409
    17  H    1.184453
    18  H   -4.086607
    19  H    1.322367
 Sum of Mulliken charges =   0.00000

 Dipole moment (field-independent basis, Debye):
    X=             -0.0183    Y=              0.0479    Z=              0.0000  Tot=              0.0513

 Test job not archived.
 1\1\GINC-SE343\SP\RHF\Aug-CC-pVDZ\C4H12B1N1O1\OHZDE\09-Apr-2025\0\\#t
 hf aug-cc-pvdz iop(5/13=1,5/36=2,99/5=2) pseudo=read geom=check guess=
 (read,tcheck) scf=(maxcycle=1)\\title\\0,1\C,0,-0.730179,-0.023405,0.0
 00006\B,0,1.743778,0.805428,-0.000014\O,0,2.286851,-0.462503,-0.000016
 \C,0,-0.629366,-0.900031,1.262451\H,0,-0.708325,-0.282701,2.161427\H,0
 ,0.327469,-1.423026,1.288344\C,0,-0.629384,-0.900038,-1.262437\H,0,0.3
 27451,-1.423032,-1.288341\H,0,-0.708355,-0.282712,-2.161415\H,0,-1.432
 441,-1.642972,-1.281989\H,0,-1.432423,-1.642966,1.282018\C,0,-2.068909

 Normal termination of Gaussian 16 at Wed Apr  9 00:38:39 2025.
