 Gaussian 16, Revision C.01,

 ----------------------------------------------------------------------
 #t hf aug-cc-pvdz symm=none int=(grid=ultrafine) guess=(read,tcheck) s
 table=(opt,rrhf)
 ----------------------------------------------------------------------
 -----
 title
 -----
 Symbolic Z-matrix:
 Charge =  0 Multiplicity = 1

 SCF Done:  E(RHF) =  -101.339937940     A.U. after   11 cycles
 Normal termination of Gaussian 16 at Wed Apr  9 00:34:44 2025.
 Gaussian 16:  ES64L-G16RevC.01  3-Jul-2019

 ----------------------------------------------------------------------
 #t hf aug-cc-pvdz iop(5/13=1,5/36=2,99/5=2) pseudo=read geom=check gue
 ss=(read,tcheck) scf=(maxcycle=1)
 ----------------------------------------------------------------------
 -----
 title
 -----
 Structure from the checkpoint file:  "BDE49_nonexpt_451_mol1.chk"
 Charge =  0 Multiplicity = 1

                         Standard orientation:
 ---------------------------------------------------------------------
 Center     Atomic      Atomic             Coordinates (Angstroms)
 Number     Number       Type             X           Y           Z
 ---------------------------------------------------------------------
      1          1           0       -1.367019   -0.964764    0.000012
      2          1           0       -1.206052    1.121987    0.000011
      3          8           0        0.627785   -0.127064    0.000003
      4          5           0       -0.712675    0.031192   -0.000011
      5          1           0        1.114166    0.703330    0.000009
 ---------------------------------------------------------------------

 SCF Done:  E(RHF) =  -101.783776199     A.U. after    2 cycles

 The electronic state is 1-A.
 Alpha  occ. eigenvalues --  -21.07063  -7.62521  -1.74758  -0.81369  -0.62427
 Alpha  occ. eigenvalues --   -0.49788  -0.43167  -0.40184
 Alpha virt. eigenvalues --    0.03130   0.04337   0.04708   0.05035   0.09545
 Alpha virt. eigenvalues --    0.11277   0.11909   0.14948   0.17934   0.23268
 Alpha virt. eigenvalues --    0.23453   0.24152   0.25261   0.26163   0.28905

 Mulliken charges:
               1
     1  H   -2.821649
     2  H   -2.623033
     3  O   -3.074827
     4  B    7.407089
     5  H    1.112421
 Sum of Mulliken charges =  -0.00000

 Dipole moment (field-independent basis, Debye):
    X=              0.9243    Y=              0.9146    Z=             -0.0000  Tot=              1.3003

 Test job not archived.
 1\1\GINC-SE435\SP\RHF\Aug-CC-pVDZ\B1H3O1\OHZDE\09-Apr-2025\0\\#t hf au
 g-cc-pvdz iop(5/13=1,5/36=2,99/5=2) pseudo=read geom=check guess=(read
 ,tcheck) scf=(maxcycle=1)\\title\\0,1\H,0,-1.367019,-0.964764,0.000012
 \H,0,-1.206052,1.121987,0.000011\O,0,0.627785,-0.127064,0.000003\B,0,-
 0.712675,0.031192,-0.000011\H,0,1.114166,0.70333,0.000009\\Version=ES6
 4L-G16RevC.01\State=1-A\HF=-101.7837762\RMSD=2.762e-01\Dipole=0.363655
 1,0.3598302,-0.0000107\Quadrupole=-0.4822323,-0.2132715,0.6955037,1.32
 4348,0.0000428,0.0000095\PG=C01 [X(B1H3O1)]\\@

 Normal termination of Gaussian 16 at Wed Apr  9 00:34:45 2025.
