 Gaussian 16, Revision C.01,

 ----------------------------------------------------------------------
 #t hf aug-cc-pvdz symm=none int=(grid=ultrafine) guess=(read,tcheck) s
 table=(opt,rrhf)
 ----------------------------------------------------------------------
 -----
 title
 -----
 Symbolic Z-matrix:
 Charge =  0 Multiplicity = 1

 SCF Done:  E(RHF) =  -824.661648112     A.U. after   16 cycles
 Normal termination of Gaussian 16 at Tue Apr  8 23:39:14 2025.
 Gaussian 16:  ES64L-G16RevC.01  3-Jul-2019

 ----------------------------------------------------------------------
 #t hf aug-cc-pvdz iop(5/13=1,5/36=2,99/5=2) pseudo=read geom=check gue
 ss=(read,tcheck) scf=(maxcycle=1)
 ----------------------------------------------------------------------
 -----
 title
 -----
 Structure from the checkpoint file:  "BDE49_nonexpt_1548_mol1.chk"
 Charge =  0 Multiplicity = 1

                         Standard orientation:
 ---------------------------------------------------------------------
 Center     Atomic      Atomic             Coordinates (Angstroms)
 Number     Number       Type             X           Y           Z
 ---------------------------------------------------------------------
      1          6           0        0.417981   -0.155443    0.515612
      2          7           0       -2.357027    0.166065   -0.185752
      3          9           0       -2.204857   -0.780665   -1.223878
      4          9           0       -1.802967    1.331232   -0.765751
      5          6           0        1.138345   -1.273904    0.073029
      6          6           0        1.022126    1.109839    0.465273
      7          6           0        2.433722   -1.131218   -0.417060
      8          6           0        3.024597    0.129215   -0.459557
      9          6           0        2.319365    1.248044   -0.016012
     10          1           0        2.779842    2.228826   -0.050164
     11          1           0        0.475045    1.983612    0.796968
     12          1           0        2.980845   -2.001775   -0.759978
     13          1           0        4.035297    0.241262   -0.835575
     14          1           0        0.683234   -2.257555    0.114425
     15         15           0       -1.271960   -0.442405    1.141142
     16          1           0       -1.442073    0.764948    1.856407
 ---------------------------------------------------------------------

 SCF Done:  E(RHF) =  -826.865458214     A.U. after    2 cycles

 The electronic state is 1-A.
 Alpha  occ. eigenvalues -- -105.22954 -29.28798 -29.28606 -15.87336 -11.53219
 Alpha  occ. eigenvalues --  -11.44803 -11.44584 -11.42664 -11.42013 -11.38026
 Alpha  occ. eigenvalues --   -2.80704  -1.60151  -1.55425  -1.50649  -1.35844
 Alpha  occ. eigenvalues --   -1.33676  -1.10892  -1.09311  -0.88098  -0.86984
 Alpha  occ. eigenvalues --   -0.80308  -0.78380  -0.71344  -0.64463  -0.63313
 Alpha  occ. eigenvalues --   -0.59991  -0.58369  -0.52781  -0.51794  -0.46503
 Alpha  occ. eigenvalues --   -0.46153  -0.42713  -0.39382  -0.35460  -0.34625
 Alpha  occ. eigenvalues --   -0.29353  -0.28481  -0.25729  -0.20524  -0.16411
 Alpha  occ. eigenvalues --   -0.02961
 Alpha virt. eigenvalues --    0.03429   0.04898   0.05099   0.06152   0.06847
 Alpha virt. eigenvalues --    0.07578   0.08583   0.09461   0.10588   0.11097
 Alpha virt. eigenvalues --    0.11789   0.12332   0.13593   0.13857   0.14163

 Mulliken charges:
               1
     1  C    2.760476
     2  N   -0.240777
     3  F   -0.277217
     4  F   -0.236156
     5  C   -3.998019
     6  C   -3.221256
     7  C   -0.914838
     8  C   -1.979862
     9  C   -0.275834
    10  H    1.483419
    11  H    1.841778
    12  H    1.519711
    13  H    1.464727
    14  H    1.938439
    15  P    1.421346
    16  H   -1.285937
 Sum of Mulliken charges =  -0.00000

 Dipole moment (field-independent basis, Debye):
    X=              2.1247    Y=              0.1482    Z=             -2.3363  Tot=              3.1614

 Test job not archived.
 1\1\GINC-SE402\SP\RHF\Aug-CC-pVDZ\C6H6F2N1P1\OHZDE\08-Apr-2025\0\\#t h
 f aug-cc-pvdz iop(5/13=1,5/36=2,99/5=2) pseudo=read geom=check guess=(
 read,tcheck) scf=(maxcycle=1)\\title\\0,1\C,0,0.417981,-0.155443,0.515
 612\N,0,-2.357027,0.166065,-0.185752\F,0,-2.204857,-0.780665,-1.223878
 \F,0,-1.802967,1.331232,-0.765751\C,0,1.138345,-1.273904,0.073029\C,0,
 1.022126,1.109839,0.465273\C,0,2.433722,-1.131218,-0.41706\C,0,3.02459
 7,0.129215,-0.459557\C,0,2.319365,1.248044,-0.016012\H,0,2.779842,2.22
 8826,-0.050164\H,0,0.475045,1.983612,0.796968\H,0,2.980845,-2.001775,-

 Normal termination of Gaussian 16 at Tue Apr  8 23:39:22 2025.
