 Gaussian 16, Revision C.01,

 ----------------------------------------------------------------------
 #t hf aug-cc-pvdz symm=none int=(grid=ultrafine) guess=(read,tcheck) s
 table=opt
 ----------------------------------------------------------------------
 -----
 title
 -----
 Symbolic Z-matrix:
 Charge =  0 Multiplicity = 2

 SCF Done:  E(UHF) =  -1013.16972037     A.U. after   25 cycles
 Normal termination of Gaussian 16 at Wed Apr  9 00:27:03 2025.
 Gaussian 16:  ES64L-G16RevC.01  3-Jul-2019

 ----------------------------------------------------------------------
 #t hf aug-cc-pvdz iop(5/13=1,5/36=2,99/5=2) pseudo=read geom=check gue
 ss=(read,tcheck) scf=(maxcycle=1)
 ----------------------------------------------------------------------
 -----
 title
 -----
 Structure from the checkpoint file:  "BDE49_nonexpt_2731_mol2.chk"
 Charge =  0 Multiplicity = 2

                         Standard orientation:
 ---------------------------------------------------------------------
 Center     Atomic      Atomic             Coordinates (Angstroms)
 Number     Number       Type             X           Y           Z
 ---------------------------------------------------------------------
      1         16           0        0.956547    1.480677    0.038578
      2          6           0        0.635925   -0.331745    0.015747
      3          6           0        1.810754   -0.952414   -0.775479
      4          1           0        1.863232   -0.566806   -1.795925
      5          1           0        1.681928   -2.038912   -0.822672
      6          1           0        2.760230   -0.747319   -0.277731
      7          6           0        0.598488   -0.898205    1.441915
      8          1           0        1.548690   -0.716016    1.945551
      9          1           0        0.420108   -1.979121    1.412310
     10          1           0       -0.196001   -0.440095    2.031478
     11          6           0       -0.652628   -0.632410   -0.759275
     12         17           0       -2.135172    0.095398   -0.004921
     13          1           0       -0.836415   -1.707280   -0.796157
     14          1           0       -0.603834   -0.228410   -1.767880
 ---------------------------------------------------------------------

 SCF Done:  E(UHF) =  -1014.41827337     A.U. after    2 cycles

 The electronic state is 2-A.
 Alpha  occ. eigenvalues --  -99.87949 -75.70475 -13.13531 -13.08844 -13.06026
 Alpha  occ. eigenvalues --  -11.46758 -11.44148 -11.40730 -11.37848 -10.45203
 Alpha  occ. eigenvalues --   -9.65141  -9.64489  -9.64395  -8.04066  -1.37008
 Alpha  occ. eigenvalues --   -1.25789  -1.06326  -1.02921  -1.00882  -0.79649
 Alpha  occ. eigenvalues --   -0.66989  -0.64863  -0.63405  -0.59743  -0.56689
 Alpha  occ. eigenvalues --   -0.54444  -0.52570  -0.49363  -0.46798  -0.45446
 Alpha  occ. eigenvalues --   -0.38297  -0.29630  -0.25209
 Alpha virt. eigenvalues --    0.02838   0.05325   0.05475   0.05765   0.06006
 Alpha virt. eigenvalues --    0.06552   0.06715   0.07141   0.07863   0.09107
 Alpha virt. eigenvalues --    0.11399   0.13201   0.13869   0.13962   0.15342

  Beta  occ. eigenvalues --  -99.87943 -75.69479 -13.12874 -13.05460 -13.02846
  Beta  occ. eigenvalues --  -11.46775 -11.44202 -11.40654 -11.37823 -10.45196
  Beta  occ. eigenvalues --   -9.65142  -9.64480  -9.64370  -8.02952  -1.36554
  Beta  occ. eigenvalues --   -1.24931  -1.02739  -1.00862  -0.98935  -0.78405
  Beta  occ. eigenvalues --   -0.66652  -0.64522  -0.63215  -0.59352  -0.56315
  Beta  occ. eigenvalues --   -0.54396  -0.52489  -0.49081  -0.46484  -0.45372
  Beta  occ. eigenvalues --   -0.37581  -0.23642
  Beta virt. eigenvalues --    0.02669   0.03751   0.05414   0.05715   0.05968
  Beta virt. eigenvalues --    0.06172   0.06684   0.07153   0.07192   0.08006
  Beta virt. eigenvalues --    0.09195   0.11490   0.13509   0.13947   0.14082

 Mulliken charges and spin densities:
               1          2
     1  S    0.086481   1.211122
     2  C    1.263815  -0.470895
     3  C   -4.003638   0.132805
     4  H    1.271148  -0.007388
     5  H    1.254097   0.005731
     6  H    1.254389  -0.007917
     7  C   -3.976216   0.103209
     8  H    1.328229  -0.018470
     9  H    1.180225   0.003685
    10  H    1.210235  -0.010989
    11  C   -3.991576   0.048384
    12  Cl  -0.035450   0.027198
    13  H    1.537813   0.001222
    14  H    1.620446  -0.017697
 Sum of Mulliken charges =  -0.00000   1.00000

 Dipole moment (field-independent basis, Debye):
    X=              2.2054    Y=             -0.8057    Z=             -0.6660  Tot=              2.4406
                          Isotropic Fermi Contact Couplings
        Atom                 a.u.       MegaHertz       Gauss      10(-4) cm-1
     1  S(33)              0.25723      88.35079      31.52576      29.47065
     2  C(13)             -0.01662     -18.68527      -6.66737      -6.23273
     3  C(13)              0.03443      38.70401      13.81055      12.91027
     4  H(1)               0.00008       0.35452       0.12650       0.11825
     5  H(1)               0.00370      16.53411       5.89978       5.51519
     6  H(1)               0.00029       1.27932       0.45649       0.42674
     7  C(13)              0.00519       5.83213       2.08105       1.94539
     8  H(1)              -0.00022      -0.96442      -0.34413      -0.32170

 Normal termination of Gaussian 16 at Wed Apr  9 00:27:09 2025.
