 Gaussian 16, Revision C.01,

 ----------------------------------------------------------------------
 #t hf aug-cc-pvdz symm=none int=(grid=ultrafine) guess=(read,tcheck) s
 table=opt
 ----------------------------------------------------------------------
 -----
 title
 -----
 Symbolic Z-matrix:
 Charge =  0 Multiplicity = 2

 SCF Done:  E(UHF) =  -437.127920326     A.U. after   15 cycles
 Normal termination of Gaussian 16 at Tue Apr  8 22:46:27 2025.
 Gaussian 16:  ES64L-G16RevC.01  3-Jul-2019

 ----------------------------------------------------------------------
 #t hf aug-cc-pvdz iop(5/13=1,5/36=2,99/5=2) pseudo=read geom=check gue
 ss=(read,tcheck) scf=(maxcycle=1)
 ----------------------------------------------------------------------
 -----
 title
 -----
 Structure from the checkpoint file:  "BDE49_expt_1561_mol2.chk"
 Charge =  0 Multiplicity = 2

                         Standard orientation:
 ---------------------------------------------------------------------
 Center     Atomic      Atomic             Coordinates (Angstroms)
 Number     Number       Type             X           Y           Z
 ---------------------------------------------------------------------
      1         16           0       -0.694478    0.000001   -0.001970
      2          6           0        1.111007    0.000004   -0.008869
      3          1           0        1.510907    0.899423   -0.478681
      4          1           0        1.510888   -0.899275   -0.478969
      5          1           0        1.423805   -0.000180    1.042379
 ---------------------------------------------------------------------

 SCF Done:  E(UHF) =  -437.529243836     A.U. after    2 cycles

 The electronic state is 2-A.
 Alpha  occ. eigenvalues --  -75.70347 -13.08508 -13.03888 -13.01748 -11.40038
 Alpha  occ. eigenvalues --   -8.03936  -1.18992  -0.93116  -0.59742  -0.59483
 Alpha  occ. eigenvalues --   -0.43130  -0.29067  -0.24182
 Alpha virt. eigenvalues --    0.02423   0.05893   0.05926   0.06299   0.12208
 Alpha virt. eigenvalues --    0.14633   0.15313   0.15442   0.16167   0.17255
 Alpha virt. eigenvalues --    0.21446   0.26503   0.26716   0.29376   0.31761

  Beta  occ. eigenvalues --  -75.69363 -13.07932 -13.01166 -12.97981 -11.40160
  Beta  occ. eigenvalues --   -8.02835  -1.14607  -0.87395  -0.59321  -0.58062
  Beta  occ. eigenvalues --   -0.42140  -0.22580
  Beta virt. eigenvalues --    0.02492   0.04540   0.05937   0.06342   0.06591
  Beta virt. eigenvalues --    0.12483   0.15400   0.15598   0.15849   0.17422
  Beta virt. eigenvalues --    0.19367   0.22148   0.27157   0.27217   0.30654

 Mulliken charges and spin densities:
               1          2
     1  S    0.577283   1.128280
     2  C   -4.556277  -0.146226
     3  H    1.328783   0.002173
     4  H    1.328786   0.002176
     5  H    1.321426   0.013596
 Sum of Mulliken charges =  -0.00000   1.00000

 Dipole moment (field-independent basis, Debye):
    X=              0.1605    Y=             -0.0000    Z=              0.0437  Tot=              0.1664
                          Isotropic Fermi Contact Couplings
        Atom                 a.u.       MegaHertz       Gauss      10(-4) cm-1
     1  S(33)              0.27128      93.17710      33.24791      31.08054
     2  C(13)             -0.01545     -17.36949      -6.19787      -5.79384
     3  H(1)               0.00357      15.95182       5.69201       5.32096
     4  H(1)               0.00357      15.96278       5.69592       5.32461
     5  H(1)               0.01537      68.72041      24.52115      22.92266
 --------------------------------------------------------
       Center         ----  Spin Dipole Couplings  ----
                      3XX-RR        3YY-RR        3ZZ-RR

 Normal termination of Gaussian 16 at Tue Apr  8 22:46:28 2025.
