 Gaussian 16, Revision C.01,

 ----------------------------------------------------------------------
 #t hf aug-cc-pvdz symm=none int=(grid=ultrafine) guess=(read,tcheck) s
 table=(opt,rrhf)
 ----------------------------------------------------------------------
 -----
 title
 -----
 Symbolic Z-matrix:
 Charge =  0 Multiplicity = 1

 SCF Done:  E(RHF) =  -2255.09139668     A.U. after   11 cycles
 Normal termination of Gaussian 16 at Wed Apr  9 00:09:41 2025.
 Gaussian 16:  ES64L-G16RevC.01  3-Jul-2019

 ----------------------------------------------------------------------
 #t hf aug-cc-pvdz iop(5/13=1,5/36=2,99/5=2) pseudo=read geom=check gue
 ss=(read,tcheck) scf=(maxcycle=1)
 ----------------------------------------------------------------------
 -----
 title
 -----
 Structure from the checkpoint file:  "BDE49_nonexpt_2325_mol1.chk"
 Charge =  0 Multiplicity = 1

                         Standard orientation:
 ---------------------------------------------------------------------
 Center     Atomic      Atomic             Coordinates (Angstroms)
 Number     Number       Type             X           Y           Z
 ---------------------------------------------------------------------
      1         14           0        1.618905   -0.000021   -0.000100
      2         14           0       -0.720238   -0.000003   -0.000035
      3         17           0       -1.402130   -0.481888    1.875426
      4         17           0       -1.402479   -1.383178   -1.354987
      5          9           0        2.182963    0.368646   -1.434106
      6          9           0        2.182742    1.057585    1.036239
      7         17           0       -1.402329    1.865101   -0.520284
      8          9           0        2.182808   -1.426258    0.397787
 ---------------------------------------------------------------------

 SCF Done:  E(RHF) =  -2257.12339160     A.U. after    2 cycles

 The electronic state is 1-A.
 Alpha  occ. eigenvalues --  -99.92676 -99.92675 -99.92671 -76.36887 -76.34364
 Alpha  occ. eigenvalues --  -29.31593 -29.31585 -29.31585 -10.50157 -10.50156
 Alpha  occ. eigenvalues --  -10.50070  -9.69977  -9.69976  -9.69972  -9.69478
 Alpha  occ. eigenvalues --   -9.69478  -9.69342  -9.69300  -9.69299  -9.69188
 Alpha  occ. eigenvalues --   -5.71082  -5.70555  -2.35319  -2.35318  -2.32445
 Alpha  occ. eigenvalues --   -2.32445  -2.30882  -2.29998  -1.36121  -1.31851
 Alpha  occ. eigenvalues --   -1.31851  -1.02927  -0.81917  -0.74411  -0.74411
 Alpha  occ. eigenvalues --   -0.64000  -0.64000  -0.62473  -0.58571  -0.58571
 Alpha  occ. eigenvalues --   -0.55491  -0.55490  -0.53657  -0.52976  -0.44549
 Alpha  occ. eigenvalues --   -0.44549  -0.44142  -0.38522  -0.38521  -0.33475
 Alpha  occ. eigenvalues --   -0.32461  -0.32460  -0.30700
 Alpha virt. eigenvalues --    0.03707   0.05742   0.05742   0.05914   0.07056
 Alpha virt. eigenvalues --    0.08260   0.08260   0.08781   0.09378   0.09379
 Alpha virt. eigenvalues --    0.12249   0.12703   0.12703   0.15019   0.15019

 Mulliken charges:
               1
     1  Si   3.558674
     2  Si   0.656674
     3  Cl  -0.718484
     4  Cl  -0.718520
     5  F   -0.686842
     6  F   -0.686418
     7  Cl  -0.718504
     8  F   -0.686581
 Sum of Mulliken charges =  -0.00000

 Dipole moment (field-independent basis, Debye):
    X=              4.4007    Y=             -0.0000    Z=             -0.0000  Tot=              4.4007

 Test job not archived.
 1\1\GINC-SE344\SP\RHF\Aug-CC-pVDZ\Cl3F3Si2\OHZDE\09-Apr-2025\0\\#t hf
 aug-cc-pvdz iop(5/13=1,5/36=2,99/5=2) pseudo=read geom=check guess=(re
 ad,tcheck) scf=(maxcycle=1)\\title\\0,1\Si,0,-1.618905,-0.000026,0.000
 099\Si,0,0.720238,-0.000005,0.000035\Cl,0,1.40213,-0.392952,-1.896056\
 Cl,0,1.402479,-1.44551,1.288283\F,0,-2.182963,0.300638,1.449889\F,0,-2
 .182742,1.105254,-0.985236\Cl,0,1.402329,1.838503,0.60762\F,0,-2.18280
 8,-1.405922,-0.464573\\Version=ES64L-G16RevC.01\State=1-A\HF=-2257.123
 3916\RMSD=4.246e-02\Dipole=-1.7313547,-0.0000066,0.0000173\Quadrupole=

 Normal termination of Gaussian 16 at Wed Apr  9 00:09:45 2025.
