 Gaussian 16, Revision C.01,

 ----------------------------------------------------------------------
 #t hf aug-cc-pvdz symm=none int=(grid=ultrafine) guess=(read,tcheck) s
 table=(opt,rrhf)
 ----------------------------------------------------------------------
 -----
 title
 -----
 Symbolic Z-matrix:
 Charge =  0 Multiplicity = 1

 SCF Done:  E(RHF) =  -1049.76144537     A.U. after   14 cycles
 Normal termination of Gaussian 16 at Tue Apr  8 22:50:32 2025.
 Gaussian 16:  ES64L-G16RevC.01  3-Jul-2019

 ----------------------------------------------------------------------
 #t hf aug-cc-pvdz iop(5/13=1,5/36=2,99/5=2) pseudo=read geom=check gue
 ss=(read,tcheck) scf=(maxcycle=1)
 ----------------------------------------------------------------------
 -----
 title
 -----
 Structure from the checkpoint file:  "BDE49_expt_1707_mol1.chk"
 Charge =  0 Multiplicity = 1

                         Standard orientation:
 ---------------------------------------------------------------------
 Center     Atomic      Atomic             Coordinates (Angstroms)
 Number     Number       Type             X           Y           Z
 ---------------------------------------------------------------------
      1          6           0        1.432586   -0.010476    0.087056
      2          6           0        0.034492   -0.000440    0.483609
      3          7           0        2.548145   -0.017003   -0.200066
      4         17           0       -0.792514   -1.482420   -0.105624
      5         17           0       -0.771261    1.493264   -0.105539
      6          1           0       -0.055297    0.000170    1.566249
 ---------------------------------------------------------------------

 SCF Done:  E(RHF) =  -1050.82954331     A.U. after    2 cycles

 The electronic state is 1-A.
 Alpha  occ. eigenvalues --  -99.93552 -99.93546 -15.80045 -11.56938 -11.46650
 Alpha  occ. eigenvalues --  -10.50889 -10.50749  -9.70727  -9.70607  -9.69920
 Alpha  occ. eigenvalues --   -9.69904  -9.69812  -9.69799  -1.45256  -1.32233
 Alpha  occ. eigenvalues --   -1.31874  -1.08289  -0.79964  -0.72915  -0.69698
 Alpha  occ. eigenvalues --   -0.58357  -0.56257  -0.54881  -0.52679  -0.51730
 Alpha  occ. eigenvalues --   -0.47174  -0.47147
 Alpha virt. eigenvalues --   -0.00027   0.03276   0.04825   0.07914   0.08720
 Alpha virt. eigenvalues --    0.10304   0.11706   0.12562   0.12809   0.13343
 Alpha virt. eigenvalues --    0.14217   0.14280   0.15639   0.16877   0.17430

 Mulliken charges:
               1
     1  C    3.065171
     2  C   -3.321512
     3  N   -2.316903
     4  Cl   0.351894
     5  Cl   0.351840
     6  H    1.869510
 Sum of Mulliken charges =  -0.00000

 Dipole moment (field-independent basis, Debye):
    X=             -1.4178    Y=              0.0092    Z=              1.4695  Tot=              2.0420

 Test job not archived.
 1\1\GINC-SE072\SP\RHF\Aug-CC-pVDZ\C2H1Cl2N1\OHZDE\08-Apr-2025\0\\#t hf
  aug-cc-pvdz iop(5/13=1,5/36=2,99/5=2) pseudo=read geom=check guess=(r
 ead,tcheck) scf=(maxcycle=1)\\title\\0,1\C,0,1.432586,-0.010471,0.0870
 56\C,0,0.034492,-0.00044,0.483609\N,0,2.548145,-0.016993,-0.200066\Cl,
 0,-0.792509,-1.482423,-0.105624\Cl,0,-0.771267,1.493261,-0.105539\H,0,
 -0.055297,0.00017,1.566249\\Version=ES64L-G16RevC.01\State=1-A\HF=-105
 0.8295433\RMSD=1.687e-01\Dipole=-0.5577922,0.0036328,0.5781654\Quadrup
 ole=-4.0653351,1.8942219,2.1711132,0.0398905,1.0717958,-0.0077332\PG=C

 Normal termination of Gaussian 16 at Tue Apr  8 22:50:34 2025.
