 Gaussian 16, Revision C.01,

 ----------------------------------------------------------------------
 #t hf aug-cc-pvdz symm=none int=(grid=ultrafine) guess=(read,tcheck) s
 table=(opt,rrhf)
 ----------------------------------------------------------------------
 -----
 title
 -----
 Symbolic Z-matrix:
 Charge =  0 Multiplicity = 1

 SCF Done:  E(RHF) =  -574.053416317     A.U. after   13 cycles
 Normal termination of Gaussian 16 at Tue Apr  8 22:57:42 2025.
 Gaussian 16:  ES64L-G16RevC.01  3-Jul-2019

 ----------------------------------------------------------------------
 #t hf aug-cc-pvdz iop(5/13=1,5/36=2,99/5=2) pseudo=read geom=check gue
 ss=(read,tcheck) scf=(maxcycle=1)
 ----------------------------------------------------------------------
 -----
 title
 -----
 Structure from the checkpoint file:  "BDE49_expt_1871_mol1.chk"
 Charge =  0 Multiplicity = 1

                         Standard orientation:
 ---------------------------------------------------------------------
 Center     Atomic      Atomic             Coordinates (Angstroms)
 Number     Number       Type             X           Y           Z
 ---------------------------------------------------------------------
      1          8           0       -0.621919    0.354875   -0.835434
      2          8           0        0.621913   -0.355243   -0.835262
      3          6           0        1.465808    0.203322    0.086099
      4          6           0       -1.465853   -0.203382    0.086073
      5          9           0       -2.598625    0.462498   -0.071040
      6          8           0       -1.261360   -1.069533    0.850850
      7          8           0        1.261372    1.069914    0.850391
      8          9           0        2.598650   -0.462470   -0.070892
 ---------------------------------------------------------------------

 SCF Done:  E(RHF) =  -576.209655821     A.U. after    2 cycles

 The electronic state is 1-A.
 Alpha  occ. eigenvalues --  -29.36653 -29.36649 -21.21766 -21.21505 -21.13072
 Alpha  occ. eigenvalues --  -21.13044 -11.62683 -11.62500  -2.11258  -1.83046
 Alpha  occ. eigenvalues --   -1.78897  -1.60186  -1.12513  -1.03789  -0.80725
 Alpha  occ. eigenvalues --   -0.77372  -0.68005  -0.66444  -0.66334  -0.61861
 Alpha  occ. eigenvalues --   -0.53964  -0.47885  -0.47203  -0.44264  -0.42120
 Alpha  occ. eigenvalues --   -0.37009  -0.36015  -0.34550  -0.34205  -0.33040
 Alpha  occ. eigenvalues --   -0.32175
 Alpha virt. eigenvalues --    0.08300   0.09555   0.10498   0.10559   0.10730
 Alpha virt. eigenvalues --    0.12233   0.12404   0.14656   0.16338   0.16602
 Alpha virt. eigenvalues --    0.18090   0.19479   0.20559   0.22000   0.22834

 Mulliken charges:
               1
     1  O   -1.416803
     2  O   -1.416831
     3  C    3.056204
     4  C    3.056172
     5  F    0.924946
     6  O   -2.564307
     7  O   -2.564373
     8  F    0.924992
 Sum of Mulliken charges =  -0.00000

 Dipole moment (field-independent basis, Debye):
    X=              0.0000    Y=             -0.0001    Z=             -1.7779  Tot=              1.7779

 Test job not archived.
 1\1\GINC-SE334\SP\RHF\Aug-CC-pVDZ\C2F2O4\OHZDE\08-Apr-2025\0\\#t hf au
 g-cc-pvdz iop(5/13=1,5/36=2,99/5=2) pseudo=read geom=check guess=(read
 ,tcheck) scf=(maxcycle=1)\\title\\0,1\O,0,-0.621919,-0.354875,0.835434
 \O,0,0.621913,0.355243,0.835262\C,0,1.465808,-0.203322,-0.086099\C,0,-
 1.465853,0.203382,-0.086073\F,0,-2.598625,-0.462498,0.07104\O,0,-1.261
 36,1.069533,-0.85085\O,0,1.261372,-1.069914,-0.850391\F,0,2.59865,0.46
 247,0.070892\\Version=ES64L-G16RevC.01\State=1-A\HF=-576.2096558\RMSD=
 3.817e-02\Dipole=0.0000171,0.0000385,0.6994636\Quadrupole=10.6450249,-

 Normal termination of Gaussian 16 at Tue Apr  8 22:57:46 2025.
