 Gaussian 16, Revision C.01,

 ----------------------------------------------------------------------
 #t hf aug-cc-pvdz symm=none int=(grid=ultrafine) guess=(read,tcheck) s
 table=(opt,rrhf)
 ----------------------------------------------------------------------
 -----
 title
 -----
 Symbolic Z-matrix:
 Charge =  0 Multiplicity = 1

 SCF Done:  E(RHF) =  -1234.45717760     A.U. after   17 cycles
 Normal termination of Gaussian 16 at Tue Apr  8 23:35:38 2025.
 Gaussian 16:  ES64L-G16RevC.01  3-Jul-2019

 ----------------------------------------------------------------------
 #t hf aug-cc-pvdz iop(5/13=1,5/36=2,99/5=2) pseudo=read geom=check gue
 ss=(read,tcheck) scf=(maxcycle=1)
 ----------------------------------------------------------------------
 -----
 title
 -----
 Structure from the checkpoint file:  "BDE49_nonexpt_1438_mol1.chk"
 Charge =  0 Multiplicity = 1

                         Standard orientation:
 ---------------------------------------------------------------------
 Center     Atomic      Atomic             Coordinates (Angstroms)
 Number     Number       Type             X           Y           Z
 ---------------------------------------------------------------------
      1          6           0       -1.473924   -1.545382   -0.001741
      2          6           0       -0.119810   -1.851053    0.006810
      3          6           0        0.875537   -0.859242    0.024709
      4          6           0       -1.877705   -0.211362    0.004896
      5          6           0       -0.938986    0.805422    0.012320
      6          6           0        0.412029    0.464970    0.015717
      7          1           0        0.174919   -2.893146    0.008927
      8         15           0        2.652902   -1.347324   -0.134438
      9          1           0       -2.214543   -2.334728   -0.006356
     10          1           0       -1.224669    1.846872    0.010775
     11          7           0        1.369610    1.588447    0.009312
     12          8           0        2.561175    1.306146    0.110945
     13          8           0        0.935051    2.723817   -0.101217
     14         17           0       -3.581316    0.181707    0.006869
     15          1           0        2.416731   -2.703575    0.221773
     16          1           0        3.116475   -0.973539    1.145408
 ---------------------------------------------------------------------

 SCF Done:  E(RHF) =  -1236.82844501     A.U. after    2 cycles

 The electronic state is 1-A.
 Alpha  occ. eigenvalues -- -105.20622 -99.91724 -21.10811 -21.10575 -16.01277
 Alpha  occ. eigenvalues --  -11.55933 -11.50532 -11.49050 -11.47970 -11.47084
 Alpha  occ. eigenvalues --  -11.42347 -10.49075  -9.69125  -9.68202  -9.68021
 Alpha  occ. eigenvalues --   -2.77330  -2.01278  -1.70673  -1.52823  -1.47817
 Alpha  occ. eigenvalues --   -1.45317  -1.42796  -1.31394  -1.19324  -1.11632
 Alpha  occ. eigenvalues --   -1.01841  -0.90761  -0.84906  -0.79155  -0.71920
 Alpha  occ. eigenvalues --   -0.69266  -0.69117  -0.67482  -0.64904  -0.60746
 Alpha  occ. eigenvalues --   -0.59746  -0.56241  -0.53309  -0.52204  -0.50083
 Alpha  occ. eigenvalues --   -0.38068  -0.37956  -0.37352  -0.33143  -0.32982
 Alpha  occ. eigenvalues --   -0.28681  -0.26386  -0.04450
 Alpha virt. eigenvalues --    0.02848   0.04976   0.05547   0.06209   0.06419
 Alpha virt. eigenvalues --    0.06943   0.07798   0.08037   0.09076   0.09948
 Alpha virt. eigenvalues --    0.10555   0.11427   0.11511   0.12394   0.13048

 Mulliken charges:
               1
     1  C   -2.435294
     2  C   -1.812756
     3  C   -1.220612
     4  C   -0.429858
     5  C   -1.358914
     6  C    4.768292
     7  H    1.913013
     8  P    1.689712
     9  H    1.753381
    10  H    1.869497
    11  N    3.472895
    12  O   -2.966785
    13  O   -3.027696
    14  Cl  -0.795991
    15  H   -1.032826
    16  H   -0.386060
 Sum of Mulliken charges =  -0.00000

 Dipole moment (field-independent basis, Debye):
    X=              3.9355    Y=             -1.8538    Z=             -3.2661  Tot=              5.4399

 Test job not archived.
 1\1\GINC-SE094\SP\RHF\Aug-CC-pVDZ\C6H5Cl1N1O2P1\OHZDE\08-Apr-2025\0\\#
 t hf aug-cc-pvdz iop(5/13=1,5/36=2,99/5=2) pseudo=read geom=check gues
 s=(read,tcheck) scf=(maxcycle=1)\\title\\0,1\C,0,-1.473924,-1.545382,-
 0.001741\C,0,-0.11981,-1.851053,0.00681\C,0,0.875537,-0.859242,0.02470
 9\C,0,-1.877705,-0.211362,0.004896\C,0,-0.938986,0.805422,0.01232\C,0,
 0.412029,0.46497,0.015717\H,0,0.174919,-2.893146,0.008927\P,0,2.652902
 ,-1.347324,-0.134438\H,0,-2.214543,-2.334728,-0.006356\H,0,-1.224669,1
 .846872,0.010775\N,0,1.36961,1.588447,0.009312\O,0,2.561175,1.306146,0

 Normal termination of Gaussian 16 at Tue Apr  8 23:35:48 2025.
