 Gaussian 16, Revision C.01,

 ----------------------------------------------------------------------
 #t hf aug-cc-pvdz symm=none int=(grid=ultrafine) guess=(read,tcheck) s
 table=(opt,rrhf)
 ----------------------------------------------------------------------
 -----
 title
 -----
 Symbolic Z-matrix:
 Charge =  0 Multiplicity = 1

 SCF Done:  E(RHF) =  -896.885561328     A.U. after   14 cycles
 Normal termination of Gaussian 16 at Tue Apr  8 22:58:04 2025.
 Gaussian 16:  ES64L-G16RevC.01  3-Jul-2019

 ----------------------------------------------------------------------
 #t hf aug-cc-pvdz iop(5/13=1,5/36=2,99/5=2) pseudo=read geom=check gue
 ss=(read,tcheck) scf=(maxcycle=1)
 ----------------------------------------------------------------------
 -----
 title
 -----
 Structure from the checkpoint file:  "BDE49_expt_1870_mol1.chk"
 Charge =  0 Multiplicity = 1

                         Standard orientation:
 ---------------------------------------------------------------------
 Center     Atomic      Atomic             Coordinates (Angstroms)
 Number     Number       Type             X           Y           Z
 ---------------------------------------------------------------------
      1          8           0        0.886297    0.071439    0.738338
      2          8           0        0.000000    0.919442   -0.000001
      3          8           0       -0.886296    0.071434   -0.738336
      4          6           0        2.061715   -0.077851    0.001492
      5          9           0        2.838763   -0.834225    0.764733
      6          9           0        2.651219    1.092363   -0.226878
      7          9           0        1.847601   -0.678379   -1.165361
      8          6           0       -2.061715   -0.077851   -0.001492
      9          9           0       -2.838761   -0.834231   -0.764730
     10          9           0       -2.651220    1.092365    0.226869
     11          9           0       -1.847604   -0.678371    1.165365
 ---------------------------------------------------------------------

 SCF Done:  E(RHF) =  -900.104870819     A.U. after    2 cycles

 The electronic state is 1-A.
 Alpha  occ. eigenvalues --  -29.35129 -29.35129 -29.34663 -29.34659 -29.34616
 Alpha  occ. eigenvalues --  -29.34610 -21.22765 -21.18691 -21.18592 -11.64180
 Alpha  occ. eigenvalues --  -11.64052  -2.16517  -1.88171  -1.54000  -1.36573
 Alpha  occ. eigenvalues --   -1.26709  -0.97627  -0.96164  -0.95303  -0.94818
 Alpha  occ. eigenvalues --   -0.80169  -0.74638  -0.61187  -0.60646  -0.51497
 Alpha  occ. eigenvalues --   -0.50994  -0.49229  -0.47758  -0.47250  -0.46548
 Alpha  occ. eigenvalues --   -0.46177  -0.45097  -0.42368  -0.39048  -0.38383
 Alpha  occ. eigenvalues --   -0.36465  -0.35785  -0.34370  -0.31778  -0.29708
 Alpha  occ. eigenvalues --   -0.28653  -0.27900  -0.27765  -0.24753  -0.24708
 Alpha virt. eigenvalues --    0.09608   0.10823   0.11132   0.11633   0.11687
 Alpha virt. eigenvalues --    0.12019   0.14013   0.15370   0.16972   0.18966
 Alpha virt. eigenvalues --    0.19527   0.19745   0.20619   0.21746   0.22295

 Mulliken charges:
               1
     1  O   -1.794172
     2  O   -0.023945
     3  O   -1.794172
     4  C    0.072554
     5  F    0.637420
     6  F    0.538159
     7  F    0.558011
     8  C    0.072556
     9  F    0.637418
    10  F    0.538158
    11  F    0.558013
 Sum of Mulliken charges =  -0.00000

 Dipole moment (field-independent basis, Debye):
    X=              0.0000    Y=             -0.9940    Z=             -0.0000  Tot=              0.9940

 Test job not archived.
 1\1\GINC-SE162\SP\RHF\Aug-CC-pVDZ\C2F6O3\OHZDE\08-Apr-2025\0\\#t hf au
 g-cc-pvdz iop(5/13=1,5/36=2,99/5=2) pseudo=read geom=check guess=(read
 ,tcheck) scf=(maxcycle=1)\\title\\0,1\O,0,0.886297,0.071439,0.738338\O
 ,0,0.,0.919442,-0.000001\O,0,-0.886296,0.071434,-0.738336\C,0,2.061715
 ,-0.077851,0.001492\F,0,2.838763,-0.834225,0.764733\F,0,2.651219,1.092
 363,-0.226878\F,0,1.847601,-0.678379,-1.165361\C,0,-2.061715,-0.077851
 ,-0.001492\F,0,-2.838761,-0.834231,-0.76473\F,0,-2.65122,1.092365,0.22
 6869\F,0,-1.847604,-0.678371,1.165365\\Version=ES64L-G16RevC.01\State=

 Normal termination of Gaussian 16 at Tue Apr  8 22:58:10 2025.
