 Gaussian 16, Revision C.01,

 ----------------------------------------------------------------------
 #t hf aug-cc-pvdz symm=none int=(grid=ultrafine) guess=(read,tcheck) s
 table=(opt,rrhf)
 ----------------------------------------------------------------------
 -----
 title
 -----
 Symbolic Z-matrix:
 Charge =  0 Multiplicity = 1

 SCF Done:  E(RHF) =  -1018.84814373     A.U. after   14 cycles
 Normal termination of Gaussian 16 at Tue Apr  8 23:46:18 2025.
 Gaussian 16:  ES64L-G16RevC.01  3-Jul-2019

 ----------------------------------------------------------------------
 #t hf aug-cc-pvdz iop(5/13=1,5/36=2,99/5=2) pseudo=read geom=check gue
 ss=(read,tcheck) scf=(maxcycle=1)
 ----------------------------------------------------------------------
 -----
 title
 -----
 Structure from the checkpoint file:  "BDE49_nonexpt_1741_mol1.chk"
 Charge =  0 Multiplicity = 1

                         Standard orientation:
 ---------------------------------------------------------------------
 Center     Atomic      Atomic             Coordinates (Angstroms)
 Number     Number       Type             X           Y           Z
 ---------------------------------------------------------------------
      1          6           0        2.907334   -1.203188   -0.152880
      2          6           0        1.579776   -1.202336    0.267056
      3          6           0        3.576769   -0.000000   -0.364991
      4          6           0        2.907334    1.203189   -0.152879
      5          6           0        1.579776    1.202336    0.267056
      6          6           0        0.895799   -0.000000    0.487618
      7          1           0        1.069657   -2.145549    0.434856
      8          1           0        3.419943   -2.145593   -0.310689
      9          1           0        4.610998   -0.000000   -0.689457
     10          1           0        3.419943    2.145594   -0.310688
     11          1           0        1.069657    2.145549    0.434856
     12          6           0       -0.553535   -0.000000    0.918287
     13         14           0       -1.691081   -0.000000   -0.582051
     14         17           0       -3.689313    0.000000    0.042415
     15          1           0       -0.784379    0.879689    1.525992
     16          1           0       -0.784379   -0.879690    1.525992
     17          1           0       -1.493759   -1.212651   -1.399405
     18          1           0       -1.493760    1.212653   -1.399403
 ---------------------------------------------------------------------

 SCF Done:  E(RHF) =  -1020.56740878     A.U. after    2 cycles

 The electronic state is 1-A.
 Alpha  occ. eigenvalues --  -99.87835 -76.25707 -11.52093 -11.44566 -11.43491
 Alpha  occ. eigenvalues --  -11.41230 -11.40932 -11.39374 -11.36478 -10.45207
 Alpha  occ. eigenvalues --   -9.65134  -9.64519  -9.64484  -5.59231  -2.22795
 Alpha  occ. eigenvalues --   -2.21451  -2.21123  -1.35691  -1.28115  -1.15338
 Alpha  occ. eigenvalues --   -1.09557  -1.00447  -0.86839  -0.84068  -0.76194
 Alpha  occ. eigenvalues --   -0.71040  -0.65284  -0.62332  -0.58339  -0.57976
 Alpha  occ. eigenvalues --   -0.54949  -0.54415  -0.53794  -0.52626  -0.51226
 Alpha  occ. eigenvalues --   -0.46838  -0.45991  -0.44571  -0.42482  -0.33517
 Alpha  occ. eigenvalues --   -0.31408
 Alpha virt. eigenvalues --    0.03130   0.04833   0.04841   0.05397   0.05694
 Alpha virt. eigenvalues --    0.06212   0.06246   0.07287   0.07531   0.08158
 Alpha virt. eigenvalues --    0.09451   0.10276   0.10728   0.11330   0.11626

 Mulliken charges:
               1
     1  C   -1.619189
     2  C   -2.259812
     3  C   -2.890107
     4  C   -1.619226
     5  C   -2.259792
     6  C    4.998277
     7  H    1.805737
     8  H    1.497249
     9  H    1.532188
    10  H    1.497249
    11  H    1.805738
    12  C   -5.586742
    13  Si   5.732289
    14  Cl  -0.919312
    15  H    1.139926
    16  H    1.139926
    17  H   -1.997200
    18  H   -1.997199
 Sum of Mulliken charges =  -0.00000

 Dipole moment (field-independent basis, Debye):
    X=              2.2594    Y=             -0.0000    Z=              0.3331  Tot=              2.2838

 Test job not archived.
 1\1\GINC-SE252\SP\RHF\Aug-CC-pVDZ\C7H9Cl1Si1\OHZDE\08-Apr-2025\0\\#t h
 f aug-cc-pvdz iop(5/13=1,5/36=2,99/5=2) pseudo=read geom=check guess=(
 read,tcheck) scf=(maxcycle=1)\\title\\0,1\C,0,2.907334,-1.203188,-0.15
 288\C,0,1.579776,-1.202336,0.267056\C,0,3.576769,0.,-0.364991\C,0,2.90
 7334,1.203189,-0.152879\C,0,1.579776,1.202336,0.267056\C,0,0.895799,0.
 ,0.487618\H,0,1.069657,-2.145549,0.434856\H,0,3.419943,-2.145593,-0.31
 0689\H,0,4.610998,0.,-0.689457\H,0,3.419943,2.145594,-0.310688\H,0,1.0
 69657,2.145549,0.434856\C,0,-0.553535,0.,0.918287\Si,0,-1.691081,0.,-0

 Normal termination of Gaussian 16 at Tue Apr  8 23:46:27 2025.
