 Gaussian 16, Revision C.01,

 ----------------------------------------------------------------------
 #t hf aug-cc-pvdz symm=none int=(grid=ultrafine) guess=(read,tcheck) s
 table=(opt,rrhf)
 ----------------------------------------------------------------------
 -----
 title
 -----
 Symbolic Z-matrix:
 Charge =  0 Multiplicity = 1

 SCF Done:  E(RHF) =  -724.345611961     A.U. after   17 cycles
 Normal termination of Gaussian 16 at Wed Apr  9 00:03:40 2025.
 Gaussian 16:  ES64L-G16RevC.01  3-Jul-2019

 ----------------------------------------------------------------------
 #t hf aug-cc-pvdz iop(5/13=1,5/36=2,99/5=2) pseudo=read geom=check gue
 ss=(read,tcheck) scf=(maxcycle=1)
 ----------------------------------------------------------------------
 -----
 title
 -----
 Structure from the checkpoint file:  "BDE49_nonexpt_2152_mol1.chk"
 Charge =  0 Multiplicity = 1

                         Standard orientation:
 ---------------------------------------------------------------------
 Center     Atomic      Atomic             Coordinates (Angstroms)
 Number     Number       Type             X           Y           Z
 ---------------------------------------------------------------------
      1          6           0       -2.518763    1.208019   -0.276431
      2          6           0       -1.215010    1.208650    0.210432
      3          6           0       -3.170113    0.000117   -0.520328
      4          6           0       -2.518872   -1.207895   -0.276698
      5          6           0       -1.215116   -1.208748    0.210164
      6          6           0       -0.543498   -0.000108    0.458880
      7          1           0       -0.717619    2.154525    0.397377
      8          7           0        2.336069    0.000080   -0.401053
      9          8           0        2.661202   -1.087589   -0.869793
     10          8           0        2.660924    1.087981   -0.869465
     11          1           0       -3.026141    2.147216   -0.464806
     12          1           0       -3.026332   -2.147006   -0.465279
     13          1           0       -4.186148    0.000205   -0.898756
     14          1           0       -0.717812   -2.154710    0.396901
     15         14           0        1.197348   -0.000240    1.091160
     16          1           0        1.534959   -1.232614    1.821577
     17          1           0        1.534959    1.231838    1.822072
 ---------------------------------------------------------------------

 SCF Done:  E(RHF) =  -726.452194557     A.U. after    2 cycles

 The electronic state is 1-A.
 Alpha  occ. eigenvalues --  -76.27490 -21.08887 -21.08779 -15.95479 -11.53670
 Alpha  occ. eigenvalues --  -11.45149 -11.44830 -11.42692 -11.42627 -11.38327
 Alpha  occ. eigenvalues --   -5.61190  -2.26303  -2.24628  -2.24439  -1.96436
 Alpha  occ. eigenvalues --   -1.67381  -1.35830  -1.11504  -1.11229  -0.99870
 Alpha  occ. eigenvalues --   -0.88354  -0.87591  -0.77333  -0.72202  -0.66510
 Alpha  occ. eigenvalues --   -0.64919  -0.63506  -0.60667  -0.59851  -0.58828
 Alpha  occ. eigenvalues --   -0.54904  -0.52354  -0.51271  -0.46769  -0.42360
 Alpha  occ. eigenvalues --   -0.36405  -0.34997  -0.31577  -0.30906  -0.30340
 Alpha virt. eigenvalues --    0.02762   0.04696   0.04838   0.05152   0.06038
 Alpha virt. eigenvalues --    0.06116   0.06935   0.07754   0.08224   0.09785
 Alpha virt. eigenvalues --    0.10253   0.10397   0.10470   0.11614   0.12558

 Mulliken charges:
               1
     1  C   -0.260188
     2  C   -2.591905
     3  C   -2.185398
     4  C   -0.260191
     5  C   -2.592103
     6  C   -0.904563
     7  H    1.791413
     8  N    3.495312
     9  O   -2.331846
    10  O   -2.331739
    11  H    1.540979
    12  H    1.540979
    13  H    1.525653
    14  H    1.791401
    15  Si   5.154774
    16  H   -1.691303
    17  H   -1.691275
 Sum of Mulliken charges =  -0.00000

 Dipole moment (field-independent basis, Debye):
    X=             -3.6269    Y=             -0.0003    Z=              1.2055  Tot=              3.8220

 Test job not archived.
 1\1\GINC-SE339\SP\RHF\Aug-CC-pVDZ\C6H7N1O2Si1\OHZDE\09-Apr-2025\0\\#t
 hf aug-cc-pvdz iop(5/13=1,5/36=2,99/5=2) pseudo=read geom=check guess=
 (read,tcheck) scf=(maxcycle=1)\\title\\0,1\C,0,2.518763,-1.208019,-0.2
 76431\C,0,1.21501,-1.20865,0.210432\C,0,3.170113,-0.000117,-0.520328\C
 ,0,2.518872,1.207895,-0.276698\C,0,1.215116,1.208748,0.210164\C,0,0.54
 3498,0.000108,0.45888\H,0,0.717619,-2.154525,0.397377\N,0,-2.336069,-0
 .00008,-0.401053\O,0,-2.661202,1.087589,-0.869793\O,0,-2.660924,-1.087
 981,-0.869465\H,0,3.026141,-2.147216,-0.464806\H,0,3.026332,2.147006,-

 Normal termination of Gaussian 16 at Wed Apr  9 00:03:48 2025.
