 Gaussian 16, Revision C.01,

 ----------------------------------------------------------------------
 #t hf aug-cc-pvdz symm=none int=(grid=ultrafine) guess=(read,tcheck) s
 table=(opt,rrhf)
 ----------------------------------------------------------------------
 -----
 title
 -----
 Symbolic Z-matrix:
 Charge =  0 Multiplicity = 1

 SCF Done:  E(RHF) =  -169.788220915     A.U. after   14 cycles
 Normal termination of Gaussian 16 at Tue Apr  8 22:37:22 2025.
 Gaussian 16:  ES64L-G16RevC.01  3-Jul-2019

 ----------------------------------------------------------------------
 #t hf aug-cc-pvdz iop(5/13=1,5/36=2,99/5=2) pseudo=read geom=check gue
 ss=(read,tcheck) scf=(maxcycle=1)
 ----------------------------------------------------------------------
 -----
 title
 -----
 Structure from the checkpoint file:  "BDE49_expt_1150_mol1.chk"
 Charge =  0 Multiplicity = 1

                         Standard orientation:
 ---------------------------------------------------------------------
 Center     Atomic      Atomic             Coordinates (Angstroms)
 Number     Number       Type             X           Y           Z
 ---------------------------------------------------------------------
      1          6           0        0.782657    0.089647   -0.000000
      2          6           0       -0.583663    0.502537    0.000001
      3          7           0        1.894612   -0.223809   -0.000001
      4          6           0       -1.604994   -0.355958   -0.000000
      5          1           0       -0.750962    1.574635    0.000002
      6          1           0       -1.448500   -1.427736   -0.000001
      7          1           0       -2.626819    0.002411    0.000001
 ---------------------------------------------------------------------

 SCF Done:  E(RHF) =  -170.565889959     A.U. after    2 cycles

 The electronic state is 1-A.
 Alpha  occ. eigenvalues --  -15.76573 -11.47350 -11.44144 -11.42535  -1.32639
 Alpha  occ. eigenvalues --   -1.18822  -0.91867  -0.73090  -0.63993  -0.57572
 Alpha  occ. eigenvalues --   -0.51401  -0.50668  -0.44294  -0.37106
 Alpha virt. eigenvalues --    0.02581   0.05027   0.05710   0.07323   0.10061
 Alpha virt. eigenvalues --    0.10568   0.12769   0.12839   0.13154   0.13873
 Alpha virt. eigenvalues --    0.14578   0.16008   0.16259   0.18365   0.19472

 Mulliken charges:
               1
     1  C    1.311709
     2  C   -0.480447
     3  N   -2.196749
     4  C   -2.908857
     5  H    1.427012
     6  H    1.476611
     7  H    1.370722
 Sum of Mulliken charges =  -0.00000

 Dipole moment (field-independent basis, Debye):
    X=             -3.6097    Y=              0.5974    Z=              0.0000  Tot=              3.6588

 Test job not archived.
 1\1\GINC-SE070\SP\RHF\Aug-CC-pVDZ\C3H3N1\OHZDE\08-Apr-2025\0\\#t hf au
 g-cc-pvdz iop(5/13=1,5/36=2,99/5=2) pseudo=read geom=check guess=(read
 ,tcheck) scf=(maxcycle=1)\\title\\0,1\C,0,0.782657,0.089647,0.\C,0,-0.
 583663,0.502537,0.000001\N,0,1.894612,-0.223809,-0.000001\C,0,-1.60499
 4,-0.355958,0.\H,0,-0.750962,1.574635,0.000002\H,0,-1.4485,-1.427736,-
 0.000001\H,0,-2.626819,0.002411,0.000001\\Version=ES64L-G16RevC.01\Sta
 te=1-A\HF=-170.56589\RMSD=3.832e-01\Dipole=-1.4201771,0.2350244,0.0000
 009\Quadrupole=-1.4695309,2.2138546,-0.7443237,0.9220567,0.0000016,0.0

 Normal termination of Gaussian 16 at Tue Apr  8 22:37:24 2025.
