 Gaussian 16, Revision C.01,

 ----------------------------------------------------------------------
 #t hf aug-cc-pvdz symm=none int=(grid=ultrafine) guess=(read,tcheck) s
 table=(opt,rrhf)
 ----------------------------------------------------------------------
 -----
 title
 -----
 Symbolic Z-matrix:
 Charge =  0 Multiplicity = 1

 SCF Done:  E(RHF) =  -1390.23262466     A.U. after   13 cycles
 Normal termination of Gaussian 16 at Tue Apr  8 23:39:11 2025.
 Gaussian 16:  ES64L-G16RevC.01  3-Jul-2019

 ----------------------------------------------------------------------
 #t hf aug-cc-pvdz iop(5/13=1,5/36=2,99/5=2) pseudo=read geom=check gue
 ss=(read,tcheck) scf=(maxcycle=1)
 ----------------------------------------------------------------------
 -----
 title
 -----
 Structure from the checkpoint file:  "BDE49_nonexpt_1568_mol1.chk"
 Charge =  0 Multiplicity = 1

                         Standard orientation:
 ---------------------------------------------------------------------
 Center     Atomic      Atomic             Coordinates (Angstroms)
 Number     Number       Type             X           Y           Z
 ---------------------------------------------------------------------
      1         15           0        0.099447   -0.117175    0.873523
      2          7           0       -0.687986    1.338121    0.535641
      3         17           0        1.832184   -0.126284   -0.344723
      4         17           0       -1.114679   -1.381892   -0.276281
      5          8           0       -0.844696    1.792942   -0.799233
      6          1           0       -1.762631    1.572190   -1.001998
      7          1           0       -0.353184    2.114042    1.100602
 ---------------------------------------------------------------------

 SCF Done:  E(RHF) =  -1391.45229502     A.U. after    2 cycles

 The electronic state is 1-A.
 Alpha  occ. eigenvalues -- -105.29267 -99.90511 -99.89465 -21.12812 -15.80883
 Alpha  occ. eigenvalues --  -10.47864 -10.46770  -9.67678  -9.67010  -9.66938
 Alpha  occ. eigenvalues --   -9.66560  -9.65928  -9.65869  -2.87955  -1.81101
 Alpha  occ. eigenvalues --   -1.62279  -1.55328  -1.53493  -1.26785  -1.22579
 Alpha  occ. eigenvalues --   -1.12847  -0.76782  -0.65441  -0.62570  -0.56468
 Alpha  occ. eigenvalues --   -0.54504  -0.52784  -0.51294  -0.46377  -0.46034
 Alpha  occ. eigenvalues --   -0.39502  -0.32394  -0.09998
 Alpha virt. eigenvalues --    0.04261   0.05922   0.07960   0.08273   0.09258
 Alpha virt. eigenvalues --    0.12806   0.12851   0.14337   0.15204   0.15878
 Alpha virt. eigenvalues --    0.16281   0.17303   0.18086   0.18339   0.18563

 Mulliken charges:
               1
     1  P    3.537661
     2  N   -0.388379
     3  Cl  -1.128981
     4  Cl  -1.162712
     5  O   -2.188946
     6  H    0.755305
     7  H    0.576051
 Sum of Mulliken charges =  -0.00000

 Dipole moment (field-independent basis, Debye):
    X=             -0.6648    Y=              1.6299    Z=              4.5000  Tot=              4.8321

 Test job not archived.
 1\1\GINC-SE165\SP\RHF\Aug-CC-pVDZ\Cl2H2N1O1P1\OHZDE\08-Apr-2025\0\\#t
 hf aug-cc-pvdz iop(5/13=1,5/36=2,99/5=2) pseudo=read geom=check guess=
 (read,tcheck) scf=(maxcycle=1)\\title\\0,1\P,0,0.099447,-0.117175,0.87
 3523\N,0,-0.687987,1.338121,0.535641\Cl,0,1.832184,-0.126283,-0.344723
 \Cl,0,-1.114678,-1.381892,-0.276281\O,0,-0.844697,1.792942,-0.799233\H
 ,0,-1.762632,1.572189,-1.001998\H,0,-0.353185,2.114042,1.100602\\Versi
 on=ES64L-G16RevC.01\State=1-A\HF=-1391.452295\RMSD=6.745e-02\Dipole=-0
 .2615586,0.6412649,1.7704546\Quadrupole=-2.8596868,0.2193425,2.6403443

 Normal termination of Gaussian 16 at Tue Apr  8 23:39:16 2025.
