 Gaussian 16, Revision C.01,

 ----------------------------------------------------------------------
 #t hf aug-cc-pvdz symm=none int=(grid=ultrafine) guess=(read,tcheck) s
 table=(opt,rrhf)
 ----------------------------------------------------------------------
 -----
 title
 -----
 Symbolic Z-matrix:
 Charge =  0 Multiplicity = 1

 SCF Done:  E(RHF) =  -595.744819121     A.U. after   14 cycles
 Normal termination of Gaussian 16 at Wed Apr  9 00:06:05 2025.
 Gaussian 16:  ES64L-G16RevC.01  3-Jul-2019

 ----------------------------------------------------------------------
 #t hf aug-cc-pvdz iop(5/13=1,5/36=2,99/5=2) pseudo=read geom=check gue
 ss=(read,tcheck) scf=(maxcycle=1)
 ----------------------------------------------------------------------
 -----
 title
 -----
 Structure from the checkpoint file:  "BDE49_nonexpt_2211_mol1.chk"
 Charge =  0 Multiplicity = 1

                         Standard orientation:
 ---------------------------------------------------------------------
 Center     Atomic      Atomic             Coordinates (Angstroms)
 Number     Number       Type             X           Y           Z
 ---------------------------------------------------------------------
      1          6           0       -0.632219   -1.204301   -0.111816
      2          6           0       -2.009728   -1.206629    0.092439
      3          6           0        0.082294    0.000001   -0.213088
      4          6           0       -0.632220    1.204302   -0.111813
      5          6           0       -2.009730    1.206628    0.092443
      6          6           0       -2.699375   -0.000001    0.195710
      7          8           0        2.657738   -0.000005    1.013457
      8          1           0       -0.107693   -2.151010   -0.195691
      9          1           0       -2.545119   -2.146588    0.168954
     10          1           0       -3.772429   -0.000002    0.352811
     11          1           0       -2.545121    2.146586    0.168959
     12          1           0       -0.107696    2.151012   -0.195685
     13         14           0        1.926084    0.000003   -0.474049
     14          1           0        3.616875   -0.000005    1.052958
     15          1           0        2.319990   -1.207522   -1.243267
     16          1           0        2.319989    1.207536   -1.243255
 ---------------------------------------------------------------------

 SCF Done:  E(RHF) =  -597.326859762     A.U. after    2 cycles

 The electronic state is 1-A.
 Alpha  occ. eigenvalues --  -76.22871 -21.07118 -11.51195 -11.42697 -11.42432
 Alpha  occ. eigenvalues --  -11.40524 -11.40126 -11.35968  -5.56716  -2.23463
 Alpha  occ. eigenvalues --   -2.20504  -2.19407  -1.65370  -1.33503  -1.09003
 Alpha  occ. eigenvalues --   -1.08940  -0.86125  -0.85983  -0.75803  -0.69596
 Alpha  occ. eigenvalues --   -0.63427  -0.58863  -0.58391  -0.56785  -0.53193
 Alpha  occ. eigenvalues --   -0.49994  -0.49170  -0.44549  -0.40844  -0.38575
 Alpha  occ. eigenvalues --   -0.37321  -0.33617  -0.32863
 Alpha virt. eigenvalues --    0.03327   0.04806   0.05344   0.05474   0.06535
 Alpha virt. eigenvalues --    0.06578   0.07117   0.07434   0.08255   0.09439
 Alpha virt. eigenvalues --    0.10261   0.10568   0.11820   0.11884   0.13468

 Mulliken charges:
               1
     1  C   -2.106087
     2  C   -0.702832
     3  C   -1.269739
     4  C   -2.106134
     5  C   -0.702868
     6  C   -1.951106
     7  O   -2.635768
     8  H    1.805637
     9  H    1.530973
    10  H    1.511691
    11  H    1.530974
    12  H    1.805637
    13  Si   5.685336
    14  H    1.035723
    15  H   -1.715719
    16  H   -1.715718
 Sum of Mulliken charges =   0.00000

 Dipole moment (field-independent basis, Debye):
    X=             -0.4122    Y=              0.0000    Z=              0.6349  Tot=              0.7570

 Test job not archived.
 1\1\GINC-SE332\SP\RHF\Aug-CC-pVDZ\C6H8O1Si1\OHZDE\09-Apr-2025\0\\#t hf
  aug-cc-pvdz iop(5/13=1,5/36=2,99/5=2) pseudo=read geom=check guess=(r
 ead,tcheck) scf=(maxcycle=1)\\title\\0,1\C,0,-0.632219,-1.204301,-0.11
 1816\C,0,-2.009728,-1.206629,0.092439\C,0,0.082294,0.000001,-0.213088\
 C,0,-0.63222,1.204302,-0.111813\C,0,-2.00973,1.206628,0.092443\C,0,-2.
 699375,-0.000001,0.19571\O,0,2.657738,-0.000005,1.013457\H,0,-0.107693
 ,-2.15101,-0.195691\H,0,-2.545119,-2.146588,0.168954\H,0,-3.772429,-0.
 000002,0.352811\H,0,-2.545121,2.146586,0.168959\H,0,-0.107696,2.151012

 Normal termination of Gaussian 16 at Wed Apr  9 00:06:11 2025.
