 Gaussian 16, Revision C.01,

 ----------------------------------------------------------------------
 #t hf aug-cc-pvdz symm=none int=(grid=ultrafine) guess=(read,tcheck) s
 table=(opt,rrhf)
 ----------------------------------------------------------------------
 -----
 title
 -----
 Symbolic Z-matrix:
 Charge =  0 Multiplicity = 1

 SCF Done:  E(RHF) =  -827.556550820     A.U. after   15 cycles
 Normal termination of Gaussian 16 at Tue Apr  8 22:50:20 2025.
 Gaussian 16:  ES64L-G16RevC.01  3-Jul-2019

 ----------------------------------------------------------------------
 #t hf aug-cc-pvdz iop(5/13=1,5/36=2,99/5=2) pseudo=read geom=check gue
 ss=(read,tcheck) scf=(maxcycle=1)
 ----------------------------------------------------------------------
 -----
 title
 -----
 Structure from the checkpoint file:  "BDE49_expt_1687_mol1.chk"
 Charge =  0 Multiplicity = 1

                         Standard orientation:
 ---------------------------------------------------------------------
 Center     Atomic      Atomic             Coordinates (Angstroms)
 Number     Number       Type             X           Y           Z
 ---------------------------------------------------------------------
      1          6           0       -0.073630    1.529642    0.177418
      2          6           0       -1.391834    1.759105   -0.206835
      3          6           0       -2.291277    0.701014   -0.313534
      4          6           0       -1.838912   -0.578853   -0.028801
      5          6           0       -0.532937   -0.833894    0.355278
      6          6           0        0.364453    0.232455    0.460949
      7          1           0        0.620504    2.358804    0.254155
      8          1           0       -1.724926    2.767234   -0.423428
      9          6           0        1.780727   -0.018051    0.877770
     10          9           0       -2.701924   -1.613516   -0.124474
     11          1           0       -3.322141    0.851267   -0.608298
     12          1           0       -0.228521   -1.853037    0.561739
     13          1           0        2.221973    0.848766    1.363853
     14         17           0        2.869383   -0.371312   -0.557984
     15          1           0        1.871382   -0.887591    1.524507
 ---------------------------------------------------------------------

 SCF Done:  E(RHF) =  -829.429540976     A.U. after    2 cycles

 The electronic state is 1-A.
 Alpha  occ. eigenvalues --  -99.88050 -29.28977 -11.54721 -11.48376 -11.46444
 Alpha  occ. eigenvalues --  -11.44846 -11.43290 -11.42424 -11.38707 -10.45227
 Alpha  occ. eigenvalues --   -9.65182  -9.64481  -9.64409  -1.40290  -1.31011
 Alpha  occ. eigenvalues --   -1.17145  -1.13624  -1.00676  -0.93111  -0.87642
 Alpha  occ. eigenvalues --   -0.75816  -0.70270  -0.67138  -0.62868  -0.61583
 Alpha  occ. eigenvalues --   -0.59610  -0.58888  -0.54831  -0.51049  -0.49185
 Alpha  occ. eigenvalues --   -0.47477  -0.45866  -0.41959  -0.38832  -0.34993
 Alpha  occ. eigenvalues --   -0.27780  -0.24011
 Alpha virt. eigenvalues --    0.03085   0.04575   0.05361   0.05636   0.06557
 Alpha virt. eigenvalues --    0.06796   0.07963   0.09381   0.09695   0.10961
 Alpha virt. eigenvalues --    0.11102   0.11932   0.12845   0.13291   0.13540

 Mulliken charges:
               1
     1  C   -2.344946
     2  C   -0.249639
     3  C   -5.533576
     4  C    3.217716
     5  C   -4.708044
     6  C    4.603613
     7  H    1.727322
     8  H    1.451707
     9  C   -5.175791
    10  F    0.675524
    11  H    1.711771
    12  H    1.830913
    13  H    1.323187
    14  Cl   0.164605
    15  H    1.305638
 Sum of Mulliken charges =  -0.00000

 Dipole moment (field-independent basis, Debye):
    X=             -3.0972    Y=             -0.7544    Z=              1.3726  Tot=              3.4707

 Test job not archived.
 1\1\GINC-SE458\SP\RHF\Aug-CC-pVDZ\C7H6Cl1F1\OHZDE\08-Apr-2025\0\\#t hf
  aug-cc-pvdz iop(5/13=1,5/36=2,99/5=2) pseudo=read geom=check guess=(r
 ead,tcheck) scf=(maxcycle=1)\\title\\0,1\C,0,-0.07363,1.529642,0.17741
 8\C,0,-1.391834,1.759105,-0.206835\C,0,-2.291277,0.701014,-0.313534\C,
 0,-1.838912,-0.578853,-0.028801\C,0,-0.532937,-0.833894,0.355278\C,0,0
 .364453,0.232455,0.460949\H,0,0.620504,2.358804,0.254155\H,0,-1.724926
 ,2.767234,-0.423428\C,0,1.780727,-0.018051,0.87777\F,0,-2.701924,-1.61
 3516,-0.124474\H,0,-3.322141,0.851267,-0.608298\H,0,-0.228521,-1.85303

 Normal termination of Gaussian 16 at Tue Apr  8 22:50:26 2025.
