 Gaussian 16, Revision C.01,

 ----------------------------------------------------------------------
 #t hf aug-cc-pvdz symm=none int=(grid=ultrafine) guess=(read,tcheck) s
 table=(opt,rrhf)
 ----------------------------------------------------------------------
 -----
 title
 -----
 Symbolic Z-matrix:
 Charge =  0 Multiplicity = 1

 SCF Done:  E(RHF) =  -842.604265144     A.U. after   15 cycles
 Normal termination of Gaussian 16 at Tue Apr  8 23:14:29 2025.
 Gaussian 16:  ES64L-G16RevC.01  3-Jul-2019

 ----------------------------------------------------------------------
 #t hf aug-cc-pvdz iop(5/13=1,5/36=2,99/5=2) pseudo=read geom=check gue
 ss=(read,tcheck) scf=(maxcycle=1)
 ----------------------------------------------------------------------
 -----
 title
 -----
 Structure from the checkpoint file:  "BDE49_expt_774_mol1.chk"
 Charge =  0 Multiplicity = 1

                         Standard orientation:
 ---------------------------------------------------------------------
 Center     Atomic      Atomic             Coordinates (Angstroms)
 Number     Number       Type             X           Y           Z
 ---------------------------------------------------------------------
      1          6           0       -1.417879    0.014044    0.000010
      2          6           0       -0.742668   -1.214441    0.000004
      3          6           0        0.653711   -1.208579   -0.000005
      4          6           0        1.342296   -0.004460   -0.000009
      5          6           0        0.664808    1.209275   -0.000004
      6          6           0       -0.728437    1.235643    0.000005
      7          8           0       -2.786663    0.089507    0.000019
      8          1           0       -3.161181   -0.796586    0.000031
      9          6           0       -1.497039    2.530726    0.000012
     10          1           0        1.221733    2.137993   -0.000008
     11          1           0       -0.819893    3.386158    0.000002
     12          1           0       -2.146784    2.601977    0.877022
     13          1           0       -2.146805    2.601973   -0.876984
     14          6           0       -1.516098   -2.510873    0.000008
     15          1           0       -2.156330   -2.604758    0.885800
     16          1           0       -0.841070   -3.367069   -0.000004
     17          1           0       -2.156352   -2.604750   -0.885768
     18          1           0        1.199061   -2.144087   -0.000009
     19         17           0        3.102868   -0.013819   -0.000021
 ---------------------------------------------------------------------

 SCF Done:  E(RHF) =  -844.659809016     A.U. after    2 cycles

 The electronic state is 1-A.
 Alpha  occ. eigenvalues --  -99.88711 -21.10674 -11.52386 -11.47791 -11.45595
 Alpha  occ. eigenvalues --  -11.44712 -11.44446 -11.41276 -11.39415 -11.37471
 Alpha  occ. eigenvalues --  -10.46029  -9.66086  -9.65190  -9.65006  -1.76484
 Alpha  occ. eigenvalues --   -1.39237  -1.27657  -1.18474  -1.09463  -1.01198
 Alpha  occ. eigenvalues --   -1.00144  -0.84953  -0.83614  -0.70954  -0.67303
 Alpha  occ. eigenvalues --   -0.63907  -0.61065  -0.58198  -0.57673  -0.57143
 Alpha  occ. eigenvalues --   -0.55953  -0.55546  -0.54214  -0.50810  -0.49988
 Alpha  occ. eigenvalues --   -0.47192  -0.44746  -0.42579  -0.41452  -0.32995
 Alpha  occ. eigenvalues --   -0.27344
 Alpha virt. eigenvalues --    0.02958   0.04635   0.05186   0.05611   0.05958
 Alpha virt. eigenvalues --    0.06574   0.06813   0.06871   0.07819   0.08369
 Alpha virt. eigenvalues --    0.11059   0.11084   0.11708   0.11982   0.12439

 Mulliken charges:
               1
     1  C    6.442712
     2  C    1.137350
     3  C   -0.257325
     4  C   -3.259745
     5  C   -1.534917
     6  C    2.437053
     7  O   -4.905119
     8  H    1.176496
     9  C   -5.374220
    10  H    1.894598
    11  H    1.258288
    12  H    1.028714
    13  H    1.028713
    14  C   -5.130948
    15  H    0.940685
    16  H    1.268392
    17  H    0.940687
    18  H    1.831081
    19  Cl  -0.922492
 Sum of Mulliken charges =  -0.00000

 Dipole moment (field-independent basis, Debye):
    X=             -3.4394    Y=             -0.6648    Z=              0.0000  Tot=              3.5030

 Test job not archived.
 1\1\GINC-SE102\SP\RHF\Aug-CC-pVDZ\C8H9Cl1O1\OHZDE\08-Apr-2025\0\\#t hf
  aug-cc-pvdz iop(5/13=1,5/36=2,99/5=2) pseudo=read geom=check guess=(r
 ead,tcheck) scf=(maxcycle=1)\\title\\0,1\C,0,-1.417879,0.014044,0.0000
 1\C,0,-0.742668,-1.214441,0.000004\C,0,0.653711,-1.208579,-0.000005\C,
 0,1.342296,-0.00446,-0.000009\C,0,0.664808,1.209275,-0.000004\C,0,-0.7
 28437,1.235643,0.000005\O,0,-2.786663,0.089506,0.000019\H,0,-3.161181,
 -0.796587,0.000031\C,0,-1.497039,2.530726,0.000012\H,0,1.221733,2.1379
 93,-0.000008\H,0,-0.819894,3.386158,0.000002\H,0,-2.146784,2.601977,0.

 Normal termination of Gaussian 16 at Tue Apr  8 23:14:40 2025.
