 Gaussian 16, Revision C.01,

 ----------------------------------------------------------------------
 #t hf aug-cc-pvdz symm=none int=(grid=ultrafine) guess=(read,tcheck) s
 table=(opt,rrhf)
 ----------------------------------------------------------------------
 -----
 title
 -----
 Symbolic Z-matrix:
 Charge =  0 Multiplicity = 1

 SCF Done:  E(RHF) =  -799.691205129     A.U. after   15 cycles
 Normal termination of Gaussian 16 at Tue Apr  8 23:09:49 2025.
 Gaussian 16:  ES64L-G16RevC.01  3-Jul-2019

 ----------------------------------------------------------------------
 #t hf aug-cc-pvdz iop(5/13=1,5/36=2,99/5=2) pseudo=read geom=check gue
 ss=(read,tcheck) scf=(maxcycle=1)
 ----------------------------------------------------------------------
 -----
 title
 -----
 Structure from the checkpoint file:  "BDE49_expt_449_mol1.chk"
 Charge =  0 Multiplicity = 1

                         Standard orientation:
 ---------------------------------------------------------------------
 Center     Atomic      Atomic             Coordinates (Angstroms)
 Number     Number       Type             X           Y           Z
 ---------------------------------------------------------------------
      1          6           0       -0.857044    1.252041    0.020652
      2          6           0        0.524766    1.389371   -0.010746
      3          6           0       -1.420083   -0.019529   -0.003601
      4          6           0       -0.610263   -1.148029   -0.058257
      5          6           0        0.773151   -1.010148   -0.091470
      6          6           0        1.359170    0.262317   -0.070242
      7          1           0        0.961247    2.383297    0.005777
      8          1           0       -1.492810    2.126937    0.066956
      9          1           0       -1.058124   -2.133623   -0.074265
     10          1           0        1.414804   -1.879075   -0.131364
     11          7           0        2.743691    0.442066   -0.162382
     12          7           0        3.565839   -0.658762    0.145849
     13          1           0        4.368341   -0.657738   -0.471531
     14          1           0        3.881854   -0.638377    1.113034
     15          1           0        3.061063    1.340820    0.181661
     16         17           0       -3.171840   -0.198912    0.041614
 ---------------------------------------------------------------------

 SCF Done:  E(RHF) =  -801.551180455     A.U. after    2 cycles

 The electronic state is 1-A.
 Alpha  occ. eigenvalues --  -99.88215 -15.77328 -15.76598 -11.51996 -11.45600
 Alpha  occ. eigenvalues --  -11.44171 -11.43600 -11.40850 -11.37028 -10.45537
 Alpha  occ. eigenvalues --   -9.65580  -9.64683  -9.64514  -1.50921  -1.37624
 Alpha  occ. eigenvalues --   -1.26936  -1.15564  -1.10168  -1.01634  -0.88735
 Alpha  occ. eigenvalues --   -0.84100  -0.72260  -0.69521  -0.68128  -0.66249
 Alpha  occ. eigenvalues --   -0.59569  -0.58627  -0.58115  -0.56332  -0.51161
 Alpha  occ. eigenvalues --   -0.48980  -0.48253  -0.44695  -0.41623  -0.39449
 Alpha  occ. eigenvalues --   -0.33923  -0.27649
 Alpha virt. eigenvalues --    0.03298   0.04343   0.04762   0.05608   0.06354
 Alpha virt. eigenvalues --    0.07042   0.08014   0.09161   0.10191   0.11094
 Alpha virt. eigenvalues --    0.11737   0.12500   0.13015   0.13666   0.14246

 Mulliken charges:
               1
     1  C   -0.964776
     2  C   -1.888771
     3  C   -2.005437
     4  C   -0.357440
     5  C   -0.395075
     6  C    2.364542
     7  H    1.734586
     8  H    1.805240
     9  H    1.813360
    10  H    1.873159
    11  N   -3.261484
    12  N   -2.074205
    13  H    0.764150
    14  H    0.658027
    15  H    0.793075
    16  Cl  -0.858950
 Sum of Mulliken charges =   0.00000

 Dipole moment (field-independent basis, Debye):
    X=              4.8441    Y=              0.9227    Z=              0.7210  Tot=              4.9836

 Test job not archived.
 1\1\GINC-SE039\SP\RHF\Aug-CC-pVDZ\C6H7Cl1N2\OHZDE\08-Apr-2025\0\\#t hf
  aug-cc-pvdz iop(5/13=1,5/36=2,99/5=2) pseudo=read geom=check guess=(r
 ead,tcheck) scf=(maxcycle=1)\\title\\0,1\C,0,-0.857044,1.252041,0.0206
 52\C,0,0.524766,1.389371,-0.010746\C,0,-1.420083,-0.019529,-0.003601\C
 ,0,-0.610263,-1.148029,-0.058257\C,0,0.773151,-1.010148,-0.09147\C,0,1
 .35917,0.262317,-0.070242\H,0,0.961247,2.383297,0.005777\H,0,-1.49281,
 2.126937,0.066956\H,0,-1.058124,-2.133623,-0.074265\H,0,1.414804,-1.87
 9075,-0.131364\N,0,2.743691,0.442066,-0.162382\N,0,3.565839,-0.658762,

 Normal termination of Gaussian 16 at Tue Apr  8 23:10:00 2025.
