 Gaussian 16, Revision C.01,

 ----------------------------------------------------------------------
 #t hf aug-cc-pvdz symm=none int=(grid=ultrafine) guess=(read,tcheck) s
 table=(opt,rrhf)
 ----------------------------------------------------------------------
 -----
 title
 -----
 Symbolic Z-matrix:
 Charge =  0 Multiplicity = 1

 SCF Done:  E(RHF) =  -1165.03960629     A.U. after   16 cycles
 Normal termination of Gaussian 16 at Wed Apr  9 00:52:11 2025.
 Gaussian 16:  ES64L-G16RevC.01  3-Jul-2019

 ----------------------------------------------------------------------
 #t hf aug-cc-pvdz iop(5/13=1,5/36=2,99/5=2) pseudo=read geom=check gue
 ss=(read,tcheck) scf=(maxcycle=1)
 ----------------------------------------------------------------------
 -----
 title
 -----
 Structure from the checkpoint file:  "BDE49_nonexpt_886_mol1.chk"
 Charge =  0 Multiplicity = 1

                         Standard orientation:
 ---------------------------------------------------------------------
 Center     Atomic      Atomic             Coordinates (Angstroms)
 Number     Number       Type             X           Y           Z
 ---------------------------------------------------------------------
      1         16           0       -2.987368   -1.453092    0.306730
      2         16           0       -2.749467    1.703695   -0.266073
      3          8           0        3.702639   -0.491368   -0.108236
      4          6           0        1.560715   -1.396037   -0.348416
      5          6           0        1.757258    0.940568    0.247973
      6          6           0        0.369142    1.034191    0.260957
      7          6           0        0.183411   -1.283965   -0.322373
      8          6           0       -0.462012   -0.064007   -0.019158
      9          6           0        2.362672   -0.282151   -0.061124
     10          6           0        4.576313    0.597961    0.166225
     11          5           0       -2.007944    0.057659    0.006805
     12          1           0       -0.075721    1.989839    0.516228
     13          1           0       -0.411174   -2.159034   -0.560744
     14          1           0        2.048544   -2.332518   -0.590160
     15          1           0        2.351009    1.814425    0.479778
     16          1           0        5.584403    0.199864    0.066656
     17          1           0        4.435868    1.413583   -0.550913
     18          1           0        4.435169    0.977095    1.183890
     19          1           0       -4.215654   -0.962196    0.074709
     20          1           0       -4.029485    1.412587    0.017395
 ---------------------------------------------------------------------

 SCF Done:  E(RHF) =  -1167.20332271     A.U. after    2 cycles

 The electronic state is 1-A.
 Alpha  occ. eigenvalues --  -75.69086 -75.68985 -21.08441 -13.16902 -13.16332
 Alpha  occ. eigenvalues --  -13.10911 -13.09465 -13.05029 -13.03378 -11.53502
 Alpha  occ. eigenvalues --  -11.46503 -11.43918 -11.42415 -11.41264 -11.40754
 Alpha  occ. eigenvalues --  -11.36508  -8.03061  -8.02909  -7.68181  -1.79840
 Alpha  occ. eigenvalues --   -1.33951  -1.20004  -1.10771  -1.09170  -1.08632
 Alpha  occ. eigenvalues --   -0.99808  -0.87944  -0.84802  -0.74698  -0.67653
 Alpha  occ. eigenvalues --   -0.64440  -0.63143  -0.62614  -0.58675  -0.57459
 Alpha  occ. eigenvalues --   -0.53522  -0.52547  -0.50019  -0.48666  -0.45981
 Alpha  occ. eigenvalues --   -0.42365  -0.41019  -0.39437  -0.34033  -0.33704
 Alpha  occ. eigenvalues --   -0.30675  -0.26078  -0.25119
 Alpha virt. eigenvalues --    0.02513   0.02970   0.03519   0.04241   0.04885
 Alpha virt. eigenvalues --    0.06138   0.06250   0.06338   0.07541   0.08336
 Alpha virt. eigenvalues --    0.09273   0.09454   0.09844   0.10201   0.11253

 Mulliken charges:
               1
     1  S   -2.858260
     2  S   -2.866075
     3  O   -4.743615
     4  C   -3.973066
     5  C   -2.664958
     6  C    0.195246
     7  C    0.086580
     8  C   -1.920587
     9  C    6.092626
    10  C   -3.732089
    11  B    2.882739
    12  H    1.913179
    13  H    1.897768
    14  H    1.944571
    15  H    1.904117
    16  H    1.408854
    17  H    1.394533
    18  H    1.397437
    19  H    0.821373
    20  H    0.819629
 Sum of Mulliken charges =   0.00000

 Dipole moment (field-independent basis, Debye):
    X=              3.0622    Y=              0.3168    Z=              0.0867  Tot=              3.0797

 Test job not archived.
 1\1\GINC-SE108\SP\RHF\Aug-CC-pVDZ\C7H9B1O1S2\OHZDE\09-Apr-2025\0\\#t h
 f aug-cc-pvdz iop(5/13=1,5/36=2,99/5=2) pseudo=read geom=check guess=(
 read,tcheck) scf=(maxcycle=1)\\title\\0,1\S,0,-2.987368,-1.453092,0.30
 673\S,0,-2.749467,1.703695,-0.266073\O,0,3.702639,-0.491368,-0.108236\
 C,0,1.560715,-1.396037,-0.348416\C,0,1.757258,0.940568,0.247973\C,0,0.
 369142,1.034191,0.260957\C,0,0.183411,-1.283965,-0.322373\C,0,-0.46201
 2,-0.064007,-0.019158\C,0,2.362672,-0.282151,-0.061124\C,0,4.576313,0.
 597961,0.166225\B,0,-2.007944,0.057659,0.006805\H,0,-0.075721,1.989839

 Normal termination of Gaussian 16 at Wed Apr  9 00:52:24 2025.
