 Gaussian 16, Revision C.01,

 ----------------------------------------------------------------------
 #t hf aug-cc-pvdz symm=none int=(grid=ultrafine) guess=(read,tcheck) s
 table=(opt,rrhf)
 ----------------------------------------------------------------------
 -----
 title
 -----
 Symbolic Z-matrix:
 Charge =  0 Multiplicity = 1

 SCF Done:  E(RHF) =  -786.224804309     A.U. after   15 cycles
 Normal termination of Gaussian 16 at Wed Apr  9 00:47:08 2025.
 Gaussian 16:  ES64L-G16RevC.01  3-Jul-2019

 ----------------------------------------------------------------------
 #t hf aug-cc-pvdz iop(5/13=1,5/36=2,99/5=2) pseudo=read geom=check gue
 ss=(read,tcheck) scf=(maxcycle=1)
 ----------------------------------------------------------------------
 -----
 title
 -----
 Structure from the checkpoint file:  "BDE49_nonexpt_763_mol1.chk"
 Charge =  0 Multiplicity = 1

                         Standard orientation:
 ---------------------------------------------------------------------
 Center     Atomic      Atomic             Coordinates (Angstroms)
 Number     Number       Type             X           Y           Z
 ---------------------------------------------------------------------
      1          6           0        2.768671   -0.518927   -1.043638
      2          6           0        1.626311   -1.138813   -0.547610
      3          6           0        3.222011    0.675722   -0.484230
      4          6           0        2.525114    1.241433    0.579250
      5          6           0        1.381072    0.616697    1.078739
      6          6           0        0.913580   -0.582620    0.524394
      7          1           0        1.279011   -2.064801   -0.993364
      8          5           0       -2.258472    0.654718   -0.251063
      9          8           0       -1.374585    1.693886   -0.300741
     10          8           0       -3.589489    0.926941   -0.351074
     11          1           0        3.307172   -0.968781   -1.870318
     12          1           0        2.871589    2.165691    1.028039
     13          1           0        4.111719    1.157688   -0.872715
     14          1           0        0.854785    1.055054    1.920852
     15          6           0       -0.331204   -1.247605    1.059578
     16          1           0       -3.750167    1.870500   -0.476441
     17          1           0       -0.446123    1.441739   -0.236916
     18         15           0       -1.753541   -1.229329   -0.197716
     19          1           0       -0.632372   -0.783386    1.999529
     20          1           0       -0.131209   -2.302963    1.264792
     21          1           0       -2.789664   -1.646347    0.673227
 ---------------------------------------------------------------------

 SCF Done:  E(RHF) =  -788.452266206     A.U. after    2 cycles

 The electronic state is 1-A.
 Alpha  occ. eigenvalues -- -105.16186 -21.05828 -21.05515 -11.52581 -11.44965
 Alpha  occ. eigenvalues --  -11.44002 -11.41669 -11.41365 -11.40358 -11.36894
 Alpha  occ. eigenvalues --   -7.64544  -2.73440  -1.81400  -1.65489  -1.47101
 Alpha  occ. eigenvalues --   -1.45126  -1.42121  -1.35123  -1.14184  -1.09910
 Alpha  occ. eigenvalues --   -0.98560  -0.87200  -0.83952  -0.76066  -0.71228
 Alpha  occ. eigenvalues --   -0.69005  -0.65312  -0.61835  -0.61570  -0.58573
 Alpha  occ. eigenvalues --   -0.56722  -0.53436  -0.51150  -0.49763  -0.48382
 Alpha  occ. eigenvalues --   -0.45266  -0.44788  -0.42313  -0.36530  -0.35187
 Alpha  occ. eigenvalues --   -0.33954  -0.22542  -0.15468  -0.01898
 Alpha virt. eigenvalues --    0.03224   0.04801   0.04984   0.05096   0.05628
 Alpha virt. eigenvalues --    0.06104   0.06587   0.07097   0.07534   0.08312
 Alpha virt. eigenvalues --    0.09109   0.09427   0.10183   0.10881   0.11472

 Mulliken charges:
               1
     1  C   -1.865784
     2  C   -3.278497
     3  C   -2.842117
     4  C   -1.760885
     5  C   -2.206521
     6  C    4.498025
     7  H    1.715588
     8  B    4.950290
     9  O   -4.045909
    10  O   -3.864344
    11  H    1.549269
    12  H    1.450732
    13  H    1.548098
    14  H    1.878356
    15  C   -4.491743
    16  H    1.248629
    17  H    2.186118
    18  P    1.880969
    19  H    1.418546
    20  H    1.016312
    21  H   -0.985133
 Sum of Mulliken charges =  -0.00000

 Dipole moment (field-independent basis, Debye):
    X=              1.5454    Y=             -2.4426    Z=             -1.0556  Tot=              3.0771

 Test job not archived.
 1\1\GINC-SE227\SP\RHF\Aug-CC-pVDZ\C7H10B1O2P1\OHZDE\09-Apr-2025\0\\#t
 hf aug-cc-pvdz iop(5/13=1,5/36=2,99/5=2) pseudo=read geom=check guess=
 (read,tcheck) scf=(maxcycle=1)\\title\\0,1\C,0,2.768671,-0.518927,-1.0
 43638\C,0,1.626311,-1.138813,-0.54761\C,0,3.222011,0.675722,-0.48423\C
 ,0,2.525114,1.241433,0.57925\C,0,1.381072,0.616697,1.078739\C,0,0.9135
 8,-0.58262,0.524394\H,0,1.279011,-2.064801,-0.993364\B,0,-2.258472,0.6
 54718,-0.251063\O,0,-1.374585,1.693886,-0.300741\O,0,-3.589489,0.92694
 1,-0.351074\H,0,3.307172,-0.968781,-1.870318\H,0,2.871589,2.165691,1.0

 Normal termination of Gaussian 16 at Wed Apr  9 00:47:22 2025.
