 Gaussian 16, Revision C.01,

 ----------------------------------------------------------------------
 #t hf aug-cc-pvdz symm=none int=(grid=ultrafine) guess=(read,tcheck) s
 table=(opt,rrhf)
 ----------------------------------------------------------------------
 -----
 title
 -----
 Symbolic Z-matrix:
 Charge =  0 Multiplicity = 1

 SCF Done:  E(RHF) =  -725.788830776     A.U. after   13 cycles
 Normal termination of Gaussian 16 at Tue Apr  8 22:37:29 2025.
 Gaussian 16:  ES64L-G16RevC.01  3-Jul-2019

 ----------------------------------------------------------------------
 #t hf aug-cc-pvdz iop(5/13=1,5/36=2,99/5=2) pseudo=read geom=check gue
 ss=(read,tcheck) scf=(maxcycle=1)
 ----------------------------------------------------------------------
 -----
 title
 -----
 Structure from the checkpoint file:  "BDE49_expt_1129_mol1.chk"
 Charge =  0 Multiplicity = 1

                         Standard orientation:
 ---------------------------------------------------------------------
 Center     Atomic      Atomic             Coordinates (Angstroms)
 Number     Number       Type             X           Y           Z
 ---------------------------------------------------------------------
      1          6           0        0.457665    0.098960    0.000090
      2          8           0        0.469015    1.296621    0.000039
      3          8           0        1.556147   -0.682789    0.000029
      4          6           0       -0.764345   -0.810291    0.000008
      5          6           0        2.818237    0.015712   -0.000011
      6          1           0        3.579042   -0.761062   -0.000065
      7          1           0        2.905286    0.641564    0.889050
      8          1           0        2.905207    0.641611   -0.889046
      9          1           0       -0.740896   -1.446616   -0.883731
     10          1           0       -0.740987   -1.446640    0.883732
     11         17           0       -2.304605    0.096130   -0.000060
 ---------------------------------------------------------------------

 SCF Done:  E(RHF) =  -727.195022041     A.U. after    2 cycles

 The electronic state is 1-A.
 Alpha  occ. eigenvalues --  -99.88882 -21.10634 -21.06571 -11.53894 -11.45680
 Alpha  occ. eigenvalues --  -11.42753 -10.46161  -9.66085  -9.65280  -9.65205
 Alpha  occ. eigenvalues --   -1.85648  -1.67858  -1.33813  -1.10130  -1.00104
 Alpha  occ. eigenvalues --   -0.78079  -0.69900  -0.68612  -0.63525  -0.63043
 Alpha  occ. eigenvalues --   -0.57212  -0.55191  -0.51756  -0.48917  -0.47558
 Alpha  occ. eigenvalues --   -0.43529  -0.33810  -0.31441
 Alpha virt. eigenvalues --    0.02962   0.04469   0.05352   0.06007   0.06857
 Alpha virt. eigenvalues --    0.07476   0.09023   0.10983   0.12741   0.13065
 Alpha virt. eigenvalues --    0.13789   0.14259   0.15235   0.15662   0.17193

 Mulliken charges:
               1
     1  C    6.072636
     2  O   -2.869548
     3  O   -3.151280
     4  C   -4.518452
     5  C   -2.974306
     6  H    1.355711
     7  H    1.288636
     8  H    1.288635
     9  H    1.654493
    10  H    1.654539
    11  Cl   0.198935
 Sum of Mulliken charges =   0.00000

 Dipole moment (field-independent basis, Debye):
    X=              2.7291    Y=             -1.7273    Z=             -0.0000  Tot=              3.2298

 Test job not archived.
 1\1\GINC-SE334\SP\RHF\Aug-CC-pVDZ\C3H5Cl1O2\OHZDE\08-Apr-2025\0\\#t hf
  aug-cc-pvdz iop(5/13=1,5/36=2,99/5=2) pseudo=read geom=check guess=(r
 ead,tcheck) scf=(maxcycle=1)\\title\\0,1\C,0,-0.457665,0.09896,-0.0000
 9\O,0,-0.469015,1.296621,-0.000039\O,0,-1.556147,-0.682789,-0.000029\C
 ,0,0.764345,-0.810291,-0.000008\C,0,-2.818237,0.015712,0.000011\H,0,-3
 .579042,-0.761062,0.000065\H,0,-2.905286,0.641564,-0.88905\H,0,-2.9052
 07,0.641611,0.889046\H,0,0.740896,-1.446616,0.883731\H,0,0.740987,-1.4
 4664,-0.883732\Cl,0,2.304605,0.09613,0.00006\\Version=ES64L-G16RevC.01

 Normal termination of Gaussian 16 at Tue Apr  8 22:37:32 2025.
