 Gaussian 16, Revision C.01,

 ----------------------------------------------------------------------
 #t hf aug-cc-pvdz symm=none int=(grid=ultrafine) guess=(read,tcheck) s
 table=(opt,rrhf)
 ----------------------------------------------------------------------
 -----
 title
 -----
 Symbolic Z-matrix:
 Charge =  0 Multiplicity = 1

 SCF Done:  E(RHF) =  -1169.09837616     A.U. after   12 cycles
 Normal termination of Gaussian 16 at Tue Apr  8 23:55:57 2025.
 Gaussian 16:  ES64L-G16RevC.01  3-Jul-2019

 ----------------------------------------------------------------------
 #t hf aug-cc-pvdz iop(5/13=1,5/36=2,99/5=2) pseudo=read geom=check gue
 ss=(read,tcheck) scf=(maxcycle=1)
 ----------------------------------------------------------------------
 -----
 title
 -----
 Structure from the checkpoint file:  "BDE49_nonexpt_1952_mol1.chk"
 Charge =  0 Multiplicity = 1

                         Standard orientation:
 ---------------------------------------------------------------------
 Center     Atomic      Atomic             Coordinates (Angstroms)
 Number     Number       Type             X           Y           Z
 ---------------------------------------------------------------------
      1          6           0       -0.863656    0.105516   -1.104710
      2         14           0        0.704904   -0.962940   -1.058287
      3         15           0        2.520677   -0.198472    0.082771
      4          1           0        1.149893   -1.138183   -2.465181
      5          1           0        0.393684   -2.309733   -0.514252
      6         15           0       -1.794305    0.328502    0.494624
      7          6           0        2.458508    1.624401   -0.325629
      8          1           0        1.511037    2.098442   -0.058194
      9          1           0        2.641811    1.766519   -1.393380
     10          1           0        3.262822    2.128655    0.216213
     11          6           0        1.905604   -0.177238    1.845987
     12          1           0        1.747822   -1.204857    2.181574
     13          1           0        0.981114    0.386737    1.983401
     14          1           0        2.687045    0.258332    2.474683
     15          6           0       -2.606370   -1.333376    0.647450
     16          1           0       -1.862229   -2.092178    0.897024
     17          1           0       -3.121305   -1.632063   -0.271310
     18          1           0       -3.333003   -1.299232    1.463036
     19          6           0       -3.245905    1.311753   -0.119607
     20          1           0       -2.915082    2.315747   -0.396194
     21          1           0       -3.980119    1.413041    0.683967
     22          1           0       -3.728851    0.846725   -0.984890
     23          1           0       -1.525817   -0.298480   -1.882564
     24          1           0       -0.562138    1.104913   -1.439785
 ---------------------------------------------------------------------

 SCF Done:  E(RHF) =  -1170.71276884     A.U. after    2 cycles

 The electronic state is 1-A.
 Alpha  occ. eigenvalues -- -105.16092-105.14911 -76.21190 -11.37293 -11.37076
 Alpha  occ. eigenvalues --  -11.36909 -11.36399 -11.36022  -5.54749  -2.74757
 Alpha  occ. eigenvalues --   -2.72974  -2.18479  -2.17004  -2.16816  -1.47750
 Alpha  occ. eigenvalues --   -1.47323  -1.45495  -1.44817  -1.44534  -1.40661
 Alpha  occ. eigenvalues --   -1.06315  -1.02713  -0.96924  -0.96670  -0.96224
 Alpha  occ. eigenvalues --   -0.73175  -0.64380  -0.61025  -0.58797  -0.57381
 Alpha  occ. eigenvalues --   -0.56893  -0.56453  -0.55792  -0.55296  -0.54877
 Alpha  occ. eigenvalues --   -0.54637  -0.54244  -0.47343  -0.44306  -0.21495
 Alpha  occ. eigenvalues --   -0.20483  -0.19870  -0.14046  -0.01495  -0.00758
 Alpha virt. eigenvalues --    0.04854   0.05153   0.05660   0.05753   0.06164
 Alpha virt. eigenvalues --    0.06280   0.06357   0.06474   0.06992   0.07297
 Alpha virt. eigenvalues --    0.07842   0.08161   0.08624   0.08901   0.09064

 Mulliken charges:
               1
     1  C   -5.422413
     2  Si   5.459242
     3  P    4.559619
     4  H   -2.469666
     5  H   -2.016776
     6  P    9.048801
     7  C   -6.392219
     8  H    1.556655
     9  H    1.112630
    10  H    1.077925
    11  C   -6.163393
    12  H    1.211626
    13  H    1.954290
    14  H    1.056161
    15  C   -6.993276
    16  H    1.146350
    17  H    0.985148
    18  H    0.991252
    19  C   -6.522425
    20  H    1.105942
    21  H    1.012170
    22  H    0.972437
    23  H    1.393105
    24  H    1.336818
 Sum of Mulliken charges =  -0.00000

 Dipole moment (field-independent basis, Debye):
    X=              3.2632    Y=              2.4952    Z=              4.5966  Tot=              6.1646

 Test job not archived.
 1\1\GINC-SE343\SP\RHF\Aug-CC-pVDZ\C5H16P2Si1\OHZDE\08-Apr-2025\0\\#t h
 f aug-cc-pvdz iop(5/13=1,5/36=2,99/5=2) pseudo=read geom=check guess=(
 read,tcheck) scf=(maxcycle=1)\\title\\0,1\C,0,0.863656,-0.105516,-1.10
 471\Si,0,-0.704904,0.96294,-1.058287\P,0,-2.520677,0.198472,0.082771\H
 ,0,-1.149893,1.138183,-2.465181\H,0,-0.393684,2.309733,-0.514252\P,0,1
 .794305,-0.328502,0.494624\C,0,-2.458508,-1.624401,-0.325629\H,0,-1.51
 1037,-2.098442,-0.058194\H,0,-2.641811,-1.766519,-1.39338\H,0,-3.26282
 2,-2.128655,0.216213\C,0,-1.905604,0.177238,1.845987\H,0,-1.747822,1.2

 Normal termination of Gaussian 16 at Tue Apr  8 23:56:09 2025.
