 Gaussian 16, Revision C.01,

 ----------------------------------------------------------------------
 #t hf aug-cc-pvdz symm=none int=(grid=ultrafine) guess=(read,tcheck) s
 table=opt
 ----------------------------------------------------------------------
 -----
 title
 -----
 Symbolic Z-matrix:
 Charge =  0 Multiplicity = 2

 SCF Done:  E(UHF) =  -820.922020987     A.U. after   15 cycles
 Normal termination of Gaussian 16 at Wed Apr  9 00:48:56 2025.
 Gaussian 16:  ES64L-G16RevC.01  3-Jul-2019

 ----------------------------------------------------------------------
 #t hf aug-cc-pvdz iop(5/13=1,5/36=2,99/5=2) pseudo=read geom=check gue
 ss=(read,tcheck) scf=(maxcycle=1)
 ----------------------------------------------------------------------
 -----
 title
 -----
 Structure from the checkpoint file:  "BDE49_nonexpt_868_mol3.chk"
 Charge =  0 Multiplicity = 2

                         Standard orientation:
 ---------------------------------------------------------------------
 Center     Atomic      Atomic             Coordinates (Angstroms)
 Number     Number       Type             X           Y           Z
 ---------------------------------------------------------------------
      1          5           0        0.000000    0.638836    0.000003
      2         16           0        1.591438   -0.159621   -0.000005
      3         16           0       -1.591438   -0.159621    0.000004
      4          1           0       -2.344198    0.956843    0.000010
      5          1           0        2.344198    0.956843   -0.000003
 ---------------------------------------------------------------------

 SCF Done:  E(UHF) =  -821.456171486     A.U. after    2 cycles

 The electronic state is 2-A.
 Alpha  occ. eigenvalues --  -75.70596 -75.70532 -13.17418 -13.15031 -13.09458
 Alpha  occ. eigenvalues --  -13.09067 -13.03963 -13.03596  -8.04652  -8.04358
 Alpha  occ. eigenvalues --   -7.67628  -1.21058  -1.11255  -0.68052  -0.53701
 Alpha  occ. eigenvalues --   -0.49605  -0.38705  -0.35829  -0.27200  -0.25491
 Alpha virt. eigenvalues --    0.02449   0.02508   0.03069   0.04121   0.09612
 Alpha virt. eigenvalues --    0.09901   0.10102   0.12566   0.13100   0.14181
 Alpha virt. eigenvalues --    0.15757   0.16264   0.16691   0.18423   0.20810

  Beta  occ. eigenvalues --  -75.70608 -75.70545 -13.17454 -13.15138 -13.09218
  Beta  occ. eigenvalues --  -13.08943 -13.04120 -13.03742  -8.04672  -8.04377
  Beta  occ. eigenvalues --   -7.65668  -1.19687  -1.11047  -0.64053  -0.48468
  Beta  occ. eigenvalues --   -0.45953  -0.36892  -0.34833  -0.25882
  Beta virt. eigenvalues --    0.01422   0.02648   0.03171   0.04177   0.06275
  Beta virt. eigenvalues --    0.10128   0.10130   0.11892   0.13179   0.14339
  Beta virt. eigenvalues --    0.14930   0.15958   0.16567   0.16693   0.18720

 Mulliken charges and spin densities:
               1          2
     1  B    1.642693   1.011845
     2  S   -1.967593  -0.006766
     3  S   -1.967593  -0.006766
     4  H    1.146246   0.000843
     5  H    1.146246   0.000843
 Sum of Mulliken charges =  -0.00000   1.00000

 Dipole moment (field-independent basis, Debye):
    X=              0.0000    Y=             -3.1409    Z=             -0.0000  Tot=              3.1409
                          Isotropic Fermi Contact Couplings
        Atom                 a.u.       MegaHertz       Gauss      10(-4) cm-1
     1  B(11)              0.14424     206.89725      73.82608      69.01349
     2  S(33)             -0.06940     -23.83662      -8.50550      -7.95104
     3  S(33)             -0.06940     -23.83662      -8.50550      -7.95104
     4  H(1)               0.01595      71.27595      25.43303      23.77510
     5  H(1)               0.01595      71.27595      25.43303      23.77510
 --------------------------------------------------------
       Center         ----  Spin Dipole Couplings  ----
                      3XX-RR        3YY-RR        3ZZ-RR

 Normal termination of Gaussian 16 at Wed Apr  9 00:48:58 2025.
