 Gaussian 16, Revision C.01,

 ----------------------------------------------------------------------
 #t hf aug-cc-pvdz symm=none int=(grid=ultrafine) guess=(read,tcheck) s
 table=(opt,rrhf)
 ----------------------------------------------------------------------
 -----
 title
 -----
 Symbolic Z-matrix:
 Charge =  0 Multiplicity = 1

 SCF Done:  E(RHF) =  -184.797854610     A.U. after   13 cycles
 Normal termination of Gaussian 16 at Wed Apr  9 00:40:03 2025.
 Gaussian 16:  ES64L-G16RevC.01  3-Jul-2019

 ----------------------------------------------------------------------
 #t hf aug-cc-pvdz iop(5/13=1,5/36=2,99/5=2) pseudo=read geom=check gue
 ss=(read,tcheck) scf=(maxcycle=1)
 ----------------------------------------------------------------------
 -----
 title
 -----
 Structure from the checkpoint file:  "BDE49_nonexpt_62_mol1.chk"
 Charge =  0 Multiplicity = 1

                         Standard orientation:
 ---------------------------------------------------------------------
 Center     Atomic      Atomic             Coordinates (Angstroms)
 Number     Number       Type             X           Y           Z
 ---------------------------------------------------------------------
      1          5           0        2.396631   -0.115831    0.000005
      2          5           0        0.851257   -0.740536   -0.000005
      3          7           0       -0.368467   -0.065621   -0.000002
      4          6           0       -1.666708   -0.734138   -0.000006
      5          1           0       -2.250723   -0.454293    0.885541
      6          1           0       -1.524752   -1.813077   -0.000012
      7          1           0       -2.250723   -0.454283   -0.885550
      8          6           0       -0.484035    1.389394    0.000006
      9          1           0        0.505472    1.846757    0.000010
     10          1           0       -1.027626    1.740655    0.885715
     11          1           0       -1.027625    1.740665   -0.885699
     12          1           0        0.796958   -1.946124   -0.000006
     13          1           0        3.011653    0.074687   -1.010674
     14          1           0        3.011651    0.074662    1.010690
 ---------------------------------------------------------------------

 SCF Done:  E(RHF) =  -185.719377705     A.U. after    2 cycles

 The electronic state is 1-A.
 Alpha  occ. eigenvalues --  -15.69917 -11.39869 -11.38627  -7.58415  -7.56951
 Alpha  occ. eigenvalues --   -1.41720  -1.03930  -0.98481  -0.84654  -0.70522
 Alpha  occ. eigenvalues --   -0.63152  -0.61555  -0.58265  -0.54506  -0.50575
 Alpha  occ. eigenvalues --   -0.47333  -0.46870  -0.36195  -0.34910
 Alpha virt. eigenvalues --    0.02522   0.02801   0.03122   0.04021   0.06686
 Alpha virt. eigenvalues --    0.06981   0.07052   0.07636   0.08430   0.08762
 Alpha virt. eigenvalues --    0.09456   0.09496   0.10019   0.11375   0.13377

 Mulliken charges:
               1
     1  B    4.029295
     2  B    3.947715
     3  N   -2.889260
     4  C   -2.918944
     5  H    1.410904
     6  H    1.498232
     7  H    1.410904
     8  C   -2.818508
     9  H    1.661163
    10  H    1.367241
    11  H    1.367242
    12  H   -3.157022
    13  H   -2.454477
    14  H   -2.454486
 Sum of Mulliken charges =   0.00000

 Dipole moment (field-independent basis, Debye):
    X=             -1.7368    Y=              0.7934    Z=             -0.0000  Tot=              1.9094

 Test job not archived.
 1\1\GINC-SE074\SP\RHF\Aug-CC-pVDZ\C2H9B2N1\OHZDE\09-Apr-2025\0\\#t hf
 aug-cc-pvdz iop(5/13=1,5/36=2,99/5=2) pseudo=read geom=check guess=(re
 ad,tcheck) scf=(maxcycle=1)\\title\\0,1\B,0,2.396631,-0.115832,0.00000
 5\B,0,0.851257,-0.740536,-0.000005\N,0,-0.368467,-0.065621,-0.000002\C
 ,0,-1.666708,-0.734137,-0.000006\H,0,-2.250723,-0.454292,0.885541\H,0,
 -1.524753,-1.813077,-0.000012\H,0,-2.250723,-0.454282,-0.88555\C,0,-0.
 484035,1.389394,0.000006\H,0,0.505472,1.846757,0.00001\H,0,-1.027626,1
 .740655,0.885715\H,0,-1.027625,1.740665,-0.885699\H,0,0.796957,-1.9461

 Normal termination of Gaussian 16 at Wed Apr  9 00:40:06 2025.
