 Gaussian 16, Revision C.01,

 ----------------------------------------------------------------------
 #t hf aug-cc-pvdz symm=none int=(grid=ultrafine) guess=(read,tcheck) s
 table=(opt,rrhf)
 ----------------------------------------------------------------------
 -----
 title
 -----
 Symbolic Z-matrix:
 Charge =  0 Multiplicity = 1

 SCF Done:  E(RHF) =  -483.271701857     A.U. after   12 cycles
 Normal termination of Gaussian 16 at Wed Apr  9 00:07:45 2025.
 Gaussian 16:  ES64L-G16RevC.01  3-Jul-2019

 ----------------------------------------------------------------------
 #t hf aug-cc-pvdz iop(5/13=1,5/36=2,99/5=2) pseudo=read geom=check gue
 ss=(read,tcheck) scf=(maxcycle=1)
 ----------------------------------------------------------------------
 -----
 title
 -----
 Structure from the checkpoint file:  "BDE49_nonexpt_2254_mol1.chk"
 Charge =  0 Multiplicity = 1

                         Standard orientation:
 ---------------------------------------------------------------------
 Center     Atomic      Atomic             Coordinates (Angstroms)
 Number     Number       Type             X           Y           Z
 ---------------------------------------------------------------------
      1         14           0       -1.884451   -0.032774    0.056774
      2          8           0       -0.334983   -0.295281   -0.433309
      3          6           0        0.863554   -0.003891    0.307154
      4          6           0        1.871422   -1.103952   -0.001530
      5          1           0        1.470590   -2.079674    0.280493
      6          1           0        2.804984   -0.939520    0.543735
      7          1           0        2.090169   -1.120295   -1.072488
      8          6           0        1.372505    1.386009   -0.066345
      9          1           0        0.632954   -0.025396    1.382365
     10          1           0        2.284925    1.625534    0.487194
     11          1           0        0.626212    2.151251    0.160340
     12          1           0        1.592894    1.429061   -1.136224
     13          1           0       -2.752013   -0.670472   -0.952423
     14          1           0       -2.211634    1.413004    0.147488
     15          1           0       -2.121783   -0.631405    1.395467
 ---------------------------------------------------------------------

 SCF Done:  E(RHF) =  -484.367279906     A.U. after    2 cycles

 The electronic state is 1-A.
 Alpha  occ. eigenvalues --  -76.23062 -21.03483 -11.44842 -11.38982 -11.35683
 Alpha  occ. eigenvalues --   -5.56663  -2.23527  -2.18437  -2.18106  -1.69595
 Alpha  occ. eigenvalues --   -1.16658  -1.00979  -0.83947  -0.75054  -0.63938
 Alpha  occ. eigenvalues --   -0.59834  -0.58424  -0.53936  -0.50942  -0.48995
 Alpha  occ. eigenvalues --   -0.48336  -0.46954  -0.44492  -0.36044  -0.33999
 Alpha virt. eigenvalues --    0.03941   0.05136   0.05780   0.05904   0.06033
 Alpha virt. eigenvalues --    0.06339   0.06437   0.06581   0.07430   0.09091
 Alpha virt. eigenvalues --    0.09825   0.10611   0.11179   0.13308   0.14206

 Mulliken charges:
               1
     1  Si   6.465172
     2  O   -3.423017
     3  C   -0.291418
     4  C   -3.650936
     5  H    1.271187
     6  H    1.233388
     7  H    1.248409
     8  C   -3.478830
     9  H    1.893809
    10  H    1.243036
    11  H    1.341208
    12  H    1.286725
    13  H   -1.685176
    14  H   -1.720292
    15  H   -1.733264
 Sum of Mulliken charges =  -0.00000

 Dipole moment (field-independent basis, Debye):
    X=              1.1011    Y=             -0.0222    Z=              0.0807  Tot=              1.1042

 Test job not archived.
 1\1\GINC-SE402\SP\RHF\Aug-CC-pVDZ\C3H10O1Si1\OHZDE\09-Apr-2025\0\\#t h
 f aug-cc-pvdz iop(5/13=1,5/36=2,99/5=2) pseudo=read geom=check guess=(
 read,tcheck) scf=(maxcycle=1)\\title\\0,1\Si,0,-1.884451,-0.032774,0.0
 56774\O,0,-0.334983,-0.295281,-0.433309\C,0,0.863554,-0.003891,0.30715
 4\C,0,1.871422,-1.103952,-0.00153\H,0,1.47059,-2.079674,0.280493\H,0,2
 .804984,-0.93952,0.543735\H,0,2.090169,-1.120295,-1.072488\C,0,1.37250
 5,1.386009,-0.066345\H,0,0.632954,-0.025396,1.382365\H,0,2.284925,1.62
 5534,0.487194\H,0,0.626212,2.151251,0.16034\H,0,1.592894,1.429061,-1.1

 Normal termination of Gaussian 16 at Wed Apr  9 00:07:49 2025.
