 Gaussian 16, Revision C.01,

 ----------------------------------------------------------------------
 #t hf aug-cc-pvdz symm=none int=(grid=ultrafine) guess=(read,tcheck) s
 table=(opt,rrhf)
 ----------------------------------------------------------------------
 -----
 title
 -----
 Symbolic Z-matrix:
 Charge =  0 Multiplicity = 1

 SCF Done:  E(RHF) =  -1454.54480165     A.U. after   12 cycles
 Normal termination of Gaussian 16 at Wed Apr  9 00:13:08 2025.
 Gaussian 16:  ES64L-G16RevC.01  3-Jul-2019

 ----------------------------------------------------------------------
 #t hf aug-cc-pvdz iop(5/13=1,5/36=2,99/5=2) pseudo=read geom=check gue
 ss=(read,tcheck) scf=(maxcycle=1)
 ----------------------------------------------------------------------
 -----
 title
 -----
 Structure from the checkpoint file:  "BDE49_nonexpt_2416_mol1.chk"
 Charge =  0 Multiplicity = 1

                         Standard orientation:
 ---------------------------------------------------------------------
 Center     Atomic      Atomic             Coordinates (Angstroms)
 Number     Number       Type             X           Y           Z
 ---------------------------------------------------------------------
      1         14           0        0.783575   -0.891647    1.195064
      2         14           0       -0.783575    0.891647    1.195064
      3         16           0       -0.960882    1.925552   -0.689195
      4          1           0       -0.417557    1.822194    2.296058
      5          1           0       -2.152609    0.383123    1.448381
      6         16           0        0.960882   -1.925552   -0.689195
      7          1           0        0.417557   -1.822194    2.296058
      8          1           0        2.152609   -0.383123    1.448381
      9          6           0        0.783575    2.412195   -1.020398
     10          1           0        0.766746    2.991851   -1.943051
     11          1           0        1.411227    1.533666   -1.164580
     12          1           0        1.175453    3.037087   -0.218195
     13          6           0       -0.783575   -2.412195   -1.020398
     14          1           0       -0.766746   -2.991851   -1.943051
     15          1           0       -1.411227   -1.533666   -1.164580
     16          1           0       -1.175453   -3.037087   -0.218195
 ---------------------------------------------------------------------

 SCF Done:  E(RHF) =  -1455.73705072     A.U. after    2 cycles

 The electronic state is 1-A.
 Alpha  occ. eigenvalues --  -76.24093 -76.24056 -75.67445 -75.67341 -13.10064
 Alpha  occ. eigenvalues --  -13.09632 -13.06650 -13.06639 -13.03663 -13.02338
 Alpha  occ. eigenvalues --  -11.40261 -11.40211  -8.01510  -8.01415  -5.57475
 Alpha  occ. eigenvalues --   -5.57466  -2.19781  -2.19721  -2.19422  -2.19323
 Alpha  occ. eigenvalues --   -2.19052  -2.17863  -1.18062  -1.17355  -0.94323
 Alpha  occ. eigenvalues --   -0.94049  -0.78615  -0.69510  -0.59240  -0.59154
 Alpha  occ. eigenvalues --   -0.59085  -0.58968  -0.50198  -0.48583  -0.42954
 Alpha  occ. eigenvalues --   -0.42809  -0.41470  -0.33458  -0.30964  -0.25562
 Alpha  occ. eigenvalues --   -0.24473
 Alpha virt. eigenvalues --    0.02726   0.03060   0.04170   0.04463   0.05962
 Alpha virt. eigenvalues --    0.06404   0.06922   0.07284   0.07756   0.08450
 Alpha virt. eigenvalues --    0.08956   0.09088   0.09796   0.10116   0.10340

 Mulliken charges:
               1
     1  Si   5.077322
     2  Si   5.077322
     3  S   -0.988515
     4  H   -1.890590
     5  H   -1.875807
     6  S   -0.988515
     7  H   -1.890590
     8  H   -1.875807
     9  C   -4.600097
    10  H    1.424273
    11  H    1.515841
    12  H    1.337573
    13  C   -4.600097
    14  H    1.424273
    15  H    1.515841
    16  H    1.337573
 Sum of Mulliken charges =  -0.00000

 Dipole moment (field-independent basis, Debye):
    X=              0.0000    Y=             -0.0000    Z=             -3.4593  Tot=              3.4593

 Test job not archived.
 1\1\GINC-SE403\SP\RHF\Aug-CC-pVDZ\C2H10S2Si2\OHZDE\09-Apr-2025\0\\#t h
 f aug-cc-pvdz iop(5/13=1,5/36=2,99/5=2) pseudo=read geom=check guess=(
 read,tcheck) scf=(maxcycle=1)\\title\\0,1\Si,0,0.783575,-0.891647,1.19
 5064\Si,0,-0.783575,0.891647,1.195064\S,0,-0.960882,1.925552,-0.689195
 \H,0,-0.417557,1.822194,2.296058\H,0,-2.152609,0.383123,1.448381\S,0,0
 .960882,-1.925552,-0.689195\H,0,0.417557,-1.822194,2.296058\H,0,2.1526
 09,-0.383123,1.448381\C,0,0.783575,2.412195,-1.020398\H,0,0.766746,2.9
 91851,-1.943051\H,0,1.411227,1.533666,-1.16458\H,0,1.175453,3.037087,-

 Normal termination of Gaussian 16 at Wed Apr  9 00:13:13 2025.
