 Gaussian 16, Revision C.01,

 ----------------------------------------------------------------------
 #t hf aug-cc-pvdz symm=none int=(grid=ultrafine) guess=(read,tcheck) s
 table=(opt,rrhf)
 ----------------------------------------------------------------------
 -----
 title
 -----
 Symbolic Z-matrix:
 Charge =  0 Multiplicity = 1

 SCF Done:  E(RHF) =  -707.657164201     A.U. after   14 cycles
 Normal termination of Gaussian 16 at Tue Apr  8 23:52:16 2025.
 Gaussian 16:  ES64L-G16RevC.01  3-Jul-2019

 ----------------------------------------------------------------------
 #t hf aug-cc-pvdz iop(5/13=1,5/36=2,99/5=2) pseudo=read geom=check gue
 ss=(read,tcheck) scf=(maxcycle=1)
 ----------------------------------------------------------------------
 -----
 title
 -----
 Structure from the checkpoint file:  "BDE49_nonexpt_1890_mol1.chk"
 Charge =  0 Multiplicity = 1

                         Standard orientation:
 ---------------------------------------------------------------------
 Center     Atomic      Atomic             Coordinates (Angstroms)
 Number     Number       Type             X           Y           Z
 ---------------------------------------------------------------------
      1         14           0       -0.647597   -1.408626   -0.339955
      2          6           0        0.476370   -0.967257    1.125147
      3          8           0       -1.439688   -0.052896   -0.946715
      4          1           0       -1.611066   -2.414469    0.165722
      5          1           0        0.056430   -1.925158   -1.526938
      6          8           0       -2.229262    0.497754    0.164008
      7          6           0       -1.855769    1.863598    0.269667
      8          1           0       -2.490429    2.255982    1.068306
      9          1           0       -2.063790    2.393350   -0.664211
     10          1           0       -0.800767    1.964185    0.539822
     11          8           0        1.305880    0.175052    0.928178
     12          8           0        2.092910   -0.120816   -0.275297
     13          6           0        2.769327    1.081464   -0.584887
     14          1           0        3.380155    0.836385   -1.456088
     15          1           0        3.414077    1.393075    0.243085
     16          1           0        2.066405    1.881927   -0.837227
     17          1           0        1.082521   -1.835161    1.424613
     18          1           0       -0.145477   -0.688937    1.981327
 ---------------------------------------------------------------------

 SCF Done:  E(RHF) =  -709.627016495     A.U. after    2 cycles

 The electronic state is 1-A.
 Alpha  occ. eigenvalues --  -76.23286 -21.09910 -21.09604 -21.09310 -21.07752
 Alpha  occ. eigenvalues --  -11.40961 -11.40708 -11.39452  -5.57072  -2.23654
 Alpha  occ. eigenvalues --   -2.20029  -2.18990  -1.94492  -1.91588  -1.48045
 Alpha  occ. eigenvalues --   -1.43276  -0.98247  -0.96485  -0.95824  -0.73379
 Alpha  occ. eigenvalues --   -0.64758  -0.64060  -0.62903  -0.62303  -0.61166
 Alpha  occ. eigenvalues --   -0.56593  -0.55841  -0.49270  -0.48995  -0.47616
 Alpha  occ. eigenvalues --   -0.46435  -0.42861  -0.39177  -0.36204  -0.34882
 Alpha  occ. eigenvalues --   -0.28592  -0.25229
 Alpha virt. eigenvalues --    0.03924   0.04820   0.05005   0.05190   0.05688
 Alpha virt. eigenvalues --    0.06246   0.06477   0.07003   0.07558   0.08324
 Alpha virt. eigenvalues --    0.09287   0.10225   0.11631   0.12917   0.13235

 Mulliken charges:
               1
     1  Si   6.714876
     2  C   -2.491372
     3  O   -1.296456
     4  H   -2.032135
     5  H   -1.937283
     6  O   -1.632914
     7  C   -2.688773
     8  H    1.266856
     9  H    1.395891
    10  H    1.472410
    11  O   -1.673653
    12  O   -1.564840
    13  C   -2.548033
    14  H    1.320790
    15  H    1.381927
    16  H    1.416628
    17  H    1.449547
    18  H    1.446534
 Sum of Mulliken charges =  -0.00000

 Dipole moment (field-independent basis, Debye):
    X=              0.7035    Y=              1.3353    Z=              0.4950  Tot=              1.5884

 Test job not archived.
 1\1\GINC-SE080\SP\RHF\Aug-CC-pVDZ\C3H10O4Si1\OHZDE\08-Apr-2025\0\\#t h
 f aug-cc-pvdz iop(5/13=1,5/36=2,99/5=2) pseudo=read geom=check guess=(
 read,tcheck) scf=(maxcycle=1)\\title\\0,1\Si,0,-0.647597,-1.408626,-0.
 339955\C,0,0.47637,-0.967257,1.125147\O,0,-1.439688,-0.052896,-0.94671
 5\H,0,-1.611066,-2.414469,0.165722\H,0,0.05643,-1.925158,-1.526938\O,0
 ,-2.229262,0.497754,0.164008\C,0,-1.855769,1.863598,0.269667\H,0,-2.49
 0429,2.255982,1.068306\H,0,-2.06379,2.39335,-0.664211\H,0,-0.800767,1.
 964185,0.539822\O,0,1.30588,0.175052,0.928178\O,0,2.09291,-0.120816,-0

 Normal termination of Gaussian 16 at Tue Apr  8 23:52:24 2025.
