 Gaussian 16, Revision C.01,

 ----------------------------------------------------------------------
 #t hf aug-cc-pvdz symm=none int=(grid=ultrafine) guess=(read,tcheck) s
 table=opt
 ----------------------------------------------------------------------
 -----
 title
 -----
 Symbolic Z-matrix:
 Charge =  0 Multiplicity = 2

 SCF Done:  E(UHF) =  -139.721752858     A.U. after   15 cycles
 Normal termination of Gaussian 16 at Wed Apr  9 00:35:51 2025.
 Gaussian 16:  ES64L-G16RevC.01  3-Jul-2019

 ----------------------------------------------------------------------
 #t hf aug-cc-pvdz iop(5/13=1,5/36=2,99/5=2) pseudo=read geom=check gue
 ss=(read,tcheck) scf=(maxcycle=1)
 ----------------------------------------------------------------------
 -----
 title
 -----
 Structure from the checkpoint file:  "BDE49_nonexpt_45_mol2.chk"
 Charge =  0 Multiplicity = 2

                         Standard orientation:
 ---------------------------------------------------------------------
 Center     Atomic      Atomic             Coordinates (Angstroms)
 Number     Number       Type             X           Y           Z
 ---------------------------------------------------------------------
      1          5           0       -1.401575    0.108253   -0.000001
      2          8           0       -0.226450   -0.494710   -0.000002
      3          6           0        1.047730    0.183429    0.000002
      4          1           0        1.596937   -0.125870   -0.889811
      5          1           0        1.596937   -0.125881    0.889812
      6          1           0        0.910661    1.267534    0.000009
      7          1           0       -1.571442    1.300057    0.000004
 ---------------------------------------------------------------------

 SCF Done:  E(UHF) =  -140.330023001     A.U. after    2 cycles

 The electronic state is 2-A.
 Alpha  occ. eigenvalues --  -21.04220 -11.42422  -7.64519  -1.77546  -1.01923
 Alpha  occ. eigenvalues --   -0.74533  -0.62119  -0.61288  -0.56886  -0.41645
 Alpha  occ. eigenvalues --   -0.40711  -0.30270
 Alpha virt. eigenvalues --    0.03075   0.04264   0.04785   0.05415   0.06907
 Alpha virt. eigenvalues --    0.07585   0.09428   0.11839   0.14297   0.14694
 Alpha virt. eigenvalues --    0.15411   0.16923   0.17132   0.22689   0.23365

  Beta  occ. eigenvalues --  -21.04241 -11.42239  -7.62644  -1.77180  -1.01119
  Beta  occ. eigenvalues --   -0.71492  -0.62142  -0.59265  -0.55736  -0.40655
  Beta  occ. eigenvalues --   -0.39525
  Beta virt. eigenvalues --    0.02686   0.04260   0.04437   0.05031   0.06974
  Beta virt. eigenvalues --    0.07632   0.08875   0.09720   0.13046   0.14802
  Beta virt. eigenvalues --    0.15357   0.15675   0.18660   0.19217   0.22858

 Mulliken charges and spin densities:
               1          2
     1  B    2.583670   1.098927
     2  O   -2.372935  -0.239503
     3  C   -2.343190   0.054658
     4  H    1.204295   0.003346
     5  H    1.204295   0.003346
     6  H    1.411526  -0.003430
     7  H   -1.687661   0.082655
 Sum of Mulliken charges =  -0.00000   1.00000

 Dipole moment (field-independent basis, Debye):
    X=              2.1048    Y=              0.5488    Z=              0.0000  Tot=              2.1751
                          Isotropic Fermi Contact Couplings
        Atom                 a.u.       MegaHertz       Gauss      10(-4) cm-1
     1  B(11)              0.25555     366.54518     130.79244     122.26631
     2  O(17)              0.11430     -69.28596     -24.72295     -23.11131
     3  C(13)              0.05462      61.40879      21.91218      20.48377
     4  H(1)              -0.00095      -4.25003      -1.51652      -1.41766
     5  H(1)              -0.00095      -4.25002      -1.51651      -1.41765
     6  H(1)              -0.00069      -3.09094      -1.10292      -1.03103
     7  H(1)               0.02654     118.61010      42.32303      39.56407
 --------------------------------------------------------

 Normal termination of Gaussian 16 at Wed Apr  9 00:35:53 2025.
