 Gaussian 16, Revision C.01,

 ----------------------------------------------------------------------
 #t hf aug-cc-pvdz symm=none int=(grid=ultrafine) guess=(read,tcheck) s
 table=(opt,rrhf)
 ----------------------------------------------------------------------
 -----
 title
 -----
 Symbolic Z-matrix:
 Charge =  0 Multiplicity = 1

 SCF Done:  E(RHF) =  -251.641899700     A.U. after   14 cycles
 Normal termination of Gaussian 16 at Tue Apr  8 23:20:51 2025.
 Gaussian 16:  ES64L-G16RevC.01  3-Jul-2019

 ----------------------------------------------------------------------
 #t hf aug-cc-pvdz iop(5/13=1,5/36=2,99/5=2) pseudo=read geom=check gue
 ss=(read,tcheck) scf=(maxcycle=1)
 ----------------------------------------------------------------------
 -----
 title
 -----
 Structure from the checkpoint file:  "BDE49_nonexpt_1136_mol1.chk"
 Charge =  0 Multiplicity = 1

                         Standard orientation:
 ---------------------------------------------------------------------
 Center     Atomic      Atomic             Coordinates (Angstroms)
 Number     Number       Type             X           Y           Z
 ---------------------------------------------------------------------
      1          9           0       -0.362262   -1.371192    0.000000
      2          8           0       -0.977924   -0.074120    0.000000
      3          6           0        0.000000    0.883695    0.000000
      4          6           0        1.315073    0.736078    0.000000
      5          1           0       -0.527140    1.834286    0.000000
      6          1           0        1.781386   -0.237383    0.000000
      7          1           0        1.939068    1.618146    0.000000
 ---------------------------------------------------------------------

 SCF Done:  E(RHF) =  -252.651514159     A.U. after    2 cycles

 The electronic state is 1-A'.
 Alpha  occ. eigenvalues --  -29.30625 -21.18062 -11.47065 -11.39494  -1.83898
 Alpha  occ. eigenvalues --   -1.12996  -0.88285  -0.69492  -0.67432  -0.56783
 Alpha  occ. eigenvalues --   -0.56610  -0.51802  -0.36628  -0.36613  -0.27663
 Alpha  occ. eigenvalues --   -0.23096
 Alpha virt. eigenvalues --    0.03866   0.05301   0.06464   0.10613   0.11028
 Alpha virt. eigenvalues --    0.12892   0.13376   0.13870   0.15585   0.18199
 Alpha virt. eigenvalues --    0.20838   0.20921   0.22767   0.24053   0.25972

 Mulliken charges:
               1
     1  F   -0.096804
     2  O   -1.578378
     3  C   -0.177936
     4  C   -2.169772
     5  H    1.285366
     6  H    1.346407
     7  H    1.391117
 Sum of Mulliken charges =   0.00000

 Dipole moment (field-independent basis, Debye):
    X=              0.3124    Y=             -0.7427    Z=              0.0000  Tot=              0.8058

 Test job not archived.
 1\1\GINC-SE402\SP\RHF\Aug-CC-pVDZ\C2H3F1O1\OHZDE\08-Apr-2025\0\\#t hf
 aug-cc-pvdz iop(5/13=1,5/36=2,99/5=2) pseudo=read geom=check guess=(re
 ad,tcheck) scf=(maxcycle=1)\\title\\0,1\F,0,-0.362262,-1.371192,0.\O,0
 ,-0.977924,-0.07412,0.\C,0,0.,0.883695,0.\C,0,1.315073,0.736078,0.\H,0
 ,-0.52714,1.834286,0.\H,0,1.781386,-0.237383,0.\H,0,1.939068,1.618146,
 0.\\Version=ES64L-G16RevC.01\State=1-A'\HF=-252.6515142\RMSD=3.647e-01
 \Dipole=0.1229234,-0.2922102,0.\Quadrupole=-0.0626013,1.9542425,-1.891
 6412,-0.2496334,0.,0.\PG=CS [SG(C2H3F1O1)]\\@

 Normal termination of Gaussian 16 at Tue Apr  8 23:20:53 2025.
