 Gaussian 16, Revision C.01,

 ----------------------------------------------------------------------
 #t hf aug-cc-pvdz symm=none int=(grid=ultrafine) guess=(read,tcheck) s
 table=(opt,rrhf)
 ----------------------------------------------------------------------
 -----
 title
 -----
 Symbolic Z-matrix:
 Charge =  0 Multiplicity = 1

 SCF Done:  E(RHF) =  -1010.22207104     A.U. after   12 cycles
 Normal termination of Gaussian 16 at Tue Apr  8 23:55:12 2025.
 Gaussian 16:  ES64L-G16RevC.01  3-Jul-2019

 ----------------------------------------------------------------------
 #t hf aug-cc-pvdz iop(5/13=1,5/36=2,99/5=2) pseudo=read geom=check gue
 ss=(read,tcheck) scf=(maxcycle=1)
 ----------------------------------------------------------------------
 -----
 title
 -----
 Structure from the checkpoint file:  "BDE49_nonexpt_1956_mol1.chk"
 Charge =  0 Multiplicity = 1

                         Standard orientation:
 ---------------------------------------------------------------------
 Center     Atomic      Atomic             Coordinates (Angstroms)
 Number     Number       Type             X           Y           Z
 ---------------------------------------------------------------------
      1         14           0        2.794707    0.566432   -0.105547
      2          6           0        1.684550   -0.913797    0.331665
      3         15           0       -0.906100   -0.430866    0.057263
      4          8           0       -0.862592    1.113272   -0.310295
      5          8           0       -1.937927   -1.001237   -1.022652
      6          1           0       -2.309529   -1.846719   -0.745124
      7          8           0       -1.209541   -0.762278    1.453071
      8          8           0        0.486709   -0.940441   -0.501645
      9          1           0        3.085171    0.558026   -1.555487
     10          1           0        4.059262    0.409429    0.653900
     11          6           0       -1.921030    1.986342    0.137157
     12          1           0       -1.567426    3.002622   -0.024109
     13          1           0       -2.126016    1.820611    1.195997
     14          1           0       -2.822140    1.809204   -0.453609
     15          1           0        2.150553    1.841310    0.272228
     16          1           0        1.396266   -0.919532    1.386525
     17          1           0        2.205152   -1.851804    0.127628
 ---------------------------------------------------------------------

 SCF Done:  E(RHF) =  -1012.21976631     A.U. after    2 cycles

 The electronic state is 1-A.
 Alpha  occ. eigenvalues -- -105.31713 -76.21975 -21.11501 -21.08173 -21.08094
 Alpha  occ. eigenvalues --  -21.02040 -11.42531 -11.41137  -5.55494  -2.95327
 Alpha  occ. eigenvalues --   -2.19215  -2.17825  -2.17741  -2.00584  -1.93225
 Alpha  occ. eigenvalues --   -1.92009  -1.75324  -1.43313  -1.41424  -1.25910
 Alpha  occ. eigenvalues --   -0.99006  -0.97122  -0.76282  -0.69621  -0.63143
 Alpha  occ. eigenvalues --   -0.62953  -0.61033  -0.57742  -0.55033  -0.49808
 Alpha  occ. eigenvalues --   -0.48195  -0.47166  -0.46698  -0.43483  -0.39155
 Alpha  occ. eigenvalues --   -0.35542  -0.34154  -0.33452  -0.27833  -0.25908
 Alpha  occ. eigenvalues --   -0.15934
 Alpha virt. eigenvalues --    0.03510   0.04725   0.04960   0.05596   0.06109
 Alpha virt. eigenvalues --    0.06514   0.06958   0.07549   0.08368   0.09571
 Alpha virt. eigenvalues --    0.10090   0.10849   0.12328   0.12898   0.13412

 Mulliken charges:
               1
     1  Si   6.201295
     2  C   -2.950867
     3  P    9.648883
     4  O   -3.546191
     5  O   -2.679852
     6  H    0.777147
     7  O   -2.957838
     8  O   -3.384871
     9  H   -1.777127
    10  H   -1.684156
    11  C   -2.932952
    12  H    1.326291
    13  H    1.337686
    14  H    1.361709
    15  H   -1.733804
    16  H    1.692590
    17  H    1.302058
 Sum of Mulliken charges =  -0.00000

 Dipole moment (field-independent basis, Debye):
    X=              0.1586    Y=              0.4323    Z=             -2.3603  Tot=              2.4048

 Test job not archived.
 1\1\GINC-SE069\SP\RHF\Aug-CC-pVDZ\C2H9O4P1Si1\OHZDE\08-Apr-2025\0\\#t
 hf aug-cc-pvdz iop(5/13=1,5/36=2,99/5=2) pseudo=read geom=check guess=
 (read,tcheck) scf=(maxcycle=1)\\title\\0,1\Si,0,2.794707,0.566432,-0.1
 05547\C,0,1.68455,-0.913797,0.331665\P,0,-0.9061,-0.430866,0.057263\O,
 0,-0.862592,1.113272,-0.310295\O,0,-1.937927,-1.001237,-1.022652\H,0,-
 2.309529,-1.846719,-0.745124\O,0,-1.209541,-0.762278,1.453071\O,0,0.48
 6709,-0.940441,-0.501645\H,0,3.085171,0.558026,-1.555487\H,0,4.059262,
 0.409429,0.6539\C,0,-1.92103,1.986342,0.137157\H,0,-1.567426,3.002622,

 Normal termination of Gaussian 16 at Tue Apr  8 23:55:19 2025.
