 Gaussian 16, Revision C.01,

 ----------------------------------------------------------------------
 #t hf aug-cc-pvdz symm=none int=(grid=ultrafine) guess=(read,tcheck) s
 table=(opt,rrhf)
 ----------------------------------------------------------------------
 -----
 title
 -----
 Symbolic Z-matrix:
 Charge =  0 Multiplicity = 1

 SCF Done:  E(RHF) =  -799.049967772     A.U. after   15 cycles
 Normal termination of Gaussian 16 at Wed Apr  9 00:23:48 2025.
 Gaussian 16:  ES64L-G16RevC.01  3-Jul-2019

 ----------------------------------------------------------------------
 #t hf aug-cc-pvdz iop(5/13=1,5/36=2,99/5=2) pseudo=read geom=check gue
 ss=(read,tcheck) scf=(maxcycle=1)
 ----------------------------------------------------------------------
 -----
 title
 -----
 Structure from the checkpoint file:  "BDE49_nonexpt_2683_mol1.chk"
 Charge =  0 Multiplicity = 1

                         Standard orientation:
 ---------------------------------------------------------------------
 Center     Atomic      Atomic             Coordinates (Angstroms)
 Number     Number       Type             X           Y           Z
 ---------------------------------------------------------------------
      1          9           0       -2.305787    0.614458    0.860156
      2         16           0       -1.835043   -0.310817   -0.428452
      3          8           0       -0.338701   -0.811934    0.072733
      4          6           0        0.742099    0.048077   -0.127206
      5          8           0        0.686819    1.153080   -0.568652
      6          8           0        1.808610   -0.622323    0.281244
      7          6           0        3.054696    0.101956    0.183166
      8          1           0        3.012284    1.006715    0.789984
      9          1           0        3.255531    0.366999   -0.855171
     10          1           0        3.810367   -0.581547    0.560660
 ---------------------------------------------------------------------

 SCF Done:  E(RHF) =  -800.869895158     A.U. after    2 cycles

 The electronic state is 1-A.
 Alpha  occ. eigenvalues --  -75.81604 -29.29055 -21.14206 -21.12498 -21.08099
 Alpha  occ. eigenvalues --  -13.29076 -13.22173 -13.15464 -11.56769 -11.43933
 Alpha  occ. eigenvalues --   -8.15231  -1.93941  -1.77422  -1.70212  -1.18492
 Alpha  occ. eigenvalues --   -1.03908  -0.81580  -0.72331  -0.68604  -0.65838
 Alpha  occ. eigenvalues --   -0.62803  -0.58667  -0.57223  -0.50330  -0.45619
 Alpha  occ. eigenvalues --   -0.43425  -0.40519  -0.35400  -0.33769  -0.32704
 Alpha  occ. eigenvalues --   -0.31519  -0.18603
 Alpha virt. eigenvalues --    0.03136   0.05599   0.06003   0.06540   0.08185
 Alpha virt. eigenvalues --    0.09703   0.10973   0.13373   0.14096   0.14517
 Alpha virt. eigenvalues --    0.14964   0.15323   0.17074   0.18010   0.18488

 Mulliken charges:
               1
     1  F   -0.212463
     2  S    0.918923
     3  O   -2.342890
     4  C    5.957832
     5  O   -2.284458
     6  O   -2.907178
     7  C   -2.981822
     8  H    1.246397
     9  H    1.251710
    10  H    1.353948
 Sum of Mulliken charges =   0.00000

 Dipole moment (field-independent basis, Debye):
    X=              0.1470    Y=              1.0790    Z=              1.7239  Tot=              2.0390

 Test job not archived.
 1\1\GINC-SE253\SP\RHF\Aug-CC-pVDZ\C2H3F1O3S1\OHZDE\09-Apr-2025\0\\#t h
 f aug-cc-pvdz iop(5/13=1,5/36=2,99/5=2) pseudo=read geom=check guess=(
 read,tcheck) scf=(maxcycle=1)\\title\\0,1\F,0,-2.305787,0.614458,0.860
 156\S,0,-1.835043,-0.310817,-0.428452\O,0,-0.338701,-0.811934,0.072733
 \C,0,0.742099,0.048077,-0.127206\O,0,0.686819,1.15308,-0.568652\O,0,1.
 80861,-0.622323,0.281244\C,0,3.054696,0.101956,0.183166\H,0,3.012284,1
 .006715,0.789984\H,0,3.255531,0.366999,-0.855171\H,0,3.810367,-0.58154
 7,0.56066\\Version=ES64L-G16RevC.01\State=1-A\HF=-800.8698952\RMSD=5.3

 Normal termination of Gaussian 16 at Wed Apr  9 00:23:52 2025.
