 Gaussian 16, Revision C.01,

 ----------------------------------------------------------------------
 #t hf aug-cc-pvdz symm=none int=(grid=ultrafine) guess=(read,tcheck) s
 table=(opt,rrhf)
 ----------------------------------------------------------------------
 -----
 title
 -----
 Symbolic Z-matrix:
 Charge =  0 Multiplicity = 1

 SCF Done:  E(RHF) =  -1126.49347475     A.U. after   13 cycles
 Normal termination of Gaussian 16 at Tue Apr  8 23:31:07 2025.
 Gaussian 16:  ES64L-G16RevC.01  3-Jul-2019

 ----------------------------------------------------------------------
 #t hf aug-cc-pvdz iop(5/13=1,5/36=2,99/5=2) pseudo=read geom=check gue
 ss=(read,tcheck) scf=(maxcycle=1)
 ----------------------------------------------------------------------
 -----
 title
 -----
 Structure from the checkpoint file:  "BDE49_nonexpt_1371_mol1.chk"
 Charge =  0 Multiplicity = 1

                         Standard orientation:
 ---------------------------------------------------------------------
 Center     Atomic      Atomic             Coordinates (Angstroms)
 Number     Number       Type             X           Y           Z
 ---------------------------------------------------------------------
      1          9           0        0.163731    1.665660    1.214121
      2         16           0       -0.148918   -0.954959   -0.000000
      3          8           0        0.163731   -1.593584    1.266357
      4         15           0        0.983329    0.994463   -0.000000
      5          6           0       -1.885536   -0.481910    0.000000
      6          1           0       -2.446997   -1.417573    0.000000
      7          1           0       -2.086945    0.093451    0.902018
      8          9           0        0.163731    1.665660   -1.214121
      9          8           0        0.163731   -1.593584   -1.266357
     10          1           0       -2.086945    0.093451   -0.902018
 ---------------------------------------------------------------------

 SCF Done:  E(RHF) =  -1128.44528487     A.U. after    2 cycles

 The electronic state is 1-A'.
 Alpha  occ. eigenvalues -- -105.35077 -75.89565 -29.33360 -29.33353 -21.06340
 Alpha  occ. eigenvalues --  -21.06319 -13.51706 -13.39573 -13.32497 -11.43727
 Alpha  occ. eigenvalues --   -8.24693  -2.94471  -1.84068  -1.68299  -1.66037
 Alpha  occ. eigenvalues --   -1.64287  -1.56864  -1.16136  -0.96920  -0.87068
 Alpha  occ. eigenvalues --   -0.65175  -0.64995  -0.60213  -0.59678  -0.54619
 Alpha  occ. eigenvalues --   -0.46835  -0.46459  -0.44006  -0.41760  -0.40175
 Alpha  occ. eigenvalues --   -0.38797  -0.38386  -0.36496  -0.31758  -0.23378
 Alpha  occ. eigenvalues --   -0.19406  -0.03646
 Alpha virt. eigenvalues --    0.03764   0.06107   0.06368   0.06879   0.09967
 Alpha virt. eigenvalues --    0.09987   0.11775   0.13033   0.13440   0.14524
 Alpha virt. eigenvalues --    0.14998   0.16200   0.16376   0.18572   0.20007

 Mulliken charges:
               1
     1  F   -0.439176
     2  S    4.323133
     3  O   -2.477980
     4  P    2.357911
     5  C   -4.807629
     6  H    1.319501
     7  H    1.320698
     8  F   -0.439176
     9  O   -2.477980
    10  H    1.320698
 Sum of Mulliken charges =   0.00000

 Dipole moment (field-independent basis, Debye):
    X=             -2.7007    Y=              6.8145    Z=              0.0000  Tot=              7.3301

 Test job not archived.
 1\1\GINC-SE454\SP\RHF\Aug-CC-pVDZ\C1H3F2O2P1S1\OHZDE\08-Apr-2025\0\\#t
  hf aug-cc-pvdz iop(5/13=1,5/36=2,99/5=2) pseudo=read geom=check guess
 =(read,tcheck) scf=(maxcycle=1)\\title\\0,1\F,0,0.163731,1.66566,1.214
 121\S,0,-0.148918,-0.954959,0.\O,0,0.163731,-1.593584,1.266357\P,0,0.9
 83329,0.994463,0.\C,0,-1.885536,-0.48191,0.\H,0,-2.446997,-1.417573,0.
 \H,0,-2.086945,0.093451,0.902018\F,0,0.163731,1.66566,-1.214121\O,0,0.
 163731,-1.593584,-1.266357\H,0,-2.086945,0.093451,-0.902018\\Version=E
 S64L-G16RevC.01\State=1-A'\HF=-1128.4452849\RMSD=1.443e-01\Dipole=-1.0

 Normal termination of Gaussian 16 at Tue Apr  8 23:31:11 2025.
