 Gaussian 16, Revision C.01,

 ----------------------------------------------------------------------
 #t hf aug-cc-pvdz symm=none int=(grid=ultrafine) guess=(read,tcheck) s
 table=opt
 ----------------------------------------------------------------------
 -----
 title
 -----
 Symbolic Z-matrix:
 Charge =  0 Multiplicity = 2

 SCF Done:  E(UHF) =  -423.536560139     A.U. after   16 cycles

 1\1\GINC-SE460\Stability\UHF\Aug-CC-pVDZ\C7H15O2\OHZDE\08-Apr-2025\0\\
 #t hf aug-cc-pvdz symm=none int=(grid=ultrafine) guess=(read,tcheck) s
 table=opt\\title\\0,2\C,0,0.016477,0.069303,1.053021\O,0,-1.269722,-0.
 336328,0.920424\O,0,0.862243,-0.439145,0.091295\H,0,0.364725,-0.03034,
 2.08415\C,0,-1.932142,-0.040762,-0.338252\C,0,2.238949,-0.037006,0.215
 117\C,0,-2.431134,1.400463,-0.325569\C,0,3.056212,-1.06565,-0.553051\H
 ,0,-3.157964,1.544335,0.478576\H,0,-2.910039,1.6505,-1.276653\H,0,-1.6
 00214,2.091349,-0.166441\C,0,-3.048256,-1.064465,-0.47521\H,0,-1.20489

 Normal termination of Gaussian 16 at Tue Apr  8 23:01:33 2025.
 Gaussian 16:  ES64L-G16RevC.01  3-Jul-2019

 ----------------------------------------------------------------------
 #t hf aug-cc-pvdz iop(5/13=1,5/36=2,99/5=2) pseudo=read geom=check gue
 ss=(read,tcheck) scf=(maxcycle=1)
 ----------------------------------------------------------------------
 -----
 title
 -----
 Structure from the checkpoint file:  "BDE49_expt_191_mol2.chk"
 Charge =  0 Multiplicity = 2

                         Standard orientation:
 ---------------------------------------------------------------------
 Center     Atomic      Atomic             Coordinates (Angstroms)
 Number     Number       Type             X           Y           Z
 ---------------------------------------------------------------------
      1          6           0        0.016477    0.069303    1.053021
      2          8           0       -1.269722   -0.336328    0.920424
      3          8           0        0.862243   -0.439145    0.091295
      4          1           0        0.364725   -0.030340    2.084150
      5          6           0       -1.932142   -0.040762   -0.338252
      6          6           0        2.238949   -0.037006    0.215117
      7          6           0       -2.431134    1.400463   -0.325569
      8          6           0        3.056212   -1.065650   -0.553051
      9          1           0       -3.157964    1.544335    0.478576
     10          1           0       -2.910039    1.650500   -1.276653
     11          1           0       -1.600214    2.091349   -0.166441
     12          6           0       -3.048256   -1.064465   -0.475210
     13          1           0       -1.204898   -0.177724   -1.142407
     14          1           0       -3.751485   -0.974304    0.357158
     15          1           0       -2.639705   -2.076875   -0.471503
     16          1           0       -3.595203   -0.911400   -1.409215
     17          1           0        2.881829   -2.067507   -0.156042
     18          1           0        4.123244   -0.840524   -0.479335
     19          1           0        2.773892   -1.060954   -1.609188
     20          6           0        2.435405    1.388689   -0.294601
     21          1           0        2.509728   -0.080906    1.279910
     22          1           0        2.172189    1.451728   -1.354124
     23          1           0        3.477681    1.698526   -0.177656
     24          1           0        1.802981    2.084452    0.260295
 ---------------------------------------------------------------------

 SCF Done:  E(UHF) =  -425.538778681     A.U. after    2 cycles

 The electronic state is 2-A.
 Alpha  occ. eigenvalues --  -21.05227 -21.04895 -11.44940 -11.44248 -11.42926
 Alpha  occ. eigenvalues --  -11.39227 -11.38574 -11.35758 -11.35139  -1.82598
 Alpha  occ. eigenvalues --   -1.70150  -1.18544  -1.16118  -1.01246  -1.00548
 Alpha  occ. eigenvalues --   -0.91755  -0.83797  -0.79606  -0.67087  -0.65247
 Alpha  occ. eigenvalues --   -0.62858  -0.61110  -0.59307  -0.58007  -0.54401
 Alpha  occ. eigenvalues --   -0.53876  -0.53310  -0.51547  -0.50757  -0.48059
 Alpha  occ. eigenvalues --   -0.47045  -0.46411  -0.44306  -0.38974  -0.37277
 Alpha  occ. eigenvalues --   -0.31219  -0.21512
 Alpha virt. eigenvalues --    0.03994   0.04690   0.05098   0.05166   0.05493
 Alpha virt. eigenvalues --    0.05646   0.05955   0.06666   0.06780   0.07391
 Alpha virt. eigenvalues --    0.07608   0.07984   0.08580   0.09155   0.10684

  Beta  occ. eigenvalues --  -21.04720 -21.04526 -11.44945 -11.44218 -11.40631
  Beta  occ. eigenvalues --  -11.39213 -11.38570 -11.35754 -11.35127  -1.81033
  Beta  occ. eigenvalues --   -1.69142  -1.18163  -1.16013  -1.01170  -1.00469
  Beta  occ. eigenvalues --   -0.88185  -0.83644  -0.77743  -0.66549  -0.64737
  Beta  occ. eigenvalues --   -0.61110  -0.59688  -0.58445  -0.57629  -0.54040
  Beta  occ. eigenvalues --   -0.53492  -0.53195  -0.50589  -0.48497  -0.47565
  Beta  occ. eigenvalues --   -0.46899  -0.44435  -0.41160  -0.38099  -0.35606
  Beta  occ. eigenvalues --   -0.29357
  Beta virt. eigenvalues --    0.03926   0.04691   0.05108   0.05171   0.05451
  Beta virt. eigenvalues --    0.05650   0.05963   0.06681   0.06793   0.07395
  Beta virt. eigenvalues --    0.07604   0.07985   0.08580   0.09155   0.10613

 Mulliken charges and spin densities:
               1          2
     1  C    1.381044   1.100172
     2  O   -3.623772  -0.050873
     3  O   -3.636426   0.026885
     4  H    1.872579   0.014732
     5  C   -0.133575   0.034113
     6  C    0.131452   0.008712
     7  C   -3.771308  -0.009069
     8  C   -4.014659  -0.030849
     9  H    1.320602  -0.003343
    10  H    1.193483  -0.000501
    11  H    1.399718  -0.016821
    12  C   -4.008971  -0.050718
    13  H    2.026963  -0.004357
    14  H    1.277606   0.001961
    15  H    1.295795   0.011343
    16  H    1.187372  -0.001865
    17  H    1.354152   0.007290
    18  H    1.189664  -0.000747
    19  H    1.312084   0.001052
    20  C   -3.743281  -0.012192
    21  H    1.950662   0.003815
    22  H    1.395749   0.000215
    23  H    1.215101  -0.003108
    24  H    1.427967  -0.025848
 Sum of Mulliken charges =  -0.00000   1.00000

 Dipole moment (field-independent basis, Debye):
    X=              0.5755    Y=             -0.2924    Z=             -0.4980  Tot=              0.8153
                          Isotropic Fermi Contact Couplings
        Atom                 a.u.       MegaHertz       Gauss      10(-4) cm-1
     1  C(13)              0.18729     210.55409      75.13094      70.23329
     2  O(17)              0.02587     -15.68279      -5.59601      -5.23122
     3  O(17)              0.04411     -26.73722      -9.54050      -8.91858
     4  H(1)              -0.00188      -8.40790      -3.00015      -2.80457
     5  C(13)              0.01193      13.40890       4.78463       4.47273
     6  C(13)              0.00020       0.22452       0.08012       0.07489
     7  C(13)             -0.00119      -1.34222      -0.47894      -0.44772
     8  C(13)              0.00125       1.40433       0.50110       0.46844

 Normal termination of Gaussian 16 at Tue Apr  8 23:01:48 2025.
