 Gaussian 16, Revision C.01,

 ----------------------------------------------------------------------
 #t hf aug-cc-pvdz symm=none int=(grid=ultrafine) guess=(read,tcheck) s
 table=(opt,rrhf)
 ----------------------------------------------------------------------
 -----
 title
 -----
 Symbolic Z-matrix:
 Charge =  0 Multiplicity = 1

 SCF Done:  E(RHF) =  -800.458936596     A.U. after   16 cycles

 1\1\GINC-SE109\Stability\RHF\Aug-CC-pVDZ\C12H9P1\OHZDE\08-Apr-2025\0\\
 #t hf aug-cc-pvdz symm=none int=(grid=ultrafine) guess=(read,tcheck) s
 table=(opt,rrhf)\\title\\0,1\C,0,-0.919185,-0.00243,2.674367\C,0,0.196
 858,0.012402,3.508609\C,0,1.482192,0.008767,2.961785\C,0,1.66419,-0.00
 403,1.58266\C,0,0.551908,-0.003163,0.734956\C,0,-0.744652,0.002313,1.2
 92432\P,0,-2.04493,-0.096003,0.\C,0,-0.744652,0.002313,-1.292432\H,0,2
 .345679,0.011369,3.617443\H,0,0.066935,0.01863,4.584876\H,0,2.667556,-
 0.011966,1.171621\C,0,0.551908,-0.003163,-0.734956\H,0,-1.915487,-0.01

 Normal termination of Gaussian 16 at Tue Apr  8 23:38:39 2025.
 Gaussian 16:  ES64L-G16RevC.01  3-Jul-2019

 ----------------------------------------------------------------------
 #t hf aug-cc-pvdz iop(5/13=1,5/36=2,99/5=2) pseudo=read geom=check gue
 ss=(read,tcheck) scf=(maxcycle=1)
 ----------------------------------------------------------------------
 -----
 title
 -----
 Structure from the checkpoint file:  "BDE49_nonexpt_1446_mol1.chk"
 Charge =  0 Multiplicity = 1

                         Standard orientation:
 ---------------------------------------------------------------------
 Center     Atomic      Atomic             Coordinates (Angstroms)
 Number     Number       Type             X           Y           Z
 ---------------------------------------------------------------------
      1          6           0       -0.919185   -0.002430    2.674367
      2          6           0        0.196858    0.012402    3.508609
      3          6           0        1.482192    0.008767    2.961785
      4          6           0        1.664190   -0.004030    1.582660
      5          6           0        0.551908   -0.003163    0.734956
      6          6           0       -0.744652    0.002313    1.292432
      7         15           0       -2.044930   -0.096003   -0.000000
      8          6           0       -0.744652    0.002313   -1.292432
      9          1           0        2.345679    0.011369    3.617443
     10          1           0        0.066935    0.018630    4.584876
     11          1           0        2.667556   -0.011966    1.171621
     12          6           0        0.551908   -0.003163   -0.734956
     13          1           0       -1.915487   -0.017223    3.103251
     14          6           0       -0.919185   -0.002430   -2.674367
     15          6           0        0.196858    0.012402   -3.508609
     16          6           0        1.482192    0.008767   -2.961785
     17          6           0        1.664190   -0.004030   -1.582660
     18          1           0       -1.915487   -0.017223   -3.103251
     19          1           0        2.667556   -0.011966   -1.171621
     20          1           0        0.066935    0.018630   -4.584876
     21          1           0        2.345679    0.011369   -3.617443
     22          1           0       -2.431149    1.272109   -0.000000
 ---------------------------------------------------------------------

 SCF Done:  E(RHF) =  -802.844191098     A.U. after    2 cycles

 The electronic state is 1-A'.
 Alpha  occ. eigenvalues -- -105.18335 -11.53097 -11.51127 -11.47104 -11.44559
 Alpha  occ. eigenvalues --  -11.43986 -11.42964 -11.42955 -11.42350 -11.41475
 Alpha  occ. eigenvalues --  -11.41130 -11.39882 -11.36756  -2.76333  -1.54027
 Alpha  occ. eigenvalues --   -1.51595  -1.44186  -1.37315  -1.29689  -1.14814
 Alpha  occ. eigenvalues --   -1.09841  -1.08155  -1.03707  -0.90369  -0.88325
 Alpha  occ. eigenvalues --   -0.83356  -0.81077  -0.75229  -0.69292  -0.67165
 Alpha  occ. eigenvalues --   -0.62272  -0.61204  -0.60525  -0.57723  -0.54434
 Alpha  occ. eigenvalues --   -0.53986  -0.51954  -0.49411  -0.49044  -0.45572
 Alpha  occ. eigenvalues --   -0.42821  -0.38302  -0.34661  -0.34028  -0.28689
 Alpha  occ. eigenvalues --   -0.24062  -0.21729  -0.02416
 Alpha virt. eigenvalues --    0.03424   0.04711   0.05262   0.05475   0.05760
 Alpha virt. eigenvalues --    0.06133   0.07060   0.07287   0.08580   0.08647
 Alpha virt. eigenvalues --    0.09100   0.09193   0.10009   0.11962   0.12082

 Mulliken charges:
               1
     1  C   -3.960229
     2  C   -2.234931
     3  C   -3.726852
     4  C    0.281941
     5  C    2.267223
     6  C   -0.574535
     7  P    3.465526
     8  C   -0.574535
     9  H    1.465418
    10  H    1.503251
    11  H    1.791238
    12  C    2.267223
    13  H    1.484585
    14  C   -3.960229
    15  C   -2.234931
    16  C   -3.726852
    17  C    0.281941
    18  H    1.484585
    19  H    1.791238
    20  H    1.503251
    21  H    1.465418
    22  H   -0.059740
 Sum of Mulliken charges =   0.00000

 Dipole moment (field-independent basis, Debye):
    X=             -0.9186    Y=             -1.5722    Z=              0.0000  Tot=              1.8209

 Test job not archived.
 1\1\GINC-SE109\SP\RHF\Aug-CC-pVDZ\C12H9P1\OHZDE\08-Apr-2025\0\\#t hf a
 ug-cc-pvdz iop(5/13=1,5/36=2,99/5=2) pseudo=read geom=check guess=(rea
 d,tcheck) scf=(maxcycle=1)\\title\\0,1\C,0,-0.919185,-0.00243,2.674367
 \C,0,0.196858,0.012402,3.508609\C,0,1.482192,0.008767,2.961785\C,0,1.6
 6419,-0.00403,1.58266\C,0,0.551908,-0.003163,0.734956\C,0,-0.744652,0.
 002313,1.292432\P,0,-2.04493,-0.096003,0.\C,0,-0.744652,0.002313,-1.29
 2432\H,0,2.345679,0.011369,3.617443\H,0,0.066935,0.01863,4.584876\H,0,
 2.667556,-0.011966,1.171621\C,0,0.551908,-0.003163,-0.734956\H,0,-1.91

 Normal termination of Gaussian 16 at Tue Apr  8 23:38:51 2025.
