 Gaussian 16, Revision C.01,

 ----------------------------------------------------------------------
 #t hf aug-cc-pvdz symm=none int=(grid=ultrafine) guess=(read,tcheck) s
 table=(opt,rrhf)
 ----------------------------------------------------------------------
 -----
 title
 -----
 Symbolic Z-matrix:
 Charge =  0 Multiplicity = 1

 SCF Done:  E(RHF) =  -896.320717748     A.U. after   13 cycles
 Normal termination of Gaussian 16 at Tue Apr  8 23:43:31 2025.
 Gaussian 16:  ES64L-G16RevC.01  3-Jul-2019

 ----------------------------------------------------------------------
 #t hf aug-cc-pvdz iop(5/13=1,5/36=2,99/5=2) pseudo=read geom=check gue
 ss=(read,tcheck) scf=(maxcycle=1)
 ----------------------------------------------------------------------
 -----
 title
 -----
 Structure from the checkpoint file:  "BDE49_nonexpt_1679_mol1.chk"
 Charge =  0 Multiplicity = 1

                         Standard orientation:
 ---------------------------------------------------------------------
 Center     Atomic      Atomic             Coordinates (Angstroms)
 Number     Number       Type             X           Y           Z
 ---------------------------------------------------------------------
      1         14           0       -1.331841    0.743010   -0.079570
      2         15           0        0.767866   -0.106802    0.108314
      3          8           0        1.083203   -0.815245    1.363825
      4          8           0        0.882548   -0.964128   -1.251808
      5          6           0       -2.588328   -0.633490    0.108767
      6          1           0       -2.493818   -1.358327   -0.702957
      7          1           0       -3.603277   -0.227182    0.090819
      8          1           0       -2.443568   -1.157835    1.056096
      9          8           0        1.798768    1.117585   -0.182508
     10          1           0        2.268793    1.360212    0.625312
     11          1           0        1.689889   -1.494278   -1.303513
     12          1           0       -1.445667    1.437992   -1.381007
     13          1           0       -1.430755    1.734556    1.015855
 ---------------------------------------------------------------------

 SCF Done:  E(RHF) =  -897.826910079     A.U. after    2 cycles

 The electronic state is 1-A.
 Alpha  occ. eigenvalues -- -105.28996 -76.23374 -21.11238 -21.10752 -21.01608
 Alpha  occ. eigenvalues --  -11.36545  -5.57109  -2.90874  -2.20579  -2.19154
 Alpha  occ. eigenvalues --   -2.18914  -1.95294  -1.87619  -1.78483  -1.49248
 Alpha  occ. eigenvalues --   -1.39325  -1.25173  -1.05337  -0.75293  -0.67358
 Alpha  occ. eigenvalues --   -0.60015  -0.57613  -0.57264  -0.52715  -0.48168
 Alpha  occ. eigenvalues --   -0.45070  -0.44096  -0.39846  -0.33734  -0.33541
 Alpha  occ. eigenvalues --   -0.29284  -0.21390  -0.12940
 Alpha virt. eigenvalues --    0.03314   0.04627   0.05619   0.06162   0.06504
 Alpha virt. eigenvalues --    0.07322   0.08117   0.08307   0.08933   0.10984
 Alpha virt. eigenvalues --    0.11938   0.12672   0.12939   0.14556   0.15248

 Mulliken charges:
               1
     1  Si   5.105928
     2  P    6.391422
     3  O   -2.891597
     4  O   -2.785083
     5  C   -4.962165
     6  H    1.370050
     7  H    1.265805
     8  H    1.331074
     9  O   -2.729652
    10  H    0.739166
    11  H    0.839105
    12  H   -1.797693
    13  H   -1.876359
 Sum of Mulliken charges =  -0.00000

 Dipole moment (field-independent basis, Debye):
    X=              0.5732    Y=              0.0496    Z=             -2.1208  Tot=              2.1975

 Test job not archived.
 1\1\GINC-SE150\SP\RHF\Aug-CC-pVDZ\C1H7O3P1Si1\OHZDE\08-Apr-2025\0\\#t
 hf aug-cc-pvdz iop(5/13=1,5/36=2,99/5=2) pseudo=read geom=check guess=
 (read,tcheck) scf=(maxcycle=1)\\title\\0,1\Si,0,-1.331841,0.74301,-0.0
 7957\P,0,0.767866,-0.106802,0.108314\O,0,1.083203,-0.815245,1.363825\O
 ,0,0.882548,-0.964128,-1.251808\C,0,-2.588328,-0.63349,0.108767\H,0,-2
 .493818,-1.358327,-0.702957\H,0,-3.603277,-0.227182,0.090819\H,0,-2.44
 3568,-1.157835,1.056096\O,0,1.798768,1.117585,-0.182508\H,0,2.268793,1
 .360212,0.625312\H,0,1.689889,-1.494278,-1.303513\H,0,-1.445667,1.4379

 Normal termination of Gaussian 16 at Tue Apr  8 23:43:35 2025.
