 Gaussian 16, Revision C.01,

 ----------------------------------------------------------------------
 #t hf aug-cc-pvdz symm=none int=(grid=ultrafine) guess=(read,tcheck) s
 table=(opt,rrhf)
 ----------------------------------------------------------------------
 -----
 title
 -----
 Symbolic Z-matrix:
 Charge =  0 Multiplicity = 1

 SCF Done:  E(RHF) =  -2132.61039255     A.U. after   15 cycles
 Normal termination of Gaussian 16 at Tue Apr  8 23:40:42 2025.
 Gaussian 16:  ES64L-G16RevC.01  3-Jul-2019

 ----------------------------------------------------------------------
 #t hf aug-cc-pvdz iop(5/13=1,5/36=2,99/5=2) pseudo=read geom=check gue
 ss=(read,tcheck) scf=(maxcycle=1)
 ----------------------------------------------------------------------
 -----
 title
 -----
 Structure from the checkpoint file:  "BDE49_nonexpt_1614_mol1.chk"
 Charge =  0 Multiplicity = 1

                         Standard orientation:
 ---------------------------------------------------------------------
 Center     Atomic      Atomic             Coordinates (Angstroms)
 Number     Number       Type             X           Y           Z
 ---------------------------------------------------------------------
      1          8           0        0.790960    0.769513   -0.255506
      2         15           0        2.262927    0.056533   -0.033995
      3          8           0        3.142754    1.125499    0.418200
      4          8           0        2.608440   -0.694300   -1.381028
      5          8           0       -0.195833   -0.216958   -0.736395
      6          6           0       -1.380405   -0.003949   -0.073464
      7         17           0       -2.448552   -1.236332   -0.783302
      8         17           0       -2.037285    1.638378   -0.346825
      9         17           0       -1.228969   -0.275916    1.714261
     10          1           0        3.085004   -0.131004   -2.002773
     11          8           0        1.999894   -1.213503    0.865879
     12          1           0        1.635514   -0.999504    1.734001
 ---------------------------------------------------------------------

 SCF Done:  E(RHF) =  -2135.24473381     A.U. after    2 cycles

 The electronic state is 1-A.
 Alpha  occ. eigenvalues -- -105.35636 -99.93780 -99.93444 -99.92999 -21.18339
 Alpha  occ. eigenvalues --  -21.15978 -21.14723 -21.14657 -21.05112 -11.60696
 Alpha  occ. eigenvalues --  -10.51210 -10.50750 -10.50345  -9.71100  -9.70625
 Alpha  occ. eigenvalues --   -9.70267  -9.70191  -9.70115  -9.69958  -9.69807
 Alpha  occ. eigenvalues --   -9.69446  -9.69356  -2.98911  -2.05710  -2.04881
 Alpha  occ. eigenvalues --   -1.95102  -1.83205  -1.69843  -1.45141  -1.43050
 Alpha  occ. eigenvalues --   -1.35589  -1.32861  -1.32384  -1.26801  -0.95912
 Alpha  occ. eigenvalues --   -0.76897  -0.75576  -0.71925  -0.71193  -0.61963
 Alpha  occ. eigenvalues --   -0.61009  -0.59611  -0.58146  -0.54507  -0.53900
 Alpha  occ. eigenvalues --   -0.52828  -0.52097  -0.51781  -0.47197  -0.45086
 Alpha  occ. eigenvalues --   -0.44801  -0.40906  -0.37384  -0.36436  -0.30338
 Alpha  occ. eigenvalues --   -0.30025  -0.18550
 Alpha virt. eigenvalues --   -0.01157   0.03526   0.05034   0.05769   0.06169
 Alpha virt. eigenvalues --    0.07207   0.09337   0.09486   0.10383   0.10898
 Alpha virt. eigenvalues --    0.11640   0.12746   0.14164   0.14682   0.15289

 Mulliken charges:
               1
     1  O   -1.712767
     2  P    8.805487
     3  O   -2.745023
     4  O   -2.708258
     5  O   -1.337020
     6  C   -0.547412
     7  Cl   0.339669
     8  Cl   0.502442
     9  Cl   0.439189
    10  H    0.896175
    11  O   -2.816782
    12  H    0.884298
 Sum of Mulliken charges =  -0.00000

 Dipole moment (field-independent basis, Debye):
    X=              0.8892    Y=             -2.0308    Z=             -1.6699  Tot=              2.7755

 Test job not archived.
 1\1\GINC-SE402\SP\RHF\Aug-CC-pVDZ\C1H2Cl3O5P1\OHZDE\08-Apr-2025\0\\#t
 hf aug-cc-pvdz iop(5/13=1,5/36=2,99/5=2) pseudo=read geom=check guess=
 (read,tcheck) scf=(maxcycle=1)\\title\\0,1\O,0,0.79096,0.769513,-0.255
 506\P,0,2.262927,0.056533,-0.033995\O,0,3.142754,1.125499,0.4182\O,0,2
 .60844,-0.6943,-1.381028\O,0,-0.195833,-0.216958,-0.736395\C,0,-1.3804
 05,-0.003949,-0.073464\Cl,0,-2.448552,-1.236332,-0.783302\Cl,0,-2.0372
 85,1.638378,-0.346825\Cl,0,-1.228969,-0.275916,1.714261\H,0,3.085004,-
 0.131004,-2.002773\O,0,1.999894,-1.213503,0.865879\H,0,1.635514,-0.999

 Normal termination of Gaussian 16 at Tue Apr  8 23:40:50 2025.
