 Gaussian 16, Revision C.01,

 ----------------------------------------------------------------------
 #t hf aug-cc-pvdz symm=none int=(grid=ultrafine) guess=(read,tcheck) s
 table=opt
 ----------------------------------------------------------------------
 -----
 title
 -----
 Symbolic Z-matrix:
 Charge =  0 Multiplicity = 2

 SCF Done:  E(UHF) =  -1145.83484833     A.U. after   17 cycles
 Normal termination of Gaussian 16 at Wed Apr  9 00:01:42 2025.
 Gaussian 16:  ES64L-G16RevC.01  3-Jul-2019

 ----------------------------------------------------------------------
 #t hf aug-cc-pvdz iop(5/13=1,5/36=2,99/5=2) pseudo=read geom=check gue
 ss=(read,tcheck) scf=(maxcycle=1)
 ----------------------------------------------------------------------
 -----
 title
 -----
 Structure from the checkpoint file:  "BDE49_nonexpt_212_mol2.chk"
 Charge =  0 Multiplicity = 2

                         Standard orientation:
 ---------------------------------------------------------------------
 Center     Atomic      Atomic             Coordinates (Angstroms)
 Number     Number       Type             X           Y           Z
 ---------------------------------------------------------------------
      1         17           0       -2.599347   -0.448309   -0.049688
      2          5           0       -0.934149   -0.783998   -0.213873
      3         16           0        0.420478    0.482306    0.064700
      4          8           0        0.662261    0.430978    1.491010
      5          8           0        1.690393   -0.151273   -0.706642
      6          6           0        2.388734   -1.257576   -0.084603
      7          1           0        3.257466   -1.429626   -0.716343
      8          1           0        1.756868   -2.149082   -0.071279
      9          1           0        2.694856   -0.991419    0.925975
     10          8           0        0.158647    1.712786   -0.628354
 ---------------------------------------------------------------------

 SCF Done:  E(UHF) =  -1147.54275321     A.U. after    2 cycles

 The electronic state is 2-A.
 Alpha  occ. eigenvalues --  -99.94986 -75.92045 -21.10999 -21.07095 -21.06904
 Alpha  occ. eigenvalues --  -13.54926 -13.45109 -13.37238 -11.44273 -10.52209
 Alpha  occ. eigenvalues --   -9.72170  -9.71755  -9.71493  -8.27161  -7.75082
 Alpha  occ. eigenvalues --   -1.91873  -1.74328  -1.67496  -1.40190  -1.07497
 Alpha  occ. eigenvalues --   -0.98063  -0.80321  -0.68161  -0.66724  -0.63869
 Alpha  occ. eigenvalues --   -0.60123  -0.59944  -0.59028  -0.51898  -0.47081
 Alpha  occ. eigenvalues --   -0.45418  -0.42245  -0.40346  -0.38324  -0.37268
 Alpha  occ. eigenvalues --   -0.32178
 Alpha virt. eigenvalues --    0.00659   0.02534   0.02906   0.04138   0.04780
 Alpha virt. eigenvalues --    0.06690   0.07639   0.08691   0.11820   0.12003
 Alpha virt. eigenvalues --    0.13276   0.14043   0.14688   0.15658   0.16123

  Beta  occ. eigenvalues --  -99.94920 -75.91980 -21.11049 -21.07046 -21.06721
  Beta  occ. eigenvalues --  -13.54919 -13.45100 -13.36898 -11.44258 -10.52133
  Beta  occ. eigenvalues --   -9.72108  -9.71558  -9.71418  -8.27067  -7.72997
  Beta  occ. eigenvalues --   -1.91739  -1.74265  -1.67199  -1.39322  -1.06994
  Beta  occ. eigenvalues --   -0.96564  -0.78045  -0.67503  -0.66162  -0.63062
  Beta  occ. eigenvalues --   -0.59757  -0.59083  -0.57767  -0.51481  -0.45557
  Beta  occ. eigenvalues --   -0.42851  -0.40786  -0.38579  -0.37860  -0.37075
  Beta virt. eigenvalues --    0.00047   0.02490   0.03077   0.04187   0.04725
  Beta virt. eigenvalues --    0.04965   0.06746   0.07656   0.09294   0.12243
  Beta virt. eigenvalues --    0.12534   0.13509   0.14326   0.14806   0.15867

 Mulliken charges and spin densities:
               1          2
     1  Cl  -0.893469   0.062897
     2  B    1.271867   0.899646
     3  S    6.226506  -0.010532
     4  O   -2.447216   0.020509
     5  O   -2.868558  -0.018512
     6  C   -2.905729  -0.004352
     7  H    1.288746  -0.003247
     8  H    1.511533   0.000738
     9  H    1.392441   0.001799
    10  O   -2.576121   0.051053
 Sum of Mulliken charges =   0.00000   1.00000

 Dipole moment (field-independent basis, Debye):
    X=              1.2449    Y=             -1.5517    Z=             -0.3544  Tot=              2.0207
                          Isotropic Fermi Contact Couplings
        Atom                 a.u.       MegaHertz       Gauss      10(-4) cm-1
     1  Cl(35)             0.06967      30.54601      10.89958      10.18905
     2  B(11)              0.21862     313.58632     111.89540     104.60114
     3  S(33)              0.17817      61.19764      21.83684      20.41334
     4  O(17)              0.00329      -1.99457      -0.71171      -0.66532
     5  O(17)             -0.00557       3.37667       1.20488       1.12634
     6  C(13)              0.00187       2.09726       0.74836       0.69957
     7  H(1)               0.00005       0.23072       0.08233       0.07696
     8  H(1)              -0.00005      -0.21030      -0.07504      -0.07015

 Normal termination of Gaussian 16 at Wed Apr  9 00:01:47 2025.
