 Gaussian 16, Revision C.01,

 ----------------------------------------------------------------------
 #t hf aug-cc-pvdz symm=none int=(grid=ultrafine) guess=(read,tcheck) s
 table=(opt,rrhf)
 ----------------------------------------------------------------------
 -----
 title
 -----
 Symbolic Z-matrix:
 Charge =  0 Multiplicity = 1

 SCF Done:  E(RHF) =  -857.821742011     A.U. after   16 cycles
 Normal termination of Gaussian 16 at Tue Apr  8 22:53:43 2025.
 Gaussian 16:  ES64L-G16RevC.01  3-Jul-2019

 ----------------------------------------------------------------------
 #t hf aug-cc-pvdz iop(5/13=1,5/36=2,99/5=2) pseudo=read geom=check gue
 ss=(read,tcheck) scf=(maxcycle=1)
 ----------------------------------------------------------------------
 -----
 title
 -----
 Structure from the checkpoint file:  "BDE49_expt_1583_mol1.chk"
 Charge =  0 Multiplicity = 1

                         Standard orientation:
 ---------------------------------------------------------------------
 Center     Atomic      Atomic             Coordinates (Angstroms)
 Number     Number       Type             X           Y           Z
 ---------------------------------------------------------------------
      1          6           0       -0.000000    1.405975    0.513572
      2          6           0        0.879889    2.458936    0.778556
      3          6           0       -0.902601    1.508219   -0.550772
      4          6           0       -0.908618    2.647861   -1.347944
      5          6           0        0.850741    3.608068   -0.010093
      6          6           0       -0.037389    3.703728   -1.077812
      7          1           0       -1.593193    0.698142   -0.750830
      8          1           0       -1.606645    2.717623   -2.174848
      9          1           0        1.586782    2.373146    1.595387
     10          1           0        1.534792    4.421507    0.204450
     11          1           0       -0.052142    4.593430   -1.696773
     12         16           0       -0.000000   -0.000000    1.623696
     13          6           0       -0.000000   -1.405975    0.513572
     14          6           0       -0.879889   -2.458936    0.778556
     15          6           0       -0.850741   -3.608068   -0.010093
     16          6           0        0.037389   -3.703728   -1.077812
     17          6           0        0.908618   -2.647861   -1.347944
     18          6           0        0.902601   -1.508219   -0.550772
     19          1           0       -1.586782   -2.373146    1.595387
     20          1           0       -1.534792   -4.421507    0.204450
     21          1           0        0.052142   -4.593430   -1.696773
     22          1           0        1.606645   -2.717623   -2.174848
     23          1           0        1.593193   -0.698142   -0.750830
 ---------------------------------------------------------------------

 SCF Done:  E(RHF) =  -860.261395636     A.U. after    2 cycles

 The electronic state is 1-A.
 Alpha  occ. eigenvalues --  -75.69037 -13.18742 -13.16485 -13.06749 -11.52531
 Alpha  occ. eigenvalues --  -11.51402 -11.44891 -11.44274 -11.44007 -11.43324
 Alpha  occ. eigenvalues --  -11.41651 -11.41588 -11.41082 -11.40966 -11.36903
 Alpha  occ. eigenvalues --  -11.36823  -8.03176  -1.37892  -1.33349  -1.18304
 Alpha  occ. eigenvalues --   -1.09835  -1.09496  -1.09377  -1.01088  -0.87094
 Alpha  occ. eigenvalues --   -0.86940  -0.85935  -0.82145  -0.71847  -0.70512
 Alpha  occ. eigenvalues --   -0.65188  -0.63340  -0.58851  -0.58806  -0.58019
 Alpha  occ. eigenvalues --   -0.57854  -0.55870  -0.52817  -0.50998  -0.50362
 Alpha  occ. eigenvalues --   -0.45610  -0.45459  -0.41248  -0.38764  -0.35782
 Alpha  occ. eigenvalues --   -0.33864  -0.33086  -0.32545  -0.21588
 Alpha virt. eigenvalues --    0.03205   0.04289   0.05173   0.05325   0.05484
 Alpha virt. eigenvalues --    0.05557   0.06292   0.06475   0.07349   0.08405
 Alpha virt. eigenvalues --    0.08441   0.09860   0.10259   0.10987   0.11301

 Mulliken charges:
               1
     1  C    3.446972
     2  C   -3.963437
     3  C   -3.095542
     4  C   -1.340044
     5  C   -1.147969
     6  C   -2.558451
     7  H    2.123353
     8  H    1.555993
     9  H    1.789823
    10  H    1.551081
    11  H    1.538689
    12  S    0.199063
    13  C    3.446972
    14  C   -3.963437
    15  C   -1.147969
    16  C   -2.558451
    17  C   -1.340044
    18  C   -3.095542
    19  H    1.789823
    20  H    1.551081
    21  H    1.538689
    22  H    1.555993
    23  H    2.123353
 Sum of Mulliken charges =  -0.00000

 Dipole moment (field-independent basis, Debye):
    X=             -0.0000    Y=              0.0000    Z=             -0.0835  Tot=              0.0835

 Test job not archived.
 1\1\GINC-SE177\SP\RHF\Aug-CC-pVDZ\C12H10S1\OHZDE\08-Apr-2025\0\\#t hf
 aug-cc-pvdz iop(5/13=1,5/36=2,99/5=2) pseudo=read geom=check guess=(re
 ad,tcheck) scf=(maxcycle=1)\\title\\0,1\C,0,0.,1.405975,0.513572\C,0,0
 .879889,2.458936,0.778556\C,0,-0.902601,1.508219,-0.550772\C,0,-0.9086
 18,2.647861,-1.347944\C,0,0.850741,3.608068,-0.010093\C,0,-0.037389,3.
 703728,-1.077812\H,0,-1.593193,0.698142,-0.75083\H,0,-1.606645,2.71762
 3,-2.174848\H,0,1.586782,2.373146,1.595387\H,0,1.534792,4.421507,0.204
 45\H,0,-0.052142,4.59343,-1.696773\S,0,0.,0.,1.623696\C,0,0.,-1.405975

 Normal termination of Gaussian 16 at Tue Apr  8 22:53:55 2025.
