 Gaussian 16, Revision C.01,

 ----------------------------------------------------------------------
 #t hf aug-cc-pvdz symm=none int=(grid=ultrafine) guess=(read,tcheck) s
 table=opt
 ----------------------------------------------------------------------
 -----
 title
 -----
 Symbolic Z-matrix:
 Charge =  0 Multiplicity = 2

 SCF Done:  E(UHF) =  -645.435129325     A.U. after   27 cycles
 Normal termination of Gaussian 16 at Tue Apr  8 23:35:00 2025.
 Gaussian 16:  ES64L-G16RevC.01  3-Jul-2019

 ----------------------------------------------------------------------
 #t hf aug-cc-pvdz iop(5/13=1,5/36=2,99/5=2) pseudo=read geom=check gue
 ss=(read,tcheck) scf=(maxcycle=1)
 ----------------------------------------------------------------------
 -----
 title
 -----
 Structure from the checkpoint file:  "BDE49_nonexpt_1447_mol2.chk"
 Charge =  0 Multiplicity = 2

                         Standard orientation:
 ---------------------------------------------------------------------
 Center     Atomic      Atomic             Coordinates (Angstroms)
 Number     Number       Type             X           Y           Z
 ---------------------------------------------------------------------
      1         15           0       -0.061602   -0.916030   -0.646730
      2          6           0       -1.367992    0.288028    0.023436
      3          6           0       -2.692596   -0.342378    0.395990
      4          1           0       -3.063053   -0.965229   -0.423289
      5          1           0       -3.417121    0.436832    0.635427
      6          1           0       -2.554231   -0.998870    1.260924
      7          6           0        1.504734   -0.169196    0.112827
      8          6           0        1.915420    1.245105   -0.191858
      9          1           0        2.828270    1.487845    0.354588
     10          1           0        1.102533    1.928479    0.062703
     11          1           0        2.088555    1.344672   -1.268543
     12          8           0        2.146481   -0.934240    0.794780
     13          8           0       -1.173770    1.481409    0.084817
 ---------------------------------------------------------------------

 SCF Done:  E(UHF) =  -646.938545848     A.U. after    2 cycles

 The electronic state is 2-A.
 Alpha  occ. eigenvalues -- -105.20042 -21.08818 -21.07741 -11.50202 -11.49303
 Alpha  occ. eigenvalues --  -11.40383 -11.38935  -2.78710  -1.74418  -1.73236
 Alpha  occ. eigenvalues --   -1.51138  -1.49015  -1.47689  -1.12312  -1.10919
 Alpha  occ. eigenvalues --   -0.83369  -0.73132  -0.68119  -0.60823  -0.60542
 Alpha  occ. eigenvalues --   -0.59182  -0.57853  -0.55385  -0.52397  -0.46208
 Alpha  occ. eigenvalues --   -0.44616  -0.43540  -0.35199  -0.15977  -0.07191
 Alpha  occ. eigenvalues --    0.00237
 Alpha virt. eigenvalues --    0.03246   0.05444   0.06064   0.06361   0.06855
 Alpha virt. eigenvalues --    0.07848   0.08712   0.08856   0.09425   0.11356
 Alpha virt. eigenvalues --    0.12505   0.12884   0.13643   0.13988   0.14687

  Beta  occ. eigenvalues -- -105.19392 -21.07969 -21.07283 -11.50660 -11.49649
  Beta  occ. eigenvalues --  -11.40386 -11.38928  -2.76719  -1.72895  -1.72326
  Beta  occ. eigenvalues --   -1.48718  -1.46502  -1.24688  -1.12287  -1.10879
  Beta  occ. eigenvalues --   -0.81919  -0.73629  -0.67314  -0.61223  -0.60647
  Beta  occ. eigenvalues --   -0.59340  -0.57342  -0.55163  -0.51550  -0.45012
  Beta  occ. eigenvalues --   -0.43933  -0.43540  -0.33190  -0.16985  -0.05575
  Beta virt. eigenvalues --    0.03290   0.05367   0.06009   0.06330   0.06707
  Beta virt. eigenvalues --    0.07844   0.08417   0.09203   0.09405   0.09975
  Beta virt. eigenvalues --    0.12649   0.13012   0.13749   0.13872   0.14293

 Mulliken charges and spin densities:
               1          2
     1  P    3.905227   1.330764
     2  C    1.519506  -0.449406
     3  C   -4.045786   0.063990
     4  H    1.350964  -0.009823
     5  H    1.301776  -0.000230
     6  H    1.196617   0.076880
     7  C    1.152364  -0.468795
     8  C   -4.488726   0.076297
     9  H    1.202968   0.010660
    10  H    1.419494   0.005588
    11  H    1.258924   0.056854
    12  O   -2.816802   0.063311
    13  O   -2.956526   0.243910
 Sum of Mulliken charges =  -0.00000   1.00000

 Dipole moment (field-independent basis, Debye):
    X=              0.0979    Y=             -1.8452    Z=             -1.7346  Tot=              2.5344
                          Isotropic Fermi Contact Couplings
        Atom                 a.u.       MegaHertz       Gauss      10(-4) cm-1
     1  P(31)              0.30054     544.30325     194.22094     181.56002
     2  C(13)             -0.02599     -29.22209     -10.42717      -9.74744
     3  C(13)              0.00570       6.40699       2.28617       2.13714
     4  H(1)              -0.00189      -8.42686      -3.00691      -2.81090
     5  H(1)               0.00011       0.50389       0.17980       0.16808
     6  H(1)              -0.00023      -1.02149      -0.36449      -0.34073
     7  C(13)             -0.01742     -19.58428      -6.98816      -6.53261
     8  C(13)              0.00681       7.65451       2.73132       2.55327

 Normal termination of Gaussian 16 at Tue Apr  8 23:35:05 2025.
