 Gaussian 16, Revision C.01,

 ----------------------------------------------------------------------
 #t hf aug-cc-pvdz symm=none int=(grid=ultrafine) guess=(read,tcheck) s
 table=(opt,rrhf)
 ----------------------------------------------------------------------
 -----
 title
 -----
 Symbolic Z-matrix:
 Charge =  0 Multiplicity = 1

 SCF Done:  E(RHF) =  -880.288261241     A.U. after   14 cycles
 Normal termination of Gaussian 16 at Wed Apr  9 00:41:02 2025.
 Gaussian 16:  ES64L-G16RevC.01  3-Jul-2019

 ----------------------------------------------------------------------
 #t hf aug-cc-pvdz iop(5/13=1,5/36=2,99/5=2) pseudo=read geom=check gue
 ss=(read,tcheck) scf=(maxcycle=1)
 ----------------------------------------------------------------------
 -----
 title
 -----
 Structure from the checkpoint file:  "BDE49_nonexpt_605_mol1.chk"
 Charge =  0 Multiplicity = 1

                         Standard orientation:
 ---------------------------------------------------------------------
 Center     Atomic      Atomic             Coordinates (Angstroms)
 Number     Number       Type             X           Y           Z
 ---------------------------------------------------------------------
      1          6           0       -2.040093   -0.178728    0.041640
      2          6           0       -1.182474   -1.269802   -0.002303
      3          6           0        0.193386   -1.085259   -0.073488
      4          6           0       -1.505129    1.103462    0.015981
      5          6           0       -0.130776    1.271778   -0.035613
      6          6           0        0.763475    0.193310   -0.075244
      7          9           0       -3.363260   -0.359057    0.104131
      8          9           0       -1.684049   -2.508960    0.003908
      9          9           0        0.968768   -2.177353   -0.160437
     10          9           0       -2.312465    2.167813    0.053395
     11          9           0        0.372889    2.521742   -0.060634
     12          5           0        3.249286   -0.340243    0.254096
     13          8           0        4.470002    0.238453    0.055029
     14          1           0        5.197995   -0.311373    0.351875
     15          7           0        2.129978    0.445770   -0.149385
     16          1           0        3.116883   -1.410662    0.745939
     17          1           0        2.341540    1.389010   -0.451946
 ---------------------------------------------------------------------

 SCF Done:  E(RHF) =  -883.655192038     A.U. after    2 cycles

 The electronic state is 1-A.
 Alpha  occ. eigenvalues --  -29.32357 -29.32193 -29.32171 -29.32059 -29.31751
 Alpha  occ. eigenvalues --  -21.07400 -15.75553 -11.61035 -11.54580 -11.53634
 Alpha  occ. eigenvalues --  -11.51700 -11.51095 -11.46262  -7.65371  -1.76713
 Alpha  occ. eigenvalues --   -1.50545  -1.38586  -1.28328  -1.21918  -1.08782
 Alpha  occ. eigenvalues --   -1.04126  -0.91068  -0.88118  -0.82509  -0.76016
 Alpha  occ. eigenvalues --   -0.75307  -0.71927  -0.67534  -0.65527  -0.64317
 Alpha  occ. eigenvalues --   -0.61105  -0.56707  -0.56001  -0.53995  -0.47855
 Alpha  occ. eigenvalues --   -0.44691  -0.44044  -0.42813  -0.42422  -0.41803
 Alpha  occ. eigenvalues --   -0.41057  -0.39819  -0.39385  -0.37389  -0.31787
 Alpha  occ. eigenvalues --   -0.31252  -0.30724  -0.30032  -0.28927  -0.27636
 Alpha  occ. eigenvalues --   -0.20836  -0.19087
 Alpha virt. eigenvalues --    0.03053   0.04313   0.04865   0.05272   0.08201
 Alpha virt. eigenvalues --    0.09244   0.10486   0.10630   0.11564   0.11610
 Alpha virt. eigenvalues --    0.12075   0.12462   0.12669   0.12923   0.13296

 Mulliken charges:
               1
     1  C    1.583975
     2  C   -1.956975
     3  C    2.848124
     4  C   -1.764451
     5  C    2.886348
     6  C   -5.015481
     7  F    1.086625
     8  F    1.083325
     9  F    1.048340
    10  F    1.179472
    11  F    0.898597
    12  B    6.276686
    13  O   -3.791296
    14  H    1.030133
    15  N   -5.304802
    16  H   -3.095025
    17  H    1.006405
 Sum of Mulliken charges =  -0.00000

 Dipole moment (field-independent basis, Debye):
    X=             -0.8355    Y=             -0.3445    Z=              0.1541  Tot=              0.9168

 Test job not archived.
 1\1\GINC-SE038\SP\RHF\Aug-CC-pVDZ\C6H3B1F5N1O1\OHZDE\09-Apr-2025\0\\#t
  hf aug-cc-pvdz iop(5/13=1,5/36=2,99/5=2) pseudo=read geom=check guess
 =(read,tcheck) scf=(maxcycle=1)\\title\\0,1\C,0,-2.040093,-0.178728,0.
 04164\C,0,-1.182474,-1.269802,-0.002303\C,0,0.193386,-1.085259,-0.0734
 88\C,0,-1.505129,1.103462,0.015981\C,0,-0.130776,1.271778,-0.035613\C,
 0,0.763475,0.19331,-0.075244\F,0,-3.36326,-0.359057,0.104131\F,0,-1.68
 4049,-2.50896,0.003908\F,0,0.968768,-2.177353,-0.160437\F,0,-2.312465,
 2.167813,0.053395\F,0,0.372889,2.521742,-0.060634\B,0,3.249286,-0.3402

 Normal termination of Gaussian 16 at Wed Apr  9 00:41:15 2025.
