 Gaussian 16, Revision C.01,

 ----------------------------------------------------------------------
 #t hf aug-cc-pvdz symm=none int=(grid=ultrafine) guess=(read,tcheck) s
 table=(opt,rrhf)
 ----------------------------------------------------------------------
 -----
 title
 -----
 Symbolic Z-matrix:
 Charge =  0 Multiplicity = 1

 SCF Done:  E(RHF) =  -457.409410566     A.U. after   16 cycles
 Normal termination of Gaussian 16 at Tue Apr  8 22:38:43 2025.
 Gaussian 16:  ES64L-G16RevC.01  3-Jul-2019

 ----------------------------------------------------------------------
 #t hf aug-cc-pvdz iop(5/13=1,5/36=2,99/5=2) pseudo=read geom=check gue
 ss=(read,tcheck) scf=(maxcycle=1)
 ----------------------------------------------------------------------
 -----
 title
 -----
 Structure from the checkpoint file:  "BDE49_expt_1120_mol1.chk"
 Charge =  0 Multiplicity = 1

                         Standard orientation:
 ---------------------------------------------------------------------
 Center     Atomic      Atomic             Coordinates (Angstroms)
 Number     Number       Type             X           Y           Z
 ---------------------------------------------------------------------
      1          6           0       -0.903942   -1.105467   -0.521499
      2          6           0       -2.226157   -1.194316   -0.089957
      3          6           0       -2.898476   -0.052363    0.338709
      4          6           0       -2.242282    1.177420    0.334536
      5          6           0       -0.920815    1.263760   -0.094781
      6          6           0       -0.232523    0.124408   -0.530298
      7          1           0       -0.389140   -1.997268   -0.865175
      8          1           0       -2.760890    2.070834    0.663293
      9          1           0       -0.416408    2.224458   -0.097051
     10          1           0       -2.731341   -2.153447   -0.096092
     11          1           0       -3.928041   -0.119026    0.670866
     12          6           0        2.271334   -0.020746    0.126526
     13          8           0        3.433989    0.201134   -0.057375
     14          8           0        1.833964   -0.516034    1.306069
     15          1           0        0.870448   -0.605842    1.285463
     16          6           0        1.211155    0.212836   -0.964649
     17          1           0        1.425029   -0.523263   -1.745553
     18          1           0        1.436946    1.189565   -1.396828
 ---------------------------------------------------------------------

 SCF Done:  E(RHF) =  -459.485820735     A.U. after    2 cycles

 The electronic state is 1-A.
 Alpha  occ. eigenvalues --  -21.11833 -21.04425 -11.54366 -11.52764 -11.45972
 Alpha  occ. eigenvalues --  -11.45364 -11.43245 -11.42833 -11.42604 -11.38349
 Alpha  occ. eigenvalues --   -1.81935  -1.65057  -1.37274  -1.18015  -1.11259
 Alpha  occ. eigenvalues --   -1.04633  -0.88554  -0.86829  -0.79021  -0.72964
 Alpha  occ. eigenvalues --   -0.68602  -0.66914  -0.65025  -0.60026  -0.59530
 Alpha  occ. eigenvalues --   -0.56509  -0.52362  -0.51569  -0.50043  -0.46072
 Alpha  occ. eigenvalues --   -0.45701  -0.45121  -0.35648  -0.35351  -0.32935
 Alpha  occ. eigenvalues --   -0.28519
 Alpha virt. eigenvalues --    0.02680   0.04327   0.04537   0.05388   0.06122
 Alpha virt. eigenvalues --    0.06347   0.07382   0.07712   0.09461   0.09815
 Alpha virt. eigenvalues --    0.10298   0.11418   0.11509   0.12192   0.12353

 Mulliken charges:
               1
     1  C   -2.535617
     2  C   -1.602633
     3  C   -2.913054
     4  C   -1.436365
     5  C   -2.451006
     6  C    4.869066
     7  H    1.733260
     8  H    1.498428
     9  H    1.754318
    10  H    1.484825
    11  H    1.551435
    12  C    5.350064
    13  O   -3.135445
    14  O   -3.216107
    15  H    1.346616
    16  C   -4.704170
    17  H    1.259436
    18  H    1.146949
 Sum of Mulliken charges =   0.00000

 Dipole moment (field-independent basis, Debye):
    X=             -3.3813    Y=             -0.1628    Z=             -0.2506  Tot=              3.3945

 Test job not archived.
 1\1\GINC-SE094\SP\RHF\Aug-CC-pVDZ\C8H8O2\OHZDE\08-Apr-2025\0\\#t hf au
 g-cc-pvdz iop(5/13=1,5/36=2,99/5=2) pseudo=read geom=check guess=(read
 ,tcheck) scf=(maxcycle=1)\\title\\0,1\C,0,-0.903942,-1.105467,-0.52149
 9\C,0,-2.226157,-1.194316,-0.089957\C,0,-2.898476,-0.052363,0.338709\C
 ,0,-2.242282,1.17742,0.334536\C,0,-0.920815,1.26376,-0.094781\C,0,-0.2
 32523,0.124408,-0.530298\H,0,-0.38914,-1.997268,-0.865175\H,0,-2.76089
 ,2.070834,0.663293\H,0,-0.416408,2.224458,-0.097051\H,0,-2.731341,-2.1
 53447,-0.096092\H,0,-3.928041,-0.119026,0.670866\C,0,2.271334,-0.02074

 Normal termination of Gaussian 16 at Tue Apr  8 22:38:52 2025.
