 Gaussian 16, Revision C.01,

 ----------------------------------------------------------------------
 #t hf aug-cc-pvdz symm=none int=(grid=ultrafine) guess=(read,tcheck) s
 table=(opt,rrhf)
 ----------------------------------------------------------------------
 -----
 title
 -----
 Symbolic Z-matrix:
 Charge =  0 Multiplicity = 1

 SCF Done:  E(RHF) =  -805.954305564     A.U. after   12 cycles
 Normal termination of Gaussian 16 at Wed Apr  9 00:14:53 2025.
 Gaussian 16:  ES64L-G16RevC.01  3-Jul-2019

 ----------------------------------------------------------------------
 #t hf aug-cc-pvdz iop(5/13=1,5/36=2,99/5=2) pseudo=read geom=check gue
 ss=(read,tcheck) scf=(maxcycle=1)
 ----------------------------------------------------------------------
 -----
 title
 -----
 Structure from the checkpoint file:  "BDE49_nonexpt_2470_mol1.chk"
 Charge =  0 Multiplicity = 1

                         Standard orientation:
 ---------------------------------------------------------------------
 Center     Atomic      Atomic             Coordinates (Angstroms)
 Number     Number       Type             X           Y           Z
 ---------------------------------------------------------------------
      1         16           0        1.173581   -1.436592   -0.167588
      2         14           0        0.224038    0.444077    0.394284
      3          6           0        1.397202    1.789675   -0.179145
      4          1           0        0.314323   -2.225056    0.501772
      5          1           0        0.992339    2.775842    0.067437
      6          1           0        1.547364    1.749084   -1.261604
      7          6           0       -1.483371    0.642351   -0.376175
      8          6           0       -2.521067   -0.417780    0.028506
      9          1           0       -1.367316    0.660710   -1.465920
     10          1           0       -1.840873    1.641162   -0.091312
     11          1           0       -2.218250   -1.416348   -0.298379
     12          1           0       -3.497070   -0.211384   -0.419570
     13          1           0       -2.659511   -0.450790    1.113401
     14          1           0        2.372563    1.694265    0.303918
     15          1           0        0.086014    0.465442    1.872578
 ---------------------------------------------------------------------

 SCF Done:  E(RHF) =  -806.973090194     A.U. after    2 cycles

 The electronic state is 1-A.
 Alpha  occ. eigenvalues --  -76.22326 -75.67422 -13.13286 -13.06692 -13.02926
 Alpha  occ. eigenvalues --  -11.39812 -11.35322 -11.34863  -8.01375  -5.56079
 Alpha  occ. eigenvalues --   -2.20080  -2.18838  -2.17843  -1.16031  -1.09255
 Alpha  occ. eigenvalues --   -1.03439  -0.89236  -0.69080  -0.61418  -0.57339
 Alpha  occ. eigenvalues --   -0.56676  -0.56440  -0.50474  -0.49908  -0.48581
 Alpha  occ. eigenvalues --   -0.42950  -0.39162  -0.32911  -0.26226
 Alpha virt. eigenvalues --    0.03103   0.04015   0.05161   0.05337   0.06304
 Alpha virt. eigenvalues --    0.06513   0.06886   0.07149   0.08233   0.08605
 Alpha virt. eigenvalues --    0.09149   0.10219   0.10796   0.12249   0.13234

 Mulliken charges:
               1
     1  S   -2.670507
     2  Si   6.221543
     3  C   -5.160842
     4  H    0.932596
     5  H    1.346183
     6  H    1.284560
     7  C   -3.772457
     8  C   -3.769142
     9  H    1.342338
    10  H    1.456808
    11  H    1.248402
    12  H    1.155238
    13  H    1.309202
    14  H    1.271636
    15  H   -2.195559
 Sum of Mulliken charges =  -0.00000

 Dipole moment (field-independent basis, Debye):
    X=              0.7005    Y=              0.5407    Z=             -1.2522  Tot=              1.5333

 Test job not archived.
 1\1\GINC-SE403\SP\RHF\Aug-CC-pVDZ\C3H10S1Si1\OHZDE\09-Apr-2025\0\\#t h
 f aug-cc-pvdz iop(5/13=1,5/36=2,99/5=2) pseudo=read geom=check guess=(
 read,tcheck) scf=(maxcycle=1)\\title\\0,1\S,0,1.173581,-1.436592,-0.16
 7588\Si,0,0.224038,0.444077,0.394284\C,0,1.397202,1.789675,-0.179145\H
 ,0,0.314323,-2.225056,0.501772\H,0,0.992338,2.775842,0.067437\H,0,1.54
 7364,1.749084,-1.261604\C,0,-1.483371,0.642351,-0.376175\C,0,-2.521067
 ,-0.41778,0.028506\H,0,-1.367316,0.66071,-1.46592\H,0,-1.840873,1.6411
 62,-0.091312\H,0,-2.21825,-1.416348,-0.298379\H,0,-3.49707,-0.211384,-

 Normal termination of Gaussian 16 at Wed Apr  9 00:14:57 2025.
