 Gaussian 16, Revision C.01,

 ----------------------------------------------------------------------
 #t hf aug-cc-pvdz symm=none int=(grid=ultrafine) guess=(read,tcheck) s
 table=(opt,rrhf)
 ----------------------------------------------------------------------
 -----
 title
 -----
 Symbolic Z-matrix:
 Charge =  0 Multiplicity = 1

 SCF Done:  E(RHF) =  -628.258305747     A.U. after   15 cycles
 Normal termination of Gaussian 16 at Tue Apr  8 22:46:53 2025.
 Gaussian 16:  ES64L-G16RevC.01  3-Jul-2019

 ----------------------------------------------------------------------
 #t hf aug-cc-pvdz iop(5/13=1,5/36=2,99/5=2) pseudo=read geom=check gue
 ss=(read,tcheck) scf=(maxcycle=1)
 ----------------------------------------------------------------------
 -----
 title
 -----
 Structure from the checkpoint file:  "BDE49_expt_1559_mol1.chk"
 Charge =  0 Multiplicity = 1

                         Standard orientation:
 ---------------------------------------------------------------------
 Center     Atomic      Atomic             Coordinates (Angstroms)
 Number     Number       Type             X           Y           Z
 ---------------------------------------------------------------------
      1          6           0        2.293494    0.003727   -0.000001
      2          6           0        1.588513    1.204992   -0.000001
      3          6           0        0.196377    1.209311   -0.000001
      4          6           0        1.591372   -1.199917   -0.000000
      5          6           0        0.200225   -1.206360    0.000003
      6          6           0       -0.506310    0.000956    0.000001
      7          1           0        3.376999    0.005331   -0.000002
      8          1           0        2.121643    2.149176   -0.000002
      9          1           0       -0.338308    2.152247   -0.000004
     10          1           0        2.126903   -2.142643    0.000001
     11          1           0       -0.336653   -2.148416    0.000007
     12         16           0       -2.288731   -0.083246   -0.000003
     13          1           0       -2.512912    1.239988    0.000054
 ---------------------------------------------------------------------

 SCF Done:  E(RHF) =  -629.592015598     A.U. after    2 cycles

 The electronic state is 1-A.
 Alpha  occ. eigenvalues --  -75.70121 -13.17092 -13.14628 -13.01866 -11.51651
 Alpha  occ. eigenvalues --  -11.44382 -11.43453 -11.41351 -11.41026 -11.36912
 Alpha  occ. eigenvalues --   -8.04110  -1.36086  -1.17180  -1.09818  -1.03458
 Alpha  occ. eigenvalues --   -0.87276  -0.84307  -0.71278  -0.64914  -0.59404
 Alpha  occ. eigenvalues --   -0.58516  -0.55025  -0.51782  -0.48114  -0.45291
 Alpha  occ. eigenvalues --   -0.38593  -0.37425  -0.33683  -0.22655
 Alpha virt. eigenvalues --    0.02998   0.04425   0.04979   0.05662   0.05867
 Alpha virt. eigenvalues --    0.07307   0.09697   0.10522   0.10896   0.11158
 Alpha virt. eigenvalues --    0.12730   0.13700   0.14201   0.14230   0.14641

 Mulliken charges:
               1
     1  C   -2.494321
     2  C   -0.737346
     3  C   -2.700334
     4  C   -0.928323
     5  C   -3.506789
     6  C    2.432509
     7  H    1.507420
     8  H    1.461644
     9  H    1.770091
    10  H    1.507838
    11  H    1.746666
    12  S   -1.102599
    13  H    1.043544
 Sum of Mulliken charges =   0.00000

 Dipole moment (field-independent basis, Debye):
    X=             -0.2732    Y=             -0.8845    Z=             -0.0000  Tot=              0.9257

 Test job not archived.
 1\1\GINC-SE423\SP\RHF\Aug-CC-pVDZ\C6H6S1\OHZDE\08-Apr-2025\0\\#t hf au
 g-cc-pvdz iop(5/13=1,5/36=2,99/5=2) pseudo=read geom=check guess=(read
 ,tcheck) scf=(maxcycle=1)\\title\\0,1\C,0,2.293494,0.003727,-0.000001\
 C,0,1.588513,1.204992,-0.000001\C,0,0.196377,1.209311,-0.000001\C,0,1.
 591372,-1.199917,0.\C,0,0.200225,-1.20636,0.000003\C,0,-0.50631,0.0009
 56,0.000001\H,0,3.376999,0.005331,-0.000002\H,0,2.121643,2.149176,-0.0
 00002\H,0,-0.338308,2.152247,-0.000004\H,0,2.126903,-2.142643,0.000001
 \H,0,-0.336653,-2.148416,0.000007\S,0,-2.288731,-0.083246,-0.000003\H,

 Normal termination of Gaussian 16 at Tue Apr  8 22:46:58 2025.
