 Gaussian 16, Revision C.01,

 ----------------------------------------------------------------------
 #t hf aug-cc-pvdz symm=none int=(grid=ultrafine) guess=(read,tcheck) s
 table=opt
 ----------------------------------------------------------------------
 -----
 title
 -----
 Symbolic Z-matrix:
 Charge =  0 Multiplicity = 2

 SCF Done:  E(UHF) =  -664.939404104     A.U. after   24 cycles
 Normal termination of Gaussian 16 at Wed Apr  9 00:20:13 2025.
 Gaussian 16:  ES64L-G16RevC.01  3-Jul-2019

 ----------------------------------------------------------------------
 #t hf aug-cc-pvdz iop(5/13=1,5/36=2,99/5=2) pseudo=read geom=check gue
 ss=(read,tcheck) scf=(maxcycle=1)
 ----------------------------------------------------------------------
 -----
 title
 -----
 Structure from the checkpoint file:  "BDE49_nonexpt_2587_mol2.chk"
 Charge =  0 Multiplicity = 2

                         Standard orientation:
 ---------------------------------------------------------------------
 Center     Atomic      Atomic             Coordinates (Angstroms)
 Number     Number       Type             X           Y           Z
 ---------------------------------------------------------------------
      1         16           0       -1.047583   -1.277335   -0.081922
      2          6           0       -0.211859    0.385126    0.051388
      3          8           0        0.958702    0.268428   -0.727276
      4          8           0        0.026149    0.686511    1.393862
      5          6           0        2.090874   -0.368999   -0.132591
      6          1           0        2.491125    0.233498    0.686897
      7          1           0        2.834719   -0.443668   -0.923796
      8          1           0        1.847651   -1.374086    0.225471
      9          6           0       -1.030449    1.509446   -0.549392
     10          1           0       -1.174396    1.336238   -1.614824
     11          1           0       -0.492383    2.449105   -0.403977
     12          1           0       -2.000926    1.567119   -0.056650
     13          1           0        0.285339   -0.123793    1.848525
 ---------------------------------------------------------------------

 SCF Done:  E(UHF) =  -666.338881461     A.U. after    2 cycles

 The electronic state is 2-A.
 Alpha  occ. eigenvalues --  -75.70815 -21.09700 -21.06334 -13.14975 -13.07475
 Alpha  occ. eigenvalues --  -13.05709 -11.50980 -11.41523 -11.37675  -8.04451
 Alpha  occ. eigenvalues --   -1.82752  -1.69446  -1.16962  -1.07032  -0.99436
 Alpha  occ. eigenvalues --   -0.80856  -0.67398  -0.64521  -0.62812  -0.60269
 Alpha  occ. eigenvalues --   -0.54796  -0.53016  -0.50134  -0.45023  -0.42713
 Alpha  occ. eigenvalues --   -0.33629  -0.30680  -0.27037  -0.25629
 Alpha virt. eigenvalues --    0.03397   0.05384   0.05471   0.05821   0.06403
 Alpha virt. eigenvalues --    0.06725   0.07059   0.07761   0.11342   0.12435
 Alpha virt. eigenvalues --    0.13352   0.14558   0.15305   0.16035   0.16668

  Beta  occ. eigenvalues --  -75.69816 -21.09655 -21.06178 -13.14315 -13.05551
  Beta  occ. eigenvalues --  -13.01063 -11.51112 -11.41527 -11.37676  -8.03334
  Beta  occ. eigenvalues --   -1.82585  -1.69260  -1.14610  -1.01266  -0.99144
  Beta  occ. eigenvalues --   -0.80012  -0.66796  -0.64131  -0.62681  -0.59881
  Beta  occ. eigenvalues --   -0.54676  -0.52990  -0.49775  -0.44485  -0.41884
  Beta  occ. eigenvalues --   -0.32866  -0.28381  -0.24174
  Beta virt. eigenvalues --    0.03447   0.03921   0.05496   0.05624   0.06045
  Beta virt. eigenvalues --    0.06522   0.07013   0.07248   0.08041   0.11561
  Beta virt. eigenvalues --    0.13282   0.13545   0.14627   0.15663   0.16127

 Mulliken charges and spin densities:
               1          2
     1  S    0.305008   1.138912
     2  C    4.544489  -0.080021
     3  O   -3.192408  -0.038119
     4  O   -3.392727   0.013701
     5  C   -3.140315   0.003484
     6  H    1.294252   0.006131
     7  H    1.268361  -0.001914
     8  H    1.392703  -0.025821
     9  C   -3.869220   0.003855
    10  H    1.273317  -0.005606
    11  H    1.298063  -0.000742
    12  H    1.166968   0.006395
    13  H    1.051509  -0.020255
 Sum of Mulliken charges =  -0.00000   1.00000

 Dipole moment (field-independent basis, Debye):
    X=              0.5235    Y=             -0.3975    Z=              0.0912  Tot=              0.6636
                          Isotropic Fermi Contact Couplings
        Atom                 a.u.       MegaHertz       Gauss      10(-4) cm-1
     1  S(33)              0.26528      91.11630      32.51256      30.39313
     2  C(13)             -0.01532     -17.22654      -6.14686      -5.74616
     3  O(17)              0.02231     -13.52435      -4.82582      -4.51124
     4  O(17)              0.00223      -1.35354      -0.48298      -0.45149
     5  C(13)             -0.00065      -0.73114      -0.26089      -0.24388
     6  H(1)              -0.00009      -0.39444      -0.14074      -0.13157
     7  H(1)               0.00007       0.30067       0.10729       0.10029
     8  H(1)              -0.00017      -0.74337      -0.26525      -0.24796

 Normal termination of Gaussian 16 at Wed Apr  9 00:20:17 2025.
