 Gaussian 16, Revision C.01,

 ----------------------------------------------------------------------
 #t hf aug-cc-pvdz symm=none int=(grid=ultrafine) guess=(read,tcheck) s
 table=(opt,rrhf)
 ----------------------------------------------------------------------
 -----
 title
 -----
 Symbolic Z-matrix:
 Charge =  0 Multiplicity = 1

 SCF Done:  E(RHF) =  -1952.29818536     A.U. after   13 cycles
 Normal termination of Gaussian 16 at Wed Apr  9 00:51:19 2025.
 Gaussian 16:  ES64L-G16RevC.01  3-Jul-2019

 ----------------------------------------------------------------------
 #t hf aug-cc-pvdz iop(5/13=1,5/36=2,99/5=2) pseudo=read geom=check gue
 ss=(read,tcheck) scf=(maxcycle=1)
 ----------------------------------------------------------------------
 -----
 title
 -----
 Structure from the checkpoint file:  "BDE49_nonexpt_916_mol1.chk"
 Charge =  0 Multiplicity = 1

                         Standard orientation:
 ---------------------------------------------------------------------
 Center     Atomic      Atomic             Coordinates (Angstroms)
 Number     Number       Type             X           Y           Z
 ---------------------------------------------------------------------
      1         16           0       -0.470311   -1.176769    0.516134
      2          5           0       -1.759120    0.053919    0.057992
      3         16           0       -3.335350   -0.656323   -0.505923
      4         16           0       -1.641762    1.848346    0.127449
      5         16           0        1.195825   -0.105704    1.186556
      6          6           0        2.198478    0.000437   -0.347896
      7          9           0        3.330156    0.639969   -0.008990
      8          9           0        1.594577    0.695681   -1.320324
      9          9           0        2.519014   -1.197988   -0.843972
     10          1           0       -0.367955    1.890323    0.566587
     11          1           0       -2.995474   -1.954321   -0.397035
 ---------------------------------------------------------------------

 SCF Done:  E(RHF) =  -1954.48205630     A.U. after    2 cycles

 The electronic state is 1-A.
 Alpha  occ. eigenvalues --  -75.75791 -75.74197 -75.71408 -75.71058 -29.33604
 Alpha  occ. eigenvalues --  -29.33320 -29.33245 -13.19746 -13.19035 -13.18493
 Alpha  occ. eigenvalues --  -13.16734 -13.15326 -13.13773 -13.13266 -13.11648
 Alpha  occ. eigenvalues --  -13.09337 -13.08900 -13.06361 -13.04971 -11.61231
 Alpha  occ. eigenvalues --   -8.09844  -8.08117  -8.05476  -8.04841  -7.70098
 Alpha  occ. eigenvalues --   -1.45535  -1.28048  -1.18666  -1.11832  -1.04062
 Alpha  occ. eigenvalues --   -0.91440  -0.90952  -0.72023  -0.67182  -0.56795
 Alpha  occ. eigenvalues --   -0.50698  -0.50260  -0.46522  -0.45591  -0.45401
 Alpha  occ. eigenvalues --   -0.40682  -0.40417  -0.39443  -0.35762  -0.34062
 Alpha  occ. eigenvalues --   -0.31366  -0.30464  -0.27453  -0.26441  -0.25461
 Alpha  occ. eigenvalues --   -0.24218  -0.23367
 Alpha virt. eigenvalues --    0.01243   0.02151   0.02717   0.05134   0.08117
 Alpha virt. eigenvalues --    0.08703   0.09611   0.09764   0.10637   0.11018
 Alpha virt. eigenvalues --    0.11816   0.12419   0.13161   0.14160   0.14549

 Mulliken charges:
               1
     1  S   -1.530544
     2  B    4.525957
     3  S   -2.460968
     4  S   -2.245630
     5  S   -0.756676
     6  C   -0.664897
     7  F    0.501561
     8  F    0.310349
     9  F    0.398561
    10  H    0.987521
    11  H    0.934766
 Sum of Mulliken charges =   0.00000

 Dipole moment (field-independent basis, Debye):
    X=             -0.1823    Y=              1.1644    Z=             -2.2693  Tot=              2.5571

 Test job not archived.
 1\1\GINC-SE454\SP\RHF\Aug-CC-pVDZ\C1H2B1F3S4\OHZDE\09-Apr-2025\0\\#t h
 f aug-cc-pvdz iop(5/13=1,5/36=2,99/5=2) pseudo=read geom=check guess=(
 read,tcheck) scf=(maxcycle=1)\\title\\0,1\S,0,-0.470311,-1.176769,0.51
 6134\B,0,-1.75912,0.053919,0.057992\S,0,-3.33535,-0.656323,-0.505923\S
 ,0,-1.641762,1.848346,0.127449\S,0,1.195825,-0.105704,1.186556\C,0,2.1
 98478,0.000437,-0.347896\F,0,3.330156,0.639969,-0.00899\F,0,1.594577,0
 .695681,-1.320324\F,0,2.519014,-1.197988,-0.843972\H,0,-0.367955,1.890
 323,0.566587\H,0,-2.995474,-1.954321,-0.397035\\Version=ES64L-G16RevC.

 Normal termination of Gaussian 16 at Wed Apr  9 00:51:25 2025.
