 Gaussian 16, Revision C.01,

 ----------------------------------------------------------------------
 #t hf aug-cc-pvdz symm=none int=(grid=ultrafine) guess=(read,tcheck) s
 table=opt
 ----------------------------------------------------------------------
 -----
 title
 -----
 Symbolic Z-matrix:
 Charge =  0 Multiplicity = 2

 SCF Done:  E(UHF) =  -464.463290641     A.U. after   16 cycles
 Normal termination of Gaussian 16 at Tue Apr  8 23:19:49 2025.
 Gaussian 16:  ES64L-G16RevC.01  3-Jul-2019

 ----------------------------------------------------------------------
 #t hf aug-cc-pvdz iop(5/13=1,5/36=2,99/5=2) pseudo=read geom=check gue
 ss=(read,tcheck) scf=(maxcycle=1)
 ----------------------------------------------------------------------
 -----
 title
 -----
 Structure from the checkpoint file:  "BDE49_nonexpt_1112_mol2.chk"
 Charge =  0 Multiplicity = 2

                         Standard orientation:
 ---------------------------------------------------------------------
 Center     Atomic      Atomic             Coordinates (Angstroms)
 Number     Number       Type             X           Y           Z
 ---------------------------------------------------------------------
      1          8           0        1.410073   -0.499391   -0.000034
      2         14           0        0.035752    0.398181    0.000012
      3          9           0       -1.326652   -0.439337    0.000003
      4          1           0        0.079421    1.187264    1.247832
      5          1           0        0.079332    1.187365   -1.247751
 ---------------------------------------------------------------------

 SCF Done:  E(UHF) =  -465.209247098     A.U. after    2 cycles

 The electronic state is 2-A.
 Alpha  occ. eigenvalues --  -76.28516 -29.28481 -21.14127  -5.63376  -2.30135
 Alpha  occ. eigenvalues --   -2.26055  -2.23978  -1.67093  -0.87113  -0.61625
 Alpha  occ. eigenvalues --   -0.58175  -0.49151  -0.47909  -0.43704  -0.34931
 Alpha  occ. eigenvalues --   -0.34465  -0.33919
 Alpha virt. eigenvalues --    0.04959   0.06018   0.06310   0.07373   0.09111
 Alpha virt. eigenvalues --    0.13944   0.15742   0.18581   0.21556   0.22732
 Alpha virt. eigenvalues --    0.22968   0.23739   0.26758   0.26930   0.28641

  Beta  occ. eigenvalues --  -76.28583 -29.28514 -21.10559  -5.63479  -2.30101
  Beta  occ. eigenvalues --   -2.26114  -2.24111  -1.53254  -0.86605  -0.60955
  Beta  occ. eigenvalues --   -0.53759  -0.46667  -0.40695  -0.34721  -0.34296
  Beta  occ. eigenvalues --   -0.32869
  Beta virt. eigenvalues --    0.04126   0.04984   0.06046   0.06880   0.07417
  Beta virt. eigenvalues --    0.09696   0.14003   0.15829   0.18767   0.21666
  Beta virt. eigenvalues --    0.23133   0.23708   0.26672   0.27046   0.29224

 Mulliken charges and spin densities:
               1          2
     1  O   -1.424437   1.042672
     2  Si   5.976101  -0.116966
     3  F   -1.095834  -0.006275
     4  H   -1.727920   0.040287
     5  H   -1.727910   0.040282
 Sum of Mulliken charges =  -0.00000   1.00000

 Dipole moment (field-independent basis, Debye):
    X=             -2.0935    Y=             -0.8762    Z=             -0.0000  Tot=              2.2694
                          Isotropic Fermi Contact Couplings
        Atom                 a.u.       MegaHertz       Gauss      10(-4) cm-1
     1  O(17)              0.14760     -89.47693     -31.92759     -29.84629
     2  Si(29)            -0.05541      49.24605      17.57222      16.42672
     3  F(19)             -0.00607     -25.53647      -9.11205      -8.51805
     4  H(1)               0.01068      47.72364      17.02898      15.91889
     5  H(1)               0.01068      47.71865      17.02720      15.91723
 --------------------------------------------------------
       Center         ----  Spin Dipole Couplings  ----
                      3XX-RR        3YY-RR        3ZZ-RR

 Normal termination of Gaussian 16 at Tue Apr  8 23:19:51 2025.
