 Gaussian 16, Revision C.01,

 ----------------------------------------------------------------------
 #t hf aug-cc-pvdz symm=none int=(grid=ultrafine) guess=(read,tcheck) s
 table=(opt,rrhf)
 ----------------------------------------------------------------------
 -----
 title
 -----
 Symbolic Z-matrix:
 Charge =  0 Multiplicity = 1

 SCF Done:  E(RHF) =  -403.972547794     A.U. after   12 cycles
 Normal termination of Gaussian 16 at Tue Apr  8 23:57:19 2025.
 Gaussian 16:  ES64L-G16RevC.01  3-Jul-2019

 ----------------------------------------------------------------------
 #t hf aug-cc-pvdz iop(5/13=1,5/36=2,99/5=2) pseudo=read geom=check gue
 ss=(read,tcheck) scf=(maxcycle=1)
 ----------------------------------------------------------------------
 -----
 title
 -----
 Structure from the checkpoint file:  "BDE49_nonexpt_2039_mol1.chk"
 Charge =  0 Multiplicity = 1

                         Standard orientation:
 ---------------------------------------------------------------------
 Center     Atomic      Atomic             Coordinates (Angstroms)
 Number     Number       Type             X           Y           Z
 ---------------------------------------------------------------------
      1         14           0       -1.061441   -0.066382    0.000005
      2          6           0        0.798917    0.452849   -0.000006
      3          8           0        1.700897   -0.352410   -0.000011
      4          1           0        1.037099    1.546466    0.000032
      5          1           0       -1.159494   -1.538985   -0.000038
      6          1           0       -1.709072    0.512060   -1.201725
      7          1           0       -1.709038    0.511987    1.201788
 ---------------------------------------------------------------------

 SCF Done:  E(RHF) =  -404.612830644     A.U. after    2 cycles

 The electronic state is 1-A.
 Alpha  occ. eigenvalues --  -76.23684 -21.08167 -11.45775  -5.57208  -2.20381
 Alpha  occ. eigenvalues --   -2.19544  -2.19240  -1.71168  -0.90386  -0.76204
 Alpha  occ. eigenvalues --   -0.59450  -0.50692  -0.50253  -0.48735  -0.44841
 Alpha  occ. eigenvalues --   -0.27875
 Alpha virt. eigenvalues --    0.03592   0.04593   0.05848   0.06236   0.07437
 Alpha virt. eigenvalues --    0.08965   0.09261   0.10406   0.12543   0.14435
 Alpha virt. eigenvalues --    0.14513   0.15047   0.16853   0.18351   0.18525

 Mulliken charges:
               1
     1  Si   6.012525
     2  C   -0.444993
     3  O   -2.066067
     4  H    1.329764
     5  H   -1.588600
     6  H   -1.621314
     7  H   -1.621315
 Sum of Mulliken charges =  -0.00000

 Dipole moment (field-independent basis, Debye):
    X=             -0.5569    Y=              0.3217    Z=              0.0000  Tot=              0.6431

 Test job not archived.
 1\1\GINC-SE069\SP\RHF\Aug-CC-pVDZ\C1H4O1Si1\OHZDE\08-Apr-2025\0\\#t hf
  aug-cc-pvdz iop(5/13=1,5/36=2,99/5=2) pseudo=read geom=check guess=(r
 ead,tcheck) scf=(maxcycle=1)\\title\\0,1\Si,0,-1.061441,-0.066382,0.00
 0005\C,0,0.798917,0.452849,-0.000006\O,0,1.700897,-0.35241,-0.000011\H
 ,0,1.037099,1.546466,0.000032\H,0,-1.159494,-1.538985,-0.000038\H,0,-1
 .709072,0.51206,-1.201725\H,0,-1.709038,0.511987,1.201788\\Version=ES6
 4L-G16RevC.01\State=1-A\HF=-404.6128306\RMSD=8.738e-02\Dipole=-0.21909
 31,0.1265839,0.0000109\Quadrupole=-0.9717489,0.3276904,0.6440585,0.809

 Normal termination of Gaussian 16 at Tue Apr  8 23:57:21 2025.
