 Gaussian 16, Revision C.01,

 ----------------------------------------------------------------------
 #t hf aug-cc-pvdz symm=none int=(grid=ultrafine) guess=(read,tcheck) s
 table=(opt,rrhf)
 ----------------------------------------------------------------------
 -----
 title
 -----
 Symbolic Z-matrix:
 Charge =  0 Multiplicity = 1

 SCF Done:  E(RHF) =  -1601.05665694     A.U. after   12 cycles
 Normal termination of Gaussian 16 at Tue Apr  8 23:14:41 2025.
 Gaussian 16:  ES64L-G16RevC.01  3-Jul-2019

 ----------------------------------------------------------------------
 #t hf aug-cc-pvdz iop(5/13=1,5/36=2,99/5=2) pseudo=read geom=check gue
 ss=(read,tcheck) scf=(maxcycle=1)
 ----------------------------------------------------------------------
 -----
 title
 -----
 Structure from the checkpoint file:  "BDE49_expt_805_mol1.chk"
 Charge =  0 Multiplicity = 1

                         Standard orientation:
 ---------------------------------------------------------------------
 Center     Atomic      Atomic             Coordinates (Angstroms)
 Number     Number       Type             X           Y           Z
 ---------------------------------------------------------------------
      1         14           0       -0.000000   -0.306541   -0.510594
      2         16           0       -1.684584   -1.163665    0.515773
      3         16           0        1.684585   -1.163664    0.515773
      4         16           0       -0.000000    1.846032   -0.569537
      5          1           0       -0.000000   -0.644179   -1.952708
      6          6           0       -3.061039   -0.494087   -0.510419
      7          1           0       -3.028980    0.593933   -0.542434
      8          1           0       -3.982170   -0.815479   -0.024954
      9          1           0       -3.026312   -0.902673   -1.519690
     10          6           0        3.061039   -0.494087   -0.510419
     11          1           0        3.982170   -0.815479   -0.024954
     12          1           0        3.028980    0.593934   -0.542434
     13          1           0        3.026312   -0.902673   -1.519690
     14          6           0        0.000000    2.278200    1.219836
     15          1           0        0.892078    1.889162    1.708177
     16          1           0       -0.892079    1.889162    1.708177
     17          1           0        0.000000    3.366462    1.272708
 ---------------------------------------------------------------------

 SCF Done:  E(RHF) =  -1602.51793591     A.U. after    2 cycles

 The electronic state is 1-A.
 Alpha  occ. eigenvalues --  -76.27312 -75.67719 -75.67711 -75.67626 -13.11489
 Alpha  occ. eigenvalues --  -13.10600 -13.09444 -13.08269 -13.06876 -13.06818
 Alpha  occ. eigenvalues --  -13.06040 -13.03919 -13.03252 -11.40434 -11.40298
 Alpha  occ. eigenvalues --  -11.40027  -8.01819  -8.01787  -8.01703  -5.60726
 Alpha  occ. eigenvalues --   -2.22837  -2.22711  -2.22269  -1.20675  -1.16924
 Alpha  occ. eigenvalues --   -1.16528  -0.95906  -0.93234  -0.92918  -0.69850
 Alpha  occ. eigenvalues --   -0.59677  -0.59602  -0.59155  -0.58987  -0.58572
 Alpha  occ. eigenvalues --   -0.58254  -0.49320  -0.42915  -0.41279  -0.40827
 Alpha  occ. eigenvalues --   -0.33982  -0.31342  -0.25861  -0.25671  -0.23773
 Alpha virt. eigenvalues --    0.02532   0.02547   0.03103   0.04700   0.05874
 Alpha virt. eigenvalues --    0.06990   0.07427   0.07531   0.07871   0.08400
 Alpha virt. eigenvalues --    0.08648   0.09160   0.09208   0.10660   0.11873

 Mulliken charges:
               1
     1  Si   6.777955
     2  S   -1.102153
     3  S   -1.102150
     4  S   -1.083957
     5  H   -2.155582
     6  C   -4.696835
     7  H    1.403895
     8  H    1.383556
     9  H    1.409109
    10  C   -4.696836
    11  H    1.383556
    12  H    1.403894
    13  H    1.409109
    14  C   -4.576197
    15  H    1.406371
    16  H    1.406370
    17  H    1.429895
 Sum of Mulliken charges =   0.00000

 Dipole moment (field-independent basis, Debye):
    X=             -0.0000    Y=              0.1572    Z=              1.6768  Tot=              1.6842

 Test job not archived.
 1\1\GINC-SE038\SP\RHF\Aug-CC-pVDZ\C3H10S3Si1\OHZDE\08-Apr-2025\0\\#t h
 f aug-cc-pvdz iop(5/13=1,5/36=2,99/5=2) pseudo=read geom=check guess=(
 read,tcheck) scf=(maxcycle=1)\\title\\0,1\Si,0,0.,-0.306541,-0.510594\
 S,0,-1.684584,-1.163665,0.515773\S,0,1.684585,-1.163664,0.515773\S,0,0
 .,1.846032,-0.569537\H,0,0.,-0.644179,-1.952708\C,0,-3.061039,-0.49408
 7,-0.510419\H,0,-3.02898,0.593933,-0.542434\H,0,-3.98217,-0.815479,-0.
 024954\H,0,-3.026312,-0.902673,-1.51969\C,0,3.061039,-0.494087,-0.5104
 19\H,0,3.98217,-0.815479,-0.024954\H,0,3.02898,0.593934,-0.542434\H,0,

 Normal termination of Gaussian 16 at Tue Apr  8 23:14:49 2025.
