 Gaussian 16, Revision C.01,

 ----------------------------------------------------------------------
 #t hf aug-cc-pvdz symm=none int=(grid=ultrafine) guess=(read,tcheck) s
 table=(opt,rrhf)
 ----------------------------------------------------------------------
 -----
 title
 -----
 Symbolic Z-matrix:
 Charge =  0 Multiplicity = 1

 SCF Done:  E(RHF) =  -366.163729443     A.U. after   14 cycles
 Normal termination of Gaussian 16 at Wed Apr  9 00:40:57 2025.
 Gaussian 16:  ES64L-G16RevC.01  3-Jul-2019

 ----------------------------------------------------------------------
 #t hf aug-cc-pvdz iop(5/13=1,5/36=2,99/5=2) pseudo=read geom=check gue
 ss=(read,tcheck) scf=(maxcycle=1)
 ----------------------------------------------------------------------
 -----
 title
 -----
 Structure from the checkpoint file:  "BDE49_nonexpt_614_mol1.chk"
 Charge =  0 Multiplicity = 1

                         Standard orientation:
 ---------------------------------------------------------------------
 Center     Atomic      Atomic             Coordinates (Angstroms)
 Number     Number       Type             X           Y           Z
 ---------------------------------------------------------------------
      1          6           0       -0.060329   -0.448588   -0.176660
      2          5           0       -2.641256   -0.415530   -0.071607
      3          7           0       -2.868905    0.872376    0.446951
      4          1           0       -3.800617    1.187683    0.656507
      5          1           0       -2.144977    1.485131    0.785407
      6          6           0        0.207637    0.916325   -0.363708
      7          6           0        1.499194    1.410946   -0.202416
      8          6           0        2.553062    0.562477    0.127498
      9          6           0        2.298602   -0.798476    0.290374
     10          6           0        1.009776   -1.298051    0.145579
     11          1           0        0.818847   -2.356807    0.291484
     12          1           0       -0.588114    1.579733   -0.677880
     13          1           0        1.682996    2.468947   -0.355448
     14          1           0        3.556935    0.952393    0.246827
     15          1           0        3.107487   -1.476741    0.539250
     16          7           0       -1.351568   -0.980352   -0.330874
     17          1           0       -3.582810   -1.110522   -0.309403
     18          1           0       -1.347803   -1.964126   -0.555255
 ---------------------------------------------------------------------

 SCF Done:  E(RHF) =  -367.905699797     A.U. after    2 cycles

 The electronic state is 1-A.
 Alpha  occ. eigenvalues --  -15.71652 -15.71474 -11.52283 -11.44706 -11.42454
 Alpha  occ. eigenvalues --  -11.40063 -11.39885 -11.35802  -7.61080  -1.43976
 Alpha  occ. eigenvalues --   -1.31542  -1.25437  -1.08927  -1.06110  -0.87257
 Alpha  occ. eigenvalues --   -0.86303  -0.78921  -0.71414  -0.68338  -0.67168
 Alpha  occ. eigenvalues --   -0.59492  -0.57852  -0.57517  -0.53853  -0.50215
 Alpha  occ. eigenvalues --   -0.49085  -0.45651  -0.44001  -0.43465  -0.37733
 Alpha  occ. eigenvalues --   -0.32967  -0.27667
 Alpha virt. eigenvalues --    0.03370   0.03697   0.03875   0.04855   0.05576
 Alpha virt. eigenvalues --    0.05818   0.06909   0.08071   0.08432   0.09200
 Alpha virt. eigenvalues --    0.09738   0.10903   0.11418   0.11969   0.12725

 Mulliken charges:
               1
     1  C    4.840681
     2  B    6.526414
     3  N   -3.077948
     4  H    0.815101
     5  H    0.834599
     6  C   -2.011514
     7  C   -0.500938
     8  C   -2.660409
     9  C   -0.159529
    10  C   -3.213741
    11  H    1.784562
    12  H    1.865909
    13  H    1.499677
    14  H    1.556508
    15  H    1.516820
    16  N   -6.419468
    17  H   -4.285047
    18  H    1.088323
 Sum of Mulliken charges =   0.00000

 Dipole moment (field-independent basis, Debye):
    X=             -0.0742    Y=              0.3254    Z=              0.4338  Tot=              0.5473

 Test job not archived.
 1\1\GINC-SE099\SP\RHF\Aug-CC-pVDZ\C6H9B1N2\OHZDE\09-Apr-2025\0\\#t hf
 aug-cc-pvdz iop(5/13=1,5/36=2,99/5=2) pseudo=read geom=check guess=(re
 ad,tcheck) scf=(maxcycle=1)\\title\\0,1\C,0,-0.060329,-0.448588,-0.176
 66\B,0,-2.641256,-0.41553,-0.071607\N,0,-2.868905,0.872376,0.446951\H,
 0,-3.800617,1.187683,0.656507\H,0,-2.144977,1.485131,0.785407\C,0,0.20
 7637,0.916325,-0.363708\C,0,1.499194,1.410946,-0.202416\C,0,2.553062,0
 .562477,0.127498\C,0,2.298602,-0.798476,0.290374\C,0,1.009776,-1.29805
 1,0.145579\H,0,0.818847,-2.356807,0.291484\H,0,-0.588114,1.579733,-0.6

 Normal termination of Gaussian 16 at Wed Apr  9 00:41:06 2025.
