 Gaussian 16, Revision C.01,

 ----------------------------------------------------------------------
 #t hf aug-cc-pvdz symm=none int=(grid=ultrafine) guess=(read,tcheck) s
 table=(opt,rrhf)
 ----------------------------------------------------------------------
 -----
 title
 -----
 Symbolic Z-matrix:
 Charge =  0 Multiplicity = 1

 SCF Done:  E(RHF) =  -532.579666463     A.U. after   14 cycles

 1\1\GINC-SE403\Stability\RHF\Aug-CC-pVDZ\C6H10O4\OHZDE\08-Apr-2025\0\\
 #t hf aug-cc-pvdz symm=none int=(grid=ultrafine) guess=(read,tcheck) s
 table=(opt,rrhf)\\title\\0,1\C,0,-1.250194,0.372925,-0.043265\O,0,-1.9
 78428,0.844436,-0.876666\O,0,-1.46403,-0.813417,0.55903\C,0,-2.631246,
 -1.536227,0.125066\C,0,0.012095,1.032622,0.506613\C,0,1.191827,0.06654
 9,0.486192\O,0,1.896553,-0.188858,1.426971\O,0,1.374378,-0.439254,-0.7
 51211\C,0,2.476495,-1.35381,-0.897091\H,0,-2.640615,-2.451577,0.712075
 \H,0,-2.563715,-1.761787,-0.940144\H,0,-3.532881,-0.950647,0.309957\H,

 Normal termination of Gaussian 16 at Tue Apr  8 23:05:11 2025.
 Gaussian 16:  ES64L-G16RevC.01  3-Jul-2019

 ----------------------------------------------------------------------
 #t hf aug-cc-pvdz iop(5/13=1,5/36=2,99/5=2) pseudo=read geom=check gue
 ss=(read,tcheck) scf=(maxcycle=1)
 ----------------------------------------------------------------------
 -----
 title
 -----
 Structure from the checkpoint file:  "BDE49_expt_274_mol1.chk"
 Charge =  0 Multiplicity = 1

                         Standard orientation:
 ---------------------------------------------------------------------
 Center     Atomic      Atomic             Coordinates (Angstroms)
 Number     Number       Type             X           Y           Z
 ---------------------------------------------------------------------
      1          6           0       -1.250194    0.372925   -0.043265
      2          8           0       -1.978428    0.844436   -0.876666
      3          8           0       -1.464030   -0.813417    0.559030
      4          6           0       -2.631246   -1.536227    0.125066
      5          6           0        0.012095    1.032622    0.506613
      6          6           0        1.191827    0.066549    0.486192
      7          8           0        1.896553   -0.188858    1.426971
      8          8           0        1.374378   -0.439254   -0.751211
      9          6           0        2.476495   -1.353810   -0.897091
     10          1           0       -2.640615   -2.451577    0.712075
     11          1           0       -2.563715   -1.761787   -0.940144
     12          1           0       -3.532881   -0.950647    0.309957
     13          1           0        2.469618   -1.652783   -1.942677
     14          1           0        2.339503   -2.219383   -0.247412
     15          1           0        3.416376   -0.861782   -0.642995
     16          6           0        0.336592    2.330845   -0.243169
     17          1           0       -0.168102    1.239575    1.564683
     18          1           0        0.534699    2.127215   -1.295694
     19          1           0        1.212255    2.812830    0.196599
     20          1           0       -0.508332    3.017652   -0.185455
 ---------------------------------------------------------------------

 SCF Done:  E(RHF) =  -534.914768112     A.U. after    2 cycles

 The electronic state is 1-A.
 Alpha  occ. eigenvalues --  -21.09796 -21.09703 -21.05797 -21.05722 -11.54109
 Alpha  occ. eigenvalues --  -11.53765 -11.44862 -11.42207 -11.42100 -11.38857
 Alpha  occ. eigenvalues --   -1.86129  -1.83643  -1.67224  -1.66751  -1.22349
 Alpha  occ. eigenvalues --   -1.03975  -1.02984  -0.94902  -0.81174  -0.74061
 Alpha  occ. eigenvalues --   -0.69693  -0.67668  -0.64271  -0.63060  -0.60962
 Alpha  occ. eigenvalues --   -0.58432  -0.57937  -0.56105  -0.53496  -0.52307
 Alpha  occ. eigenvalues --   -0.51751  -0.48737  -0.46755  -0.43253  -0.41622
 Alpha  occ. eigenvalues --   -0.33571  -0.32471  -0.31792  -0.28386
 Alpha virt. eigenvalues --    0.03365   0.04152   0.05150   0.05269   0.05897
 Alpha virt. eigenvalues --    0.06279   0.06421   0.07123   0.07488   0.07825
 Alpha virt. eigenvalues --    0.10040   0.10944   0.12045   0.13289   0.13544

 Mulliken charges:
               1
     1  C    6.929949
     2  O   -3.229448
     3  O   -3.441154
     4  C   -3.128781
     5  C   -4.144443
     6  C    7.241667
     7  O   -3.443562
     8  O   -3.385775
     9  C   -3.121247
    10  H    1.410517
    11  H    1.371636
    12  H    1.314997
    13  H    1.412747
    14  H    1.333662
    15  H    1.335207
    16  C   -4.122298
    17  H    1.789708
    18  H    1.411596
    19  H    1.205339
    20  H    1.259684
 Sum of Mulliken charges =  -0.00000

 Dipole moment (field-independent basis, Debye):
    X=             -0.1231    Y=             -1.1535    Z=             -0.7040  Tot=              1.3570

 Test job not archived.
 1\1\GINC-SE403\SP\RHF\Aug-CC-pVDZ\C6H10O4\OHZDE\08-Apr-2025\0\\#t hf a
 ug-cc-pvdz iop(5/13=1,5/36=2,99/5=2) pseudo=read geom=check guess=(rea
 d,tcheck) scf=(maxcycle=1)\\title\\0,1\C,0,-1.250194,0.372925,-0.04326
 5\O,0,-1.978428,0.844436,-0.876666\O,0,-1.46403,-0.813417,0.55903\C,0,
 -2.631246,-1.536227,0.125066\C,0,0.012095,1.032622,0.506613\C,0,1.1918
 27,0.066549,0.486192\O,0,1.896553,-0.188858,1.426971\O,0,1.374378,-0.4
 39254,-0.751211\C,0,2.476495,-1.35381,-0.897091\H,0,-2.640615,-2.45157
 7,0.712075\H,0,-2.563715,-1.761787,-0.940144\H,0,-3.532881,-0.950647,0

 Normal termination of Gaussian 16 at Tue Apr  8 23:05:21 2025.
