 Gaussian 16, Revision C.01,

 ----------------------------------------------------------------------
 #t hf aug-cc-pvdz symm=none int=(grid=ultrafine) guess=(read,tcheck) s
 table=opt
 ----------------------------------------------------------------------
 -----
 title
 -----
 Symbolic Z-matrix:
 Charge =  0 Multiplicity = 2

 SCF Done:  E(UHF) =  -458.453558944     A.U. after   18 cycles
 Normal termination of Gaussian 16 at Tue Apr  8 23:52:21 2025.
 Gaussian 16:  ES64L-G16RevC.01  3-Jul-2019

 ----------------------------------------------------------------------
 #t hf aug-cc-pvdz iop(5/13=1,5/36=2,99/5=2) pseudo=read geom=check gue
 ss=(read,tcheck) scf=(maxcycle=1)
 ----------------------------------------------------------------------
 -----
 title
 -----
 Structure from the checkpoint file:  "BDE49_nonexpt_1908_mol2.chk"
 Charge =  0 Multiplicity = 2

                         Standard orientation:
 ---------------------------------------------------------------------
 Center     Atomic      Atomic             Coordinates (Angstroms)
 Number     Number       Type             X           Y           Z
 ---------------------------------------------------------------------
      1         14           0        1.634368    0.066927   -0.100179
      2          7           0       -0.041514   -0.443092    0.011112
      3          1           0        1.665639    1.470777    0.382141
      4          1           0        2.434131   -0.833113    0.771571
      5          6           0       -1.173412    0.350568    0.023806
      6          8           0       -2.304472   -0.071905   -0.000156
      7          1           0       -0.935920    1.428750    0.070311
      8          1           0       -0.278154   -1.429909   -0.040892
 ---------------------------------------------------------------------

 SCF Done:  E(UHF) =  -459.312946327     A.U. after    2 cycles

 The electronic state is 2-A.
 Alpha  occ. eigenvalues --  -76.26471 -21.04633 -15.76810 -11.49093  -5.59918
 Alpha  occ. eigenvalues --   -2.24563  -2.21851  -2.20519  -1.71243  -1.34461
 Alpha  occ. eigenvalues --   -0.88031  -0.80272  -0.64192  -0.59427  -0.55193
 Alpha  occ. eigenvalues --   -0.50613  -0.48757  -0.37867  -0.30528  -0.28070
 Alpha virt. eigenvalues --    0.03603   0.04596   0.05048   0.06460   0.07387
 Alpha virt. eigenvalues --    0.08254   0.08794   0.11408   0.13031   0.13215
 Alpha virt. eigenvalues --    0.14129   0.14922   0.15691   0.16889   0.18149

  Beta  occ. eigenvalues --  -76.25937 -21.04477 -15.76505 -11.49149  -5.59060
  Beta  occ. eigenvalues --   -2.23907  -2.21293  -2.17237  -1.70956  -1.33641
  Beta  occ. eigenvalues --   -0.87765  -0.77132  -0.63860  -0.58135  -0.53925
  Beta  occ. eigenvalues --   -0.49558  -0.48054  -0.35130  -0.30219
  Beta virt. eigenvalues --    0.02619   0.04107   0.04802   0.05245   0.07570
  Beta virt. eigenvalues --    0.08077   0.08755   0.09212   0.12317   0.13133
  Beta virt. eigenvalues --    0.13387   0.14974   0.15939   0.16367   0.17130

 Mulliken charges and spin densities:
               1          2
     1  Si   3.551588   0.930124
     2  N   -2.385924  -0.006999
     3  H   -1.388237   0.029859
     4  H   -1.409173   0.040971
     5  C    2.014878  -0.017995
     6  O   -2.555702   0.037895
     7  H    1.595126   0.003737
     8  H    0.577443  -0.017593
 Sum of Mulliken charges =  -0.00000   1.00000

 Dipole moment (field-independent basis, Debye):
    X=              1.7123    Y=             -0.3201    Z=             -0.4112  Tot=              1.7898
                          Isotropic Fermi Contact Couplings
        Atom                 a.u.       MegaHertz       Gauss      10(-4) cm-1
     1  Si(29)             0.55636    -494.45114    -176.43246    -164.93115
     2  N(14)              0.04165      13.45647       4.80160       4.48860
     3  H(1)               0.01063      47.50698      16.95167      15.84662
     4  H(1)               0.01623      72.55343      25.88887      24.20122
     5  C(13)             -0.00271      -3.04444      -1.08633      -1.01552
     6  O(17)              0.00946      -5.73498      -2.04638      -1.91298
     7  H(1)               0.00016       0.69491       0.24796       0.23180
     8  H(1)              -0.00152      -6.81583      -2.43206      -2.27352

 1\1\GINC-SE333\SP\UHF\Aug-CC-pVDZ\C1H4N1O1Si1(2)\OHZDE\08-Apr-2025\0\\
 #t hf aug-cc-pvdz iop(5/13=1,5/36=2,99/5=2) pseudo=read geom=check gue
 ss=(read,tcheck) scf=(maxcycle=1)\\title\\0,2\Si,0,1.634368,0.066927,-
 0.100179\N,0,-0.041514,-0.443092,0.011112\H,0,1.665639,1.470777,0.3821
 41\H,0,2.434131,-0.833113,0.771571\C,0,-1.173412,0.350568,0.023806\O,0
 ,-2.304472,-0.071905,-0.000156\H,0,-0.93592,1.42875,0.070311\H,0,-0.27
 8154,-1.429909,-0.040892\\Version=ES64L-G16RevC.01\State=2-A\HF=-459.3
 129463\S2=0.755283\S2-1=0.\S2A=0.750016\RMSD=7.832e-02\Dipole=0.673672

 Normal termination of Gaussian 16 at Tue Apr  8 23:52:23 2025.
