 Gaussian 16, Revision C.01,

 ----------------------------------------------------------------------
 #t hf aug-cc-pvdz symm=none int=(grid=ultrafine) guess=(read,tcheck) s
 table=(opt,rrhf)
 ----------------------------------------------------------------------
 -----
 title
 -----
 Symbolic Z-matrix:
 Charge =  0 Multiplicity = 1

 SCF Done:  E(RHF) =  -1119.20332476     A.U. after   19 cycles
 Normal termination of Gaussian 16 at Tue Apr  8 23:00:55 2025.
 Gaussian 16:  ES64L-G16RevC.01  3-Jul-2019

 ----------------------------------------------------------------------
 #t hf aug-cc-pvdz iop(5/13=1,5/36=2,99/5=2) pseudo=read geom=check gue
 ss=(read,tcheck) scf=(maxcycle=1)
 ----------------------------------------------------------------------
 -----
 title
 -----
 Structure from the checkpoint file:  "BDE49_expt_1759_mol1.chk"
 Charge =  0 Multiplicity = 1

                         Standard orientation:
 ---------------------------------------------------------------------
 Center     Atomic      Atomic             Coordinates (Angstroms)
 Number     Number       Type             X           Y           Z
 ---------------------------------------------------------------------
      1          7           0        1.058248    0.532592   -0.394422
      2          7           0        1.437548    1.786627   -0.765937
      3          8           0        2.630656    1.936564   -0.919578
      4          6           0        2.030775   -0.577672   -0.413227
      5          8           0        1.993069   -1.389507   -1.312258
      6          7           0        2.880732   -0.593436    0.636830
      7          6           0       -0.341420    0.299262   -0.243487
      8          6           0       -1.150343    1.326205    0.255638
      9          6           0       -2.515871    1.124944    0.412524
     10          6           0       -3.067413   -0.112096    0.094076
     11          6           0       -2.271499   -1.142370   -0.392320
     12          6           0       -0.907247   -0.935684   -0.571517
     13          1           0       -3.144780    1.918474    0.794280
     14          1           0       -2.713874   -2.096977   -0.645295
     15          1           0       -0.289177   -1.718969   -0.986489
     16          6           0        3.963047   -1.574828    0.633112
     17          1           0        3.962708   -2.130604    1.574674
     18          1           0        4.928337   -1.071035    0.519722
     19          1           0        3.814669   -2.260646   -0.196120
     20          6           0        2.938794    0.419634    1.683936
     21          1           0        3.156054   -0.072547    2.634524
     22          1           0        1.984581    0.931921    1.775207
     23          1           0        3.720365    1.155566    1.474722
     24          1           0       -0.710561    2.280593    0.510116
     25         17           0       -4.788632   -0.373946    0.312450
 ---------------------------------------------------------------------

 SCF Done:  E(RHF) =  -1122.45222568     A.U. after    2 cycles

 The electronic state is 1-A.
 Alpha  occ. eigenvalues --  -99.89959 -21.10973 -21.05073 -15.90842 -15.80433
 Alpha  occ. eigenvalues --  -15.77506 -11.55062 -11.54539 -11.49131 -11.46591
 Alpha  occ. eigenvalues --  -11.46461 -11.43588 -11.42290 -11.41103 -11.39558
 Alpha  occ. eigenvalues --  -10.47301  -9.67347  -9.66442  -9.66263  -1.88951
 Alpha  occ. eigenvalues --   -1.74675  -1.50616  -1.44772  -1.38952  -1.27294
 Alpha  occ. eigenvalues --   -1.12630  -1.10067  -1.07648  -1.05063  -0.96072
 Alpha  occ. eigenvalues --   -0.90477  -0.87676  -0.77705  -0.73287  -0.70905
 Alpha  occ. eigenvalues --   -0.70246  -0.67606  -0.65612  -0.63856  -0.62741
 Alpha  occ. eigenvalues --   -0.60812  -0.60550  -0.58073  -0.57555  -0.57389
 Alpha  occ. eigenvalues --   -0.54618  -0.53686  -0.51762  -0.51505  -0.50784
 Alpha  occ. eigenvalues --   -0.50182  -0.49073  -0.46772  -0.40944  -0.35772
 Alpha  occ. eigenvalues --   -0.33578  -0.31979  -0.29681  -0.29043
 Alpha virt. eigenvalues --    0.02999   0.04381   0.04826   0.05292   0.05841
 Alpha virt. eigenvalues --    0.06133   0.06669   0.06939   0.07332   0.08106
 Alpha virt. eigenvalues --    0.08915   0.09082   0.09743   0.10075   0.10274

 Mulliken charges:
               1
     1  N   -1.863265
     2  N    0.841839
     3  O   -2.391827
     4  C    5.716550
     5  O   -3.797683
     6  N   -3.044408
     7  C    3.339581
     8  C   -1.048359
     9  C   -1.042241
    10  C   -2.043440
    11  C   -0.932091
    12  C   -1.753890
    13  H    1.816162
    14  H    1.810335
    15  H    2.088247
    16  C   -3.974884
    17  H    1.468083
    18  H    1.462296
    19  H    1.270584
    20  C   -3.748404
    21  H    1.418702
    22  H    1.809497
    23  H    1.500202
    24  H    1.973516
    25  Cl  -0.875100
 Sum of Mulliken charges =   0.00000

 Dipole moment (field-independent basis, Debye):
    X=              3.2278    Y=             -0.5303    Z=              2.1185  Tot=              3.8971

 Test job not archived.
 1\1\GINC-SE331\SP\RHF\Aug-CC-pVDZ\C9H10Cl1N3O2\OHZDE\08-Apr-2025\0\\#t
  hf aug-cc-pvdz iop(5/13=1,5/36=2,99/5=2) pseudo=read geom=check guess
 =(read,tcheck) scf=(maxcycle=1)\\title\\0,1\N,0,1.058248,0.532592,-0.3
 94422\N,0,1.437548,1.786627,-0.765937\O,0,2.630656,1.936564,-0.919578\
 C,0,2.030775,-0.577672,-0.413227\O,0,1.993069,-1.389507,-1.312258\N,0,
 2.880732,-0.593436,0.63683\C,0,-0.34142,0.299262,-0.243487\C,0,-1.1503
 43,1.326205,0.255638\C,0,-2.515871,1.124944,0.412524\C,0,-3.067413,-0.
 112096,0.094076\C,0,-2.271499,-1.14237,-0.39232\C,0,-0.907247,-0.93568

 Normal termination of Gaussian 16 at Tue Apr  8 23:01:19 2025.
