 Gaussian 16, Revision C.01,

 ----------------------------------------------------------------------
 #t hf aug-cc-pvdz symm=none int=(grid=ultrafine) guess=(read,tcheck) s
 table=(opt,rrhf)
 ----------------------------------------------------------------------
 -----
 title
 -----
 Symbolic Z-matrix:
 Charge =  0 Multiplicity = 1

 SCF Done:  E(RHF) =  -577.207380868     A.U. after   12 cycles

 1\1\GINC-SE229\Stability\RHF\Aug-CC-pVDZ\C3H7Cl1\OHZDE\08-Apr-2025\0\\
 #t hf aug-cc-pvdz symm=none int=(grid=ultrafine) guess=(read,tcheck) s
 table=(opt,rrhf)\\title\\0,1\C,0,-0.57656,-0.906656,1.274179\H,0,0.293
 487,-1.566345,1.308265\H,0,-1.48,-1.52483,1.304179\H,0,-0.564656,-0.27
 1581,2.161066\C,0,-0.57656,-0.076762,0.\C,0,-0.57656,-0.906656,-1.2741
 79\Cl,0,0.89966,1.026152,0.\H,0,-0.564656,-0.271581,-2.161066\H,0,0.29
 3487,-1.566345,-1.308265\H,0,-1.413807,0.621382,0.\H,0,-1.48,-1.52483,
 -1.304179\\Version=ES64L-G16RevC.01\HF=-577.2073809\RMSD=3.024e-09\Dip

 Normal termination of Gaussian 16 at Tue Apr  8 22:31:41 2025.
 Gaussian 16:  ES64L-G16RevC.01  3-Jul-2019

 ----------------------------------------------------------------------
 #t hf aug-cc-pvdz iop(5/13=1,5/36=2,99/5=2) pseudo=read geom=check gue
 ss=(read,tcheck) scf=(maxcycle=1)
 ----------------------------------------------------------------------
 -----
 title
 -----
 Structure from the checkpoint file:  "BDE49_expt_1027_mol1.chk"
 Charge =  0 Multiplicity = 1

                         Standard orientation:
 ---------------------------------------------------------------------
 Center     Atomic      Atomic             Coordinates (Angstroms)
 Number     Number       Type             X           Y           Z
 ---------------------------------------------------------------------
      1          6           0       -0.576560   -0.906656    1.274179
      2          1           0        0.293487   -1.566345    1.308265
      3          1           0       -1.480000   -1.524830    1.304179
      4          1           0       -0.564656   -0.271581    2.161066
      5          6           0       -0.576560   -0.076762    0.000000
      6          6           0       -0.576560   -0.906656   -1.274179
      7         17           0        0.899660    1.026152   -0.000000
      8          1           0       -0.564656   -0.271581   -2.161066
      9          1           0        0.293487   -1.566345   -1.308265
     10          1           0       -1.413807    0.621382    0.000000
     11          1           0       -1.480000   -1.524830   -1.304179
 ---------------------------------------------------------------------

 SCF Done:  E(RHF) =  -578.074817895     A.U. after    2 cycles

 The electronic state is 1-A'.
 Alpha  occ. eigenvalues --  -99.86499 -11.45804 -11.39541 -11.37359 -10.43745
 Alpha  occ. eigenvalues --   -9.63657  -9.62980  -9.62893  -1.33763  -1.15761
 Alpha  occ. eigenvalues --   -1.02233  -0.85222  -0.66757  -0.62997  -0.59727
 Alpha  occ. eigenvalues --   -0.55335  -0.52318  -0.50369  -0.49735  -0.45607
 Alpha  occ. eigenvalues --   -0.45015
 Alpha virt. eigenvalues --    0.03407   0.05546   0.05688   0.06080   0.06594
 Alpha virt. eigenvalues --    0.07046   0.07495   0.08599   0.11269   0.12291
 Alpha virt. eigenvalues --    0.14651   0.14933   0.15044   0.15914   0.17253

 Mulliken charges:
               1
     1  C   -3.143804
     2  H    1.310659
     3  H    1.257166
     4  H    1.247042
     5  C   -3.032591
     6  C   -3.143804
     7  Cl   0.000670
     8  H    1.247042
     9  H    1.310659
    10  H    1.689794
    11  H    1.257166
 Sum of Mulliken charges =   0.00000

 Dipole moment (field-independent basis, Debye):
    X=             -2.1263    Y=             -1.7303    Z=             -0.0000  Tot=              2.7414

 Test job not archived.
 1\1\GINC-SE229\SP\RHF\Aug-CC-pVDZ\C3H7Cl1\OHZDE\08-Apr-2025\0\\#t hf a
 ug-cc-pvdz iop(5/13=1,5/36=2,99/5=2) pseudo=read geom=check guess=(rea
 d,tcheck) scf=(maxcycle=1)\\title\\0,1\C,0,-0.57656,-0.906656,1.274179
 \H,0,0.293487,-1.566345,1.308265\H,0,-1.48,-1.52483,1.304179\H,0,-0.56
 4656,-0.271581,2.161066\C,0,-0.57656,-0.076762,0.\C,0,-0.57656,-0.9066
 56,-1.274179\Cl,0,0.89966,1.026152,0.\H,0,-0.564656,-0.271581,-2.16106
 6\H,0,0.293487,-1.566345,-1.308265\H,0,-1.413807,0.621382,0.\H,0,-1.48
 ,-1.52483,-1.304179\\Version=ES64L-G16RevC.01\State=1-A'\HF=-578.07481

 Normal termination of Gaussian 16 at Tue Apr  8 22:31:45 2025.
