 Gaussian 16, Revision C.01,

 ----------------------------------------------------------------------
 #t hf aug-cc-pvdz symm=none int=(grid=ultrafine) guess=(read,tcheck) s
 table=opt
 ----------------------------------------------------------------------
 -----
 title
 -----
 Symbolic Z-matrix:
 Charge =  0 Multiplicity = 2

 SCF Done:  E(UHF) =  -625.128802184     A.U. after   18 cycles

 1\1\GINC-SE455\Stability\UHF\Aug-CC-pVDZ\C1F3Si1\OHZDE\08-Apr-2025\0\\
 #t hf aug-cc-pvdz symm=none int=(grid=ultrafine) guess=(read,tcheck) s
 table=opt\\title\\0,2\Si,0,-1.008672,-0.76471,0.000008\C,0,0.727006,0.
 000084,0.000003\F,0,-1.798216,0.662364,-0.000009\F,0,1.821002,-0.74850
 7,-0.000008\F,0,1.061588,1.275636,0.000004\\Version=ES64L-G16RevC.01\H
 F=-625.1288022\S2=0.764466\S2-1=0.\S2A=0.750126\RMSD=2.853e-09\Dipole=
 -0.1070129,-0.469339,0.0000073\Quadrupole=-1.8989746,-1.4625723,3.3615
 469,0.9296823,-0.0000072,0.0000305\PG=Unknown\\@

 Normal termination of Gaussian 16 at Tue Apr  8 23:56:20 2025.
 Gaussian 16:  ES64L-G16RevC.01  3-Jul-2019

 ----------------------------------------------------------------------
 #t hf aug-cc-pvdz iop(5/13=1,5/36=2,99/5=2) pseudo=read geom=check gue
 ss=(read,tcheck) scf=(maxcycle=1)
 ----------------------------------------------------------------------
 -----
 title
 -----
 Structure from the checkpoint file:  "BDE49_nonexpt_2000_mol2.chk"
 Charge =  0 Multiplicity = 2

                         Standard orientation:
 ---------------------------------------------------------------------
 Center     Atomic      Atomic             Coordinates (Angstroms)
 Number     Number       Type             X           Y           Z
 ---------------------------------------------------------------------
      1         14           0        1.008672   -0.764710   -0.000008
      2          6           0       -0.727006    0.000084   -0.000003
      3          9           0        1.798216    0.662364    0.000009
      4          9           0       -1.821002   -0.748507    0.000008
      5          9           0       -1.061588    1.275636   -0.000004
 ---------------------------------------------------------------------

 SCF Done:  E(UHF) =  -626.415281559     A.U. after    2 cycles

 The electronic state is 2-A.
 Alpha  occ. eigenvalues --  -76.30112 -29.33042 -29.32875 -29.28245 -11.49991
 Alpha  occ. eigenvalues --   -5.63616  -2.26963  -2.24459  -2.20695  -1.29239
 Alpha  occ. eigenvalues --   -0.88166  -0.83108  -0.67824  -0.64043  -0.47665
 Alpha  occ. eigenvalues --   -0.45550  -0.41761  -0.38264  -0.36176  -0.32959
 Alpha  occ. eigenvalues --   -0.30889  -0.25878  -0.25078  -0.18801
 Alpha virt. eigenvalues --    0.04042   0.05972   0.07171   0.09101   0.11220
 Alpha virt. eigenvalues --    0.11454   0.12019   0.15265   0.16748   0.18093
 Alpha virt. eigenvalues --    0.22454   0.23594   0.24511   0.25978   0.26723

  Beta  occ. eigenvalues --  -76.30083 -29.32672 -29.32501 -29.28189 -11.48128
  Beta  occ. eigenvalues --   -5.63569  -2.26918  -2.24738  -2.19990  -1.23199
  Beta  occ. eigenvalues --   -0.87243  -0.81812  -0.65413  -0.49910  -0.46972
  Beta  occ. eigenvalues --   -0.45223  -0.41224  -0.37543  -0.36216  -0.30643
  Beta  occ. eigenvalues --   -0.30380  -0.25104  -0.24965
  Beta virt. eigenvalues --    0.03048   0.06059   0.07187   0.08743   0.09216
  Beta virt. eigenvalues --    0.11959   0.12213   0.15451   0.16817   0.16970
  Beta virt. eigenvalues --    0.18391   0.22781   0.23907   0.25020   0.26138

 Mulliken charges and spin densities:
               1          2
     1  Si   1.490531   0.099999
     2  C   -1.819605   0.683544
     3  F   -0.871966   0.025989
     4  F    0.559605   0.096181
     5  F    0.641435   0.094287
 Sum of Mulliken charges =  -0.00000   1.00000

 Dipole moment (field-independent basis, Debye):
    X=             -0.9689    Y=              3.2738    Z=              0.0000  Tot=              3.4141
                          Isotropic Fermi Contact Couplings
        Atom                 a.u.       MegaHertz       Gauss      10(-4) cm-1
     1  Si(29)             0.00776      -6.89351      -2.45978      -2.29943
     2  C(13)              0.07658      86.08782      30.71827      28.71580
     3  F(19)              0.00141       5.95343       2.12433       1.98585
     4  F(19)              0.02239      94.22083      33.62033      31.42868
     5  F(19)              0.02407     101.26414      36.13356      33.77808
 --------------------------------------------------------
       Center         ----  Spin Dipole Couplings  ----
                      3XX-RR        3YY-RR        3ZZ-RR

 Normal termination of Gaussian 16 at Tue Apr  8 23:56:22 2025.
