 Gaussian 16, Revision C.01,

 ----------------------------------------------------------------------
 #t hf aug-cc-pvdz symm=none int=(grid=ultrafine) guess=(read,tcheck) s
 table=(opt,rrhf)
 ----------------------------------------------------------------------
 -----
 title
 -----
 Symbolic Z-matrix:
 Charge =  0 Multiplicity = 1

 SCF Done:  E(RHF) =  -744.529720877     A.U. after   15 cycles
 Normal termination of Gaussian 16 at Wed Apr  9 00:23:12 2025.
 Gaussian 16:  ES64L-G16RevC.01  3-Jul-2019

 ----------------------------------------------------------------------
 #t hf aug-cc-pvdz iop(5/13=1,5/36=2,99/5=2) pseudo=read geom=check gue
 ss=(read,tcheck) scf=(maxcycle=1)
 ----------------------------------------------------------------------
 -----
 title
 -----
 Structure from the checkpoint file:  "BDE49_nonexpt_2659_mol1.chk"
 Charge =  0 Multiplicity = 1

                         Standard orientation:
 ---------------------------------------------------------------------
 Center     Atomic      Atomic             Coordinates (Angstroms)
 Number     Number       Type             X           Y           Z
 ---------------------------------------------------------------------
      1          9           0        2.687593   -0.088188   -0.098854
      2         16           0        1.171037   -0.670741    0.407392
      3          6           0       -0.013789    0.246778   -0.607364
      4          8           0        0.155856    1.628840   -0.660954
      5          7           0       -1.173215   -0.272532    0.107334
      6          6           0       -2.183162   -0.922477   -0.723404
      7          1           0       -1.703815   -1.623399   -1.408005
      8          1           0       -2.773451   -0.200603   -1.308246
      9          1           0       -2.864010   -1.490883   -0.086415
     10          6           0       -1.727423    0.590698    1.147011
     11          1           0       -0.929986    0.963142    1.789977
     12          1           0       -2.404994    0.001918    1.768074
     13          1           0       -2.277908    1.446246    0.732568
     14          1           0       -0.027257   -0.102218   -1.639176
     15          1           0        0.568395    1.918362    0.161479
 ---------------------------------------------------------------------

 SCF Done:  E(RHF) =  -746.264324740     A.U. after    2 cycles

 The electronic state is 1-A.
 Alpha  occ. eigenvalues --  -75.74897 -29.24526 -21.09974 -15.73783 -13.21585
 Alpha  occ. eigenvalues --  -13.15900 -13.08812 -11.47610 -11.40758 -11.39998
 Alpha  occ. eigenvalues --   -8.08774  -1.76026  -1.44173  -1.20205  -1.05798
 Alpha  occ. eigenvalues --   -1.00574  -0.84620  -0.72647  -0.67532  -0.65193
 Alpha  occ. eigenvalues --   -0.61898  -0.57640  -0.56890  -0.54911  -0.53061
 Alpha  occ. eigenvalues --   -0.51149  -0.45024  -0.39240  -0.36159  -0.33501
 Alpha  occ. eigenvalues --   -0.29035  -0.25686  -0.17487
 Alpha virt. eigenvalues --    0.03199   0.04789   0.05507   0.05840   0.06161
 Alpha virt. eigenvalues --    0.06517   0.06839   0.08193   0.08991   0.10861
 Alpha virt. eigenvalues --    0.12313   0.13521   0.14703   0.14911   0.15538

 Mulliken charges:
               1
     1  F   -0.371917
     2  S    0.904904
     3  C    0.926994
     4  O   -3.154993
     5  N   -1.932708
     6  C   -3.500833
     7  H    1.390104
     8  H    1.452121
     9  H    1.414766
    10  C   -3.886327
    11  H    1.526709
    12  H    1.319275
    13  H    1.380186
    14  H    1.689281
    15  H    0.842439
 Sum of Mulliken charges =  -0.00000

 Dipole moment (field-independent basis, Debye):
    X=              0.7476    Y=              0.2229    Z=             -0.1015  Tot=              0.7867

 Test job not archived.
 1\1\GINC-SE253\SP\RHF\Aug-CC-pVDZ\C3H8F1N1O1S1\OHZDE\09-Apr-2025\0\\#t
  hf aug-cc-pvdz iop(5/13=1,5/36=2,99/5=2) pseudo=read geom=check guess
 =(read,tcheck) scf=(maxcycle=1)\\title\\0,1\F,0,2.687593,-0.088188,-0.
 098854\S,0,1.171037,-0.670741,0.407392\C,0,-0.013789,0.246778,-0.60736
 4\O,0,0.155856,1.62884,-0.660954\N,0,-1.173215,-0.272532,0.107334\C,0,
 -2.183162,-0.922477,-0.723404\H,0,-1.703815,-1.623399,-1.408005\H,0,-2
 .773451,-0.200603,-1.308246\H,0,-2.86401,-1.490883,-0.086415\C,0,-1.72
 7423,0.590698,1.147011\H,0,-0.929986,0.963142,1.789977\H,0,-2.404994,0

 Normal termination of Gaussian 16 at Wed Apr  9 00:23:17 2025.
