 Gaussian 16, Revision C.01,

 ----------------------------------------------------------------------
 #t hf aug-cc-pvdz symm=none int=(grid=ultrafine) guess=(read,tcheck) s
 table=(opt,rrhf)
 ----------------------------------------------------------------------
 -----
 title
 -----
 Symbolic Z-matrix:
 Charge =  0 Multiplicity = 1

 SCF Done:  E(RHF) =  -799.824183118     A.U. after   16 cycles
 Normal termination of Gaussian 16 at Tue Apr  8 23:36:58 2025.
 Gaussian 16:  ES64L-G16RevC.01  3-Jul-2019

 ----------------------------------------------------------------------
 #t hf aug-cc-pvdz iop(5/13=1,5/36=2,99/5=2) pseudo=read geom=check gue
 ss=(read,tcheck) scf=(maxcycle=1)
 ----------------------------------------------------------------------
 -----
 title
 -----
 Structure from the checkpoint file:  "BDE49_nonexpt_1436_mol1.chk"
 Charge =  0 Multiplicity = 1

                         Standard orientation:
 ---------------------------------------------------------------------
 Center     Atomic      Atomic             Coordinates (Angstroms)
 Number     Number       Type             X           Y           Z
 ---------------------------------------------------------------------
      1          6           0       -0.450078   -1.666431    0.000185
      2          6           0        0.945751   -1.610740    0.000194
      3          6           0        1.605739   -0.385707   -0.000021
      4          6           0       -1.210598   -0.500187   -0.000006
      5          6           0       -0.552155    0.753256   -0.000222
      6          6           0        0.838310    0.792918   -0.000258
      7          1           0        1.508014   -2.537022    0.000375
      8         15           0        3.442051   -0.196464   -0.000116
      9          1           0       -0.939183   -2.631354    0.000364
     10          8           0       -2.567759   -0.451819   -0.000011
     11          6           0       -3.284640   -1.677320    0.000003
     12          1           0       -3.065436   -2.272077   -0.893992
     13          1           0       -4.338019   -1.402554   -0.000117
     14          1           0       -3.065616   -2.271955    0.894124
     15          1           0        1.347206    1.747799   -0.000500
     16          8           0       -1.365003    1.843448   -0.000508
     17          6           0       -0.763723    3.129593    0.000479
     18          1           0       -1.588440    3.840268    0.000965
     19          1           0       -0.149464    3.288105   -0.893177
     20          1           0       -0.149533    3.286741    0.894417
     21          1           0        3.750103   -1.124008   -1.030225
     22          1           0        3.750061   -1.122305    1.031541
 ---------------------------------------------------------------------

 SCF Done:  E(RHF) =  -802.127888941     A.U. after    2 cycles

 The electronic state is 1-A.
 Alpha  occ. eigenvalues -- -105.17946 -21.07339 -21.07013 -11.54685 -11.46357
 Alpha  occ. eigenvalues --  -11.45973 -11.42455 -11.41989 -11.41274 -11.41225
 Alpha  occ. eigenvalues --  -11.36807  -2.74752  -1.81291  -1.75828  -1.49555
 Alpha  occ. eigenvalues --   -1.44563  -1.43154  -1.29408  -1.09476  -1.08570
 Alpha  occ. eigenvalues --   -0.99694  -0.97924  -0.85544  -0.82883  -0.73642
 Alpha  occ. eigenvalues --   -0.67504  -0.65322  -0.63137  -0.62865  -0.62043
 Alpha  occ. eigenvalues --   -0.61675  -0.56522  -0.55159  -0.53890  -0.51921
 Alpha  occ. eigenvalues --   -0.46043  -0.42101  -0.41434  -0.40866  -0.38109
 Alpha  occ. eigenvalues --   -0.30006  -0.25500  -0.23353  -0.22559  -0.02541
 Alpha virt. eigenvalues --    0.03359   0.04534   0.05129   0.05608   0.06093
 Alpha virt. eigenvalues --    0.06452   0.07288   0.07578   0.08173   0.08195
 Alpha virt. eigenvalues --    0.08874   0.09953   0.10115   0.10620   0.10697

 Mulliken charges:
               1
     1  C   -1.679476
     2  C   -3.592841
     3  C    6.315568
     4  C    3.934990
     5  C    5.753278
     6  C   -7.585932
     7  H    1.902441
     8  P    1.350166
     9  H    1.944752
    10  O   -4.813766
    11  C   -3.780818
    12  H    1.355218
    13  H    1.434457
    14  H    1.355157
    15  H    2.186240
    16  O   -4.923661
    17  C   -3.822041
    18  H    1.451814
    19  H    1.366007
    20  H    1.365679
    21  H   -0.758951
    22  H   -0.758280
 Sum of Mulliken charges =  -0.00000

 Dipole moment (field-independent basis, Debye):
    X=             -2.4332    Y=              2.2072    Z=             -0.0015  Tot=              3.2852

 Test job not archived.
 1\1\GINC-SE041\SP\RHF\Aug-CC-pVDZ\C8H11O2P1\OHZDE\08-Apr-2025\0\\#t hf
  aug-cc-pvdz iop(5/13=1,5/36=2,99/5=2) pseudo=read geom=check guess=(r
 ead,tcheck) scf=(maxcycle=1)\\title\\0,1\C,0,-0.450078,-1.666431,0.000
 185\C,0,0.945751,-1.61074,0.000194\C,0,1.605739,-0.385707,-0.000021\C,
 0,-1.210598,-0.500187,-0.000006\C,0,-0.552155,0.753256,-0.000222\C,0,0
 .83831,0.792918,-0.000258\H,0,1.508014,-2.537022,0.000375\P,0,3.442051
 ,-0.196464,-0.000116\H,0,-0.939183,-2.631354,0.000364\O,0,-2.567759,-0
 .451819,-0.000011\C,0,-3.28464,-1.67732,0.000003\H,0,-3.065436,-2.2720

 Normal termination of Gaussian 16 at Tue Apr  8 23:37:14 2025.
