 Gaussian 16, Revision C.01,

 ----------------------------------------------------------------------
 #t hf aug-cc-pvdz symm=none int=(grid=ultrafine) guess=(read,tcheck) s
 table=(opt,rrhf)
 ----------------------------------------------------------------------
 -----
 title
 -----
 Symbolic Z-matrix:
 Charge =  0 Multiplicity = 1

 SCF Done:  E(RHF) =  -1005.48699417     A.U. after   15 cycles
 Normal termination of Gaussian 16 at Wed Apr  9 00:19:58 2025.
 Gaussian 16:  ES64L-G16RevC.01  3-Jul-2019

 ----------------------------------------------------------------------
 #t hf aug-cc-pvdz iop(5/13=1,5/36=2,99/5=2) pseudo=read geom=check gue
 ss=(read,tcheck) scf=(maxcycle=1)
 ----------------------------------------------------------------------
 -----
 title
 -----
 Structure from the checkpoint file:  "BDE49_nonexpt_2594_mol1.chk"
 Charge =  0 Multiplicity = 1

                         Standard orientation:
 ---------------------------------------------------------------------
 Center     Atomic      Atomic             Coordinates (Angstroms)
 Number     Number       Type             X           Y           Z
 ---------------------------------------------------------------------
      1         17           0       -1.896483   -0.748887   -0.000008
      2         16           0       -0.690639    0.992303    0.000010
      3          7           0        0.895526    0.622837   -0.000008
      4          7           0        1.421084   -0.492485    0.000007
      5          6           0        2.887406   -0.443831   -0.000000
      6          1           0        3.237421   -0.986710   -0.881760
      7          1           0        3.237434   -0.986684    0.881771
      8          1           0        3.274887    0.578157   -0.000018
 ---------------------------------------------------------------------

 SCF Done:  E(RHF) =  -1006.63991896     A.U. after    2 cycles

 The electronic state is 1-A.
 Alpha  occ. eigenvalues --  -99.90689 -75.77566 -15.84109 -15.81647 -13.27223
 Alpha  occ. eigenvalues --  -13.12678 -13.08509 -11.40880 -10.47755  -9.67457
 Alpha  occ. eigenvalues --   -9.66874  -9.66782  -8.11605  -1.58845  -1.33162
 Alpha  occ. eigenvalues --   -1.21432  -1.03246  -0.82765  -0.66838  -0.64991
 Alpha  occ. eigenvalues --   -0.63846  -0.55511  -0.55458  -0.52656  -0.51582
 Alpha  occ. eigenvalues --   -0.47355  -0.35488  -0.27113
 Alpha virt. eigenvalues --    0.03169   0.04839   0.06205   0.06612   0.07180
 Alpha virt. eigenvalues --    0.09721   0.10472   0.12669   0.12702   0.13450
 Alpha virt. eigenvalues --    0.13849   0.14987   0.16375   0.16507   0.16784

 Mulliken charges:
               1
     1  Cl  -0.382628
     2  S    1.362779
     3  N   -0.548385
     4  N   -1.431631
     5  C   -3.048147
     6  H    1.357794
     7  H    1.357797
     8  H    1.332421
 Sum of Mulliken charges =   0.00000

 Dipole moment (field-independent basis, Debye):
    X=              1.8712    Y=              2.7042    Z=              0.0000  Tot=              3.2884

 Test job not archived.
 1\1\GINC-SE099\SP\RHF\Aug-CC-pVDZ\C1H3Cl1N2S1\OHZDE\09-Apr-2025\0\\#t
 hf aug-cc-pvdz iop(5/13=1,5/36=2,99/5=2) pseudo=read geom=check guess=
 (read,tcheck) scf=(maxcycle=1)\\title\\0,1\Cl,0,-1.896483,-0.748887,-0
 .000008\S,0,-0.690639,0.992303,0.00001\N,0,0.895526,0.622837,-0.000008
 \N,0,1.421084,-0.492485,0.000007\C,0,2.887406,-0.443831,0.\H,0,3.23742
 1,-0.98671,-0.88176\H,0,3.237434,-0.986684,0.881771\H,0,3.274887,0.578
 157,-0.000018\\Version=ES64L-G16RevC.01\State=1-A\HF=-1006.639919\RMSD
 =1.088e-01\Dipole=0.736175,1.063908,0.0000177\Quadrupole=1.1533057,0.8

 Normal termination of Gaussian 16 at Wed Apr  9 00:20:02 2025.
