 Gaussian 16, Revision C.01,

 ----------------------------------------------------------------------
 #t hf aug-cc-pvdz symm=none int=(grid=ultrafine) guess=(read,tcheck) s
 table=(opt,rrhf)
 ----------------------------------------------------------------------
 -----
 title
 -----
 Symbolic Z-matrix:
 Charge =  0 Multiplicity = 1

 SCF Done:  E(RHF) =  -1682.35296719     A.U. after   16 cycles
 Normal termination of Gaussian 16 at Tue Apr  8 23:13:54 2025.
 Gaussian 16:  ES64L-G16RevC.01  3-Jul-2019

 ----------------------------------------------------------------------
 #t hf aug-cc-pvdz iop(5/13=1,5/36=2,99/5=2) pseudo=read geom=check gue
 ss=(read,tcheck) scf=(maxcycle=1)
 ----------------------------------------------------------------------
 -----
 title
 -----
 Structure from the checkpoint file:  "BDE49_expt_772_mol1.chk"
 Charge =  0 Multiplicity = 1

                         Standard orientation:
 ---------------------------------------------------------------------
 Center     Atomic      Atomic             Coordinates (Angstroms)
 Number     Number       Type             X           Y           Z
 ---------------------------------------------------------------------
      1          6           0        0.492800    2.129839    0.000004
      2          6           0        1.509684    1.177200    0.000003
      3          6           0        1.186971   -0.176072   -0.000000
      4          6           0       -0.144045   -0.608299   -0.000001
      5          6           0       -1.148354    0.372572   -0.000000
      6          6           0       -0.841495    1.725227    0.000003
      7          8           0        0.735387    3.467301    0.000006
      8          1           0        1.684977    3.627655    0.000009
      9          1           0        2.552040    1.472043    0.000003
     10          1           0       -1.627240    2.467435    0.000004
     11         17           0       -2.830564   -0.083716   -0.000001
     12         17           0       -0.539009   -2.297954   -0.000004
     13         17           0        2.497441   -1.325880   -0.000001
 ---------------------------------------------------------------------

 SCF Done:  E(RHF) =  -1684.46729040     A.U. after    2 cycles

 The electronic state is 1-A.
 Alpha  occ. eigenvalues --  -99.91337 -99.91046 -99.90634 -21.13243 -11.56422
 Alpha  occ. eigenvalues --  -11.51159 -11.51034 -11.48821 -11.45104 -11.42130
 Alpha  occ. eigenvalues --  -10.48726 -10.48439 -10.48059  -9.68771  -9.68483
 Alpha  occ. eigenvalues --   -9.68028  -9.67855  -9.67641  -9.67585  -9.67355
 Alpha  occ. eigenvalues --   -9.67083  -9.66944  -1.78925  -1.46355  -1.35938
 Alpha  occ. eigenvalues --   -1.32661  -1.25294  -1.11164  -1.08800  -0.91629
 Alpha  occ. eigenvalues --   -0.88880  -0.74125  -0.72150  -0.69861  -0.63706
 Alpha  occ. eigenvalues --   -0.63392  -0.62582  -0.58326  -0.57268  -0.56023
 Alpha  occ. eigenvalues --   -0.55446  -0.53696  -0.51635  -0.50155  -0.49258
 Alpha  occ. eigenvalues --   -0.45332  -0.43926  -0.36342  -0.30438
 Alpha virt. eigenvalues --    0.02752   0.04671   0.05579   0.06259   0.06996
 Alpha virt. eigenvalues --    0.07493   0.07623   0.09587   0.10154   0.10271
 Alpha virt. eigenvalues --    0.11229   0.12485   0.13032   0.13329   0.13449

 Mulliken charges:
               1
     1  C    7.166259
     2  C   -3.328908
     3  C   -0.034994
     4  C   -1.908211
     5  C    1.260373
     6  C   -1.557867
     7  O   -4.468776
     8  H    1.044344
     9  H    1.723512
    10  H    1.771284
    11  Cl  -0.622268
    12  Cl  -0.409673
    13  Cl  -0.635073
 Sum of Mulliken charges =  -0.00000

 Dipole moment (field-independent basis, Debye):
    X=              1.5551    Y=              4.1054    Z=              0.0000  Tot=              4.3901

 Test job not archived.
 1\1\GINC-SE143\SP\RHF\Aug-CC-pVDZ\C6H3Cl3O1\OHZDE\08-Apr-2025\0\\#t hf
  aug-cc-pvdz iop(5/13=1,5/36=2,99/5=2) pseudo=read geom=check guess=(r
 ead,tcheck) scf=(maxcycle=1)\\title\\0,1\C,0,0.492779,2.129844,0.00000
 4\C,0,1.509672,1.177215,0.000003\C,0,1.186972,-0.176061,0.\C,0,-0.1440
 39,-0.6083,-0.000001\C,0,-1.148358,0.372561,0.\C,0,-0.841512,1.725219,
 0.000003\O,0,0.735353,3.467308,0.000006\H,0,1.684942,3.627671,0.000009
 \H,0,2.552026,1.472068,0.000003\H,0,-1.627264,2.467419,0.000004\Cl,0,-
 2.830563,-0.083743,-0.000001\Cl,0,-0.538987,-2.297959,-0.000004\Cl,0,2

 Normal termination of Gaussian 16 at Tue Apr  8 23:14:01 2025.
