 Gaussian 16, Revision C.01,

 ----------------------------------------------------------------------
 #t hf aug-cc-pvdz symm=none int=(grid=ultrafine) guess=(read,tcheck) s
 table=(opt,rrhf)
 ----------------------------------------------------------------------
 -----
 title
 -----
 Symbolic Z-matrix:
 Charge =  0 Multiplicity = 1

 SCF Done:  E(RHF) =  -945.446572243     A.U. after   12 cycles
 Normal termination of Gaussian 16 at Tue Apr  8 23:46:06 2025.
 Gaussian 16:  ES64L-G16RevC.01  3-Jul-2019

 ----------------------------------------------------------------------
 #t hf aug-cc-pvdz iop(5/13=1,5/36=2,99/5=2) pseudo=read geom=check gue
 ss=(read,tcheck) scf=(maxcycle=1)
 ----------------------------------------------------------------------
 -----
 title
 -----
 Structure from the checkpoint file:  "BDE49_nonexpt_1743_mol1.chk"
 Charge =  0 Multiplicity = 1

                         Standard orientation:
 ---------------------------------------------------------------------
 Center     Atomic      Atomic             Coordinates (Angstroms)
 Number     Number       Type             X           Y           Z
 ---------------------------------------------------------------------
      1         14           0        1.338137   -0.375904    0.414188
      2          6           0       -0.342091   -0.855138   -0.264771
      3          6           0       -1.527953   -0.001958    0.219389
      4          1           0       -0.502657   -1.907606    0.009910
      5          1           0       -0.285908   -0.835927   -1.360466
      6          6           0        2.705893   -1.490708   -0.199938
      7          1           0        2.530140   -2.520845    0.126649
      8          1           0        3.674421   -1.170853    0.191793
      9          1           0        2.760777   -1.482691   -1.291661
     10         17           0        1.778558    1.591847   -0.182647
     11          6           0       -2.877528   -0.458130   -0.350552
     12          1           0       -1.359032    1.045811   -0.052979
     13          1           0       -1.575836   -0.026439    1.315105
     14          6           0       -4.053973    0.394374    0.132830
     15          1           0       -3.047518   -1.507007   -0.078433
     16          1           0       -2.830587   -0.431663   -1.445875
     17          1           0       -4.146381    0.360021    1.222861
     18          1           0       -4.999543    0.045927   -0.291233
     19          1           0       -3.927116    1.442585   -0.154745
     20          1           0        1.313734   -0.340692    1.893686
 ---------------------------------------------------------------------

 SCF Done:  E(RHF) =  -946.891551857     A.U. after    2 cycles

 The electronic state is 1-A.
 Alpha  occ. eigenvalues --  -99.86807 -76.23929 -11.42296 -11.39708 -11.36643
 Alpha  occ. eigenvalues --  -11.35736 -11.34404 -10.44177  -9.64114  -9.63616
 Alpha  occ. eigenvalues --   -9.63504  -5.57747  -2.21893  -2.20661  -2.19746
 Alpha  occ. eigenvalues --   -1.27575  -1.23618  -1.08008  -1.04153  -0.92072
 Alpha  occ. eigenvalues --   -0.83134  -0.72369  -0.65409  -0.58997  -0.58715
 Alpha  occ. eigenvalues --   -0.57602  -0.56995  -0.53708  -0.52786  -0.52493
 Alpha  occ. eigenvalues --   -0.51027  -0.49765  -0.47753  -0.45738  -0.45504
 Alpha  occ. eigenvalues --   -0.42878  -0.36999
 Alpha virt. eigenvalues --    0.03514   0.04502   0.05416   0.05612   0.05710
 Alpha virt. eigenvalues --    0.06066   0.06237   0.06466   0.07593   0.07769
 Alpha virt. eigenvalues --    0.08173   0.08510   0.09047   0.09597   0.11023

 Mulliken charges:
               1
     1  Si   5.166767
     2  C   -3.749777
     3  C   -2.947565
     4  H    1.572077
     5  H    1.493471
     6  C   -5.153121
     7  H    1.406590
     8  H    1.232198
     9  H    1.299922
    10  Cl  -0.922179
    11  C   -2.678668
    12  H    1.554192
    13  H    1.662557
    14  C   -4.139665
    15  H    1.407424
    16  H    1.409725
    17  H    1.302542
    18  H    1.101720
    19  H    1.327157
    20  H   -2.345368
 Sum of Mulliken charges =   0.00000

 Dipole moment (field-independent basis, Debye):
    X=             -0.7744    Y=             -2.2905    Z=             -0.2081  Tot=              2.4268

 Test job not archived.
 1\1\GINC-SE341\SP\RHF\Aug-CC-pVDZ\C5H13Cl1Si1\OHZDE\08-Apr-2025\0\\#t
 hf aug-cc-pvdz iop(5/13=1,5/36=2,99/5=2) pseudo=read geom=check guess=
 (read,tcheck) scf=(maxcycle=1)\\title\\0,1\Si,0,1.338137,-0.375904,0.4
 14188\C,0,-0.342091,-0.855138,-0.264771\C,0,-1.527953,-0.001958,0.2193
 89\H,0,-0.502657,-1.907606,0.00991\H,0,-0.285908,-0.835927,-1.360466\C
 ,0,2.705893,-1.490708,-0.199938\H,0,2.53014,-2.520845,0.126649\H,0,3.6
 74421,-1.170853,0.191793\H,0,2.760777,-1.482691,-1.291661\Cl,0,1.77855
 8,1.591847,-0.182647\C,0,-2.877528,-0.45813,-0.350552\H,0,-1.359032,1.

 Normal termination of Gaussian 16 at Tue Apr  8 23:46:14 2025.
