 Gaussian 16, Revision C.01,

 ----------------------------------------------------------------------
 #t hf aug-cc-pvdz symm=none int=(grid=ultrafine) guess=(read,tcheck) s
 table=(opt,rrhf)
 ----------------------------------------------------------------------
 -----
 title
 -----
 Symbolic Z-matrix:
 Charge =  0 Multiplicity = 1

 SCF Done:  E(RHF) =  -689.650557835     A.U. after   14 cycles

 1\1\GINC-SE273\Stability\RHF\Aug-CC-pVDZ\C6H5Cl1\OHZDE\08-Apr-2025\0\\
 #t hf aug-cc-pvdz symm=none int=(grid=ultrafine) guess=(read,tcheck) s
 table=(opt,rrhf)\\title\\0,1\C,0,0.,0.,0.502102\C,0,0.,1.213394,-0.178
 253\C,0,0.,1.205213,-1.571406\C,0,0.,0.,-2.270494\C,0,0.,-1.205213,-1.
 571406\C,0,0.,-1.213394,-0.178253\Cl,0,0.,0.,2.260462\H,0,0.,2.147001,
 -2.108081\H,0,0.,0.,-3.354091\H,0,0.,2.143994,0.374329\H,0,0.,-2.14700
 1,-2.108081\H,0,0.,-2.143994,0.374329\\Version=ES64L-G16RevC.01\HF=-68
 9.6505578\RMSD=6.231e-09\Dipole=0.,0.,-0.8073978\Quadrupole=-4.0708239

 Normal termination of Gaussian 16 at Tue Apr  8 22:49:45 2025.
 Gaussian 16:  ES64L-G16RevC.01  3-Jul-2019

 ----------------------------------------------------------------------
 #t hf aug-cc-pvdz iop(5/13=1,5/36=2,99/5=2) pseudo=read geom=check gue
 ss=(read,tcheck) scf=(maxcycle=1)
 ----------------------------------------------------------------------
 -----
 title
 -----
 Structure from the checkpoint file:  "BDE49_expt_1671_mol1.chk"
 Charge =  0 Multiplicity = 1

                         Standard orientation:
 ---------------------------------------------------------------------
 Center     Atomic      Atomic             Coordinates (Angstroms)
 Number     Number       Type             X           Y           Z
 ---------------------------------------------------------------------
      1          6           0        0.000000   -0.000000    0.502102
      2          6           0        0.000000    1.213394   -0.178253
      3          6           0        0.000000    1.205213   -1.571406
      4          6           0        0.000000    0.000000   -2.270494
      5          6           0       -0.000000   -1.205213   -1.571406
      6          6           0       -0.000000   -1.213394   -0.178253
      7         17           0        0.000000   -0.000000    2.260462
      8          1           0        0.000000    2.147001   -2.108081
      9          1           0        0.000000    0.000000   -3.354091
     10          1           0        0.000000    2.143994    0.374329
     11          1           0       -0.000000   -2.147001   -2.108081
     12          1           0       -0.000000   -2.143994    0.374329
 ---------------------------------------------------------------------

 SCF Done:  E(RHF) =  -691.002062859     A.U. after    2 cycles

 The electronic state is 1-A1.
 Alpha  occ. eigenvalues --  -99.89379 -11.52459 -11.45889 -11.44493 -11.42244
 Alpha  occ. eigenvalues --  -11.41808 -11.37874 -10.46720  -9.66742  -9.65856
 Alpha  occ. eigenvalues --   -9.65687  -1.40063  -1.27925  -1.10817  -1.08267
 Alpha  occ. eigenvalues --   -0.88354  -0.86416  -0.73120  -0.67269  -0.60964
 Alpha  occ. eigenvalues --   -0.60050  -0.59653  -0.57199  -0.50348  -0.49161
 Alpha  occ. eigenvalues --   -0.47529  -0.45719  -0.34407  -0.33743
 Alpha virt. eigenvalues --    0.03073   0.04909   0.05073   0.06089   0.06551
 Alpha virt. eigenvalues --    0.08487   0.09713   0.10685   0.11229   0.12555
 Alpha virt. eigenvalues --    0.12952   0.13830   0.13948   0.14060   0.14350

 Mulliken charges:
               1
     1  C   -1.113651
     2  C   -1.650641
     3  C   -0.079444
     4  C   -2.512185
     5  C   -0.079444
     6  C   -1.650641
     7  Cl  -0.819682
     8  H    1.497464
     9  H    1.515749
    10  H    1.697506
    11  H    1.497464
    12  H    1.697506
 Sum of Mulliken charges =   0.00000

 Dipole moment (field-independent basis, Debye):
    X=             -0.0000    Y=              0.0000    Z=             -2.4757  Tot=              2.4757

 Test job not archived.
 1\1\GINC-SE273\SP\RHF\Aug-CC-pVDZ\C6H5Cl1\OHZDE\08-Apr-2025\0\\#t hf a
 ug-cc-pvdz iop(5/13=1,5/36=2,99/5=2) pseudo=read geom=check guess=(rea
 d,tcheck) scf=(maxcycle=1)\\title\\0,1\C,0,0.,0.,0.502102\C,0,0.,1.213
 394,-0.178253\C,0,0.,1.205213,-1.571406\C,0,0.,0.,-2.270494\C,0,0.,-1.
 205213,-1.571406\C,0,0.,-1.213394,-0.178253\Cl,0,0.,0.,2.260462\H,0,0.
 ,2.147001,-2.108081\H,0,0.,0.,-3.354091\H,0,0.,2.143994,0.374329\H,0,0
 .,-2.147001,-2.108081\H,0,0.,-2.143994,0.374329\\Version=ES64L-G16RevC
 .01\State=1-A1\HF=-691.0020629\RMSD=2.085e+00\Dipole=0.,0.,-0.9740107\

 Normal termination of Gaussian 16 at Tue Apr  8 22:49:50 2025.
