 Gaussian 16, Revision C.01,

 ----------------------------------------------------------------------
 #t hf aug-cc-pvdz symm=none int=(grid=ultrafine) guess=(read,tcheck) s
 table=(opt,rrhf)
 ----------------------------------------------------------------------
 -----
 title
 -----
 Symbolic Z-matrix:
 Charge =  0 Multiplicity = 1

 SCF Done:  E(RHF) =  -1693.42820455     A.U. after   11 cycles
 Normal termination of Gaussian 16 at Tue Apr  8 23:44:15 2025.
 Gaussian 16:  ES64L-G16RevC.01  3-Jul-2019

 ----------------------------------------------------------------------
 #t hf aug-cc-pvdz iop(5/13=1,5/36=2,99/5=2) pseudo=read geom=check gue
 ss=(read,tcheck) scf=(maxcycle=1)
 ----------------------------------------------------------------------
 -----
 title
 -----
 Structure from the checkpoint file:  "BDE49_nonexpt_171_mol1.chk"
 Charge =  0 Multiplicity = 1

                         Standard orientation:
 ---------------------------------------------------------------------
 Center     Atomic      Atomic             Coordinates (Angstroms)
 Number     Number       Type             X           Y           Z
 ---------------------------------------------------------------------
      1         17           0       -2.328234   -0.882028   -0.000037
      2         17           0       -0.866850    1.773048    0.000054
      3          5           0       -0.816992    0.024163    0.000012
      4         14           0        0.901378   -1.045767    0.000015
      5         17           0        2.579829    0.186118   -0.000037
      6          1           0        0.962514   -1.895671    1.207668
      7          1           0        0.962495   -1.895740   -1.207589
 ---------------------------------------------------------------------

 SCF Done:  E(RHF) =  -1694.41631639     A.U. after    2 cycles

 The electronic state is 1-A.
 Alpha  occ. eigenvalues --  -99.91806 -99.91594 -99.88991 -76.26955 -10.49125
 Alpha  occ. eigenvalues --  -10.48837 -10.46392  -9.69054  -9.68747  -9.68588
 Alpha  occ. eigenvalues --   -9.68421  -9.68367  -9.68186  -9.66266  -9.65657
 Alpha  occ. eigenvalues --   -9.65597  -7.72730  -5.60516  -2.22964  -2.22439
 Alpha  occ. eigenvalues --   -2.22114  -1.40790  -1.31225  -1.29350  -0.86857
 Alpha  occ. eigenvalues --   -0.76205  -0.64712  -0.61619  -0.59330  -0.55988
 Alpha  occ. eigenvalues --   -0.55735  -0.53896  -0.53441  -0.51447  -0.48122
 Alpha  occ. eigenvalues --   -0.41895
 Alpha virt. eigenvalues --    0.00979   0.03321   0.03705   0.03815   0.04589
 Alpha virt. eigenvalues --    0.07623   0.08270   0.09310   0.10467   0.10486
 Alpha virt. eigenvalues --    0.10570   0.11590   0.12263   0.14240   0.14881

 Mulliken charges:
               1
     1  Cl  -1.209894
     2  Cl  -1.180004
     3  B    0.346209
     4  Si   6.459078
     5  Cl  -0.869099
     6  H   -1.773145
     7  H   -1.773146
 Sum of Mulliken charges =  -0.00000

 Dipole moment (field-independent basis, Debye):
    X=             -0.6101    Y=             -0.8297    Z=              0.0000  Tot=              1.0299

 Test job not archived.
 1\1\GINC-SE336\SP\RHF\Aug-CC-pVDZ\B1Cl3H2Si1\OHZDE\08-Apr-2025\0\\#t h
 f aug-cc-pvdz iop(5/13=1,5/36=2,99/5=2) pseudo=read geom=check guess=(
 read,tcheck) scf=(maxcycle=1)\\title\\0,1\Cl,0,-2.328234,-0.882028,-0.
 000037\Cl,0,-0.86685,1.773048,0.000054\B,0,-0.816992,0.024163,0.000012
 \Si,0,0.901378,-1.045767,0.000015\Cl,0,2.579829,0.186117,-0.000037\H,0
 ,0.962514,-1.895671,1.207668\H,0,0.962495,-1.89574,-1.207589\\Version=
 ES64L-G16RevC.01\State=1-A\HF=-1694.4163164\RMSD=6.250e-02\Dipole=-0.2
 400298,-0.326443,0.0000093\Quadrupole=-2.4109058,1.5703072,0.8405987,0

 Normal termination of Gaussian 16 at Tue Apr  8 23:44:18 2025.
