 Gaussian 16, Revision C.01,

 ----------------------------------------------------------------------
 #t hf aug-cc-pvdz symm=none int=(grid=ultrafine) guess=(read,tcheck) s
 table=opt
 ----------------------------------------------------------------------
 -----
 title
 -----
 Symbolic Z-matrix:
 Charge =  0 Multiplicity = 2

 SCF Done:  E(UHF) =  -553.059088010     A.U. after   27 cycles
 Normal termination of Gaussian 16 at Wed Apr  9 00:51:14 2025.
 Gaussian 16:  ES64L-G16RevC.01  3-Jul-2019

 ----------------------------------------------------------------------
 #t hf aug-cc-pvdz iop(5/13=1,5/36=2,99/5=2) pseudo=read geom=check gue
 ss=(read,tcheck) scf=(maxcycle=1)
 ----------------------------------------------------------------------
 -----
 title
 -----
 Structure from the checkpoint file:  "BDE49_nonexpt_918_mol2.chk"
 Charge =  0 Multiplicity = 2

                         Standard orientation:
 ---------------------------------------------------------------------
 Center     Atomic      Atomic             Coordinates (Angstroms)
 Number     Number       Type             X           Y           Z
 ---------------------------------------------------------------------
      1         16           0       -1.822329    0.057984   -0.288575
      2          6           0       -0.386925   -0.410339    0.734563
      3          6           0        0.949849   -0.110805    0.103264
      4          6           0        1.727585   -1.105396   -0.326395
      5          6           0        1.336242    1.339151   -0.003263
      6          1           0        2.692875   -0.913841   -0.781788
      7          1           0        1.426204   -2.143758   -0.237481
      8          1           0        2.295386    1.461187   -0.508232
      9          1           0        0.578201    1.901264   -0.557182
     10          1           0        1.410479    1.795582    0.990958
     11          1           0       -0.483043   -1.465674    0.998673
     12          1           0       -0.523351    0.161827    1.663245
 ---------------------------------------------------------------------

 SCF Done:  E(UHF) =  -554.037035432     A.U. after    2 cycles

 The electronic state is 2-A.
 Alpha  occ. eigenvalues --  -75.70463 -13.11664 -13.05501 -13.04183 -11.43267
 Alpha  occ. eigenvalues --  -11.40864 -11.38585 -11.36499  -8.04014  -1.28480
 Alpha  occ. eigenvalues --   -1.12782  -1.00132  -0.93466  -0.76011  -0.64226
 Alpha  occ. eigenvalues --   -0.62567  -0.57942  -0.54417  -0.51055  -0.47515
 Alpha  occ. eigenvalues --   -0.43923  -0.32722  -0.29130  -0.24414
 Alpha virt. eigenvalues --    0.02898   0.05351   0.05534   0.05891   0.06162
 Alpha virt. eigenvalues --    0.06259   0.07577   0.09087   0.10449   0.11682
 Alpha virt. eigenvalues --    0.12551   0.14306   0.14691   0.15445   0.15858

  Beta  occ. eigenvalues --  -75.69471 -13.11029 -13.03637 -12.99536 -11.43235
  Beta  occ. eigenvalues --  -11.40919 -11.38674 -11.36525  -8.02905  -1.27399
  Beta  occ. eigenvalues --   -1.08843  -1.00120  -0.88842  -0.75471  -0.63525
  Beta  occ. eigenvalues --   -0.62424  -0.57569  -0.53836  -0.50747  -0.47372
  Beta  occ. eigenvalues --   -0.43281  -0.32768  -0.22840
  Beta virt. eigenvalues --    0.02919   0.04261   0.05448   0.05575   0.06077
  Beta virt. eigenvalues --    0.06189   0.06549   0.07733   0.09246   0.11130
  Beta virt. eigenvalues --    0.11841   0.12926   0.14464   0.15056   0.15630

 Mulliken charges and spin densities:
               1          2
     1  S    0.505712   1.159636
     2  C   -4.470025  -0.183981
     3  C    3.142098   0.114518
     4  C   -4.248577  -0.070064
     5  C   -4.634686  -0.006782
     6  H    1.579073   0.005112
     7  H    1.556866   0.004101
     8  H    1.321445   0.001605
     9  H    1.288032  -0.021477
    10  H    1.141183  -0.000840
    11  H    1.398821   0.008216
    12  H    1.420057  -0.010045
 Sum of Mulliken charges =  -0.00000   1.00000

 Dipole moment (field-independent basis, Debye):
    X=             -0.1666    Y=              0.2959    Z=              0.1431  Tot=              0.3685
                          Isotropic Fermi Contact Couplings
        Atom                 a.u.       MegaHertz       Gauss      10(-4) cm-1
     1  S(33)              0.26267      90.22083      32.19304      30.09443
     2  C(13)             -0.01877     -21.09707      -7.52796      -7.03722
     3  C(13)              0.01338      15.04653       5.36897       5.01898
     4  C(13)             -0.00929     -10.44015      -3.72530      -3.48246
     5  C(13)             -0.00298      -3.35012      -1.19541      -1.11748
     6  H(1)               0.00133       5.95325       2.12427       1.98579
     7  H(1)               0.00122       5.46374       1.94960       1.82251
     8  H(1)               0.00014       0.64566       0.23039       0.21537

 Normal termination of Gaussian 16 at Wed Apr  9 00:51:19 2025.
