 Gaussian 16, Revision C.01,

 ----------------------------------------------------------------------
 #t hf aug-cc-pvdz symm=none int=(grid=ultrafine) guess=(read,tcheck) s
 table=opt
 ----------------------------------------------------------------------
 -----
 title
 -----
 Symbolic Z-matrix:
 Charge =  0 Multiplicity = 2

 SCF Done:  E(UHF) =  -985.178065925     A.U. after   18 cycles
 Normal termination of Gaussian 16 at Tue Apr  8 23:56:22 2025.
 Gaussian 16:  ES64L-G16RevC.01  3-Jul-2019

 ----------------------------------------------------------------------
 #t hf aug-cc-pvdz iop(5/13=1,5/36=2,99/5=2) pseudo=read geom=check gue
 ss=(read,tcheck) scf=(maxcycle=1)
 ----------------------------------------------------------------------
 -----
 title
 -----
 Structure from the checkpoint file:  "BDE49_nonexpt_1983_mol2.chk"
 Charge =  0 Multiplicity = 2

                         Standard orientation:
 ---------------------------------------------------------------------
 Center     Atomic      Atomic             Coordinates (Angstroms)
 Number     Number       Type             X           Y           Z
 ---------------------------------------------------------------------
      1         14           0       -1.092985   -0.457504   -0.000000
      2          6           0       -0.000000    1.081893   -0.000000
      3         17           0        0.503343   -1.853693    0.000000
      4          9           0        1.307557    1.208451    0.000000
      5          9           0       -0.558118    2.283380   -0.000000
 ---------------------------------------------------------------------

 SCF Done:  E(UHF) =  -986.367511305     A.U. after    2 cycles

 The electronic state is 2-A".
 Alpha  occ. eigenvalues --  -99.89625 -76.30842 -29.33490 -29.33433 -11.51011
 Alpha  occ. eigenvalues --  -10.46944  -9.66772  -9.66179  -9.66130  -5.63544
 Alpha  occ. eigenvalues --   -2.25572  -2.23981  -2.21075  -1.31224  -1.28291
 Alpha  occ. eigenvalues --   -0.83891  -0.80546  -0.64444  -0.62233  -0.54408
 Alpha  occ. eigenvalues --   -0.54084  -0.47777  -0.42670  -0.40094  -0.33399
 Alpha  occ. eigenvalues --   -0.29658  -0.25797  -0.20696
 Alpha virt. eigenvalues --    0.03607   0.05265   0.06043   0.07168   0.09491
 Alpha virt. eigenvalues --    0.10527   0.12049   0.12108   0.13489   0.15374
 Alpha virt. eigenvalues --    0.15638   0.17595   0.18406   0.20373   0.20845

  Beta  occ. eigenvalues --  -99.89601 -76.30803 -29.33125 -29.33066 -11.49195
  Beta  occ. eigenvalues --  -10.46920  -9.66798  -9.66184  -9.65972  -5.63482
  Beta  occ. eigenvalues --   -2.25795  -2.23962  -2.20299  -1.29755  -1.23711
  Beta  occ. eigenvalues --   -0.82586  -0.78224  -0.61280  -0.54134  -0.53887
  Beta  occ. eigenvalues --   -0.50224  -0.47138  -0.42065  -0.39591  -0.31109
  Beta  occ. eigenvalues --   -0.28998  -0.25718
  Beta virt. eigenvalues --    0.00996   0.05335   0.06113   0.07366   0.07499
  Beta virt. eigenvalues --    0.10802   0.12290   0.12378   0.13799   0.15380
  Beta virt. eigenvalues --    0.15440   0.16263   0.17749   0.18822   0.21182

 Mulliken charges and spin densities:
               1          2
     1  Si   1.310251   0.164602
     2  C   -1.734877   0.660971
     3  Cl  -0.744586   0.010419
     4  F    0.562772   0.081047
     5  F    0.606440   0.082960
 Sum of Mulliken charges =   0.00000   1.00000

 Dipole moment (field-independent basis, Debye):
    X=              0.2557    Y=              4.4087    Z=             -0.0000  Tot=              4.4161
                          Isotropic Fermi Contact Couplings
        Atom                 a.u.       MegaHertz       Gauss      10(-4) cm-1
     1  Si(29)             0.00397      -3.52647      -1.25833      -1.17630
     2  C(13)              0.07630      85.77497      30.60664      28.61145
     3  Cl(35)             0.00618       2.70843       0.96644       0.90344
     4  F(19)              0.02352      98.97606      35.31712      33.01486
     5  F(19)              0.02272      95.60429      34.11399      31.89016
 --------------------------------------------------------
       Center         ----  Spin Dipole Couplings  ----
                      3XX-RR        3YY-RR        3ZZ-RR

 Normal termination of Gaussian 16 at Tue Apr  8 23:56:24 2025.
