 Gaussian 16, Revision C.01,

 ----------------------------------------------------------------------
 #t hf aug-cc-pvdz symm=none int=(grid=ultrafine) guess=(read,tcheck) s
 table=(opt,rrhf)
 ----------------------------------------------------------------------
 -----
 title
 -----
 Symbolic Z-matrix:
 Charge =  0 Multiplicity = 1

 SCF Done:  E(RHF) =  -1038.49249369     A.U. after   12 cycles
 Normal termination of Gaussian 16 at Tue Apr  8 23:41:12 2025.
 Gaussian 16:  ES64L-G16RevC.01  3-Jul-2019

 ----------------------------------------------------------------------
 #t hf aug-cc-pvdz iop(5/13=1,5/36=2,99/5=2) pseudo=read geom=check gue
 ss=(read,tcheck) scf=(maxcycle=1)
 ----------------------------------------------------------------------
 -----
 title
 -----
 Structure from the checkpoint file:  "BDE49_nonexpt_164_mol1.chk"
 Charge =  0 Multiplicity = 1

                         Standard orientation:
 ---------------------------------------------------------------------
 Center     Atomic      Atomic             Coordinates (Angstroms)
 Number     Number       Type             X           Y           Z
 ---------------------------------------------------------------------
      1         17           0       -1.836753   -0.650681    0.000010
      2         17           0        0.183248    1.651500    0.000004
      3          7           0        0.879929   -1.038326   -0.000013
      4          5           0       -0.137999   -0.099711   -0.000028
      5          6           0        2.323457   -0.824027   -0.000002
      6          1           0        0.600788   -2.009891   -0.000006
      7          1           0        2.534012    0.243445   -0.000015
      8          1           0        2.782277   -1.268256   -0.888033
      9          1           0        2.782261   -1.268232    0.888050
 ---------------------------------------------------------------------

 SCF Done:  E(RHF) =  -1039.54490853     A.U. after    2 cycles

 The electronic state is 1-A.
 Alpha  occ. eigenvalues --  -99.88771 -99.88556 -15.73735 -11.41006 -10.46141
 Alpha  occ. eigenvalues --  -10.45795  -9.66079  -9.65745  -9.65603  -9.65360
 Alpha  occ. eigenvalues --   -9.65318  -9.65128  -7.70676  -1.45126  -1.31550
 Alpha  occ. eigenvalues --   -1.28603  -1.00919  -0.80364  -0.69619  -0.64297
 Alpha  occ. eigenvalues --   -0.62236  -0.56865  -0.56364  -0.54501  -0.51719
 Alpha  occ. eigenvalues --   -0.49623  -0.49193  -0.39629
 Alpha virt. eigenvalues --    0.02490   0.04246   0.04278   0.04687   0.07207
 Alpha virt. eigenvalues --    0.07270   0.08541   0.09391   0.12065   0.12080
 Alpha virt. eigenvalues --    0.12900   0.14001   0.15218   0.15461   0.16993

 Mulliken charges:
               1
     1  Cl  -1.291083
     2  Cl  -1.111427
     3  N   -2.759537
     4  B    2.551781
     5  C   -2.467551
     6  H    1.175745
     7  H    1.370491
     8  H    1.265794
     9  H    1.265787
 Sum of Mulliken charges =   0.00000

 Dipole moment (field-independent basis, Debye):
    X=              2.3130    Y=             -1.8009    Z=             -0.0000  Tot=              2.9314

 Test job not archived.
 1\1\GINC-SE461\SP\RHF\Aug-CC-pVDZ\C1H4B1Cl2N1\OHZDE\08-Apr-2025\0\\#t
 hf aug-cc-pvdz iop(5/13=1,5/36=2,99/5=2) pseudo=read geom=check guess=
 (read,tcheck) scf=(maxcycle=1)\\title\\0,1\Cl,0,-1.836753,-0.65068,0.0
 0001\Cl,0,0.183248,1.6515,0.000004\N,0,0.879929,-1.038326,-0.000013\B,
 0,-0.137999,-0.099711,-0.000028\C,0,2.323457,-0.824027,-0.000002\H,0,0
 .600788,-2.009891,-0.000006\H,0,2.534012,0.243445,-0.000015\H,0,2.7822
 77,-1.268257,-0.888033\H,0,2.782261,-1.268233,0.88805\\Version=ES64L-G
 16RevC.01\State=1-A\HF=-1039.5449085\RMSD=4.154e-02\Dipole=0.9099859,-

 Normal termination of Gaussian 16 at Tue Apr  8 23:41:15 2025.
