 Gaussian 16, Revision C.01,

 ----------------------------------------------------------------------
 #t hf aug-cc-pvdz symm=none int=(grid=ultrafine) guess=(read,tcheck) s
 table=(opt,rrhf)
 ----------------------------------------------------------------------
 -----
 title
 -----
 Symbolic Z-matrix:
 Charge =  0 Multiplicity = 1

 SCF Done:  E(RHF) =  -417.356453263     A.U. after   11 cycles
 Normal termination of Gaussian 16 at Tue Apr  8 23:34:47 2025.
 Gaussian 16:  ES64L-G16RevC.01  3-Jul-2019

 ----------------------------------------------------------------------
 #t hf aug-cc-pvdz iop(5/13=1,5/36=2,99/5=2) pseudo=read geom=check gue
 ss=(read,tcheck) scf=(maxcycle=1)
 ----------------------------------------------------------------------
 -----
 title
 -----
 Structure from the checkpoint file:  "BDE49_nonexpt_1464_mol1.chk"
 Charge =  0 Multiplicity = 1

                         Standard orientation:
 ---------------------------------------------------------------------
 Center     Atomic      Atomic             Coordinates (Angstroms)
 Number     Number       Type             X           Y           Z
 ---------------------------------------------------------------------
      1         15           0        0.559344   -0.139421   -0.000101
      2          8           0       -1.088730    0.154287    0.000126
      3          1           0       -1.556248   -0.685479   -0.000505
      4          1           0        0.938064    0.770517    1.024879
      5          1           0        0.937865    0.771975   -1.023866
 ---------------------------------------------------------------------

 SCF Done:  E(RHF) =  -417.863945034     A.U. after    2 cycles

 The electronic state is 1-A.
 Alpha  occ. eigenvalues -- -105.21480 -21.08974  -2.78743  -1.78084  -1.45742
 Alpha  occ. eigenvalues --   -1.45088  -1.36194  -0.72612  -0.54631  -0.39131
 Alpha  occ. eigenvalues --   -0.28112  -0.25551  -0.03189
 Alpha virt. eigenvalues --    0.04705   0.06281   0.08335   0.09467   0.10202
 Alpha virt. eigenvalues --    0.13632   0.18919   0.20459   0.22426   0.24067
 Alpha virt. eigenvalues --    0.25300   0.27129   0.28728   0.30173   0.33054

 Mulliken charges:
               1
     1  P    2.738766
     2  O   -1.986719
     3  H    0.682530
     4  H   -0.717205
     5  H   -0.717373
 Sum of Mulliken charges =  -0.00000

 Dipole moment (field-independent basis, Debye):
    X=              0.3487    Y=             -1.2804    Z=             -0.0007  Tot=              1.3271

 Test job not archived.
 1\1\GINC-SE108\SP\RHF\Aug-CC-pVDZ\H3O1P1\OHZDE\08-Apr-2025\0\\#t hf au
 g-cc-pvdz iop(5/13=1,5/36=2,99/5=2) pseudo=read geom=check guess=(read
 ,tcheck) scf=(maxcycle=1)\\title\\0,1\P,0,0.559344,-0.139421,-0.000101
 \O,0,-1.08873,0.154287,0.000126\H,0,-1.556248,-0.685479,-0.000505\H,0,
 0.938064,0.770516,1.024879\H,0,0.937865,0.771974,-1.023866\\Version=ES
 64L-G16RevC.01\State=1-A\HF=-417.863945\RMSD=2.391e-01\Dipole=0.137208
 2,-0.5037646,-0.000277\Quadrupole=1.6531021,-4.1341374,2.4810353,0.836
 7868,0.0005038,-0.0045538\PG=C01 [X(H3O1P1)]\\@

 Normal termination of Gaussian 16 at Tue Apr  8 23:34:49 2025.
