 Gaussian 16, Revision C.01,

 ----------------------------------------------------------------------
 #t hf aug-cc-pvdz symm=none int=(grid=ultrafine) guess=(read,tcheck) s
 table=opt
 ----------------------------------------------------------------------
 -----
 title
 -----
 Symbolic Z-matrix:
 Charge =  0 Multiplicity = 2

 SCF Done:  E(UHF) =  -75.4034745627     A.U. after   12 cycles
 Normal termination of Gaussian 16 at Tue Apr  8 22:41:24 2025.
 Gaussian 16:  ES64L-G16RevC.01  3-Jul-2019

 ----------------------------------------------------------------------
 #t hf aug-cc-pvdz iop(5/13=1,5/36=2,99/5=2) pseudo=read geom=check gue
 ss=(read,tcheck) scf=(maxcycle=1)
 ----------------------------------------------------------------------
 -----
 title
 -----
 Structure from the checkpoint file:  "BDE49_expt_1325_mol3.chk"
 Charge =  0 Multiplicity = 2

                         Standard orientation:
 ---------------------------------------------------------------------
 Center     Atomic      Atomic             Coordinates (Angstroms)
 Number     Number       Type             X           Y           Z
 ---------------------------------------------------------------------
      1          8           0        0.000000    0.000000    0.108336
      2          1           0        0.000000    0.000000   -0.866687
 ---------------------------------------------------------------------

 SCF Done:  E(UHF) =  -75.6593563034     A.U. after    2 cycles

 Unable to determine electronic state:  an orbital has unidentified symmetry.
 Alpha  occ. eigenvalues --  -21.15251  -1.65319  -0.56948  -0.46842  -0.38830
 Alpha virt. eigenvalues --    0.04061   0.18716   0.20142   0.21600   0.23507
 Alpha virt. eigenvalues --    0.31397   0.36412   0.37641   0.63959   0.79268
 Alpha virt. eigenvalues --    0.81988   0.82578   1.01050   1.03610   1.52461

  Beta  occ. eigenvalues --  -21.11486  -1.51367  -0.54106  -0.35262
  Beta virt. eigenvalues --    0.04207   0.09626   0.18956   0.22106   0.24424
  Beta virt. eigenvalues --    0.30128   0.32104   0.37652   0.41603   0.65515
  Beta virt. eigenvalues --    0.80689   0.85030   0.85142   1.03703   1.04319

 Mulliken charges and spin densities:
               1          2
     1  O   -1.056795   1.060372
     2  H    1.056795  -0.060372
 Sum of Mulliken charges =  -0.00000   1.00000

 Dipole moment (field-independent basis, Debye):
    X=             -0.0000    Y=             -0.0000    Z=             -0.9582  Tot=              0.9582
                          Isotropic Fermi Contact Couplings
        Atom                 a.u.       MegaHertz       Gauss      10(-4) cm-1
     1  O(17)              0.16482     -99.91449     -35.65197     -33.32789
     2  H(1)              -0.01521     -67.96699     -24.25231     -22.67135
 --------------------------------------------------------
       Center         ----  Spin Dipole Couplings  ----
                      3XX-RR        3YY-RR        3ZZ-RR
 --------------------------------------------------------
     1   Atom        0.701445      0.501743     -1.203188
     2   Atom       -0.066849     -0.072854      0.139703

 Normal termination of Gaussian 16 at Tue Apr  8 22:41:26 2025.
