 Gaussian 16, Revision C.01,

 ----------------------------------------------------------------------
 #t hf aug-cc-pvdz symm=none int=(grid=ultrafine) guess=(read,tcheck) s
 table=(opt,rrhf)
 ----------------------------------------------------------------------
 -----
 title
 -----
 Symbolic Z-matrix:
 Charge =  0 Multiplicity = 1

 SCF Done:  E(RHF) =  -1007.43106337     A.U. after   15 cycles
 Normal termination of Gaussian 16 at Tue Apr  8 23:28:26 2025.
 Gaussian 16:  ES64L-G16RevC.01  3-Jul-2019

 ----------------------------------------------------------------------
 #t hf aug-cc-pvdz iop(5/13=1,5/36=2,99/5=2) pseudo=read geom=check gue
 ss=(read,tcheck) scf=(maxcycle=1)
 ----------------------------------------------------------------------
 -----
 title
 -----
 Structure from the checkpoint file:  "BDE49_nonexpt_1304_mol1.chk"
 Charge =  0 Multiplicity = 1

                         Standard orientation:
 ---------------------------------------------------------------------
 Center     Atomic      Atomic             Coordinates (Angstroms)
 Number     Number       Type             X           Y           Z
 ---------------------------------------------------------------------
      1          6           0       -0.479218    0.586733   -0.208164
      2         15           0        1.165652   -0.209122    0.231231
      3          7           0       -1.648803   -0.403126    0.099004
      4          8           0        1.182554   -0.571471    1.644766
      5          8           0        1.352521   -1.294568   -0.899671
      6          8           0       -1.449548   -1.549266   -0.287024
      7          8           0       -2.629946    0.025595    0.645581
      8          9           0       -0.692345    1.693507    0.501856
      9          9           0       -0.595719    0.871545   -1.517811
     10          1           0        0.608073   -1.917539   -0.917170
     11          8           0        2.207375    0.878171   -0.267885
     12          1           0        2.613002    1.362704    0.462117
 ---------------------------------------------------------------------

 SCF Done:  E(RHF) =  -1010.24459386     A.U. after    2 cycles

 The electronic state is 1-A.
 Alpha  occ. eigenvalues -- -105.35692 -29.36086 -29.35961 -21.16205 -21.15736
 Alpha  occ. eigenvalues --  -21.15358 -21.13934 -21.06791 -16.04127 -11.60634
 Alpha  occ. eigenvalues --   -2.98633  -2.05680  -2.04853  -1.96515  -1.83203
 Alpha  occ. eigenvalues --   -1.75061  -1.61337  -1.43860  -1.36303  -1.28738
 Alpha  occ. eigenvalues --   -1.02058  -0.91098  -0.79430  -0.78947  -0.69854
 Alpha  occ. eigenvalues --   -0.65763  -0.62967  -0.62139  -0.54209  -0.51476
 Alpha  occ. eigenvalues --   -0.49008  -0.46931  -0.45503  -0.44279  -0.40406
 Alpha  occ. eigenvalues --   -0.38681  -0.37534  -0.36316  -0.33700  -0.33143
 Alpha  occ. eigenvalues --   -0.30940  -0.28026  -0.23972  -0.18235
 Alpha virt. eigenvalues --    0.03850   0.05957   0.09109   0.09922   0.10163
 Alpha virt. eigenvalues --    0.10415   0.11833   0.12864   0.13022   0.14432
 Alpha virt. eigenvalues --    0.15639   0.16702   0.17577   0.19715   0.20783

 Mulliken charges:
               1
     1  C   -1.056027
     2  P    9.210229
     3  N    4.104026
     4  O   -3.143529
     5  O   -3.147379
     6  O   -2.830010
     7  O   -2.779865
     8  F    0.465972
     9  F    0.235511
    10  H    1.060722
    11  O   -2.912235
    12  H    0.792585
 Sum of Mulliken charges =   0.00000

 Dipole moment (field-independent basis, Debye):
    X=              1.3178    Y=              3.5619    Z=             -3.0466  Tot=              4.8688

 Test job not archived.
 1\1\GINC-SE364\SP\RHF\Aug-CC-pVDZ\C1H2F2N1O5P1\OHZDE\08-Apr-2025\0\\#t
  hf aug-cc-pvdz iop(5/13=1,5/36=2,99/5=2) pseudo=read geom=check guess
 =(read,tcheck) scf=(maxcycle=1)\\title\\0,1\C,0,0.479218,0.586733,0.20
 8164\P,0,-1.165652,-0.209122,-0.231231\N,0,1.648803,-0.403126,-0.09900
 4\O,0,-1.182554,-0.571471,-1.644766\O,0,-1.352521,-1.294568,0.899671\O
 ,0,1.449548,-1.549266,0.287024\O,0,2.629946,0.025595,-0.645581\F,0,0.6
 92345,1.693507,-0.501856\F,0,0.595719,0.871545,1.517811\H,0,-0.608073,
 -1.917539,0.91717\O,0,-2.207375,0.878171,0.267885\H,0,-2.613002,1.3627

 Normal termination of Gaussian 16 at Tue Apr  8 23:28:33 2025.
