 Gaussian 16, Revision C.01,

 ----------------------------------------------------------------------
 #t hf aug-cc-pvdz symm=none int=(grid=ultrafine) guess=(read,tcheck) s
 table=opt
 ----------------------------------------------------------------------
 -----
 title
 -----
 Symbolic Z-matrix:
 Charge =  0 Multiplicity = 2

 SCF Done:  E(UHF) =  -640.910877117     A.U. after   17 cycles
 Normal termination of Gaussian 16 at Tue Apr  8 23:50:00 2025.
 Gaussian 16:  ES64L-G16RevC.01  3-Jul-2019

 ----------------------------------------------------------------------
 #t hf aug-cc-pvdz iop(5/13=1,5/36=2,99/5=2) pseudo=read geom=check gue
 ss=(read,tcheck) scf=(maxcycle=1)
 ----------------------------------------------------------------------
 -----
 title
 -----
 Structure from the checkpoint file:  "BDE49_nonexpt_182_mol2.chk"
 Charge =  0 Multiplicity = 2

                         Standard orientation:
 ---------------------------------------------------------------------
 Center     Atomic      Atomic             Coordinates (Angstroms)
 Number     Number       Type             X           Y           Z
 ---------------------------------------------------------------------
      1         17           0        2.119585   -0.808145    0.079771
      2          5           0        1.576771    0.756372   -0.484191
      3          6           0        0.302838    1.522231   -0.034419
      4          6           0       -0.882871    0.720889    0.545978
      5          1           0        0.695416    2.216526    0.729819
      6          6           0       -1.631720   -0.103030   -0.508168
      7          1           0       -1.585166    1.417541    1.018734
      8          1           0       -0.523486    0.057486    1.339922
      9          6           0       -2.817383   -0.879837    0.070379
     10          1           0       -0.936776   -0.803692   -0.985581
     11          1           0       -1.984619    0.566435   -1.302095
     12          1           0       -2.489753   -1.584050    0.841133
     13          1           0       -3.334126   -1.452395   -0.704353
     14          1           0       -3.547712   -0.204755    0.527324
     15          1           0       -0.035754    2.181994   -0.842662
 ---------------------------------------------------------------------

 SCF Done:  E(UHF) =  -642.061695299     A.U. after    2 cycles

 The electronic state is 2-A.
 Alpha  occ. eigenvalues --  -99.89482 -11.42174 -11.39483 -11.36553 -11.34420
 Alpha  occ. eigenvalues --  -10.46760  -9.66745  -9.66363  -9.66051  -7.67263
 Alpha  occ. eigenvalues --   -1.34900  -1.24190  -1.09253  -0.94387  -0.83862
 Alpha  occ. eigenvalues --   -0.74818  -0.64699  -0.60150  -0.59180  -0.58088
 Alpha  occ. eigenvalues --   -0.53868  -0.53150  -0.52506  -0.48166  -0.46734
 Alpha  occ. eigenvalues --   -0.45513  -0.42865  -0.30583
 Alpha virt. eigenvalues --    0.03730   0.04043   0.04181   0.04588   0.05730
 Alpha virt. eigenvalues --    0.05959   0.06351   0.06699   0.07587   0.08707
 Alpha virt. eigenvalues --    0.09267   0.09755   0.10826   0.12508   0.13059

  Beta  occ. eigenvalues --  -99.89402 -11.42109 -11.39444 -11.36497 -11.34361
  Beta  occ. eigenvalues --  -10.46665  -9.66644  -9.66084  -9.66038  -7.65330
  Beta  occ. eigenvalues --   -1.33858  -1.23951  -1.08782  -0.93745  -0.83456
  Beta  occ. eigenvalues --   -0.72363  -0.64031  -0.59991  -0.58502  -0.56809
  Beta  occ. eigenvalues --   -0.53845  -0.52413  -0.51354  -0.47554  -0.45811
  Beta  occ. eigenvalues --   -0.44888  -0.42696
  Beta virt. eigenvalues --    0.03193   0.03975   0.04206   0.04487   0.05859
  Beta virt. eigenvalues --    0.05973   0.06393   0.06721   0.07820   0.08370
  Beta virt. eigenvalues --    0.09097   0.09735   0.09898   0.11710   0.13091

 Mulliken charges and spin densities:
               1          2
     1  Cl  -0.988945   0.026895
     2  B    1.094219   0.998802
     3  C   -3.835670  -0.118781
     4  C   -2.420920   0.086802
     5  H    1.601740  -0.040714
     6  C   -2.758021   0.032471
     7  H    1.356405  -0.000371
     8  H    1.398282  -0.010893
     9  C   -3.954993  -0.002600
    10  H    1.382508   0.001349
    11  H    1.495316  -0.004189
    12  H    1.315658   0.001370
    13  H    1.103071  -0.000528
    14  H    1.283427   0.001824
    15  H    1.927924   0.028563
 Sum of Mulliken charges =   0.00000   1.00000

 Dipole moment (field-independent basis, Debye):
    X=             -1.4603    Y=              0.9182    Z=              0.3311  Tot=              1.7565
                          Isotropic Fermi Contact Couplings
        Atom                 a.u.       MegaHertz       Gauss      10(-4) cm-1
     1  Cl(35)             0.12369      54.23170      19.35122      18.08975
     2  B(11)              0.23363     335.11522     119.57744     111.78241
     3  C(13)              0.03027      34.02954      12.14259      11.35103
     4  C(13)              0.01612      18.12737       6.46830       6.04664
     5  H(1)              -0.00123      -5.49311      -1.96008      -1.83231
     6  C(13)             -0.00121      -1.35650      -0.48403      -0.45248
     7  H(1)               0.00112       5.00072       1.78438       1.66806
     8  H(1)              -0.00053      -2.36871      -0.84521      -0.79012

 Normal termination of Gaussian 16 at Tue Apr  8 23:50:05 2025.
