 Gaussian 16, Revision C.01,

 ----------------------------------------------------------------------
 #t hf aug-cc-pvdz symm=none int=(grid=ultrafine) guess=(read,tcheck) s
 table=(opt,rrhf)
 ----------------------------------------------------------------------
 -----
 title
 -----
 Symbolic Z-matrix:
 Charge =  0 Multiplicity = 1

 SCF Done:  E(RHF) =  -984.418605022     A.U. after   16 cycles
 Normal termination of Gaussian 16 at Tue Apr  8 23:43:10 2025.
 Gaussian 16:  ES64L-G16RevC.01  3-Jul-2019

 ----------------------------------------------------------------------
 #t hf aug-cc-pvdz iop(5/13=1,5/36=2,99/5=2) pseudo=read geom=check gue
 ss=(read,tcheck) scf=(maxcycle=1)
 ----------------------------------------------------------------------
 -----
 title
 -----
 Structure from the checkpoint file:  "BDE49_nonexpt_1604_mol1.chk"
 Charge =  0 Multiplicity = 1

                         Standard orientation:
 ---------------------------------------------------------------------
 Center     Atomic      Atomic             Coordinates (Angstroms)
 Number     Number       Type             X           Y           Z
 ---------------------------------------------------------------------
      1          6           0       -4.170442   -0.544461    0.044368
      2          6           0       -3.184496   -1.526296   -0.046173
      3          6           0       -1.842528   -1.165208   -0.085496
      4          6           0       -3.817556    0.804625    0.093918
      5          6           0       -2.479387    1.173012    0.052578
      6          6           0       -1.487068    0.188256   -0.035897
      7          1           0       -5.215734   -0.830556    0.075369
      8          1           0       -3.462185   -2.572880   -0.087145
      9          1           0       -1.069431   -1.918145   -0.159305
     10          1           0       -4.585901    1.565504    0.163520
     11          1           0       -2.182910    2.213656    0.087933
     12          6           0       -0.076408    0.626486   -0.078344
     13          8           0        0.802903   -0.413413   -0.150726
     14         15           0        2.454401   -0.287617   -0.060369
     15          8           0        3.086524   -1.466431   -0.626892
     16          8           0        0.283935    1.786394   -0.062438
     17          8           0        2.770932    1.108750   -0.697453
     18          1           0        2.046280    1.747201   -0.512459
     19          8           0        2.687589   -0.059606    1.502345
     20          1           0        2.946121   -0.874566    1.949209
 ---------------------------------------------------------------------

 SCF Done:  E(RHF) =  -987.402800917     A.U. after    2 cycles

 The electronic state is 1-A.
 Alpha  occ. eigenvalues -- -105.34356 -21.12799 -21.12183 -21.11430 -21.08536
 Alpha  occ. eigenvalues --  -21.03598 -11.58367 -11.54511 -11.46406 -11.46063
 Alpha  occ. eigenvalues --  -11.44329 -11.43407 -11.39346  -2.97450  -2.03178
 Alpha  occ. eigenvalues --   -1.94544  -1.93985  -1.79476  -1.71949  -1.47116
 Alpha  occ. eigenvalues --   -1.41106  -1.36667  -1.25771  -1.14350  -1.12003
 Alpha  occ. eigenvalues --   -0.94191  -0.89268  -0.81131  -0.75124  -0.71663
 Alpha  occ. eigenvalues --   -0.66278  -0.64598  -0.61832  -0.61341  -0.60948
 Alpha  occ. eigenvalues --   -0.59493  -0.55163  -0.52684  -0.51865  -0.48859
 Alpha  occ. eigenvalues --   -0.46966  -0.45891  -0.42642  -0.39577  -0.37578
 Alpha  occ. eigenvalues --   -0.36280  -0.35567  -0.34886  -0.33111  -0.30174
 Alpha  occ. eigenvalues --   -0.28100  -0.16569
 Alpha virt. eigenvalues --    0.02632   0.04563   0.04684   0.05135   0.06601
 Alpha virt. eigenvalues --    0.06828   0.07322   0.07724   0.08729   0.09821
 Alpha virt. eigenvalues --    0.10508   0.10766   0.12132   0.12256   0.12634

 Mulliken charges:
               1
     1  C   -3.099904
     2  C   -1.371752
     3  C   -1.237384
     4  C   -1.299176
     5  C   -2.481348
     6  C    2.812288
     7  H    1.546188
     8  H    1.497189
     9  H    1.960449
    10  H    1.482257
    11  H    1.736586
    12  C    4.849777
    13  O   -4.888100
    14  P    8.213550
    15  O   -2.708574
    16  O   -3.668763
    17  O   -2.959825
    18  H    1.418564
    19  O   -2.769569
    20  H    0.967548
 Sum of Mulliken charges =  -0.00000

 Dipole moment (field-independent basis, Debye):
    X=             -3.9024    Y=              1.0788    Z=              1.7998  Tot=              4.4307

 Test job not archived.
 1\1\GINC-SE166\SP\RHF\Aug-CC-pVDZ\C7H7O5P1\OHZDE\08-Apr-2025\0\\#t hf
 aug-cc-pvdz iop(5/13=1,5/36=2,99/5=2) pseudo=read geom=check guess=(re
 ad,tcheck) scf=(maxcycle=1)\\title\\0,1\C,0,-4.170442,-0.544461,0.0443
 68\C,0,-3.184496,-1.526296,-0.046173\C,0,-1.842528,-1.165208,-0.085496
 \C,0,-3.817556,0.804625,0.093918\C,0,-2.479387,1.173012,0.052578\C,0,-
 1.487068,0.188256,-0.035897\H,0,-5.215734,-0.830556,0.075369\H,0,-3.46
 2185,-2.57288,-0.087145\H,0,-1.069431,-1.918145,-0.159305\H,0,-4.58590
 1,1.565504,0.16352\H,0,-2.18291,2.213656,0.087933\C,0,-0.076408,0.6264

 Normal termination of Gaussian 16 at Tue Apr  8 23:43:25 2025.
