 Gaussian 16, Revision C.01,

 ----------------------------------------------------------------------
 #t hf aug-cc-pvdz symm=none int=(grid=ultrafine) guess=(read,tcheck) s
 table=opt
 ----------------------------------------------------------------------
 -----
 title
 -----
 Symbolic Z-matrix:
 Charge =  0 Multiplicity = 2

 SCF Done:  E(UHF) =  -367.494020878     A.U. after   15 cycles

 1\1\GINC-SE227\Stability\UHF\Aug-CC-pVDZ\C2H5Si1\OHZDE\08-Apr-2025\0\\
 #t hf aug-cc-pvdz symm=none int=(grid=ultrafine) guess=(read,tcheck) s
 table=opt\\title\\0,2\Si,0,0.888836,0.,-0.128566\C,0,-0.795944,-0.7796
 79,0.036292\C,0,-0.795944,0.779679,0.036292\H,0,-1.265029,1.243094,-0.
 826386\H,0,-1.059674,1.27508,0.966666\H,0,-1.059676,-1.27508,0.966666\
 H,0,-1.265028,-1.243094,-0.826386\H,0,1.757024,0.000001,1.083867\\Vers
 ion=ES64L-G16RevC.01\HF=-367.4940209\S2=0.757124\S2-1=0.\S2A=0.750033\
 RMSD=7.206e-09\Dipole=0.000092,0.,-0.024213\Quadrupole=-0.1582026,-0.5

 Normal termination of Gaussian 16 at Tue Apr  8 23:42:13 2025.
 Gaussian 16:  ES64L-G16RevC.01  3-Jul-2019

 ----------------------------------------------------------------------
 #t hf aug-cc-pvdz iop(5/13=1,5/36=2,99/5=2) pseudo=read geom=check gue
 ss=(read,tcheck) scf=(maxcycle=1)
 ----------------------------------------------------------------------
 -----
 title
 -----
 Structure from the checkpoint file:  "BDE49_nonexpt_1658_mol2.chk"
 Charge =  0 Multiplicity = 2

                         Standard orientation:
 ---------------------------------------------------------------------
 Center     Atomic      Atomic             Coordinates (Angstroms)
 Number     Number       Type             X           Y           Z
 ---------------------------------------------------------------------
      1         14           0        0.888836   -0.000000   -0.128566
      2          6           0       -0.795944   -0.779679    0.036292
      3          6           0       -0.795944    0.779679    0.036292
      4          1           0       -1.265028    1.243094   -0.826386
      5          1           0       -1.059673    1.275080    0.966666
      6          1           0       -1.059676   -1.275080    0.966666
      7          1           0       -1.265028   -1.243094   -0.826386
      8          1           0        1.757024    0.000001    1.083867
 ---------------------------------------------------------------------

 SCF Done:  E(UHF) =  -368.025647739     A.U. after    2 cycles

 The electronic state is 2-A.
 Alpha  occ. eigenvalues --  -76.22129 -11.38769 -11.35011  -5.55887  -2.21022
 Alpha  occ. eigenvalues --   -2.17051  -2.17000  -1.16110  -0.85189  -0.70757
 Alpha  occ. eigenvalues --   -0.62654  -0.55286  -0.50249  -0.41925  -0.31439
 Alpha  occ. eigenvalues --   -0.29297
 Alpha virt. eigenvalues --    0.03963   0.05135   0.05185   0.06115   0.06917
 Alpha virt. eigenvalues --    0.07244   0.07876   0.08993   0.13103   0.14439
 Alpha virt. eigenvalues --    0.14791   0.15026   0.15885   0.16183   0.17641

  Beta  occ. eigenvalues --  -76.21547 -11.38736 -11.34976  -5.54936  -2.20023
  Beta  occ. eigenvalues --   -2.16130  -2.14173  -1.15467  -0.84978  -0.66730
  Beta  occ. eigenvalues --   -0.62146  -0.53923  -0.50026  -0.39591  -0.31028
  Beta virt. eigenvalues --    0.02202   0.04723   0.05341   0.05532   0.06345
  Beta virt. eigenvalues --    0.06934   0.07314   0.08366   0.09995   0.13191
  Beta virt. eigenvalues --    0.14547   0.16041   0.16078   0.16349   0.17366

 Mulliken charges and spin densities:
               1          2
     1  Si   3.205723   0.818428
     2  C   -3.170196   0.034055
     3  C   -3.170197   0.034055
     4  H    1.158382  -0.004168
     5  H    1.128120   0.001236
     6  H    1.128119   0.001236
     7  H    1.158382  -0.004168
     8  H   -1.438333   0.119324
 Sum of Mulliken charges =  -0.00000   1.00000

 Dipole moment (field-independent basis, Debye):
    X=              0.3064    Y=             -0.0000    Z=             -0.4335  Tot=              0.5308
                          Isotropic Fermi Contact Couplings
        Atom                 a.u.       MegaHertz       Gauss      10(-4) cm-1
     1  Si(29)             0.62197    -552.76426    -197.24003    -184.38231
     2  C(13)              0.00537       6.04164       2.15581       2.01528
     3  C(13)              0.00537       6.04159       2.15579       2.01526
     4  H(1)               0.00177       7.89083       2.81564       2.63210
     5  H(1)               0.00004       0.19092       0.06812       0.06368
     6  H(1)               0.00004       0.19089       0.06811       0.06367
     7  H(1)               0.00177       7.89081       2.81564       2.63209
     8  H(1)               0.02496     111.57391      39.81235      37.21705

 Normal termination of Gaussian 16 at Tue Apr  8 23:42:15 2025.
