 Gaussian 16, Revision C.01,

 ----------------------------------------------------------------------
 #t hf aug-cc-pvdz symm=none int=(grid=ultrafine) guess=(read,tcheck) s
 table=(opt,rrhf)
 ----------------------------------------------------------------------
 -----
 title
 -----
 Symbolic Z-matrix:
 Charge =  0 Multiplicity = 1

 SCF Done:  E(RHF) =  -951.669957200     A.U. after   15 cycles
 Normal termination of Gaussian 16 at Wed Apr  9 00:16:36 2025.
 Gaussian 16:  ES64L-G16RevC.01  3-Jul-2019

 ----------------------------------------------------------------------
 #t hf aug-cc-pvdz iop(5/13=1,5/36=2,99/5=2) pseudo=read geom=check gue
 ss=(read,tcheck) scf=(maxcycle=1)
 ----------------------------------------------------------------------
 -----
 title
 -----
 Structure from the checkpoint file:  "BDE49_nonexpt_2528_mol1.chk"
 Charge =  0 Multiplicity = 1

                         Standard orientation:
 ---------------------------------------------------------------------
 Center     Atomic      Atomic             Coordinates (Angstroms)
 Number     Number       Type             X           Y           Z
 ---------------------------------------------------------------------
      1         17           0        1.665216   -0.516683    0.044932
      2          7           0       -1.293157    0.262927    0.446267
      3         16           0        0.055579    0.927395   -0.177748
      4          6           0       -2.023838   -0.817399   -0.220352
      5          1           0       -1.356643    0.259219    1.458006
      6          1           0       -2.071806   -0.602783   -1.287543
      7          1           0       -3.038256   -0.860495    0.182276
      8          1           0       -1.536118   -1.786747   -0.074377
 ---------------------------------------------------------------------

 SCF Done:  E(RHF) =  -952.601355465     A.U. after    2 cycles

 The electronic state is 1-A.
 Alpha  occ. eigenvalues --  -99.87903 -75.76252 -15.78789 -13.24869 -13.10392
 Alpha  occ. eigenvalues --  -13.10181 -11.41149 -10.44934  -9.64683  -9.64157
 Alpha  occ. eigenvalues --   -9.64058  -8.09945  -1.44631  -1.27148  -1.08161
 Alpha  occ. eigenvalues --   -0.93082  -0.68824  -0.62876  -0.60430  -0.55616
 Alpha  occ. eigenvalues --   -0.52934  -0.52058  -0.44473  -0.40372  -0.26267
 Alpha virt. eigenvalues --    0.02635   0.04896   0.04947   0.06045   0.07636
 Alpha virt. eigenvalues --    0.08336   0.10793   0.13480   0.13507   0.14758
 Alpha virt. eigenvalues --    0.15122   0.15696   0.16751   0.18106   0.18675

 Mulliken charges:
               1
     1  Cl  -0.446454
     2  N   -2.231347
     3  S    1.322275
     4  C   -3.050240
     5  H    0.612131
     6  H    1.338517
     7  H    1.252976
     8  H    1.202142
 Sum of Mulliken charges =  -0.00000

 Dipole moment (field-independent basis, Debye):
    X=             -3.5969    Y=              1.8582    Z=              0.0352  Tot=              4.0486

 Test job not archived.
 1\1\GINC-SE166\SP\RHF\Aug-CC-pVDZ\C1H4Cl1N1S1\OHZDE\09-Apr-2025\0\\#t
 hf aug-cc-pvdz iop(5/13=1,5/36=2,99/5=2) pseudo=read geom=check guess=
 (read,tcheck) scf=(maxcycle=1)\\title\\0,1\Cl,0,1.665216,-0.516682,0.0
 44932\N,0,-1.293157,0.262927,0.446267\S,0,0.055579,0.927395,-0.177748\
 C,0,-2.023838,-0.817399,-0.220352\H,0,-1.356643,0.259219,1.458006\H,0,
 -2.071806,-0.602783,-1.287543\H,0,-3.038256,-0.860495,0.182276\H,0,-1.
 536118,-1.786747,-0.074377\\Version=ES64L-G16RevC.01\State=1-A\HF=-952
 .6013555\RMSD=5.050e-02\Dipole=-1.4151135,0.7310694,0.0138422\Quadrupo

 Normal termination of Gaussian 16 at Wed Apr  9 00:16:39 2025.
