 Gaussian 16, Revision C.01,

 ----------------------------------------------------------------------
 #t hf aug-cc-pvdz symm=none int=(grid=ultrafine) guess=(read,tcheck) s
 table=(opt,rrhf)
 ----------------------------------------------------------------------
 -----
 title
 -----
 Symbolic Z-matrix:
 Charge =  0 Multiplicity = 1

 SCF Done:  E(RHF) =  -803.483796957     A.U. after   16 cycles
 Normal termination of Gaussian 16 at Tue Apr  8 23:20:45 2025.
 Gaussian 16:  ES64L-G16RevC.01  3-Jul-2019

 ----------------------------------------------------------------------
 #t hf aug-cc-pvdz iop(5/13=1,5/36=2,99/5=2) pseudo=read geom=check gue
 ss=(read,tcheck) scf=(maxcycle=1)
 ----------------------------------------------------------------------
 -----
 title
 -----
 Structure from the checkpoint file:  "BDE49_nonexpt_1093_mol1.chk"
 Charge =  0 Multiplicity = 1

                         Standard orientation:
 ---------------------------------------------------------------------
 Center     Atomic      Atomic             Coordinates (Angstroms)
 Number     Number       Type             X           Y           Z
 ---------------------------------------------------------------------
      1          6           0        0.762330   -0.990685    0.586940
      2          6           0        2.019528   -1.343584    0.108775
      3          6           0        2.855436   -0.374693   -0.446969
      4          6           0        2.424052    0.946410   -0.529620
      5          6           0        1.159886    1.296860   -0.058837
      6          6           0       -1.026644    0.722906    1.057321
      7          6           0        0.322733    0.334587    0.507617
      8          8           0       -2.079345   -0.205973    0.772936
      9         17           0       -2.489029   -0.211196   -0.922719
     10          1           0       -1.309117    1.731313    0.739639
     11          1           0       -1.025346    0.697024    2.154242
     12          1           0        0.106675   -1.742860    1.010989
     13          1           0        2.349658   -2.374514    0.169724
     14          1           0        3.836143   -0.650798   -0.817608
     15          1           0        3.065599    1.702220   -0.968433
     16          1           0        0.820717    2.324941   -0.137179
 ---------------------------------------------------------------------

 SCF Done:  E(RHF) =  -805.338372231     A.U. after    2 cycles

 The electronic state is 1-A.
 Alpha  occ. eigenvalues --  -99.92967 -21.11452 -11.52063 -11.45860 -11.43551
 Alpha  occ. eigenvalues --  -11.43292 -11.41296 -11.40908 -11.36627 -10.49705
 Alpha  occ. eigenvalues --   -9.69611  -9.68849  -9.68704  -1.77769  -1.34974
 Alpha  occ. eigenvalues --   -1.25033  -1.12608  -1.09632  -0.97391  -0.86988
 Alpha  occ. eigenvalues --   -0.83711  -0.71742  -0.67351  -0.66153  -0.62635
 Alpha  occ. eigenvalues --   -0.59700  -0.58475  -0.56305  -0.54758  -0.53150
 Alpha  occ. eigenvalues --   -0.49708  -0.47313  -0.45021  -0.42023  -0.34804
 Alpha  occ. eigenvalues --   -0.33457  -0.32549
 Alpha virt. eigenvalues --    0.03318   0.04480   0.04846   0.05055   0.05792
 Alpha virt. eigenvalues --    0.06440   0.07168   0.07489   0.09645   0.10567
 Alpha virt. eigenvalues --    0.10871   0.11418   0.12529   0.12981   0.13665

 Mulliken charges:
               1
     1  C   -2.390688
     2  C   -1.503587
     3  C   -2.789353
     4  C   -1.536638
     5  C   -2.196473
     6  C   -2.845005
     7  C    4.381069
     8  O   -1.902616
     9  Cl   0.357374
    10  H    1.215639
    11  H    1.114928
    12  H    1.802012
    13  H    1.503013
    14  H    1.549418
    15  H    1.477282
    16  H    1.763622
 Sum of Mulliken charges =   0.00000

 Dipole moment (field-independent basis, Debye):
    X=              1.7077    Y=              0.5351    Z=              2.1703  Tot=              2.8130

 Test job not archived.
 1\1\GINC-SE424\SP\RHF\Aug-CC-pVDZ\C7H7Cl1O1\OHZDE\08-Apr-2025\0\\#t hf
  aug-cc-pvdz iop(5/13=1,5/36=2,99/5=2) pseudo=read geom=check guess=(r
 ead,tcheck) scf=(maxcycle=1)\\title\\0,1\C,0,-0.76233,0.990685,0.58694
 \C,0,-2.019528,1.343584,0.108775\C,0,-2.855436,0.374693,-0.446969\C,0,
 -2.424052,-0.94641,-0.52962\C,0,-1.159886,-1.29686,-0.058837\C,0,1.026
 644,-0.722906,1.057321\C,0,-0.322733,-0.334587,0.507617\O,0,2.079345,0
 .205973,0.772936\Cl,0,2.489029,0.211196,-0.922719\H,0,1.309117,-1.7313
 13,0.739639\H,0,1.025346,-0.697024,2.154242\H,0,-0.106675,1.74286,1.01

 Normal termination of Gaussian 16 at Tue Apr  8 23:20:52 2025.
