 Gaussian 16, Revision C.01,

 ----------------------------------------------------------------------
 #t hf aug-cc-pvdz symm=none int=(grid=ultrafine) guess=(read,tcheck) s
 table=(opt,rrhf)
 ----------------------------------------------------------------------
 -----
 title
 -----
 Symbolic Z-matrix:
 Charge =  0 Multiplicity = 1

 SCF Done:  E(RHF) =  -515.723872107     A.U. after   14 cycles
 Normal termination of Gaussian 16 at Wed Apr  9 00:35:48 2025.
 Gaussian 16:  ES64L-G16RevC.01  3-Jul-2019

 ----------------------------------------------------------------------
 #t hf aug-cc-pvdz iop(5/13=1,5/36=2,99/5=2) pseudo=read geom=check gue
 ss=(read,tcheck) scf=(maxcycle=1)
 ----------------------------------------------------------------------
 -----
 title
 -----
 Structure from the checkpoint file:  "BDE49_nonexpt_495_mol1.chk"
 Charge =  0 Multiplicity = 1

                         Standard orientation:
 ---------------------------------------------------------------------
 Center     Atomic      Atomic             Coordinates (Angstroms)
 Number     Number       Type             X           Y           Z
 ---------------------------------------------------------------------
      1          1           0        3.103380    1.042205    0.000014
      2          1           0        3.103440   -1.042127    0.000014
      3          5           0        2.529077    0.000023   -0.000014
      4          7           0        1.123406   -0.000019   -0.000007
      5          6           0       -0.069927   -0.000045   -0.000001
      6         16           0       -1.643530    0.000013    0.000006
 ---------------------------------------------------------------------

 SCF Done:  E(RHF) =  -516.477566996     A.U. after    2 cycles

 The electronic state is 1-A.
 Alpha  occ. eigenvalues --  -75.70369 -15.77479 -13.23788 -13.01851 -13.01490
 Alpha  occ. eigenvalues --  -11.55504  -8.04662  -7.67427  -1.43361  -1.17826
 Alpha  occ. eigenvalues --   -0.96427  -0.63937  -0.60361  -0.56350  -0.55318
 Alpha  occ. eigenvalues --   -0.47762  -0.29481  -0.26694
 Alpha virt. eigenvalues --    0.02793   0.02994   0.03817   0.04648   0.07185
 Alpha virt. eigenvalues --    0.07388   0.09759   0.10331   0.12518   0.13527
 Alpha virt. eigenvalues --    0.13578   0.15265   0.17240   0.18160   0.20615

 Mulliken charges:
               1
     1  H   -2.668765
     2  H   -2.668773
     3  B    6.586585
     4  N   -4.686451
     5  C    1.758041
     6  S    1.679364
 Sum of Mulliken charges =   0.00000

 Dipole moment (field-independent basis, Debye):
    X=             -2.9425    Y=              0.0002    Z=             -0.0000  Tot=              2.9425

 Test job not archived.
 1\1\GINC-SE462\SP\RHF\Aug-CC-pVDZ\C1H2B1N1S1\OHZDE\09-Apr-2025\0\\#t h
 f aug-cc-pvdz iop(5/13=1,5/36=2,99/5=2) pseudo=read geom=check guess=(
 read,tcheck) scf=(maxcycle=1)\\title\\0,1\H,0,3.10338,1.042205,0.00001
 4\H,0,3.10344,-1.042127,0.000014\B,0,2.529077,0.000023,-0.000014\N,0,1
 .123406,-0.000019,-0.000007\C,0,-0.069927,-0.000045,-0.000001\S,0,-1.6
 4353,0.000013,0.000006\\Version=ES64L-G16RevC.01\State=1-A\HF=-516.477
 567\RMSD=3.436e-01\Dipole=-1.1576841,0.0000734,-0.0000129\Quadrupole=3
 .8306514,-3.0548856,-0.7757658,-0.0002531,-0.0001262,0.\PG=C01 [X(C1H2

 Normal termination of Gaussian 16 at Wed Apr  9 00:35:50 2025.
