 Gaussian 16, Revision C.01,

 ----------------------------------------------------------------------
 #t hf aug-cc-pvdz symm=none int=(grid=ultrafine) guess=(read,tcheck) s
 table=(opt,rrhf)
 ----------------------------------------------------------------------
 -----
 title
 -----
 Symbolic Z-matrix:
 Charge =  0 Multiplicity = 1

 SCF Done:  E(RHF) =  -948.180792448     A.U. after   17 cycles
 Normal termination of Gaussian 16 at Tue Apr  8 23:10:23 2025.
 Gaussian 16:  ES64L-G16RevC.01  3-Jul-2019

 ----------------------------------------------------------------------
 #t hf aug-cc-pvdz iop(5/13=1,5/36=2,99/5=2) pseudo=read geom=check gue
 ss=(read,tcheck) scf=(maxcycle=1)
 ----------------------------------------------------------------------
 -----
 title
 -----
 Structure from the checkpoint file:  "BDE49_expt_479_mol1.chk"
 Charge =  0 Multiplicity = 1

                         Standard orientation:
 ---------------------------------------------------------------------
 Center     Atomic      Atomic             Coordinates (Angstroms)
 Number     Number       Type             X           Y           Z
 ---------------------------------------------------------------------
      1          6           0        0.645904   -1.793864   -0.018999
      2          6           0        1.950195   -1.328377    0.023216
      3          6           0        2.225042    0.049465    0.045567
      4          6           0       -0.439013   -0.917040   -0.016227
      5          6           0       -0.164915    0.453208    0.012928
      6          6           0        1.139842    0.931544    0.030574
      7          1           0        2.768120   -2.040561    0.034621
      8          7           0        3.525105    0.520583    0.137543
      9          1           0        4.251945   -0.105469   -0.173119
     10          1           0        3.677957    1.476039   -0.146628
     11          1           0        0.452179   -2.857902   -0.059055
     12          7           0       -1.228480    1.483659    0.036441
     13          8           0       -0.996750    2.529177   -0.557885
     14          8           0       -2.244250    1.240795    0.664739
     15         17           0       -2.042995   -1.590259   -0.130471
     16          1           0        1.289994    2.003210    0.027126
 ---------------------------------------------------------------------

 SCF Done:  E(RHF) =  -950.608529282     A.U. after    2 cycles

 The electronic state is 1-A.
 Alpha  occ. eigenvalues --  -99.90481 -21.09981 -21.09457 -16.00442 -15.78689
 Alpha  occ. eigenvalues --  -11.56294 -11.51096 -11.48925 -11.47475 -11.45233
 Alpha  occ. eigenvalues --  -11.41004 -10.47859  -9.67938  -9.67019  -9.66790
 Alpha  occ. eigenvalues --   -2.00195  -1.69425  -1.45723  -1.37193  -1.27230
 Alpha  occ. eigenvalues --   -1.18221  -1.08737  -1.00812  -0.90683  -0.84477
 Alpha  occ. eigenvalues --   -0.74411  -0.72236  -0.71041  -0.67980  -0.65597
 Alpha  occ. eigenvalues --   -0.63408  -0.62173  -0.59099  -0.58885  -0.54918
 Alpha  occ. eigenvalues --   -0.52838  -0.51299  -0.49094  -0.45233  -0.38163
 Alpha  occ. eigenvalues --   -0.35689  -0.31394  -0.30972  -0.30244
 Alpha virt. eigenvalues --    0.02716   0.04132   0.04374   0.06362   0.07185
 Alpha virt. eigenvalues --    0.07584   0.08309   0.09938   0.10155   0.11244
 Alpha virt. eigenvalues --    0.11518   0.11666   0.12577   0.13400   0.13768

 Mulliken charges:
               1
     1  C    0.428706
     2  C   -2.134392
     3  C    3.868556
     4  C   -2.966784
     5  C    2.975089
     6  C   -1.853999
     7  H    1.732331
     8  N   -4.148557
     9  H    0.647119
    10  H    0.677100
    11  H    1.816227
    12  N    3.351674
    13  O   -2.845715
    14  O   -2.832359
    15  Cl  -0.679061
    16  H    1.964065
 Sum of Mulliken charges =   0.00000

 Dipole moment (field-independent basis, Debye):
    X=              5.3734    Y=             -0.7534    Z=             -0.5147  Tot=              5.4503

 Test job not archived.
 1\1\GINC-SE080\SP\RHF\Aug-CC-pVDZ\C6H5Cl1N2O2\OHZDE\08-Apr-2025\0\\#t
 hf aug-cc-pvdz iop(5/13=1,5/36=2,99/5=2) pseudo=read geom=check guess=
 (read,tcheck) scf=(maxcycle=1)\\title\\0,1\C,0,0.645904,-1.793864,-0.0
 18999\C,0,1.950195,-1.328377,0.023216\C,0,2.225042,0.049465,0.045567\C
 ,0,-0.439013,-0.91704,-0.016227\C,0,-0.164915,0.453208,0.012928\C,0,1.
 139842,0.931544,0.030574\H,0,2.76812,-2.040561,0.034621\N,0,3.525105,0
 .520583,0.137543\H,0,4.251945,-0.105469,-0.173119\H,0,3.677957,1.47603
 9,-0.146628\H,0,0.452179,-2.857902,-0.059055\N,0,-1.22848,1.483659,0.0

 Normal termination of Gaussian 16 at Tue Apr  8 23:10:32 2025.
