 Gaussian 16, Revision C.01,

 ----------------------------------------------------------------------
 #t hf aug-cc-pvdz symm=none int=(grid=ultrafine) guess=(read,tcheck) s
 table=(opt,rrhf)
 ----------------------------------------------------------------------
 -----
 title
 -----
 Symbolic Z-matrix:
 Charge =  0 Multiplicity = 1

 SCF Done:  E(RHF) =  -673.181755928     A.U. after   14 cycles
 Normal termination of Gaussian 16 at Tue Apr  8 23:39:18 2025.
 Gaussian 16:  ES64L-G16RevC.01  3-Jul-2019

 ----------------------------------------------------------------------
 #t hf aug-cc-pvdz iop(5/13=1,5/36=2,99/5=2) pseudo=read geom=check gue
 ss=(read,tcheck) scf=(maxcycle=1)
 ----------------------------------------------------------------------
 -----
 title
 -----
 Structure from the checkpoint file:  "BDE49_nonexpt_1581_mol1.chk"
 Charge =  0 Multiplicity = 1

                         Standard orientation:
 ---------------------------------------------------------------------
 Center     Atomic      Atomic             Coordinates (Angstroms)
 Number     Number       Type             X           Y           Z
 ---------------------------------------------------------------------
      1         15           0       -0.647213    0.299511   -0.659484
      2          7           0        0.889823   -0.608443   -0.332497
      3          9           0        1.005849   -0.852234    1.066604
      4          9           0        1.903481    0.355743   -0.539302
      5          6           0       -0.671509    1.497566    0.742546
      6          1           0        0.130957    2.222870    0.599490
      7          1           0       -0.555004    1.009463    1.710026
      8          1           0       -1.624301    2.032541    0.710483
      9          6           0       -1.767354   -1.025477   -0.035422
     10          1           0       -1.678421   -1.903904   -0.677314
     11          1           0       -2.793160   -0.655545   -0.108359
     12          1           0       -1.551438   -1.303098    0.996950
 ---------------------------------------------------------------------

 SCF Done:  E(RHF) =  -674.707121104     A.U. after    2 cycles

 The electronic state is 1-A.
 Alpha  occ. eigenvalues -- -105.20897 -29.28873 -29.28378 -15.87196 -11.39018
 Alpha  occ. eigenvalues --  -11.38704  -2.79891  -1.59355  -1.52526  -1.49999
 Alpha  occ. eigenvalues --   -1.34638  -1.05218  -0.98786  -0.80277  -0.73143
 Alpha  occ. eigenvalues --   -0.63880  -0.59909  -0.58701  -0.57418  -0.56608
 Alpha  occ. eigenvalues --   -0.46022  -0.42346  -0.39282  -0.29306  -0.27651
 Alpha  occ. eigenvalues --   -0.22156  -0.20494  -0.16453  -0.02670
 Alpha virt. eigenvalues --    0.04669   0.05344   0.06232   0.06726   0.07050
 Alpha virt. eigenvalues --    0.07494   0.09378   0.10249   0.11514   0.13739
 Alpha virt. eigenvalues --    0.15209   0.16228   0.16800   0.16974   0.17632

 Mulliken charges:
               1
     1  P    6.336366
     2  N   -0.621970
     3  F   -0.254638
     4  F   -0.215235
     5  C   -5.950231
     6  H    1.123019
     7  H    1.079620
     8  H    1.017798
     9  C   -5.722466
    10  H    1.007369
    11  H    1.109071
    12  H    1.091297
 Sum of Mulliken charges =  -0.00000

 Dipole moment (field-independent basis, Debye):
    X=              3.0307    Y=              0.6640    Z=             -0.1525  Tot=              3.1064

 Test job not archived.
 1\1\GINC-SE252\SP\RHF\Aug-CC-pVDZ\C2H6F2N1P1\OHZDE\08-Apr-2025\0\\#t h
 f aug-cc-pvdz iop(5/13=1,5/36=2,99/5=2) pseudo=read geom=check guess=(
 read,tcheck) scf=(maxcycle=1)\\title\\0,1\P,0,-0.647213,0.299511,-0.65
 9484\N,0,0.889823,-0.608443,-0.332497\F,0,1.005849,-0.852234,1.066604\
 F,0,1.903481,0.355743,-0.539302\C,0,-0.671509,1.497566,0.742546\H,0,0.
 130957,2.22287,0.59949\H,0,-0.555004,1.009463,1.710026\H,0,-1.624301,2
 .032541,0.710483\C,0,-1.767354,-1.025477,-0.035422\H,0,-1.678422,-1.90
 3904,-0.677314\H,0,-2.79316,-0.655544,-0.108359\H,0,-1.551438,-1.30309

 Normal termination of Gaussian 16 at Tue Apr  8 23:39:23 2025.
