 Gaussian 16, Revision C.01,

 ----------------------------------------------------------------------
 #t hf aug-cc-pvdz symm=none int=(grid=ultrafine) guess=(read,tcheck) s
 table=(opt,rrhf)
 ----------------------------------------------------------------------
 -----
 title
 -----
 Symbolic Z-matrix:
 Charge =  0 Multiplicity = 1

 SCF Done:  E(RHF) =  -780.540872363     A.U. after   13 cycles
 Normal termination of Gaussian 16 at Tue Apr  8 23:58:21 2025.
 Gaussian 16:  ES64L-G16RevC.01  3-Jul-2019

 ----------------------------------------------------------------------
 #t hf aug-cc-pvdz iop(5/13=1,5/36=2,99/5=2) pseudo=read geom=check gue
 ss=(read,tcheck) scf=(maxcycle=1)
 ----------------------------------------------------------------------
 -----
 title
 -----
 Structure from the checkpoint file:  "BDE49_nonexpt_2047_mol1.chk"
 Charge =  0 Multiplicity = 1

                         Standard orientation:
 ---------------------------------------------------------------------
 Center     Atomic      Atomic             Coordinates (Angstroms)
 Number     Number       Type             X           Y           Z
 ---------------------------------------------------------------------
      1         14           0       -1.511216   -0.482441    0.000045
      2          6           0        1.416111   -0.124691   -0.000097
      3          7           0        2.315962   -0.854349    0.000013
      4         16           0        0.126170    0.982671   -0.000019
      5          1           0       -2.711296    0.376515   -0.000030
      6          1           0       -1.429433   -1.308168    1.218005
      7          1           0       -1.429380   -1.308323   -1.217808
 ---------------------------------------------------------------------

 SCF Done:  E(RHF) =  -781.323468545     A.U. after    2 cycles

 The electronic state is 1-A.
 Alpha  occ. eigenvalues --  -76.27992 -75.74251 -15.77227 -13.21057 -13.14300
 Alpha  occ. eigenvalues --  -13.07724 -11.44872  -8.08503  -5.61278  -2.23327
 Alpha  occ. eigenvalues --   -2.23185  -2.22949  -1.32932  -1.17029  -0.81053
 Alpha  occ. eigenvalues --   -0.66015  -0.53143  -0.52480  -0.51273  -0.49124
 Alpha  occ. eigenvalues --   -0.49060  -0.35891  -0.29366
 Alpha virt. eigenvalues --    0.02924   0.03186   0.05160   0.05688   0.08452
 Alpha virt. eigenvalues --    0.09312   0.09452   0.09729   0.11907   0.12460
 Alpha virt. eigenvalues --    0.13117   0.13588   0.14119   0.14964   0.16103

 Mulliken charges:
               1
     1  Si   6.240301
     2  C    0.798397
     3  N   -1.896628
     4  S   -0.273927
     5  H   -1.579217
     6  H   -1.644476
     7  H   -1.644449
 Sum of Mulliken charges =  -0.00000

 Dipole moment (field-independent basis, Debye):
    X=             -3.3724    Y=              2.8843    Z=              0.0001  Tot=              4.4376

 Test job not archived.
 1\1\GINC-SE329\SP\RHF\Aug-CC-pVDZ\C1H3N1S1Si1\OHZDE\08-Apr-2025\0\\#t
 hf aug-cc-pvdz iop(5/13=1,5/36=2,99/5=2) pseudo=read geom=check guess=
 (read,tcheck) scf=(maxcycle=1)\\title\\0,1\Si,0,1.511216,-0.482441,-0.
 000045\C,0,-1.416111,-0.124691,0.000097\N,0,-2.315962,-0.854349,-0.000
 013\S,0,-0.12617,0.982671,0.000019\H,0,2.711296,0.376515,0.00003\H,0,1
 .429433,-1.308168,-1.218005\H,0,1.42938,-1.308323,1.217808\\Version=ES
 64L-G16RevC.01\State=1-A\HF=-781.3234685\RMSD=1.304e-01\Dipole=1.32681
 92,1.1347592,-0.0000473\Quadrupole=-2.3471136,2.7782473,-0.4311336,-2.

 Normal termination of Gaussian 16 at Tue Apr  8 23:58:23 2025.
