 Gaussian 16, Revision C.01,

 ----------------------------------------------------------------------
 #t hf aug-cc-pvdz symm=none int=(grid=ultrafine) guess=(read,tcheck) s
 table=(opt,rrhf)
 ----------------------------------------------------------------------
 -----
 title
 -----
 Symbolic Z-matrix:
 Charge =  0 Multiplicity = 1

 SCF Done:  E(RHF) =  -598.820170256     A.U. after   14 cycles
 Normal termination of Gaussian 16 at Wed Apr  9 00:43:58 2025.
 Gaussian 16:  ES64L-G16RevC.01  3-Jul-2019

 ----------------------------------------------------------------------
 #t hf aug-cc-pvdz iop(5/13=1,5/36=2,99/5=2) pseudo=read geom=check gue
 ss=(read,tcheck) scf=(maxcycle=1)
 ----------------------------------------------------------------------
 -----
 title
 -----
 Structure from the checkpoint file:  "BDE49_nonexpt_707_mol1.chk"
 Charge =  0 Multiplicity = 1

                         Standard orientation:
 ---------------------------------------------------------------------
 Center     Atomic      Atomic             Coordinates (Angstroms)
 Number     Number       Type             X           Y           Z
 ---------------------------------------------------------------------
      1          6           0        1.078172    0.096574    0.041482
      2          5           0       -1.927687    0.400241   -0.277450
      3          8           0       -3.121403    0.045673    0.262765
      4          6           0        0.949914    1.043589    1.246760
      5          1           0        0.685819    0.499014    2.157012
      6          1           0        0.187313    1.808643    1.078948
      7          6           0        1.412976    0.900894   -1.228139
      8          1           0        0.642780    1.642023   -1.456145
      9          1           0        1.522141    0.247896   -2.098196
     10          1           0        2.358519    1.436993   -1.089737
     11          1           0        1.901937    1.557680    1.429150
     12          6           0        2.199351   -0.925277    0.309244
     13          1           0        3.150644   -0.404836    0.468856
     14          1           0        2.326436   -1.610894   -0.532406
     15          1           0        1.993891   -1.522504    1.202318
     16         15           0       -0.511263   -0.895098   -0.292512
     17          1           0       -3.808568    0.707568    0.136969
     18          1           0       -1.803846    1.455173   -0.833369
     19          1           0       -0.720930   -1.451550    0.993337
 ---------------------------------------------------------------------

 SCF Done:  E(RHF) =  -600.275176276     A.U. after    2 cycles

 The electronic state is 1-A.
 Alpha  occ. eigenvalues -- -105.14556 -21.07156 -11.41457 -11.38858 -11.38684
 Alpha  occ. eigenvalues --  -11.34954  -7.63239  -2.72187  -1.75059  -1.47926
 Alpha  occ. eigenvalues --   -1.44580  -1.41451  -1.22643  -1.00455  -1.00318
 Alpha  occ. eigenvalues --   -0.81391  -0.75044  -0.66134  -0.63395  -0.59971
 Alpha  occ. eigenvalues --   -0.59799  -0.56050  -0.53989  -0.53777  -0.51272
 Alpha  occ. eigenvalues --   -0.43750  -0.43712  -0.43590  -0.41837  -0.21473
 Alpha  occ. eigenvalues --   -0.13474  -0.01237
 Alpha virt. eigenvalues --    0.03176   0.04203   0.04996   0.05763   0.06249
 Alpha virt. eigenvalues --    0.06306   0.06368   0.06880   0.07082   0.08450
 Alpha virt. eigenvalues --    0.08872   0.09243   0.09783   0.10858   0.11317

 Mulliken charges:
               1
     1  C    2.837267
     2  B    5.223222
     3  O   -3.715466
     4  C   -4.955153
     5  H    1.237455
     6  H    1.270140
     7  C   -4.616702
     8  H    1.325799
     9  H    1.369136
    10  H    1.203677
    11  H    1.131114
    12  C   -4.852811
    13  H    1.182735
    14  H    1.287151
    15  H    1.283985
    16  P    1.502656
    17  H    1.138820
    18  H   -2.684913
    19  H   -1.168113
 Sum of Mulliken charges =   0.00000

 Dipole moment (field-independent basis, Debye):
    X=              1.5983    Y=             -1.8543    Z=             -1.0563  Tot=              2.6663

 Test job not archived.
 1\1\GINC-SE159\SP\RHF\Aug-CC-pVDZ\C4H12B1O1P1\OHZDE\09-Apr-2025\0\\#t
 hf aug-cc-pvdz iop(5/13=1,5/36=2,99/5=2) pseudo=read geom=check guess=
 (read,tcheck) scf=(maxcycle=1)\\title\\0,1\C,0,1.078172,0.096574,0.041
 482\B,0,-1.927687,0.400241,-0.27745\O,0,-3.121403,0.045673,0.262765\C,
 0,0.949914,1.043589,1.24676\H,0,0.685819,0.499014,2.157012\H,0,0.18731
 3,1.808643,1.078948\C,0,1.412976,0.900894,-1.228139\H,0,0.64278,1.6420
 23,-1.456145\H,0,1.522141,0.247896,-2.098196\H,0,2.358519,1.436993,-1.
 089737\H,0,1.901937,1.55768,1.42915\C,0,2.199351,-0.925277,0.309244\H,

 Normal termination of Gaussian 16 at Wed Apr  9 00:44:07 2025.
