 Gaussian 16, Revision C.01,

 ----------------------------------------------------------------------
 #t hf aug-cc-pvdz symm=none int=(grid=ultrafine) guess=(read,tcheck) s
 table=(opt,rrhf)
 ----------------------------------------------------------------------
 -----
 title
 -----
 Symbolic Z-matrix:
 Charge =  0 Multiplicity = 1

 SCF Done:  E(RHF) =  -505.425757812     A.U. after   12 cycles
 Normal termination of Gaussian 16 at Wed Apr  9 00:47:32 2025.
 Gaussian 16:  ES64L-G16RevC.01  3-Jul-2019

 ----------------------------------------------------------------------
 #t hf aug-cc-pvdz iop(5/13=1,5/36=2,99/5=2) pseudo=read geom=check gue
 ss=(read,tcheck) scf=(maxcycle=1)
 ----------------------------------------------------------------------
 -----
 title
 -----
 Structure from the checkpoint file:  "BDE49_nonexpt_835_mol1.chk"
 Charge =  0 Multiplicity = 1

                         Standard orientation:
 ---------------------------------------------------------------------
 Center     Atomic      Atomic             Coordinates (Angstroms)
 Number     Number       Type             X           Y           Z
 ---------------------------------------------------------------------
      1         14           0        0.907070   -0.618837    0.271837
      2          5           0       -1.001298    0.053888    0.020708
      3          8           0       -2.069188   -0.729010   -0.334656
      4          8           0       -1.234082    1.379786    0.230456
      5          6           0        2.193100    0.585370   -0.400218
      6          1           0        2.072601    0.723869   -1.477926
      7          1           0        3.209390    0.229129   -0.214186
      8          1           0        2.078876    1.562371    0.076391
      9          1           0       -2.163517    1.611668    0.102179
     10          1           0       -1.838959   -1.649356   -0.484412
     11          1           0        1.057084   -1.944509   -0.395745
     12          1           0        1.159597   -0.857311    1.719352
 ---------------------------------------------------------------------

 SCF Done:  E(RHF) =  -506.522214233     A.U. after    2 cycles

 The electronic state is 1-A.
 Alpha  occ. eigenvalues --  -76.19352 -21.06764 -21.05780 -11.34582  -7.63581
 Alpha  occ. eigenvalues --   -5.53078  -2.16677  -2.15616  -2.15032  -1.80978
 Alpha  occ. eigenvalues --   -1.65410  -1.03503  -0.78616  -0.70600  -0.62861
 Alpha  occ. eigenvalues --   -0.55761  -0.55244  -0.53541  -0.48772  -0.45174
 Alpha  occ. eigenvalues --   -0.42766  -0.41640  -0.36670  -0.33351
 Alpha virt. eigenvalues --    0.03511   0.03816   0.04355   0.05273   0.07336
 Alpha virt. eigenvalues --    0.07597   0.07826   0.08411   0.08860   0.09474
 Alpha virt. eigenvalues --    0.09741   0.10493   0.11034   0.12125   0.13335

 Mulliken charges:
               1
     1  Si   5.290767
     2  B    4.903277
     3  O   -3.937871
     4  O   -4.036064
     5  C   -4.987694
     6  H    1.373004
     7  H    1.254058
     8  H    1.325667
     9  H    1.291982
    10  H    1.379502
    11  H   -1.840359
    12  H   -2.016267
 Sum of Mulliken charges =   0.00000

 Dipole moment (field-independent basis, Debye):
    X=             -0.3253    Y=             -0.0016    Z=             -0.6449  Tot=              0.7223

 Test job not archived.
 1\1\GINC-SE187\SP\RHF\Aug-CC-pVDZ\C1H7B1O2Si1\OHZDE\09-Apr-2025\0\\#t
 hf aug-cc-pvdz iop(5/13=1,5/36=2,99/5=2) pseudo=read geom=check guess=
 (read,tcheck) scf=(maxcycle=1)\\title\\0,1\Si,0,0.90707,-0.618837,0.27
 1837\B,0,-1.001298,0.053888,0.020708\O,0,-2.069188,-0.72901,-0.334656\
 O,0,-1.234082,1.379786,0.230456\C,0,2.1931,0.58537,-0.400218\H,0,2.072
 601,0.723869,-1.477926\H,0,3.20939,0.229129,-0.214186\H,0,2.078876,1.5
 62371,0.076391\H,0,-2.163517,1.611668,0.102179\H,0,-1.838959,-1.649356
 ,-0.484412\H,0,1.057084,-1.944509,-0.395745\H,0,1.159597,-0.857311,1.7

 Normal termination of Gaussian 16 at Wed Apr  9 00:47:37 2025.
