 Gaussian 16, Revision C.01,

 ----------------------------------------------------------------------
 #t hf aug-cc-pvdz symm=none int=(grid=ultrafine) guess=(read,tcheck) s
 table=(opt,rrhf)
 ----------------------------------------------------------------------
 -----
 title
 -----
 Symbolic Z-matrix:
 Charge =  0 Multiplicity = 1

 SCF Done:  E(RHF) =  -1559.93470795     A.U. after   14 cycles
 Normal termination of Gaussian 16 at Wed Apr  9 00:13:22 2025.
 Gaussian 16:  ES64L-G16RevC.01  3-Jul-2019

 ----------------------------------------------------------------------
 #t hf aug-cc-pvdz iop(5/13=1,5/36=2,99/5=2) pseudo=read geom=check gue
 ss=(read,tcheck) scf=(maxcycle=1)
 ----------------------------------------------------------------------
 -----
 title
 -----
 Structure from the checkpoint file:  "BDE49_nonexpt_2429_mol1.chk"
 Charge =  0 Multiplicity = 1

                         Standard orientation:
 ---------------------------------------------------------------------
 Center     Atomic      Atomic             Coordinates (Angstroms)
 Number     Number       Type             X           Y           Z
 ---------------------------------------------------------------------
      1         14           0        0.533563    1.058038    0.008375
      2         14           0       -0.533563   -1.058038    0.008379
      3         16           0       -2.631306   -0.783872   -0.636398
      4          1           0       -0.523766   -1.689124    1.341761
      5          1           0        0.001228   -1.964030   -1.027113
      6          6           0       -2.973756    0.531838    0.383099
      7          7           0       -3.199522    1.442096    1.064552
      8         16           0        2.631306    0.783870   -0.636402
      9          1           0        0.523767    1.689128    1.341755
     10          1           0       -0.001229    1.964026   -1.027119
     11          6           0        2.973756   -0.531836    0.383099
     12          7           0        3.199523   -1.442092    1.064556
 ---------------------------------------------------------------------

 SCF Done:  E(RHF) =  -1561.47793062     A.U. after    2 cycles

 The electronic state is 1-A.
 Alpha  occ. eigenvalues --  -76.28954 -76.28931 -75.75340 -75.75320 -15.78463
 Alpha  occ. eigenvalues --  -15.78461 -13.22777 -13.22485 -13.16161 -13.15635
 Alpha  occ. eigenvalues --  -13.10412 -13.09646 -11.46305 -11.46296  -8.09526
 Alpha  occ. eigenvalues --   -8.09507  -5.62250  -5.62238  -2.24290  -2.24168
 Alpha  occ. eigenvalues --   -2.24120  -2.24003  -2.23976  -2.22643  -1.34280
 Alpha  occ. eigenvalues --   -1.34105  -1.18150  -1.17903  -0.84329  -0.76427
 Alpha  occ. eigenvalues --   -0.67283  -0.65793  -0.54734  -0.54048  -0.52788
 Alpha  occ. eigenvalues --   -0.52570  -0.52056  -0.51363  -0.50369  -0.50010
 Alpha  occ. eigenvalues --   -0.43362  -0.37786  -0.35077  -0.30924  -0.28601
 Alpha virt. eigenvalues --    0.01238   0.02942   0.03508   0.05685   0.06351
 Alpha virt. eigenvalues --    0.06469   0.06822   0.07198   0.07977   0.08836
 Alpha virt. eigenvalues --    0.09445   0.09514   0.10467   0.10767   0.11537

 Mulliken charges:
               1
     1  Si   4.872955
     2  Si   4.872954
     3  S   -0.330466
     4  H   -1.696620
     5  H   -1.736823
     6  C    0.782544
     7  N   -1.891589
     8  S   -0.330464
     9  H   -1.696620
    10  H   -1.736824
    11  C    0.782541
    12  N   -1.891588
 Sum of Mulliken charges =  -0.00000

 Dipole moment (field-independent basis, Debye):
    X=             -0.0000    Y=             -0.0000    Z=             -5.3314  Tot=              5.3314

 Test job not archived.
 1\1\GINC-SE186\SP\RHF\Aug-CC-pVDZ\C2H4N2S2Si2\OHZDE\09-Apr-2025\0\\#t
 hf aug-cc-pvdz iop(5/13=1,5/36=2,99/5=2) pseudo=read geom=check guess=
 (read,tcheck) scf=(maxcycle=1)\\title\\0,1\Si,0,-0.533563,-1.058038,0.
 008375\Si,0,0.533563,1.058038,0.008379\S,0,2.631306,0.783872,-0.636398
 \H,0,0.523766,1.689124,1.341761\H,0,-0.001228,1.96403,-1.027113\C,0,2.
 973756,-0.531838,0.383099\N,0,3.199522,-1.442096,1.064552\S,0,-2.63130
 6,-0.78387,-0.636402\H,0,-0.523767,-1.689128,1.341755\H,0,0.001229,-1.
 964026,-1.027119\C,0,-2.973756,0.531836,0.383099\N,0,-3.199523,1.44209

 Normal termination of Gaussian 16 at Wed Apr  9 00:13:29 2025.
