 Gaussian 16, Revision C.01,

 ----------------------------------------------------------------------
 #t hf aug-cc-pvdz symm=none int=(grid=ultrafine) guess=(read,tcheck) s
 table=(opt,rrhf)
 ----------------------------------------------------------------------
 -----
 title
 -----
 Symbolic Z-matrix:
 Charge =  0 Multiplicity = 1

 SCF Done:  E(RHF) =  -1190.23884843     A.U. after   15 cycles
 Normal termination of Gaussian 16 at Wed Apr  9 00:23:07 2025.
 Gaussian 16:  ES64L-G16RevC.01  3-Jul-2019

 ----------------------------------------------------------------------
 #t hf aug-cc-pvdz iop(5/13=1,5/36=2,99/5=2) pseudo=read geom=check gue
 ss=(read,tcheck) scf=(maxcycle=1)
 ----------------------------------------------------------------------
 -----
 title
 -----
 Structure from the checkpoint file:  "BDE49_nonexpt_2464_mol1.chk"
 Charge =  0 Multiplicity = 1

                         Standard orientation:
 ---------------------------------------------------------------------
 Center     Atomic      Atomic             Coordinates (Angstroms)
 Number     Number       Type             X           Y           Z
 ---------------------------------------------------------------------
      1         14           0       -0.955984    2.397519   -0.704281
      2         14           0        0.955984    2.397519    0.704281
      3          6           0        1.963154    0.837478    0.390210
      4          1           0        0.507993    2.444467    2.119703
      5          1           0        1.808081    3.582619    0.433854
      6          6           0        1.454310   -0.414578    0.770008
      7          6           0        3.165763    0.878042   -0.329456
      8          6           0        3.830044   -0.303751   -0.660610
      9          6           0        3.301130   -1.540058   -0.309675
     10          6           0        2.099103   -1.593915    0.399681
     11          1           0        3.586789    1.829784   -0.633778
     12          1           0        4.765282   -0.261942   -1.208038
     13          6           0       -1.963154    0.837478   -0.390210
     14          1           0       -0.507993    2.444467   -2.119703
     15          1           0       -1.808081    3.582619   -0.433854
     16          6           0       -1.454310   -0.414578   -0.770008
     17          6           0       -3.165763    0.878042    0.329456
     18          6           0       -3.830044   -0.303751    0.660610
     19          6           0       -3.301130   -1.540058    0.309675
     20          6           0       -2.099103   -1.593915   -0.399681
     21          1           0       -3.586789    1.829784    0.633778
     22          1           0       -4.765282   -0.261942    1.208038
     23          8           0        1.584122   -2.831934    0.677033
     24          8           0       -1.584122   -2.831934   -0.677034
     25          1           0        3.795265   -2.466185   -0.577435
     26          1           0       -3.795265   -2.466185    0.577435
     27          1           0        0.527555   -0.480465    1.333075
     28          1           0       -0.527555   -0.480465   -1.333075
     29          1           0        0.754590   -2.737365    1.158772
     30          1           0       -0.754590   -2.737365   -1.158772
 ---------------------------------------------------------------------

 SCF Done:  E(RHF) =  -1193.36978667     A.U. after    2 cycles

 The electronic state is 1-A.
 Alpha  occ. eigenvalues --  -76.21566 -76.21544 -21.10883 -21.10869 -11.53067
 Alpha  occ. eigenvalues --  -11.52904 -11.46347 -11.46126 -11.43473 -11.43404
 Alpha  occ. eigenvalues --  -11.42015 -11.41769 -11.41164 -11.41078 -11.36999
 Alpha  occ. eigenvalues --  -11.36923  -5.55134  -5.55131  -2.20398  -2.19899
 Alpha  occ. eigenvalues --   -2.18666  -2.18590  -2.17193  -2.16191  -1.76196
 Alpha  occ. eigenvalues --   -1.76137  -1.32458  -1.31818  -1.10293  -1.10018
 Alpha  occ. eigenvalues --   -1.07496  -1.07320  -0.88885  -0.88074  -0.86135
 Alpha  occ. eigenvalues --   -0.85250  -0.78228  -0.73299  -0.70614  -0.68843
 Alpha  occ. eigenvalues --   -0.67005  -0.66337  -0.61398  -0.60958  -0.57562
 Alpha  occ. eigenvalues --   -0.57298  -0.55038  -0.54708  -0.53829  -0.53470
 Alpha  occ. eigenvalues --   -0.49323  -0.48615  -0.48335  -0.47085  -0.45386
 Alpha  occ. eigenvalues --   -0.45219  -0.44536  -0.43161  -0.40047  -0.38556
 Alpha  occ. eigenvalues --   -0.36666  -0.33807  -0.31891  -0.28226  -0.27096
 Alpha virt. eigenvalues --    0.03252   0.04556   0.04824   0.04893   0.05675
 Alpha virt. eigenvalues --    0.05750   0.05992   0.06352   0.06659   0.06712
 Alpha virt. eigenvalues --    0.07490   0.07595   0.07827   0.07849   0.08740

 Mulliken charges:
               1
     1  Si   3.672517
     2  Si   3.672517
     3  C    0.496524
     4  H   -1.815525
     5  H   -1.947207
     6  C   -3.707799
     7  C   -4.234716
     8  C    0.580068
     9  C   -4.049649
    10  C    6.488794
    11  H    1.912108
    12  H    1.566437
    13  C    0.496524
    14  H   -1.815525
    15  H   -1.947207
    16  C   -3.707800
    17  C   -4.234717
    18  C    0.580068
    19  C   -4.049649
    20  C    6.488794
    21  H    1.912108
    22  H    1.566437
    23  O   -4.648828
    24  O   -4.648829
    25  H    1.812499
    26  H    1.812499
    27  H    2.741466
    28  H    2.741466
    29  H    1.133311
    30  H    1.133313
 Sum of Mulliken charges =   0.00000

 Dipole moment (field-independent basis, Debye):
    X=              0.0000    Y=             -1.9096    Z=             -0.0000  Tot=              1.9096

 Test job not archived.
 1\1\GINC-SE368\SP\RHF\Aug-CC-pVDZ\C12H14O2Si2\OHZDE\09-Apr-2025\0\\#t
 hf aug-cc-pvdz iop(5/13=1,5/36=2,99/5=2) pseudo=read geom=check guess=
 (read,tcheck) scf=(maxcycle=1)\\title\\0,1\Si,0,0.955984,2.397519,0.70
 4281\Si,0,-0.955984,2.397519,-0.704281\C,0,-1.963154,0.837478,-0.39021
 \H,0,-0.507993,2.444467,-2.119703\H,0,-1.808081,3.582619,-0.433854\C,0
 ,-1.45431,-0.414578,-0.770008\C,0,-3.165763,0.878042,0.329456\C,0,-3.8
 30044,-0.303751,0.66061\C,0,-3.30113,-1.540058,0.309675\C,0,-2.099103,
 -1.593915,-0.399681\H,0,-3.586789,1.829784,0.633778\H,0,-4.765282,-0.2

 Normal termination of Gaussian 16 at Wed Apr  9 00:23:40 2025.
