 Gaussian 16, Revision C.01,

 ----------------------------------------------------------------------
 #t hf aug-cc-pvdz symm=none int=(grid=ultrafine) guess=(read,tcheck) s
 table=(opt,rrhf)
 ----------------------------------------------------------------------
 -----
 title
 -----
 Symbolic Z-matrix:
 Charge =  0 Multiplicity = 1

 SCF Done:  E(RHF) =  -334.075496212     A.U. after   15 cycles

 1\1\GINC-SE457\Stability\RHF\Aug-CC-pVDZ\C8H11B1\OHZDE\09-Apr-2025\0\\
 #t hf aug-cc-pvdz symm=none int=(grid=ultrafine) guess=(read,tcheck) s
 table=(opt,rrhf)\\title\\0,1\C,0,-2.551011,-0.395766,-0.295021\B,0,-1.
 374239,0.630903,-0.153189\C,0,0.131034,0.268784,-0.06231\C,0,1.094603,
 1.29742,-0.025244\C,0,0.603142,-1.059116,-0.019293\C,0,1.961412,-1.345
 366,0.053112\C,0,2.889682,-0.303765,0.087155\C,0,2.455916,1.020572,0.0
 48243\H,0,3.949947,-0.525516,0.145419\H,0,3.177912,1.829241,0.075791\H
 ,0,0.758226,2.328551,-0.055608\H,0,-0.107128,-1.878511,-0.042506\H,0,2

 Normal termination of Gaussian 16 at Wed Apr  9 00:30:54 2025.
 Gaussian 16:  ES64L-G16RevC.01  3-Jul-2019

 ----------------------------------------------------------------------
 #t hf aug-cc-pvdz iop(5/13=1,5/36=2,99/5=2) pseudo=read geom=check gue
 ss=(read,tcheck) scf=(maxcycle=1)
 ----------------------------------------------------------------------
 -----
 title
 -----
 Structure from the checkpoint file:  "BDE49_nonexpt_335_mol1.chk"
 Charge =  0 Multiplicity = 1

                         Standard orientation:
 ---------------------------------------------------------------------
 Center     Atomic      Atomic             Coordinates (Angstroms)
 Number     Number       Type             X           Y           Z
 ---------------------------------------------------------------------
      1          6           0       -2.551011   -0.395766   -0.295021
      2          5           0       -1.374239    0.630903   -0.153189
      3          6           0        0.131034    0.268784   -0.062310
      4          6           0        1.094603    1.297420   -0.025244
      5          6           0        0.603142   -1.059116   -0.019293
      6          6           0        1.961412   -1.345366    0.053112
      7          6           0        2.889682   -0.303765    0.087155
      8          6           0        2.455916    1.020572    0.048243
      9          1           0        3.949947   -0.525516    0.145419
     10          1           0        3.177912    1.829241    0.075791
     11          1           0        0.758226    2.328551   -0.055608
     12          1           0       -0.107128   -1.878511   -0.042506
     13          1           0        2.301554   -2.374646    0.084858
     14          6           0       -3.896052    0.036196    0.317753
     15          1           0       -2.286885   -1.403780    0.045055
     16          1           0       -2.681481   -0.496624   -1.388198
     17          1           0       -3.826071    0.119202    1.406363
     18          1           0       -4.693004   -0.679291    0.095579
     19          1           0       -4.206559    1.013150   -0.062523
     20          1           0       -1.647676    1.799958   -0.164653
 ---------------------------------------------------------------------

 SCF Done:  E(RHF) =  -335.717818326     A.U. after    2 cycles

 The electronic state is 1-A.
 Alpha  occ. eigenvalues --  -11.51445 -11.43427 -11.42657 -11.40603 -11.40288
 Alpha  occ. eigenvalues --  -11.38422 -11.35536 -11.33062  -7.61694  -1.34301
 Alpha  occ. eigenvalues --   -1.17266  -1.09422  -1.08837  -0.92588  -0.86491
 Alpha  occ. eigenvalues --   -0.85470  -0.75026  -0.69519  -0.63314  -0.60364
 Alpha  occ. eigenvalues --   -0.58198  -0.57465  -0.56359  -0.51330  -0.50119
 Alpha  occ. eigenvalues --   -0.48236  -0.46945  -0.45125  -0.40142  -0.37501
 Alpha  occ. eigenvalues --   -0.33768  -0.32859
 Alpha virt. eigenvalues --    0.03319   0.04055   0.04617   0.05251   0.05437
 Alpha virt. eigenvalues --    0.05652   0.06531   0.07134   0.07307   0.07689
 Alpha virt. eigenvalues --    0.08316   0.08844   0.09204   0.09880   0.11253

 Mulliken charges:
               1
     1  C   -5.395870
     2  B    6.726533
     3  C   -1.105396
     4  C   -1.466987
     5  C    0.942417
     6  C   -2.285354
     7  C   -2.342642
     8  C   -1.510134
     9  H    1.523676
    10  H    1.573012
    11  H    1.903056
    12  H    1.879139
    13  H    1.546299
    14  C   -4.216248
    15  H    1.597988
    16  H    1.235204
    17  H    1.210923
    18  H    1.147059
    19  H    1.401477
    20  H   -4.364153
 Sum of Mulliken charges =   0.00000

 Dipole moment (field-independent basis, Debye):
    X=              0.9680    Y=             -0.6576    Z=             -0.0426  Tot=              1.1710

 Test job not archived.
 1\1\GINC-SE457\SP\RHF\Aug-CC-pVDZ\C8H11B1\OHZDE\09-Apr-2025\0\\#t hf a
 ug-cc-pvdz iop(5/13=1,5/36=2,99/5=2) pseudo=read geom=check guess=(rea
 d,tcheck) scf=(maxcycle=1)\\title\\0,1\C,0,-2.551011,-0.395766,-0.2950
 21\B,0,-1.374239,0.630903,-0.153189\C,0,0.131034,0.268784,-0.06231\C,0
 ,1.094603,1.29742,-0.025244\C,0,0.603142,-1.059116,-0.019293\C,0,1.961
 412,-1.345366,0.053112\C,0,2.889682,-0.303765,0.087155\C,0,2.455916,1.
 020572,0.048243\H,0,3.949947,-0.525516,0.145419\H,0,3.177912,1.829241,
 0.075791\H,0,0.758226,2.328551,-0.055608\H,0,-0.107128,-1.878511,-0.04

 Normal termination of Gaussian 16 at Wed Apr  9 00:31:03 2025.
