 Gaussian 16, Revision C.01,

 ----------------------------------------------------------------------
 #t hf aug-cc-pvdz symm=none int=(grid=ultrafine) guess=(read,tcheck) s
 table=opt
 ----------------------------------------------------------------------
 -----
 title
 -----
 Symbolic Z-matrix:
 Charge =  0 Multiplicity = 2

 SCF Done:  E(UHF) =  -666.962130808     A.U. after   18 cycles
 Normal termination of Gaussian 16 at Tue Apr  8 23:07:46 2025.
 Gaussian 16:  ES64L-G16RevC.01  3-Jul-2019

 ----------------------------------------------------------------------
 #t hf aug-cc-pvdz iop(5/13=1,5/36=2,99/5=2) pseudo=read geom=check gue
 ss=(read,tcheck) scf=(maxcycle=1)
 ----------------------------------------------------------------------
 -----
 title
 -----
 Structure from the checkpoint file:  "BDE49_expt_386_mol2.chk"
 Charge =  0 Multiplicity = 2

                         Standard orientation:
 ---------------------------------------------------------------------
 Center     Atomic      Atomic             Coordinates (Angstroms)
 Number     Number       Type             X           Y           Z
 ---------------------------------------------------------------------
      1          8           0       -0.130192    1.279932   -0.176106
      2          6           0       -1.551284    1.203733   -0.066332
      3          6           0       -1.882405   -0.130135    0.605456
      4          1           0       -1.999673    1.252037   -1.065109
      5          1           0       -1.872603    2.062878    0.523326
      6         16           0       -0.665814   -1.291166   -0.129579
      7          1           0       -2.895772   -0.463201    0.383507
      8          1           0       -1.736290   -0.085971    1.685657
      9          6           0        0.379570    0.082928   -0.628001
     10          6           0        1.871613   -0.017491   -0.596851
     11          6           0        2.488352    0.101988    0.811660
     12          1           0        2.272962    0.775417   -1.238170
     13          1           0        2.163786   -0.967218   -1.054711
     14          1           0        2.212703    1.054287    1.269206
     15          1           0        3.579415    0.048206    0.762599
     16          1           0        2.134946   -0.703371    1.460206
 ---------------------------------------------------------------------

 SCF Done:  E(UHF) =  -668.457458747     A.U. after    2 cycles

 The electronic state is 2-A.
 Alpha  occ. eigenvalues --  -75.68069 -21.07155 -13.12391 -13.11514 -13.02278
 Alpha  occ. eigenvalues --  -11.46108 -11.43955 -11.39977 -11.39591 -11.35602
 Alpha  occ. eigenvalues --   -8.02253  -1.79721  -1.22639  -1.18821  -1.06568
 Alpha  occ. eigenvalues --   -0.92575  -0.87342  -0.77224  -0.68130  -0.66082
 Alpha  occ. eigenvalues --   -0.61486  -0.59962  -0.55487  -0.53594  -0.50674
 Alpha  occ. eigenvalues --   -0.47271  -0.46337  -0.43054  -0.41365  -0.35263
 Alpha  occ. eigenvalues --   -0.27997  -0.18031
 Alpha virt. eigenvalues --    0.03594   0.04526   0.05302   0.05609   0.06007
 Alpha virt. eigenvalues --    0.06343   0.06740   0.07118   0.07786   0.09635
 Alpha virt. eigenvalues --    0.11440   0.12066   0.12534   0.13031   0.13831

  Beta  occ. eigenvalues --  -75.68015 -21.06760 -13.12521 -13.11558 -13.01774
  Beta  occ. eigenvalues --  -11.45859 -11.42734 -11.39925 -11.38864 -11.35359
  Beta  occ. eigenvalues --   -8.02183  -1.78395  -1.21697  -1.17767  -1.05333
  Beta  occ. eigenvalues --   -0.91384  -0.87160  -0.73462  -0.67369  -0.65754
  Beta  occ. eigenvalues --   -0.61252  -0.56407  -0.55159  -0.51153  -0.49611
  Beta  occ. eigenvalues --   -0.46516  -0.44862  -0.40976  -0.38019  -0.33677
  Beta  occ. eigenvalues --   -0.24283
  Beta virt. eigenvalues --    0.03579   0.04542   0.05309   0.05607   0.06012
  Beta virt. eigenvalues --    0.06236   0.06710   0.07125   0.07803   0.09665
  Beta virt. eigenvalues --    0.11256   0.11930   0.12573   0.12701   0.13220

 Mulliken charges and spin densities:
               1          2
     1  O   -3.125732   0.062166
     2  C   -1.585263  -0.015934
     3  C   -3.690333   0.010931
     4  H    1.578604  -0.020594
     5  H    1.403010   0.000963
     6  S    1.125731  -0.019584
     7  H    1.336475   0.000284
     8  H    1.458817  -0.002068
     9  C    1.448333   1.275243
    10  C   -2.781676  -0.314082
    11  C   -3.881053   0.062019
    12  H    1.422598  -0.008505
    13  H    1.395389  -0.012336
    14  H    1.331665  -0.006748
    15  H    1.155696   0.000693
    16  H    1.407739  -0.012449
 Sum of Mulliken charges =   0.00000   1.00000

 Dipole moment (field-independent basis, Debye):
    X=             -0.6200    Y=             -0.3830    Z=              0.5144  Tot=              0.8920
                          Isotropic Fermi Contact Couplings
        Atom                 a.u.       MegaHertz       Gauss      10(-4) cm-1
     1  O(17)              0.03112     -18.86303      -6.73080      -6.29203
     2  C(13)             -0.00162      -1.82050      -0.64960      -0.60725
     3  C(13)              0.00035       0.39842       0.14217       0.13290
     4  H(1)               0.00056       2.51203       0.89636       0.83792
     5  H(1)              -0.00060      -2.66827      -0.95210      -0.89004
     6  S(33)              0.12969      44.54453      15.89460      14.85846
     7  H(1)              -0.00062      -2.75084      -0.98157      -0.91758
     8  H(1)               0.00198       8.83907       3.15400       2.94840

 Normal termination of Gaussian 16 at Tue Apr  8 23:07:53 2025.
