 Gaussian 16, Revision C.01,

 ----------------------------------------------------------------------
 #t hf aug-cc-pvdz symm=none int=(grid=ultrafine) guess=(read,tcheck) s
 table=(opt,rrhf)
 ----------------------------------------------------------------------
 -----
 title
 -----
 Symbolic Z-matrix:
 Charge =  0 Multiplicity = 1

 SCF Done:  E(RHF) =  -572.382538574     A.U. after   13 cycles
 Normal termination of Gaussian 16 at Wed Apr  9 00:20:34 2025.
 Gaussian 16:  ES64L-G16RevC.01  3-Jul-2019

 ----------------------------------------------------------------------
 #t hf aug-cc-pvdz iop(5/13=1,5/36=2,99/5=2) pseudo=read geom=check gue
 ss=(read,tcheck) scf=(maxcycle=1)
 ----------------------------------------------------------------------
 -----
 title
 -----
 Structure from the checkpoint file:  "BDE49_nonexpt_2618_mol1.chk"
 Charge =  0 Multiplicity = 1

                         Standard orientation:
 ---------------------------------------------------------------------
 Center     Atomic      Atomic             Coordinates (Angstroms)
 Number     Number       Type             X           Y           Z
 ---------------------------------------------------------------------
      1          9           0       -1.291530   -0.503397   -0.005761
      2          8           0        1.276000   -0.452694   -0.119090
      3         16           0       -0.005939    0.558209    0.015206
      4          1           0        1.510798   -0.779210    0.761286
 ---------------------------------------------------------------------

 SCF Done:  E(RHF) =  -573.253315826     A.U. after    2 cycles

 The electronic state is 1-A.
 Alpha  occ. eigenvalues --  -75.80449 -29.27996 -21.14383 -13.26877 -13.19137
 Alpha  occ. eigenvalues --  -13.11547  -8.14117  -1.78548  -1.14936  -0.71567
 Alpha  occ. eigenvalues --   -0.62085  -0.51423  -0.44305  -0.40078  -0.32360
 Alpha  occ. eigenvalues --   -0.30857  -0.18043
 Alpha virt. eigenvalues --    0.03508   0.07499   0.10182   0.11666   0.14807
 Alpha virt. eigenvalues --    0.19777   0.20780   0.22314   0.23307   0.25286
 Alpha virt. eigenvalues --    0.27750   0.29641   0.30609   0.32822   0.34212

 Mulliken charges:
               1
     1  F   -0.124018
     2  O   -2.108892
     3  S    1.303612
     4  H    0.929298
 Sum of Mulliken charges =   0.00000

 Dipole moment (field-independent basis, Debye):
    X=             -1.7695    Y=             -1.2491    Z=              0.5754  Tot=              2.2411

 Test job not archived.
 1\1\GINC-SE459\SP\RHF\Aug-CC-pVDZ\F1H1O1S1\OHZDE\09-Apr-2025\0\\#t hf
 aug-cc-pvdz iop(5/13=1,5/36=2,99/5=2) pseudo=read geom=check guess=(re
 ad,tcheck) scf=(maxcycle=1)\\title\\0,1\F,0,-1.29153,-0.503397,-0.0057
 61\O,0,1.276,-0.452694,-0.11909\S,0,-0.005939,0.558209,0.015206\H,0,1.
 510798,-0.77921,0.761286\\Version=ES64L-G16RevC.01\State=1-A\HF=-573.2
 533158\RMSD=3.852e-02\Dipole=-0.6961815,-0.4914213,0.2263974\Quadrupol
 e=1.4598555,-0.0339894,-1.4258662,-0.2334346,1.3197333,-0.9597911\PG=C
 01 [X(F1H1O1S1)]\\@

 Normal termination of Gaussian 16 at Wed Apr  9 00:20:36 2025.
