 Gaussian 16, Revision C.01,

 ----------------------------------------------------------------------
 #t hf aug-cc-pvdz symm=none int=(grid=ultrafine) guess=(read,tcheck) s
 table=(opt,rrhf)
 ----------------------------------------------------------------------
 -----
 title
 -----
 Symbolic Z-matrix:
 Charge =  0 Multiplicity = 1

 SCF Done:  E(RHF) =  -1003.76111771     A.U. after   13 cycles
 Normal termination of Gaussian 16 at Tue Apr  8 23:44:20 2025.
 Gaussian 16:  ES64L-G16RevC.01  3-Jul-2019

 ----------------------------------------------------------------------
 #t hf aug-cc-pvdz iop(5/13=1,5/36=2,99/5=2) pseudo=read geom=check gue
 ss=(read,tcheck) scf=(maxcycle=1)
 ----------------------------------------------------------------------
 -----
 title
 -----
 Structure from the checkpoint file:  "BDE49_nonexpt_1712_mol1.chk"
 Charge =  0 Multiplicity = 1

                         Standard orientation:
 ---------------------------------------------------------------------
 Center     Atomic      Atomic             Coordinates (Angstroms)
 Number     Number       Type             X           Y           Z
 ---------------------------------------------------------------------
      1          6           0        2.210128    0.653799    0.079198
      2         16           0        1.198793   -0.876118   -0.026979
      3          1           0        2.082385    1.251258   -0.820825
      4          1           0        3.245071    0.321778    0.160601
      5          1           0        1.938255    1.227273    0.963353
      6         15           0       -0.726918   -0.078882   -0.034415
      7          8           0       -0.864209    0.932534    1.221185
      8          8           0       -1.750338   -1.125243   -0.076396
      9          1           0       -1.195727    0.467210    1.999753
     10          8           0       -0.658814    0.995356   -1.219718
     11          1           0       -1.420777    1.589638   -1.230755
 ---------------------------------------------------------------------

 SCF Done:  E(RHF) =  -1005.32735333     A.U. after    2 cycles

 The electronic state is 1-A.
 Alpha  occ. eigenvalues -- -105.32302 -75.70361 -21.12566 -21.12457 -21.02873
 Alpha  occ. eigenvalues --  -13.12944 -13.10026 -13.04262 -11.41454  -8.04593
 Alpha  occ. eigenvalues --   -2.94486  -1.99731  -1.89745  -1.80208  -1.54569
 Alpha  occ. eigenvalues --   -1.41333  -1.26764  -1.16366  -0.93285  -0.69782
 Alpha  occ. eigenvalues --   -0.62770  -0.60256  -0.60120  -0.53851  -0.45597
 Alpha  occ. eigenvalues --   -0.43957  -0.42387  -0.35374  -0.34514  -0.30088
 Alpha  occ. eigenvalues --   -0.27021  -0.21904  -0.14518
 Alpha virt. eigenvalues --    0.02643   0.04181   0.05457   0.06176   0.06788
 Alpha virt. eigenvalues --    0.09036   0.11273   0.11827   0.12735   0.13132
 Alpha virt. eigenvalues --    0.14039   0.15110   0.15631   0.16538   0.17042

 Mulliken charges:
               1
     1  C   -4.723819
     2  S   -1.298451
     3  H    1.515915
     4  H    1.311689
     5  H    1.417947
     6  P    8.151557
     7  O   -2.622583
     8  O   -2.748428
     9  H    0.864087
    10  O   -2.756053
    11  H    0.888139
 Sum of Mulliken charges =  -0.00000

 Dipole moment (field-independent basis, Debye):
    X=              0.7045    Y=              2.7370    Z=              0.4481  Tot=              2.8615

 Test job not archived.
 1\1\GINC-SE454\SP\RHF\Aug-CC-pVDZ\C1H5O3P1S1\OHZDE\08-Apr-2025\0\\#t h
 f aug-cc-pvdz iop(5/13=1,5/36=2,99/5=2) pseudo=read geom=check guess=(
 read,tcheck) scf=(maxcycle=1)\\title\\0,1\C,0,2.210128,0.653799,0.0791
 98\S,0,1.198793,-0.876118,-0.026979\H,0,2.082385,1.251258,-0.820825\H,
 0,3.245071,0.321778,0.160601\H,0,1.938255,1.227273,0.963353\P,0,-0.726
 918,-0.078882,-0.034415\O,0,-0.864209,0.932534,1.221185\O,0,-1.750338,
 -1.125243,-0.076396\H,0,-1.195727,0.46721,1.999753\O,0,-0.658814,0.995
 356,-1.219718\H,0,-1.420777,1.589638,-1.230755\\Version=ES64L-G16RevC.

 Normal termination of Gaussian 16 at Tue Apr  8 23:44:24 2025.
