 Gaussian 16, Revision C.01,

 ----------------------------------------------------------------------
 #t hf aug-cc-pvdz symm=none int=(grid=ultrafine) guess=(read,tcheck) s
 table=(opt,rrhf)
 ----------------------------------------------------------------------
 -----
 title
 -----
 Symbolic Z-matrix:
 Charge =  0 Multiplicity = 1

 SCF Done:  E(RHF) =  -350.090932817     A.U. after   15 cycles
 Normal termination of Gaussian 16 at Wed Apr  9 00:41:05 2025.
 Gaussian 16:  ES64L-G16RevC.01  3-Jul-2019

 ----------------------------------------------------------------------
 #t hf aug-cc-pvdz iop(5/13=1,5/36=2,99/5=2) pseudo=read geom=check gue
 ss=(read,tcheck) scf=(maxcycle=1)
 ----------------------------------------------------------------------
 -----
 title
 -----
 Structure from the checkpoint file:  "BDE49_nonexpt_620_mol1.chk"
 Charge =  0 Multiplicity = 1

                         Standard orientation:
 ---------------------------------------------------------------------
 Center     Atomic      Atomic             Coordinates (Angstroms)
 Number     Number       Type             X           Y           Z
 ---------------------------------------------------------------------
      1          6           0        0.230895    0.061266   -0.019712
      2          6           0       -0.431683   -1.148599   -0.258307
      3          6           0       -1.823517   -1.206272   -0.249278
      4          6           0       -2.577607   -0.064155    0.000790
      5          6           0       -1.922381    1.140244    0.250769
      6          6           0       -0.533614    1.203324    0.250118
      7          5           0        2.364182    1.241161   -0.534149
      8          1           0       -2.316529   -2.152323   -0.443415
      9          1           0       -3.660209   -0.112121    0.009309
     10          1           0       -2.494406    2.036652    0.462781
     11          1           0       -0.032296    2.136957    0.469189
     12          1           0        0.132591   -2.047813   -0.468712
     13          7           0        1.659958    0.138154   -0.034628
     14          6           0        2.374715   -1.047723    0.459973
     15          1           0        2.314819   -1.882734   -0.244343
     16          1           0        1.960085   -1.374213    1.417388
     17          1           0        3.423597   -0.791062    0.591950
     18          1           0        1.776348    2.161007   -1.003511
     19          1           0        3.554532    1.224259   -0.483619
 ---------------------------------------------------------------------

 SCF Done:  E(RHF) =  -351.795986803     A.U. after    2 cycles

 The electronic state is 1-A.
 Alpha  occ. eigenvalues --  -15.71701 -11.52511 -11.45192 -11.42886 -11.40693
 Alpha  occ. eigenvalues --  -11.40294 -11.40054 -11.36138  -7.60138  -1.45983
 Alpha  occ. eigenvalues --   -1.29770  -1.09625  -1.08559  -1.00587  -0.88372
 Alpha  occ. eigenvalues --   -0.86054  -0.76882  -0.70769  -0.64660  -0.61952
 Alpha  occ. eigenvalues --   -0.61312  -0.58870  -0.57942  -0.53643  -0.51769
 Alpha  occ. eigenvalues --   -0.49697  -0.46516  -0.44456  -0.43959  -0.39994
 Alpha  occ. eigenvalues --   -0.33059  -0.29486
 Alpha virt. eigenvalues --    0.03300   0.04045   0.04246   0.04707   0.05526
 Alpha virt. eigenvalues --    0.05801   0.06306   0.07247   0.07831   0.08065
 Alpha virt. eigenvalues --    0.09233   0.10780   0.11129   0.11571   0.12018

 Mulliken charges:
               1
     1  C    5.046917
     2  C   -2.215375
     3  C   -0.615181
     4  C   -2.768296
     5  C   -0.410757
     6  C   -2.632845
     7  B    7.469903
     8  H    1.521186
     9  H    1.573631
    10  H    1.507574
    11  H    1.940351
    12  H    1.831041
    13  N   -5.201863
    14  C   -3.863711
    15  H    1.469760
    16  H    1.432966
    17  H    1.289290
    18  H   -3.398766
    19  H   -3.975824
 Sum of Mulliken charges =   0.00000

 Dipole moment (field-independent basis, Debye):
    X=             -0.3830    Y=             -1.2219    Z=              0.5641  Tot=              1.3992

 Test job not archived.
 1\1\GINC-SE404\SP\RHF\Aug-CC-pVDZ\C7H10B1N1\OHZDE\09-Apr-2025\0\\#t hf
  aug-cc-pvdz iop(5/13=1,5/36=2,99/5=2) pseudo=read geom=check guess=(r
 ead,tcheck) scf=(maxcycle=1)\\title\\0,1\C,0,0.230895,0.061266,-0.0197
 12\C,0,-0.431683,-1.148599,-0.258307\C,0,-1.823517,-1.206272,-0.249278
 \C,0,-2.577607,-0.064155,0.00079\C,0,-1.922381,1.140244,0.250769\C,0,-
 0.533614,1.203324,0.250118\B,0,2.364182,1.241161,-0.534149\H,0,-2.3165
 29,-2.152323,-0.443415\H,0,-3.660209,-0.112121,0.009309\H,0,-2.494406,
 2.036652,0.462781\H,0,-0.032296,2.136957,0.469189\H,0,0.132591,-2.0478

 Normal termination of Gaussian 16 at Wed Apr  9 00:41:14 2025.
