 Gaussian 16, Revision C.01,

 ----------------------------------------------------------------------
 #t hf aug-cc-pvdz symm=none int=(grid=ultrafine) guess=(read,tcheck) s
 table=(opt,rrhf)
 ----------------------------------------------------------------------
 -----
 title
 -----
 Symbolic Z-matrix:
 Charge =  0 Multiplicity = 1

 SCF Done:  E(RHF) =  -734.994885127     A.U. after   15 cycles
 Normal termination of Gaussian 16 at Wed Apr  9 00:50:54 2025.
 Gaussian 16:  ES64L-G16RevC.01  3-Jul-2019

 ----------------------------------------------------------------------
 #t hf aug-cc-pvdz iop(5/13=1,5/36=2,99/5=2) pseudo=read geom=check gue
 ss=(read,tcheck) scf=(maxcycle=1)
 ----------------------------------------------------------------------
 -----
 title
 -----
 Structure from the checkpoint file:  "BDE49_nonexpt_851_mol1.chk"
 Charge =  0 Multiplicity = 1

                         Standard orientation:
 ---------------------------------------------------------------------
 Center     Atomic      Atomic             Coordinates (Angstroms)
 Number     Number       Type             X           Y           Z
 ---------------------------------------------------------------------
      1          6           0        2.382185   -1.236420    0.715197
      2          6           0        1.320729   -0.439063    1.145189
      3          6           0        3.117932   -0.876685   -0.411127
      4          6           0        2.784749    0.288629   -1.099882
      5          6           0        1.723463    1.081225   -0.671999
      6          6           0        0.970446    0.733996    0.458917
      7          1           0        0.768810   -0.718255    2.037449
      8          5           0       -2.256037   -0.751967   -0.210669
      9          8           0       -3.575096   -1.069509   -0.337840
     10          8           0       -1.351449   -1.775810   -0.186103
     11          1           0        2.637076   -2.133795    1.268235
     12          1           0        3.354258    0.582512   -1.974718
     13          1           0        3.944504   -1.493039   -0.744963
     14          1           0        1.475098    1.985266   -1.218340
     15          6           0       -0.202546    1.572386    0.899879
     16          1           0       -0.432484   -1.498627   -0.091481
     17          1           0       -3.708836   -2.023916   -0.411958
     18         14           0       -1.791150    1.233461   -0.113661
     19          1           0        0.030474    2.637797    0.808300
     20          1           0       -0.425989    1.388078    1.955100
     21          1           0       -1.558417    1.756001   -1.487741
     22          1           0       -2.897609    2.027488    0.479217
 ---------------------------------------------------------------------

 SCF Done:  E(RHF) =  -737.190512220     A.U. after    2 cycles

 The electronic state is 1-A.
 Alpha  occ. eigenvalues --  -76.19681 -21.05608 -21.05381 -11.52288 -11.44888
 Alpha  occ. eigenvalues --  -11.43786 -11.41315 -11.41191 -11.38407 -11.36457
 Alpha  occ. eigenvalues --   -7.63389  -5.53334  -2.17174  -2.16113  -2.15564
 Alpha  occ. eigenvalues --   -1.80452  -1.64902  -1.35621  -1.15060  -1.09655
 Alpha  occ. eigenvalues --   -0.99920  -0.86902  -0.84105  -0.78605  -0.71196
 Alpha  occ. eigenvalues --   -0.70315  -0.65152  -0.62386  -0.61487  -0.58334
 Alpha  occ. eigenvalues --   -0.57052  -0.53827  -0.52788  -0.52004  -0.48632
 Alpha  occ. eigenvalues --   -0.46592  -0.44981  -0.44204  -0.42635  -0.41699
 Alpha  occ. eigenvalues --   -0.36113  -0.34141  -0.33769  -0.30304
 Alpha virt. eigenvalues --    0.03135   0.04441   0.04751   0.04967   0.05385
 Alpha virt. eigenvalues --    0.05640   0.06004   0.06786   0.07380   0.07958
 Alpha virt. eigenvalues --    0.08717   0.08970   0.09386   0.09732   0.10058

 Mulliken charges:
               1
     1  C   -1.901657
     2  C   -1.870389
     3  C   -2.617925
     4  C   -1.846596
     5  C   -2.270307
     6  C    4.168645
     7  H    1.871345
     8  B    5.665063
     9  O   -4.402795
    10  O   -4.919932
    11  H    1.496625
    12  H    1.513919
    13  H    1.564614
    14  H    1.898806
    15  C   -5.319088
    16  H    2.046704
    17  H    1.398809
    18  Si   4.792570
    19  H    1.066575
    20  H    1.477830
    21  H   -1.953673
    22  H   -1.859142
 Sum of Mulliken charges =  -0.00000

 Dipole moment (field-independent basis, Debye):
    X=              1.6257    Y=             -0.4531    Z=              0.5463  Tot=              1.7738

 Test job not archived.
 1\1\GINC-SE069\SP\RHF\Aug-CC-pVDZ\C7H11B1O2Si1\OHZDE\09-Apr-2025\0\\#t
  hf aug-cc-pvdz iop(5/13=1,5/36=2,99/5=2) pseudo=read geom=check guess
 =(read,tcheck) scf=(maxcycle=1)\\title\\0,1\C,0,2.382185,-1.23642,0.71
 5197\C,0,1.320729,-0.439063,1.145189\C,0,3.117932,-0.876685,-0.411127\
 C,0,2.784749,0.288629,-1.099882\C,0,1.723463,1.081225,-0.671999\C,0,0.
 970446,0.733996,0.458917\H,0,0.76881,-0.718255,2.037449\B,0,-2.256037,
 -0.751967,-0.210669\O,0,-3.575096,-1.069509,-0.33784\O,0,-1.351449,-1.
 77581,-0.186103\H,0,2.637076,-2.133795,1.268235\H,0,3.354258,0.582512,

 Normal termination of Gaussian 16 at Wed Apr  9 00:51:09 2025.
