 Gaussian 16, Revision C.01,

 ----------------------------------------------------------------------
 #t hf aug-cc-pvdz symm=none int=(grid=ultrafine) guess=(read,tcheck) s
 table=(opt,rrhf)
 ----------------------------------------------------------------------
 -----
 title
 -----
 Symbolic Z-matrix:
 Charge =  0 Multiplicity = 1

 SCF Done:  E(RHF) =  -691.478134256     A.U. after   11 cycles

 1\1\GINC-SE345\Stability\RHF\Aug-CC-pVDZ\H8N2Si2\OHZDE\09-Apr-2025\0\\
 #t hf aug-cc-pvdz symm=none int=(grid=ultrafine) guess=(read,tcheck) s
 table=(opt,rrhf)\\title\\0,1\Si,0,-0.019402,-1.183256,-0.583452\Si,0,0
 .019402,1.183256,-0.583452\N,0,0.019402,-1.618285,1.096518\H,0,0.68468
 ,-1.144046,1.692323\H,0,-0.085757,-2.584227,1.375531\N,0,-0.019402,1.6
 18285,1.096518\H,0,-0.68468,1.144046,1.692323\H,0,0.085757,2.584227,1.
 375531\H,0,1.087405,-1.728973,-1.423093\H,0,-1.276076,-1.731735,-1.152
 055\H,0,-1.087405,1.728973,-1.423093\H,0,1.276076,1.731735,-1.152055\\

 Normal termination of Gaussian 16 at Wed Apr  9 00:01:28 2025.
 Gaussian 16:  ES64L-G16RevC.01  3-Jul-2019

 ----------------------------------------------------------------------
 #t hf aug-cc-pvdz iop(5/13=1,5/36=2,99/5=2) pseudo=read geom=check gue
 ss=(read,tcheck) scf=(maxcycle=1)
 ----------------------------------------------------------------------
 -----
 title
 -----
 Structure from the checkpoint file:  "BDE49_nonexpt_2134_mol1.chk"
 Charge =  0 Multiplicity = 1

                         Standard orientation:
 ---------------------------------------------------------------------
 Center     Atomic      Atomic             Coordinates (Angstroms)
 Number     Number       Type             X           Y           Z
 ---------------------------------------------------------------------
      1         14           0        0.019402    1.183256   -0.583452
      2         14           0       -0.019402   -1.183256   -0.583452
      3          7           0       -0.019402    1.618285    1.096518
      4          1           0       -0.684680    1.144046    1.692323
      5          1           0        0.085757    2.584227    1.375531
      6          7           0        0.019402   -1.618285    1.096518
      7          1           0        0.684680   -1.144046    1.692323
      8          1           0       -0.085757   -2.584227    1.375531
      9          1           0       -1.087405    1.728973   -1.423093
     10          1           0        1.276076    1.731735   -1.152055
     11          1           0        1.087405   -1.728973   -1.423093
     12          1           0       -1.276076   -1.731735   -1.152055
 ---------------------------------------------------------------------

 SCF Done:  E(RHF) =  -692.335628033     A.U. after    2 cycles

 The electronic state is 1-A.
 Alpha  occ. eigenvalues --  -76.21320 -76.21301 -15.72707 -15.72676  -5.55030
 Alpha  occ. eigenvalues --   -5.55024  -2.19775  -2.19665  -2.16657  -2.16546
 Alpha  occ. eigenvalues --   -2.16310  -2.15697  -1.25401  -1.24159  -0.78250
 Alpha  occ. eigenvalues --   -0.70439  -0.65647  -0.63202  -0.51877  -0.50508
 Alpha  occ. eigenvalues --   -0.47580  -0.45946  -0.38181  -0.37804  -0.33402
 Alpha virt. eigenvalues --    0.03834   0.04441   0.05448   0.06585   0.06696
 Alpha virt. eigenvalues --    0.07221   0.07877   0.08006   0.08964   0.09599
 Alpha virt. eigenvalues --    0.09736   0.09946   0.10815   0.11556   0.14322

 Mulliken charges:
               1
     1  Si   4.356043
     2  Si   4.356043
     3  N   -2.272984
     4  H    0.759112
     5  H    0.647657
     6  N   -2.272984
     7  H    0.759112
     8  H    0.647657
     9  H   -1.731534
    10  H   -1.758294
    11  H   -1.731534
    12  H   -1.758294
 Sum of Mulliken charges =  -0.00000

 Dipole moment (field-independent basis, Debye):
    X=             -0.0000    Y=              0.0000    Z=              1.9925  Tot=              1.9925

 Test job not archived.
 1\1\GINC-SE345\SP\RHF\Aug-CC-pVDZ\H8N2Si2\OHZDE\09-Apr-2025\0\\#t hf a
 ug-cc-pvdz iop(5/13=1,5/36=2,99/5=2) pseudo=read geom=check guess=(rea
 d,tcheck) scf=(maxcycle=1)\\title\\0,1\Si,0,-0.019402,-1.183256,-0.583
 452\Si,0,0.019402,1.183256,-0.583452\N,0,0.019402,-1.618285,1.096518\H
 ,0,0.68468,-1.144046,1.692323\H,0,-0.085757,-2.584227,1.375531\N,0,-0.
 019402,1.618285,1.096518\H,0,-0.68468,1.144046,1.692323\H,0,0.085757,2
 .584227,1.375531\H,0,1.087405,-1.728973,-1.423093\H,0,-1.276076,-1.731
 735,-1.152055\H,0,-1.087405,1.728973,-1.423093\H,0,1.276076,1.731735,-

 Normal termination of Gaussian 16 at Wed Apr  9 00:01:31 2025.
