 Gaussian 16, Revision C.01,

 ----------------------------------------------------------------------
 #t hf aug-cc-pvdz symm=none int=(grid=ultrafine) guess=(read,tcheck) s
 table=(opt,rrhf)
 ----------------------------------------------------------------------
 -----
 title
 -----
 Symbolic Z-matrix:
 Charge =  0 Multiplicity = 1

 SCF Done:  E(RHF) =  -476.764635918     A.U. after   11 cycles
 Normal termination of Gaussian 16 at Tue Apr  8 22:46:28 2025.
 Gaussian 16:  ES64L-G16RevC.01  3-Jul-2019

 ----------------------------------------------------------------------
 #t hf aug-cc-pvdz iop(5/13=1,5/36=2,99/5=2) pseudo=read geom=check gue
 ss=(read,tcheck) scf=(maxcycle=1)
 ----------------------------------------------------------------------
 -----
 title
 -----
 Structure from the checkpoint file:  "BDE49_expt_1561_mol1.chk"
 Charge =  0 Multiplicity = 1

                         Standard orientation:
 ---------------------------------------------------------------------
 Center     Atomic      Atomic             Coordinates (Angstroms)
 Number     Number       Type             X           Y           Z
 ---------------------------------------------------------------------
      1         16           0        0.000000   -0.000000    0.659581
      2          6           0        0.000000    1.392501   -0.513148
      3          1           0        0.894060    1.379644   -1.139757
      4          1           0        0.000000    2.306797    0.081752
      5          1           0       -0.894060    1.379644   -1.139757
      6          6           0       -0.000000   -1.392501   -0.513148
      7          1           0       -0.000000   -2.306797    0.081752
      8          1           0        0.894060   -1.379644   -1.139757
      9          1           0       -0.894060   -1.379644   -1.139757
 ---------------------------------------------------------------------

 SCF Done:  E(RHF) =  -477.418883594     A.U. after    2 cycles

 The electronic state is 1-A1.
 Alpha  occ. eigenvalues --  -75.66974 -13.08595 -13.05855 -12.99902 -11.39067
 Alpha  occ. eigenvalues --  -11.38908  -8.01001  -1.21763  -1.02628  -0.87743
 Alpha  occ. eigenvalues --   -0.59632  -0.59536  -0.57646  -0.56535  -0.44075
 Alpha  occ. eigenvalues --   -0.36474  -0.21577
 Alpha virt. eigenvalues --    0.03042   0.03772   0.05586   0.06008   0.07515
 Alpha virt. eigenvalues --    0.07974   0.08637   0.13033   0.13046   0.14867
 Alpha virt. eigenvalues --    0.15875   0.16186   0.17307   0.18067   0.18092

 Mulliken charges:
               1
     1  S    1.041006
     2  C   -4.658122
     3  H    1.384754
     4  H    1.368110
     5  H    1.384754
     6  C   -4.658122
     7  H    1.368110
     8  H    1.384754
     9  H    1.384754
 Sum of Mulliken charges =  -0.00000

 Dipole moment (field-independent basis, Debye):
    X=              0.0000    Y=              0.0000    Z=              0.1959  Tot=              0.1959

 Test job not archived.
 1\1\GINC-SE363\SP\RHF\Aug-CC-pVDZ\C2H6S1\OHZDE\08-Apr-2025\0\\#t hf au
 g-cc-pvdz iop(5/13=1,5/36=2,99/5=2) pseudo=read geom=check guess=(read
 ,tcheck) scf=(maxcycle=1)\\title\\0,1\S,0,0.,0.,0.659581\C,0,0.,1.3925
 01,-0.513148\H,0,0.89406,1.379644,-1.139757\H,0,0.,2.306797,0.081752\H
 ,0,-0.89406,1.379644,-1.139757\C,0,0.,-1.392501,-0.513148\H,0,0.,-2.30
 6797,0.081752\H,0,0.89406,-1.379644,-1.139757\H,0,-0.89406,-1.379644,-
 1.139757\\Version=ES64L-G16RevC.01\State=1-A1\HF=-477.4188836\RMSD=7.5
 78e-02\Dipole=0.,0.,0.0770542\Quadrupole=-1.7212098,1.668951,0.0522588

 Normal termination of Gaussian 16 at Tue Apr  8 22:46:30 2025.
