 Gaussian 16, Revision C.01,

 ----------------------------------------------------------------------
 #t hf aug-cc-pvdz symm=none int=(grid=ultrafine) guess=(read,tcheck) s
 table=(opt,rrhf)
 ----------------------------------------------------------------------
 -----
 title
 -----
 Symbolic Z-matrix:
 Charge =  0 Multiplicity = 1

 SCF Done:  E(RHF) =  -306.947593474     A.U. after   13 cycles

 1\1\GINC-SE329\Stability\RHF\Aug-CC-pVDZ\C4H10O2\OHZDE\08-Apr-2025\0\\
 #t hf aug-cc-pvdz symm=none int=(grid=ultrafine) guess=(read,tcheck) s
 table=(opt,rrhf)\\title\\0,1\C,0,-2.927775,-0.197327,0.134159\C,0,-1.5
 89199,0.520653,0.194771\H,0,-2.891323,-1.136356,0.690702\H,0,-3.200219
 ,-0.418322,-0.899874\H,0,-3.706285,0.433367,0.570563\C,0,1.589199,-0.5
 20652,0.194772\C,0,2.927775,0.197327,0.134158\H,0,3.706285,-0.433365,0
 .570563\H,0,2.891323,1.136357,0.6907\H,0,3.200219,0.418321,-0.899875\O
 ,0,-0.635962,-0.355448,-0.399864\O,0,0.635962,0.355447,-0.399864\H,0,-

 Normal termination of Gaussian 16 at Tue Apr  8 22:44:49 2025.
 Gaussian 16:  ES64L-G16RevC.01  3-Jul-2019

 ----------------------------------------------------------------------
 #t hf aug-cc-pvdz iop(5/13=1,5/36=2,99/5=2) pseudo=read geom=check gue
 ss=(read,tcheck) scf=(maxcycle=1)
 ----------------------------------------------------------------------
 -----
 title
 -----
 Structure from the checkpoint file:  "BDE49_expt_1473_mol1.chk"
 Charge =  0 Multiplicity = 1

                         Standard orientation:
 ---------------------------------------------------------------------
 Center     Atomic      Atomic             Coordinates (Angstroms)
 Number     Number       Type             X           Y           Z
 ---------------------------------------------------------------------
      1          6           0       -2.927775   -0.197327    0.134159
      2          6           0       -1.589199    0.520653    0.194771
      3          1           0       -2.891323   -1.136356    0.690702
      4          1           0       -3.200219   -0.418322   -0.899874
      5          1           0       -3.706285    0.433367    0.570563
      6          6           0        1.589199   -0.520652    0.194772
      7          6           0        2.927775    0.197327    0.134158
      8          1           0        3.706285   -0.433365    0.570563
      9          1           0        2.891323    1.136357    0.690700
     10          1           0        3.200219    0.418321   -0.899875
     11          8           0       -0.635962   -0.355448   -0.399864
     12          8           0        0.635962    0.355447   -0.399864
     13          1           0       -1.298963    0.740635    1.229371
     14          1           0       -1.618588    1.461966   -0.365430
     15          1           0        1.298963   -0.740633    1.229372
     16          1           0        1.618588   -1.461967   -0.365428
 ---------------------------------------------------------------------

 SCF Done:  E(RHF) =  -308.365267648     A.U. after    2 cycles

 The electronic state is 1-A.
 Alpha  occ. eigenvalues --  -21.07917 -21.07665 -11.43050 -11.42777 -11.36524
 Alpha  occ. eigenvalues --  -11.36472  -1.93867  -1.47562  -1.11995  -1.08338
 Alpha  occ. eigenvalues --   -0.87207  -0.86966  -0.65545  -0.64281  -0.63418
 Alpha  occ. eigenvalues --   -0.57255  -0.55299  -0.53747  -0.51778  -0.50423
 Alpha  occ. eigenvalues --   -0.46499  -0.45910  -0.38326  -0.33173  -0.26434
 Alpha virt. eigenvalues --    0.03962   0.04850   0.05651   0.05777   0.05846
 Alpha virt. eigenvalues --    0.06194   0.06422   0.06746   0.07322   0.08343
 Alpha virt. eigenvalues --    0.12305   0.13036   0.13590   0.14134   0.15046

 Mulliken charges:
               1
     1  C   -3.514145
     2  C   -1.585891
     3  H    1.249959
     4  H    1.271696
     5  H    1.168182
     6  C   -1.585887
     7  C   -3.514145
     8  H    1.168183
     9  H    1.249958
    10  H    1.271697
    11  O   -1.640568
    12  O   -1.640572
    13  H    1.587723
    14  H    1.463045
    15  H    1.587723
    16  H    1.463044
 Sum of Mulliken charges =  -0.00000

 Dipole moment (field-independent basis, Debye):
    X=             -0.0000    Y=              0.0000    Z=              0.5517  Tot=              0.5517

 Test job not archived.
 1\1\GINC-SE329\SP\RHF\Aug-CC-pVDZ\C4H10O2\OHZDE\08-Apr-2025\0\\#t hf a
 ug-cc-pvdz iop(5/13=1,5/36=2,99/5=2) pseudo=read geom=check guess=(rea
 d,tcheck) scf=(maxcycle=1)\\title\\0,1\C,0,-2.927775,-0.197327,0.13415
 9\C,0,-1.589199,0.520653,0.194771\H,0,-2.891323,-1.136356,0.690702\H,0
 ,-3.200219,-0.418322,-0.899874\H,0,-3.706285,0.433367,0.570563\C,0,1.5
 89199,-0.520652,0.194772\C,0,2.927775,0.197327,0.134158\H,0,3.706285,-
 0.433365,0.570563\H,0,2.891323,1.136357,0.6907\H,0,3.200219,0.418321,-
 0.899875\O,0,-0.635962,-0.355448,-0.399864\O,0,0.635962,0.355447,-0.39

 Normal termination of Gaussian 16 at Tue Apr  8 22:44:53 2025.
