 Gaussian 16, Revision C.01,

 ----------------------------------------------------------------------
 #t hf aug-cc-pvdz symm=none int=(grid=ultrafine) guess=(read,tcheck) s
 table=(opt,rrhf)
 ----------------------------------------------------------------------
 -----
 title
 -----
 Symbolic Z-matrix:
 Charge =  0 Multiplicity = 1

 SCF Done:  E(RHF) =  -362.406141266     A.U. after   15 cycles
 Normal termination of Gaussian 16 at Tue Apr  8 23:20:51 2025.
 Gaussian 16:  ES64L-G16RevC.01  3-Jul-2019

 ----------------------------------------------------------------------
 #t hf aug-cc-pvdz iop(5/13=1,5/36=2,99/5=2) pseudo=read geom=check gue
 ss=(read,tcheck) scf=(maxcycle=1)
 ----------------------------------------------------------------------
 -----
 title
 -----
 Structure from the checkpoint file:  "BDE49_nonexpt_1128_mol1.chk"
 Charge =  0 Multiplicity = 1

                         Standard orientation:
 ---------------------------------------------------------------------
 Center     Atomic      Atomic             Coordinates (Angstroms)
 Number     Number       Type             X           Y           Z
 ---------------------------------------------------------------------
      1          9           0        1.782367   -0.000477    0.000092
      2          8           0        0.587288   -0.759582   -0.000027
      3          6           0       -0.467103    0.134626   -0.000125
      4          8           0       -0.404645    1.319193    0.000004
      5          8           0       -1.547771   -0.651703    0.000002
      6          1           0       -2.317672   -0.066725    0.000093
 ---------------------------------------------------------------------

 SCF Done:  E(RHF) =  -363.787970982     A.U. after    2 cycles

 The electronic state is 1-A.
 Alpha  occ. eigenvalues --  -29.33686 -21.20627 -21.17348 -21.09845 -11.58692
 Alpha  occ. eigenvalues --   -1.96043  -1.77634  -1.71677  -0.92122  -0.70764
 Alpha  occ. eigenvalues --   -0.69422  -0.66629  -0.63324  -0.50786  -0.49475
 Alpha  occ. eigenvalues --   -0.39678  -0.38399  -0.33999  -0.29469  -0.25573
 Alpha virt. eigenvalues --    0.03599   0.10356   0.10508   0.11259   0.13804
 Alpha virt. eigenvalues --    0.16859   0.18089   0.18674   0.19411   0.21554
 Alpha virt. eigenvalues --    0.21913   0.22542   0.25862   0.26618   0.28034

 Mulliken charges:
               1
     1  F   -0.093318
     2  O   -1.310307
     3  C    5.501280
     4  O   -2.325585
     5  O   -2.459955
     6  H    0.687884
 Sum of Mulliken charges =  -0.00000

 Dipole moment (field-independent basis, Debye):
    X=              0.2495    Y=             -0.0989    Z=              0.0003  Tot=              0.2684

 Test job not archived.
 1\1\GINC-SE127\SP\RHF\Aug-CC-pVDZ\C1H1F1O3\OHZDE\08-Apr-2025\0\\#t hf
 aug-cc-pvdz iop(5/13=1,5/36=2,99/5=2) pseudo=read geom=check guess=(re
 ad,tcheck) scf=(maxcycle=1)\\title\\0,1\F,0,1.782367,-0.000477,0.00009
 2\O,0,0.587288,-0.759582,-0.000027\C,0,-0.467103,0.134626,-0.000125\O,
 0,-0.404645,1.319193,0.000004\O,0,-1.547771,-0.651703,0.000002\H,0,-2.
 317672,-0.066725,0.000093\\Version=ES64L-G16RevC.01\State=1-A\HF=-363.
 787971\RMSD=4.294e-02\Dipole=0.0981674,-0.0389175,0.0001114\Quadrupole
 =4.1073257,-3.3223272,-0.7849985,-0.0408565,-0.0001795,0.0000153\PG=C0

 Normal termination of Gaussian 16 at Tue Apr  8 23:20:53 2025.
