 Gaussian 16, Revision C.01,

 ----------------------------------------------------------------------
 #t hf aug-cc-pvdz symm=none int=(grid=ultrafine) guess=(read,tcheck) s
 table=(opt,rrhf)
 ----------------------------------------------------------------------
 -----
 title
 -----
 Symbolic Z-matrix:
 Charge =  0 Multiplicity = 1

 SCF Done:  E(RHF) =  -693.706804592     A.U. after   13 cycles
 Normal termination of Gaussian 16 at Tue Apr  8 23:51:55 2025.
 Gaussian 16:  ES64L-G16RevC.01  3-Jul-2019

 ----------------------------------------------------------------------
 #t hf aug-cc-pvdz iop(5/13=1,5/36=2,99/5=2) pseudo=read geom=check gue
 ss=(read,tcheck) scf=(maxcycle=1)
 ----------------------------------------------------------------------
 -----
 title
 -----
 Structure from the checkpoint file:  "BDE49_nonexpt_1878_mol1.chk"
 Charge =  0 Multiplicity = 1

                         Standard orientation:
 ---------------------------------------------------------------------
 Center     Atomic      Atomic             Coordinates (Angstroms)
 Number     Number       Type             X           Y           Z
 ---------------------------------------------------------------------
      1          6           0       -1.113584    0.748182    0.671937
      2         14           0        0.424004    1.135510   -0.377011
      3          6           0       -2.010820   -0.250754    0.032185
      4          8           0       -3.141985   -0.162385   -0.297244
      5          9           0       -1.318347   -1.420983   -0.205553
      6          6           0        1.790623   -0.117846    0.198480
      7          1           0        0.904697    2.496182   -0.044282
      8          1           0        0.131257    1.057701   -1.826384
      9          8           0        1.765643   -0.426407    1.373102
     10          6           0        2.838255   -0.646784   -0.752808
     11          1           0        3.349352    0.182534   -1.254020
     12          1           0        2.351554   -1.238170   -1.536128
     13          1           0        3.560425   -1.264066   -0.216360
     14          1           0       -1.686060    1.645008    0.905329
     15          1           0       -0.698270    0.326067    1.594355
 ---------------------------------------------------------------------

 SCF Done:  E(RHF) =  -695.545015241     A.U. after    2 cycles

 The electronic state is 1-A.
 Alpha  occ. eigenvalues --  -76.24766 -29.29703 -21.08916 -21.07624 -11.56846
 Alpha  occ. eigenvalues --  -11.48374 -11.41187 -11.39794  -5.58443  -2.22542
 Alpha  occ. eigenvalues --   -2.21793  -2.20785  -1.76448  -1.72021  -1.19082
 Alpha  occ. eigenvalues --   -1.11953  -0.95722  -0.84298  -0.72829  -0.69051
 Alpha  occ. eigenvalues --   -0.63768  -0.61654  -0.60396  -0.58989  -0.56335
 Alpha  occ. eigenvalues --   -0.54082  -0.50120  -0.47842  -0.44645  -0.44298
 Alpha  occ. eigenvalues --   -0.41688  -0.30827  -0.30173  -0.28300  -0.27196
 Alpha virt. eigenvalues --    0.03195   0.04489   0.05121   0.05955   0.06239
 Alpha virt. eigenvalues --    0.06474   0.07324   0.08197   0.08406   0.09657
 Alpha virt. eigenvalues --    0.10820   0.11493   0.12073   0.12650   0.12940

 Mulliken charges:
               1
     1  C   -4.668591
     2  Si   5.795911
     3  C    3.020487
     4  O   -3.048645
     5  F    0.527123
     6  C    1.824285
     7  H   -2.041726
     8  H   -1.829745
     9  O   -2.692910
    10  C   -3.739507
    11  H    1.312393
    12  H    1.297691
    13  H    1.277317
    14  H    1.283851
    15  H    1.682064
 Sum of Mulliken charges =  -0.00000

 Dipole moment (field-independent basis, Debye):
    X=              2.9358    Y=             -1.7699    Z=             -0.1993  Tot=              3.4338

 Test job not archived.
 1\1\GINC-SE284\SP\RHF\Aug-CC-pVDZ\C4H7F1O2Si1\OHZDE\08-Apr-2025\0\\#t
 hf aug-cc-pvdz iop(5/13=1,5/36=2,99/5=2) pseudo=read geom=check guess=
 (read,tcheck) scf=(maxcycle=1)\\title\\0,1\C,0,-1.113584,0.748182,0.67
 1937\Si,0,0.424004,1.13551,-0.377011\C,0,-2.01082,-0.250754,0.032185\O
 ,0,-3.141985,-0.162385,-0.297244\F,0,-1.318347,-1.420983,-0.205553\C,0
 ,1.790623,-0.117846,0.19848\H,0,0.904697,2.496182,-0.044282\H,0,0.1312
 57,1.057701,-1.826384\O,0,1.765643,-0.426407,1.373102\C,0,2.838255,-0.
 646784,-0.752808\H,0,3.349352,0.182534,-1.25402\H,0,2.351554,-1.23817,

 Normal termination of Gaussian 16 at Tue Apr  8 23:52:01 2025.
