 Gaussian 16, Revision C.01,

 ----------------------------------------------------------------------
 #t hf aug-cc-pvdz symm=none int=(grid=ultrafine) guess=(read,tcheck) s
 table=(opt,rrhf)
 ----------------------------------------------------------------------
 -----
 title
 -----
 Symbolic Z-matrix:
 Charge =  0 Multiplicity = 1

 SCF Done:  E(RHF) =  -373.082803180     A.U. after   15 cycles

 1\1\GINC-SE125\Stability\RHF\Aug-CC-pVDZ\C9H13B1\OHZDE\09-Apr-2025\0\\
 #t hf aug-cc-pvdz symm=none int=(grid=ultrafine) guess=(read,tcheck) s
 table=(opt,rrhf)\\title\\0,1\C,0,0.017198,0.003389,-0.017814\C,0,-0.71
 1059,1.207938,-0.036745\C,0,-2.10079,1.212008,-0.088387\C,0,-2.809209,
 0.012657,-0.102465\C,0,-2.11178,-1.191087,-0.059226\C,0,-0.720984,-1.1
 9577,-0.0109\B,0,1.483752,-0.172637,1.633805\H,0,-2.631545,2.157161,-0
 .117358\H,0,-3.892534,0.017051,-0.143054\H,0,-2.649571,-2.132604,-0.06
 3191\H,0,-0.204154,-2.145527,0.021959\H,0,-0.187694,2.154317,-0.026824

 Normal termination of Gaussian 16 at Wed Apr  9 00:33:09 2025.
 Gaussian 16:  ES64L-G16RevC.01  3-Jul-2019

 ----------------------------------------------------------------------
 #t hf aug-cc-pvdz iop(5/13=1,5/36=2,99/5=2) pseudo=read geom=check gue
 ss=(read,tcheck) scf=(maxcycle=1)
 ----------------------------------------------------------------------
 -----
 title
 -----
 Structure from the checkpoint file:  "BDE49_nonexpt_347_mol1.chk"
 Charge =  0 Multiplicity = 1

                         Standard orientation:
 ---------------------------------------------------------------------
 Center     Atomic      Atomic             Coordinates (Angstroms)
 Number     Number       Type             X           Y           Z
 ---------------------------------------------------------------------
      1          6           0        0.017198    0.003389   -0.017814
      2          6           0       -0.711059    1.207938   -0.036745
      3          6           0       -2.100790    1.212008   -0.088387
      4          6           0       -2.809209    0.012657   -0.102465
      5          6           0       -2.111780   -1.191087   -0.059226
      6          6           0       -0.720984   -1.195770   -0.010900
      7          5           0        1.483752   -0.172637    1.633805
      8          1           0       -2.631545    2.157161   -0.117358
      9          1           0       -3.892534    0.017051   -0.143054
     10          1           0       -2.649571   -2.132604   -0.063191
     11          1           0       -0.204154   -2.145527    0.021959
     12          1           0       -0.187694    2.154317   -0.026824
     13          6           0        1.560667   -0.011230    0.073557
     14          6           0        2.201531    1.300932   -0.411002
     15          1           0        1.901360    2.163032    0.186904
     16          1           0        1.957095    1.505668   -1.459499
     17          1           0        3.289597    1.225822   -0.333203
     18          6           0        2.186499   -1.195044   -0.687609
     19          1           0        1.959954   -1.144519   -1.758332
     20          1           0        1.853401   -2.163918   -0.313591
     21          1           0        3.274198   -1.169844   -0.575678
     22          1           0        1.405268    0.792303    2.330841
     23          1           0        1.433433   -1.258514    2.125545
 ---------------------------------------------------------------------

 SCF Done:  E(RHF) =  -374.949856883     A.U. after    2 cycles

 The electronic state is 1-A.
 Alpha  occ. eigenvalues --  -11.52109 -11.45182 -11.43903 -11.41543 -11.41055
 Alpha  occ. eigenvalues --  -11.40372 -11.39107 -11.37686 -11.35779  -7.61393
 Alpha  occ. eigenvalues --   -1.37395  -1.22989  -1.09411  -1.07235  -1.00107
 Alpha  occ. eigenvalues --   -0.93756  -0.86086  -0.83553  -0.74259  -0.70929
 Alpha  occ. eigenvalues --   -0.63815  -0.60721  -0.60225  -0.58279  -0.57911
 Alpha  occ. eigenvalues --   -0.54651  -0.51814  -0.51256  -0.49985  -0.48823
 Alpha  occ. eigenvalues --   -0.44763  -0.43341  -0.41010  -0.37959  -0.33054
 Alpha  occ. eigenvalues --   -0.31296
 Alpha virt. eigenvalues --    0.03383   0.04162   0.04409   0.05079   0.05389
 Alpha virt. eigenvalues --    0.05438   0.05944   0.06277   0.07212   0.07413
 Alpha virt. eigenvalues --    0.07660   0.08911   0.09149   0.09693   0.10616

 Mulliken charges:
               1
     1  C    5.717794
     2  C   -2.165234
     3  C   -2.426101
     4  C   -3.528523
     5  C   -2.819883
     6  C   -2.116768
     7  B    9.118134
     8  H    1.523968
     9  H    1.550047
    10  H    1.495647
    11  H    1.870695
    12  H    1.754010
    13  C    0.588186
    14  C   -5.024059
    15  H    1.335966
    16  H    1.291467
    17  H    1.148990
    18  C   -4.874374
    19  H    1.320986
    20  H    1.226898
    21  H    1.237501
    22  H   -4.146685
    23  H   -4.078661
 Sum of Mulliken charges =  -0.00000

 Dipole moment (field-independent basis, Debye):
    X=             -0.5137    Y=              0.0907    Z=             -0.8508  Tot=              0.9980

 Test job not archived.
 1\1\GINC-SE125\SP\RHF\Aug-CC-pVDZ\C9H13B1\OHZDE\09-Apr-2025\0\\#t hf a
 ug-cc-pvdz iop(5/13=1,5/36=2,99/5=2) pseudo=read geom=check guess=(rea
 d,tcheck) scf=(maxcycle=1)\\title\\0,1\C,0,0.017198,0.003389,-0.017814
 \C,0,-0.711059,1.207938,-0.036745\C,0,-2.10079,1.212008,-0.088387\C,0,
 -2.809209,0.012657,-0.102465\C,0,-2.11178,-1.191087,-0.059226\C,0,-0.7
 20984,-1.19577,-0.0109\B,0,1.483752,-0.172637,1.633805\H,0,-2.631545,2
 .157161,-0.117358\H,0,-3.892534,0.017051,-0.143054\H,0,-2.649571,-2.13
 2604,-0.063191\H,0,-0.204154,-2.145527,0.021959\H,0,-0.187694,2.154317

 Normal termination of Gaussian 16 at Wed Apr  9 00:33:24 2025.
