 Gaussian 16, Revision C.01,

 ----------------------------------------------------------------------
 #t hf aug-cc-pvdz symm=none int=(grid=ultrafine) guess=(read,tcheck) s
 table=(opt,rrhf)
 ----------------------------------------------------------------------
 -----
 title
 -----
 Symbolic Z-matrix:
 Charge =  0 Multiplicity = 1

 SCF Done:  E(RHF) =  -706.730870866     A.U. after   15 cycles
 Normal termination of Gaussian 16 at Wed Apr  9 00:52:24 2025.
 Gaussian 16:  ES64L-G16RevC.01  3-Jul-2019

 ----------------------------------------------------------------------
 #t hf aug-cc-pvdz iop(5/13=1,5/36=2,99/5=2) pseudo=read geom=check gue
 ss=(read,tcheck) scf=(maxcycle=1)
 ----------------------------------------------------------------------
 -----
 title
 -----
 Structure from the checkpoint file:  "BDE49_nonexpt_940_mol1.chk"
 Charge =  0 Multiplicity = 1

                         Standard orientation:
 ---------------------------------------------------------------------
 Center     Atomic      Atomic             Coordinates (Angstroms)
 Number     Number       Type             X           Y           Z
 ---------------------------------------------------------------------
      1         17           0       -0.810837   -2.051651   -0.000000
      2          7           0        0.401361   -0.672380   -0.000000
      3          6           0        0.294731    0.064338    1.198988
      4          6           0        0.294731    1.398575    1.236556
      5          6           0        0.326747    2.251117    0.000000
      6          6           0        0.294731    1.398575   -1.236556
      7          6           0        0.294731    0.064338   -1.198988
      8          1           0        0.291112   -0.547094    2.091480
      9          1           0        0.322775    1.885941    2.204753
     10          1           0        0.322775    1.885941   -2.204753
     11          1           0        0.291112   -0.547094   -2.091480
     12          1           0        1.226685    2.884488    0.000000
     13          1           0       -0.513771    2.960893    0.000000
 ---------------------------------------------------------------------

 SCF Done:  E(RHF) =  -708.159771281     A.U. after    2 cycles

 The electronic state is 1-A'.
 Alpha  occ. eigenvalues --  -99.90607 -15.80047 -11.49012 -11.45224 -11.43073
 Alpha  occ. eigenvalues --  -11.39908 -11.37818 -10.47561  -9.67460  -9.66810
 Alpha  occ. eigenvalues --   -9.66576  -1.49652  -1.27601  -1.16711  -1.12851
 Alpha  occ. eigenvalues --   -0.93520  -0.88383  -0.73717  -0.68805  -0.62272
 Alpha  occ. eigenvalues --   -0.62186  -0.59906  -0.58846  -0.57874  -0.50991
 Alpha  occ. eigenvalues --   -0.50177  -0.45035  -0.44551  -0.37559  -0.29123
 Alpha virt. eigenvalues --    0.02711   0.04756   0.05161   0.05658   0.05841
 Alpha virt. eigenvalues --    0.06222   0.06572   0.09560   0.11068   0.11402
 Alpha virt. eigenvalues --    0.11982   0.12838   0.13970   0.14302   0.15320

 Mulliken charges:
               1
     1  Cl   0.080340
     2  N   -2.935980
     3  C   -1.246953
     4  C    0.319606
     5  C   -3.576689
     6  C    0.319606
     7  C   -1.246953
     8  H    1.489669
     9  H    1.365237
    10  H    1.365237
    11  H    1.489669
    12  H    1.280980
    13  H    1.296230
 Sum of Mulliken charges =   0.00000

 Dipole moment (field-independent basis, Debye):
    X=              0.9024    Y=              2.8391    Z=              0.0000  Tot=              2.9790

 Test job not archived.
 1\1\GINC-SE073\SP\RHF\Aug-CC-pVDZ\C5H6Cl1N1\OHZDE\09-Apr-2025\0\\#t hf
  aug-cc-pvdz iop(5/13=1,5/36=2,99/5=2) pseudo=read geom=check guess=(r
 ead,tcheck) scf=(maxcycle=1)\\title\\0,1\Cl,0,-0.810837,-2.051651,0.\N
 ,0,0.401361,-0.67238,0.\C,0,0.294731,0.064338,1.198988\C,0,0.294731,1.
 398575,1.236556\C,0,0.326747,2.251117,0.\C,0,0.294731,1.398575,-1.2365
 56\C,0,0.294731,0.064338,-1.198988\H,0,0.291112,-0.547094,2.09148\H,0,
 0.322775,1.885941,2.204753\H,0,0.322775,1.885941,-2.204753\H,0,0.29111
 2,-0.547094,-2.09148\H,0,1.226685,2.884488,0.\H,0,-0.513771,2.960893,0

 Normal termination of Gaussian 16 at Wed Apr  9 00:52:28 2025.
