 Gaussian 16, Revision C.01,

 ----------------------------------------------------------------------
 #t hf aug-cc-pvdz symm=none int=(grid=ultrafine) guess=(read,tcheck) s
 table=(opt,rrhf)
 ----------------------------------------------------------------------
 -----
 title
 -----
 Symbolic Z-matrix:
 Charge =  0 Multiplicity = 1

 SCF Done:  E(RHF) =  -1255.35989117     A.U. after   16 cycles
 Normal termination of Gaussian 16 at Tue Apr  8 23:06:48 2025.
 Gaussian 16:  ES64L-G16RevC.01  3-Jul-2019

 ----------------------------------------------------------------------
 #t hf aug-cc-pvdz iop(5/13=1,5/36=2,99/5=2) pseudo=read geom=check gue
 ss=(read,tcheck) scf=(maxcycle=1)
 ----------------------------------------------------------------------
 -----
 title
 -----
 Structure from the checkpoint file:  "BDE49_expt_1961_mol1.chk"
 Charge =  0 Multiplicity = 1

                         Standard orientation:
 ---------------------------------------------------------------------
 Center     Atomic      Atomic             Coordinates (Angstroms)
 Number     Number       Type             X           Y           Z
 ---------------------------------------------------------------------
      1         16           0        0.685382   -1.704002    0.804303
      2         16           0       -0.685382   -1.704002   -0.804303
      3          6           0       -1.837114   -0.392934   -0.398180
      4          6           0       -1.700950    0.857566   -1.009649
      5          6           0       -2.900279   -0.626442    0.481018
      6          6           0       -3.813313    0.387956    0.751299
      7          6           0       -2.622382    1.867495   -0.739704
      8          6           0       -3.676284    1.635030    0.141169
      9          1           0       -4.392223    2.421914    0.350112
     10          1           0       -4.635837    0.203868    1.433246
     11          1           0       -3.004063   -1.599475    0.945451
     12          1           0       -0.877492    1.030572   -1.691518
     13          1           0       -2.514787    2.835115   -1.216800
     14          6           0        1.837114   -0.392934    0.398180
     15          6           0        2.900279   -0.626442   -0.481018
     16          6           0        3.813313    0.387956   -0.751300
     17          6           0        3.676284    1.635030   -0.141169
     18          6           0        2.622382    1.867495    0.739704
     19          6           0        1.700950    0.857566    1.009649
     20          1           0        0.877492    1.030572    1.691518
     21          1           0        4.392223    2.421914   -0.350112
     22          1           0        2.514787    2.835115    1.216800
     23          1           0        3.004063   -1.599475   -0.945451
     24          1           0        4.635836    0.203868   -1.433246
 ---------------------------------------------------------------------

 SCF Done:  E(RHF) =  -1258.02184827     A.U. after    2 cycles

 The electronic state is 1-A.
 Alpha  occ. eigenvalues --  -75.70731 -75.70714 -13.21383 -13.18708 -13.11790
 Alpha  occ. eigenvalues --  -13.10510 -13.09223 -13.08657 -11.52531 -11.51739
 Alpha  occ. eigenvalues --  -11.44466 -11.44373 -11.43853 -11.43770 -11.42006
 Alpha  occ. eigenvalues --  -11.41999 -11.41345 -11.41222 -11.37204 -11.37184
 Alpha  occ. eigenvalues --   -8.04591  -8.04496  -1.37273  -1.35014  -1.21233
 Alpha  occ. eigenvalues --   -1.13250  -1.09949  -1.09772  -1.05993  -0.97401
 Alpha  occ. eigenvalues --   -0.87156  -0.87153  -0.84776  -0.82603  -0.71626
 Alpha  occ. eigenvalues --   -0.71043  -0.64830  -0.64086  -0.59047  -0.59027
 Alpha  occ. eigenvalues --   -0.58038  -0.58031  -0.55590  -0.53383  -0.52489
 Alpha  occ. eigenvalues --   -0.51588  -0.45919  -0.45819  -0.42965  -0.40837
 Alpha  occ. eigenvalues --   -0.40792  -0.34744  -0.34042  -0.33305  -0.28493
 Alpha  occ. eigenvalues --   -0.25501  -0.23133
 Alpha virt. eigenvalues --    0.03042   0.04059   0.04929   0.04930   0.05387
 Alpha virt. eigenvalues --    0.05444   0.06079   0.06196   0.06625   0.06931
 Alpha virt. eigenvalues --    0.08360   0.09239   0.09721   0.10463   0.10927

 Mulliken charges:
               1
     1  S   -0.341488
     2  S   -0.341488
     3  C    4.144684
     4  C   -3.677419
     5  C   -4.483905
     6  C   -0.771803
     7  C   -0.858586
     8  C   -2.473280
     9  H    1.538162
    10  H    1.577708
    11  H    1.837171
    12  H    1.941199
    13  H    1.567556
    14  C    4.144684
    15  C   -4.483888
    16  C   -0.771839
    17  C   -2.473271
    18  C   -0.858591
    19  C   -3.677407
    20  H    1.941200
    21  H    1.538162
    22  H    1.567556
    23  H    1.837171
    24  H    1.577710
 Sum of Mulliken charges =  -0.00000

 Dipole moment (field-independent basis, Debye):
    X=              0.0000    Y=              0.4334    Z=             -0.0000  Tot=              0.4334

 Test job not archived.
 1\1\GINC-SE435\SP\RHF\Aug-CC-pVDZ\C12H10S2\OHZDE\08-Apr-2025\0\\#t hf
 aug-cc-pvdz iop(5/13=1,5/36=2,99/5=2) pseudo=read geom=check guess=(re
 ad,tcheck) scf=(maxcycle=1)\\title\\0,1\S,0,0.685382,-1.704002,0.80430
 3\S,0,-0.685382,-1.704002,-0.804303\C,0,-1.837114,-0.392934,-0.39818\C
 ,0,-1.70095,0.857566,-1.009649\C,0,-2.900279,-0.626442,0.481018\C,0,-3
 .813313,0.387956,0.751299\C,0,-2.622382,1.867495,-0.739704\C,0,-3.6762
 84,1.63503,0.141169\H,0,-4.392223,2.421914,0.350112\H,0,-4.635837,0.20
 3868,1.433246\H,0,-3.004063,-1.599475,0.945451\H,0,-0.877492,1.030572,

 Normal termination of Gaussian 16 at Tue Apr  8 23:07:09 2025.
