 Gaussian 16, Revision C.01,

 ----------------------------------------------------------------------
 #t hf aug-cc-pvdz symm=none int=(grid=ultrafine) guess=(read,tcheck) s
 table=(opt,rrhf)
 ----------------------------------------------------------------------
 -----
 title
 -----
 Symbolic Z-matrix:
 Charge =  0 Multiplicity = 1

 SCF Done:  E(RHF) =  -1127.16177221     A.U. after   13 cycles

 1\1\GINC-SE284\Stability\RHF\Aug-CC-pVDZ\F5P1Si1\OHZDE\08-Apr-2025\0\\
 #t hf aug-cc-pvdz symm=none int=(grid=ultrafine) guess=(read,tcheck) s
 table=(opt,rrhf)\\title\\0,1\Si,0,-0.897085,0.,0.000594\P,0,1.337253,0
 .,-0.619763\F,0,-1.605255,-1.282209,-0.608601\F,0,-1.130331,0.,1.56596
 6\F,0,-1.605255,1.282209,-0.608602\F,0,1.753775,1.236469,0.341625\F,0,
 1.753775,-1.236469,0.341625\\Version=ES64L-G16RevC.01\HF=-1127.1617722
 \RMSD=3.876e-09\Dipole=0.1825353,-0.0000002,-0.5340746\Quadrupole=-0.3
 008627,-0.4326712,0.7335339,0.0000008,-1.2530186,0.0000019\PG=Unknown\

 Normal termination of Gaussian 16 at Tue Apr  8 23:42:17 2025.
 Gaussian 16:  ES64L-G16RevC.01  3-Jul-2019

 ----------------------------------------------------------------------
 #t hf aug-cc-pvdz iop(5/13=1,5/36=2,99/5=2) pseudo=read geom=check gue
 ss=(read,tcheck) scf=(maxcycle=1)
 ----------------------------------------------------------------------
 -----
 title
 -----
 Structure from the checkpoint file:  "BDE49_nonexpt_1659_mol1.chk"
 Charge =  0 Multiplicity = 1

                         Standard orientation:
 ---------------------------------------------------------------------
 Center     Atomic      Atomic             Coordinates (Angstroms)
 Number     Number       Type             X           Y           Z
 ---------------------------------------------------------------------
      1         14           0        0.897085    0.000000    0.000594
      2         15           0       -1.337253    0.000000   -0.619763
      3          9           0        1.605255    1.282209   -0.608601
      4          9           0        1.130331    0.000000    1.565966
      5          9           0        1.605255   -1.282209   -0.608602
      6          9           0       -1.753775   -1.236469    0.341625
      7          9           0       -1.753775    1.236469    0.341625
 ---------------------------------------------------------------------

 SCF Done:  E(RHF) =  -1129.18655889     A.U. after    2 cycles

 The electronic state is 1-A.
 Alpha  occ. eigenvalues -- -105.32460 -76.34570 -29.31856 -29.31851 -29.31790
 Alpha  occ. eigenvalues --  -29.31782 -29.31778  -5.71358  -2.91693  -2.35486
 Alpha  occ. eigenvalues --   -2.35391  -2.30754  -1.65833  -1.61364  -1.54811
 Alpha  occ. eigenvalues --   -1.02221  -0.91329  -0.74484  -0.74431  -0.59559
 Alpha  occ. eigenvalues --   -0.51004  -0.45919  -0.45072  -0.44931  -0.43709
 Alpha  occ. eigenvalues --   -0.41961  -0.40293  -0.40085  -0.36460  -0.36453
 Alpha  occ. eigenvalues --   -0.32647  -0.32522  -0.31483  -0.30641  -0.22043
 Alpha  occ. eigenvalues --   -0.14192  -0.01548
 Alpha virt. eigenvalues --    0.07439   0.08198   0.08337   0.08402   0.10765
 Alpha virt. eigenvalues --    0.12460   0.14266   0.18946   0.19761   0.21481
 Alpha virt. eigenvalues --    0.22382   0.23166   0.24052   0.25293   0.25371

 Mulliken charges:
               1
     1  Si   2.410157
     2  P    0.839989
     3  F   -0.749347
     4  F   -0.871446
     5  F   -0.749347
     6  F   -0.440003
     7  F   -0.440003
 Sum of Mulliken charges =  -0.00000

 Dipole moment (field-independent basis, Debye):
    X=             -0.4073    Y=              0.0000    Z=              6.8560  Tot=              6.8681

 Test job not archived.
 1\1\GINC-SE284\SP\RHF\Aug-CC-pVDZ\F5P1Si1\OHZDE\08-Apr-2025\0\\#t hf a
 ug-cc-pvdz iop(5/13=1,5/36=2,99/5=2) pseudo=read geom=check guess=(rea
 d,tcheck) scf=(maxcycle=1)\\title\\0,1\Si,0,-0.897085,0.,0.000594\P,0,
 1.337253,0.,-0.619763\F,0,-1.605255,-1.282209,-0.608601\F,0,-1.130331,
 0.,1.565966\F,0,-1.605255,1.282209,-0.608602\F,0,1.753775,1.236469,0.3
 41625\F,0,1.753775,-1.236469,0.341625\\Version=ES64L-G16RevC.01\State=
 1-A\HF=-1129.1865589\RMSD=8.733e-02\Dipole=0.1602284,-0.0000002,2.6973
 644\Quadrupole=3.4104382,6.1737355,-9.5841737,0.0000013,9.3001951,-0.0

 Normal termination of Gaussian 16 at Tue Apr  8 23:42:19 2025.
