 Gaussian 16, Revision C.01,

 ----------------------------------------------------------------------
 #t hf aug-cc-pvdz symm=none int=(grid=ultrafine) guess=(read,tcheck) s
 table=(opt,rrhf)
 ----------------------------------------------------------------------
 -----
 title
 -----
 Symbolic Z-matrix:
 Charge =  0 Multiplicity = 1

 SCF Done:  E(RHF) =  -1380.49677906     A.U. after   18 cycles
 Normal termination of Gaussian 16 at Tue Apr  8 23:31:03 2025.
 Gaussian 16:  ES64L-G16RevC.01  3-Jul-2019

 ----------------------------------------------------------------------
 #t hf aug-cc-pvdz iop(5/13=1,5/36=2,99/5=2) pseudo=read geom=check gue
 ss=(read,tcheck) scf=(maxcycle=1)
 ----------------------------------------------------------------------
 -----
 title
 -----
 Structure from the checkpoint file:  "BDE49_nonexpt_1265_mol1.chk"
 Charge =  0 Multiplicity = 1

                         Standard orientation:
 ---------------------------------------------------------------------
 Center     Atomic      Atomic             Coordinates (Angstroms)
 Number     Number       Type             X           Y           Z
 ---------------------------------------------------------------------
      1          6           0       -0.859672   -0.427732   -0.286886
      2          6           0       -1.834435   -0.140328   -1.249408
      3          1           0       -1.563533   -0.107307   -2.298794
      4          6           0       -3.150798    0.103822   -0.862744
      5          1           0       -3.900547    0.326291   -1.613153
      6          6           0       -3.500189    0.051686    0.483452
      7          1           0       -4.525052    0.236468    0.784729
      8          6           0       -2.533555   -0.240725    1.447019
      9          1           0       -2.806062   -0.280020    2.495386
     10          6           0       -1.217875   -0.475893    1.067216
     11          1           0       -0.471993   -0.706123    1.818917
     12         15           0        0.844636   -0.720683   -0.904168
     13         17           0        1.404762   -2.478354    0.082953
     14          6           0        1.768886    0.498750    0.229498
     15          8           0        2.621740    0.197612    1.017562
     16          6           0        1.441221    1.993391    0.010314
     17          9           0        0.861717    2.174821   -1.214576
     18          9           0        0.551878    2.392103    0.960547
     19          1           0        2.338915    2.611923    0.080234
 ---------------------------------------------------------------------

 SCF Done:  E(RHF) =  -1383.34510490     A.U. after    2 cycles

 The electronic state is 1-A.
 Alpha  occ. eigenvalues -- -105.24825 -99.89270 -29.30991 -29.30593 -21.10607
 Alpha  occ. eigenvalues --  -11.56314 -11.53475 -11.50149 -11.45368 -11.45028
 Alpha  occ. eigenvalues --  -11.43106 -11.42478 -11.38374 -10.46560  -9.66490
 Alpha  occ. eigenvalues --   -9.65810  -9.65791  -2.82744  -1.75695  -1.57303
 Alpha  occ. eigenvalues --   -1.53025  -1.52442  -1.34770  -1.31671  -1.23083
 Alpha  occ. eigenvalues --   -1.11165  -1.09646  -0.90085  -0.88308  -0.85581
 Alpha  occ. eigenvalues --   -0.82568  -0.77988  -0.74742  -0.70874  -0.64559
 Alpha  occ. eigenvalues --   -0.60349  -0.59828  -0.58794  -0.54145  -0.53679
 Alpha  occ. eigenvalues --   -0.52494  -0.51474  -0.49279  -0.47333  -0.46669
 Alpha  occ. eigenvalues --   -0.45624  -0.40522  -0.38046  -0.36487  -0.34924
 Alpha  occ. eigenvalues --   -0.32976  -0.31601  -0.30227  -0.24336  -0.19219
 Alpha  occ. eigenvalues --   -0.05007
 Alpha virt. eigenvalues --    0.03689   0.04877   0.05031   0.05331   0.06668
 Alpha virt. eigenvalues --    0.07667   0.08241   0.08754   0.09221   0.10198
 Alpha virt. eigenvalues --    0.10772   0.10841   0.11123   0.12042   0.12465

 Mulliken charges:
               1
     1  C    2.306176
     2  C   -4.902815
     3  H    2.127588
     4  C   -1.149725
     5  H    1.534788
     6  C   -2.281574
     7  H    1.506983
     8  C   -0.275155
     9  H    1.539932
    10  C   -2.995572
    11  H    1.664663
    12  P    4.509181
    13  Cl  -1.433003
    14  C    0.117963
    15  O   -3.092653
    16  C   -1.273442
    17  F    0.188570
    18  F    0.187894
    19  H    1.720201
 Sum of Mulliken charges =   0.00000

 Dipole moment (field-independent basis, Debye):
    X=             -4.5385    Y=              2.8196    Z=             -3.4537  Tot=              6.3621

 Test job not archived.
 1\1\GINC-SE054\SP\RHF\Aug-CC-pVDZ\C8H6Cl1F2O1P1\OHZDE\08-Apr-2025\0\\#
 t hf aug-cc-pvdz iop(5/13=1,5/36=2,99/5=2) pseudo=read geom=check gues
 s=(read,tcheck) scf=(maxcycle=1)\\title\\0,1\C,0,-0.859672,-0.427732,-
 0.286886\C,0,-1.834435,-0.140328,-1.249408\H,0,-1.563533,-0.107307,-2.
 298794\C,0,-3.150798,0.103822,-0.862744\H,0,-3.900547,0.326291,-1.6131
 53\C,0,-3.500189,0.051686,0.483452\H,0,-4.525052,0.236467,0.784729\C,0
 ,-2.533555,-0.240725,1.447019\H,0,-2.806062,-0.28002,2.495386\C,0,-1.2
 17875,-0.475893,1.067216\H,0,-0.471993,-0.706123,1.818917\P,0,0.844636

 Normal termination of Gaussian 16 at Tue Apr  8 23:31:18 2025.
