 Gaussian 16, Revision C.01,

 ----------------------------------------------------------------------
 #t hf aug-cc-pvdz symm=none int=(grid=ultrafine) guess=(read,tcheck) s
 table=(opt,rrhf)
 ----------------------------------------------------------------------
 -----
 title
 -----
 Symbolic Z-matrix:
 Charge =  0 Multiplicity = 1

 SCF Done:  E(RHF) =  -462.209416101     A.U. after   12 cycles
 Normal termination of Gaussian 16 at Tue Apr  8 23:58:37 2025.
 Gaussian 16:  ES64L-G16RevC.01  3-Jul-2019

 ----------------------------------------------------------------------
 #t hf aug-cc-pvdz iop(5/13=1,5/36=2,99/5=2) pseudo=read geom=check gue
 ss=(read,tcheck) scf=(maxcycle=1)
 ----------------------------------------------------------------------
 -----
 title
 -----
 Structure from the checkpoint file:  "BDE49_nonexpt_2061_mol1.chk"
 Charge =  0 Multiplicity = 1

                         Standard orientation:
 ---------------------------------------------------------------------
 Center     Atomic      Atomic             Coordinates (Angstroms)
 Number     Number       Type             X           Y           Z
 ---------------------------------------------------------------------
      1         14           0        1.790405   -0.346397   -0.000001
      2          6           0       -0.036133    0.161646   -0.000000
      3          7           0       -0.867499   -0.807828    0.000001
      4          6           0       -2.304538   -0.572841    0.000002
      5          1           0       -2.731975   -1.069438    0.876546
      6          1           0       -2.731980   -1.069457   -0.876528
      7          1           0       -2.620705    0.476553   -0.000008
      8          6           0       -0.383487    1.647906   -0.000001
      9          1           0        0.518780    2.262726   -0.000002
     10          1           0       -0.969410    1.919413    0.883484
     11          1           0       -0.969411    1.919412   -0.883486
     12          1           0        1.927057   -1.815467   -0.000000
     13          1           0        2.464709    0.230176    1.192020
     14          1           0        2.464707    0.230174   -1.192024
 ---------------------------------------------------------------------

 SCF Done:  E(RHF) =  -463.225702336     A.U. after    2 cycles

 The electronic state is 1-A.
 Alpha  occ. eigenvalues --  -76.21102 -15.73137 -11.42924 -11.38208 -11.37484
 Alpha  occ. eigenvalues --   -5.54662  -2.18784  -2.17327  -2.16630  -1.38023
 Alpha  occ. eigenvalues --   -1.09693  -0.99501  -0.80443  -0.70259  -0.62210
 Alpha  occ. eigenvalues --   -0.60239  -0.58341  -0.56548  -0.54471  -0.47331
 Alpha  occ. eigenvalues --   -0.46565  -0.44087  -0.38327  -0.32660
 Alpha virt. eigenvalues --    0.03235   0.05044   0.05792   0.06135   0.06212
 Alpha virt. eigenvalues --    0.06544   0.06899   0.07119   0.08026   0.08846
 Alpha virt. eigenvalues --    0.10224   0.10951   0.12780   0.13086   0.13133

 Mulliken charges:
               1
     1  Si   6.346349
     2  C    1.128286
     3  N   -2.962103
     4  C   -3.328567
     5  H    1.362336
     6  H    1.362335
     7  H    1.502276
     8  C   -3.958166
     9  H    1.345734
    10  H    1.225963
    11  H    1.225962
    12  H   -1.719136
    13  H   -1.765634
    14  H   -1.765635
 Sum of Mulliken charges =  -0.00000

 Dipole moment (field-independent basis, Debye):
    X=             -1.2497    Y=              1.2261    Z=              0.0000  Tot=              1.7508

 Test job not archived.
 1\1\GINC-SE070\SP\RHF\Aug-CC-pVDZ\C3H9N1Si1\OHZDE\08-Apr-2025\0\\#t hf
  aug-cc-pvdz iop(5/13=1,5/36=2,99/5=2) pseudo=read geom=check guess=(r
 ead,tcheck) scf=(maxcycle=1)\\title\\0,1\Si,0,1.790405,-0.346397,-0.00
 0001\C,0,-0.036133,0.161646,0.\N,0,-0.867499,-0.807828,0.000001\C,0,-2
 .304538,-0.572841,0.000002\H,0,-2.731975,-1.069438,0.876546\H,0,-2.731
 98,-1.069457,-0.876528\H,0,-2.620705,0.476553,-0.000008\C,0,-0.383487,
 1.647906,-0.000001\H,0,0.51878,2.262726,-0.000002\H,0,-0.96941,1.91941
 3,0.883484\H,0,-0.969411,1.919412,-0.883486\H,0,1.927057,-1.815467,0.\

 Normal termination of Gaussian 16 at Tue Apr  8 23:58:41 2025.
