 Gaussian 16, Revision C.01,

 ----------------------------------------------------------------------
 #t hf aug-cc-pvdz symm=none int=(grid=ultrafine) guess=(read,tcheck) s
 table=(opt,rrhf)
 ----------------------------------------------------------------------
 -----
 title
 -----
 Symbolic Z-matrix:
 Charge =  0 Multiplicity = 1

 SCF Done:  E(RHF) =  -1574.45370105     A.U. after   13 cycles
 Normal termination of Gaussian 16 at Tue Apr  8 23:54:41 2025.
 Gaussian 16:  ES64L-G16RevC.01  3-Jul-2019

 ----------------------------------------------------------------------
 #t hf aug-cc-pvdz iop(5/13=1,5/36=2,99/5=2) pseudo=read geom=check gue
 ss=(read,tcheck) scf=(maxcycle=1)
 ----------------------------------------------------------------------
 -----
 title
 -----
 Structure from the checkpoint file:  "BDE49_nonexpt_1933_mol1.chk"
 Charge =  0 Multiplicity = 1

                         Standard orientation:
 ---------------------------------------------------------------------
 Center     Atomic      Atomic             Coordinates (Angstroms)
 Number     Number       Type             X           Y           Z
 ---------------------------------------------------------------------
      1          6           0       -1.165176    1.420280   -0.371595
      2         14           0        0.667502    1.665417    0.064985
      3         16           0        1.800026   -0.271262   -0.105199
      4          1           0        0.844085    2.138100    1.446446
      5          1           0        1.304863    2.542435   -0.932525
      6          8           0        1.116488   -1.090321   -1.109160
      7          8           0        1.634048   -0.981102    1.326738
      8          8           0        3.202277   -0.001754   -0.251846
      9         16           0       -1.879202   -0.167591    0.099637
     10          8           0       -1.105194   -0.652223    1.234429
     11          8           0       -3.298367   -0.046283    0.199674
     12          8           0       -1.575025   -1.077645   -1.162517
     13          1           0        0.679450   -1.165799    1.464962
     14          1           0       -0.600479   -1.258691   -1.211131
     15          1           0       -1.361880    1.556445   -1.435727
     16          1           0       -1.747012    2.166266    0.178208
 ---------------------------------------------------------------------

 SCF Done:  E(RHF) =  -1577.19555062     A.U. after    2 cycles

 The electronic state is 1-A.
 Alpha  occ. eigenvalues --  -76.30915 -75.95035 -75.93031 -21.13981 -21.13866
 Alpha  occ. eigenvalues --  -21.08842 -21.08347 -21.08310 -21.07823 -13.58223
 Alpha  occ. eigenvalues --  -13.55782 -13.49992 -13.46204 -13.39796 -13.37798
 Alpha  occ. eigenvalues --  -11.45528  -8.30214  -8.28097  -5.64370  -2.28050
 Alpha  occ. eigenvalues --   -2.26649  -2.26615  -1.93551  -1.91623  -1.75075
 Alpha  occ. eigenvalues --   -1.73402  -1.69631  -1.68699  -1.18170  -0.99691
 Alpha  occ. eigenvalues --   -0.94727  -0.80856  -0.73205  -0.70842  -0.68016
 Alpha  occ. eigenvalues --   -0.63554  -0.61523  -0.60272  -0.57529  -0.55474
 Alpha  occ. eigenvalues --   -0.53790  -0.48522  -0.47003  -0.45894  -0.45526
 Alpha  occ. eigenvalues --   -0.43817  -0.43039  -0.40929  -0.40552  -0.40023
 Alpha  occ. eigenvalues --   -0.38820  -0.37763  -0.35057
 Alpha virt. eigenvalues --    0.01481   0.03523   0.04139   0.05115   0.06700
 Alpha virt. eigenvalues --    0.06985   0.07298   0.07675   0.08936   0.09814
 Alpha virt. eigenvalues --    0.10737   0.11157   0.11816   0.12036   0.12453

 Mulliken charges:
               1
     1  C   -4.723821
     2  Si   5.694445
     3  S    5.661320
     4  H   -1.802905
     5  H   -1.812180
     6  O   -2.666442
     7  O   -2.936097
     8  O   -2.535924
     9  S    7.642186
    10  O   -2.779850
    11  O   -2.592733
    12  O   -3.113651
    13  H    1.412645
    14  H    1.553586
    15  H    1.600830
    16  H    1.398587
 Sum of Mulliken charges =   0.00000

 Dipole moment (field-independent basis, Debye):
    X=             -0.5147    Y=              1.4013    Z=             -0.1432  Tot=              1.4997

 Test job not archived.
 1\1\GINC-SE080\SP\RHF\Aug-CC-pVDZ\C1H6O6S2Si1\OHZDE\08-Apr-2025\0\\#t
 hf aug-cc-pvdz iop(5/13=1,5/36=2,99/5=2) pseudo=read geom=check guess=
 (read,tcheck) scf=(maxcycle=1)\\title\\0,1\C,0,-1.165176,1.42028,-0.37
 1595\Si,0,0.667502,1.665417,0.064985\S,0,1.800026,-0.271262,-0.105199\
 H,0,0.844085,2.1381,1.446446\H,0,1.304863,2.542435,-0.932525\O,0,1.116
 488,-1.090321,-1.10916\O,0,1.634048,-0.981102,1.326738\O,0,3.202277,-0
 .001754,-0.251846\S,0,-1.879202,-0.167591,0.099637\O,0,-1.105194,-0.65
 2223,1.234429\O,0,-3.298367,-0.046283,0.199674\O,0,-1.575025,-1.077645

 Normal termination of Gaussian 16 at Tue Apr  8 23:54:51 2025.
