 Gaussian 16, Revision C.01,

 ----------------------------------------------------------------------
 #t hf aug-cc-pvdz symm=none int=(grid=ultrafine) guess=(read,tcheck) s
 table=(opt,rrhf)
 ----------------------------------------------------------------------
 -----
 title
 -----
 Symbolic Z-matrix:
 Charge =  0 Multiplicity = 1

 SCF Done:  E(RHF) =  -636.127703283     A.U. after   13 cycles
 Normal termination of Gaussian 16 at Wed Apr  9 00:09:07 2025.
 Gaussian 16:  ES64L-G16RevC.01  3-Jul-2019

 ----------------------------------------------------------------------
 #t hf aug-cc-pvdz iop(5/13=1,5/36=2,99/5=2) pseudo=read geom=check gue
 ss=(read,tcheck) scf=(maxcycle=1)
 ----------------------------------------------------------------------
 -----
 title
 -----
 Structure from the checkpoint file:  "BDE49_nonexpt_2249_mol1.chk"
 Charge =  0 Multiplicity = 1

                         Standard orientation:
 ---------------------------------------------------------------------
 Center     Atomic      Atomic             Coordinates (Angstroms)
 Number     Number       Type             X           Y           Z
 ---------------------------------------------------------------------
      1         14           0       -2.192119   -0.854132    0.128560
      2          8           0       -2.715966    0.659720    0.671792
      3          8           0       -2.737950    1.535535   -0.507243
      4          1           0       -3.659286    1.826230   -0.475021
      5          6           0       -0.486428   -0.796264   -0.635472
      6          6           0        0.619641   -0.248196    0.285242
      7          1           0       -0.547658   -0.196902   -1.551489
      8          1           0       -0.240954   -1.817519   -0.959494
      9          6           0        2.003973   -0.223636   -0.374944
     10          1           0        0.669564   -0.851439    1.200252
     11          1           0        0.354800    0.765666    0.605195
     12          6           0        3.107569    0.324614    0.536769
     13          1           0        1.955235    0.381379   -1.289479
     14          1           0        2.269864   -1.239303   -0.696180
     15          6           0        4.486209    0.349033   -0.129524
     16          1           0        3.154295   -0.280385    1.450421
     17          1           0        2.838684    1.338186    0.857566
     18          1           0        4.798100   -0.656022   -0.430636
     19          1           0        5.249630    0.744682    0.545926
     20          1           0        4.480488    0.975285   -1.027141
     21          1           0       -3.174706   -1.406737   -0.833925
     22          1           0       -2.212855   -1.620622    1.395356
 ---------------------------------------------------------------------

 SCF Done:  E(RHF) =  -637.926248097     A.U. after    2 cycles

 The electronic state is 1-A.
 Alpha  occ. eigenvalues --  -76.22846 -21.12558 -21.08368 -11.42105 -11.40854
 Alpha  occ. eigenvalues --  -11.37711 -11.35765 -11.33763  -5.56656  -2.23246
 Alpha  occ. eigenvalues --   -2.19946  -2.18698  -1.89973  -1.40165  -1.25382
 Alpha  occ. eigenvalues --   -1.12156  -0.98661  -0.87245  -0.82053  -0.72073
 Alpha  occ. eigenvalues --   -0.65698  -0.62911  -0.59663  -0.58365  -0.55551
 Alpha  occ. eigenvalues --   -0.53426  -0.51963  -0.50256  -0.48817  -0.47119
 Alpha  occ. eigenvalues --   -0.46474  -0.45018  -0.44483  -0.43702  -0.38803
 Alpha  occ. eigenvalues --   -0.33947  -0.30082
 Alpha virt. eigenvalues --    0.04023   0.04827   0.05208   0.05662   0.05704
 Alpha virt. eigenvalues --    0.05958   0.06227   0.06659   0.06881   0.07524
 Alpha virt. eigenvalues --    0.08023   0.08710   0.09286   0.10123   0.10874

 Mulliken charges:
               1
     1  Si   6.372162
     2  O   -1.496591
     3  O   -1.253344
     4  H    1.033973
     5  C   -4.620487
     6  C   -2.407156
     7  H    1.513814
     8  H    1.480901
     9  C   -2.221358
    10  H    1.584789
    11  H    1.665249
    12  C   -3.001397
    13  H    1.503531
    14  H    1.519821
    15  C   -4.458685
    16  H    1.441374
    17  H    1.462507
    18  H    1.320563
    19  H    1.072029
    20  H    1.330298
    21  H   -2.016162
    22  H   -1.825831
 Sum of Mulliken charges =  -0.00000

 Dipole moment (field-independent basis, Debye):
    X=              0.2810    Y=              0.5248    Z=             -0.5111  Tot=              0.7846

 Test job not archived.
 1\1\GINC-SE222\SP\RHF\Aug-CC-pVDZ\C5H14O2Si1\OHZDE\09-Apr-2025\0\\#t h
 f aug-cc-pvdz iop(5/13=1,5/36=2,99/5=2) pseudo=read geom=check guess=(
 read,tcheck) scf=(maxcycle=1)\\title\\0,1\Si,0,-2.192119,-0.854132,0.1
 2856\O,0,-2.715966,0.65972,0.671792\O,0,-2.73795,1.535535,-0.507243\H,
 0,-3.659286,1.82623,-0.475021\C,0,-0.486428,-0.796264,-0.635472\C,0,0.
 619641,-0.248196,0.285242\H,0,-0.547658,-0.196902,-1.551489\H,0,-0.240
 954,-1.817519,-0.959494\C,0,2.003973,-0.223636,-0.374944\H,0,0.669564,
 -0.851439,1.200252\H,0,0.3548,0.765666,0.605195\C,0,3.107569,0.324614,

 Normal termination of Gaussian 16 at Wed Apr  9 00:09:17 2025.
