 Gaussian 16, Revision C.01,

 ----------------------------------------------------------------------
 #t hf aug-cc-pvdz symm=none int=(grid=ultrafine) guess=(read,tcheck) s
 table=(opt,rrhf)
 ----------------------------------------------------------------------
 -----
 title
 -----
 Symbolic Z-matrix:
 Charge =  0 Multiplicity = 1

 SCF Done:  E(RHF) =  -475.583892914     A.U. after   12 cycles
 Normal termination of Gaussian 16 at Tue Apr  8 23:28:04 2025.
 Gaussian 16:  ES64L-G16RevC.01  3-Jul-2019

 ----------------------------------------------------------------------
 #t hf aug-cc-pvdz iop(5/13=1,5/36=2,99/5=2) pseudo=read geom=check gue
 ss=(read,tcheck) scf=(maxcycle=1)
 ----------------------------------------------------------------------
 -----
 title
 -----
 Structure from the checkpoint file:  "BDE49_nonexpt_1306_mol1.chk"
 Charge =  0 Multiplicity = 1

                         Standard orientation:
 ---------------------------------------------------------------------
 Center     Atomic      Atomic             Coordinates (Angstroms)
 Number     Number       Type             X           Y           Z
 ---------------------------------------------------------------------
      1          6           0        0.032797    0.584751   -0.014713
      2          6           0       -1.062795   -0.483028    0.012385
      3         15           0        1.751047   -0.163483   -0.090919
      4          1           0       -0.064758    1.250421    0.847144
      5          1           0       -0.096761    1.193221   -0.914181
      6          7           0       -2.385540    0.147302   -0.082161
      7          1           0       -0.935068   -1.113920    0.907968
      8          1           0       -0.944778   -1.141854   -0.853773
      9          1           0       -2.584911    0.665582    0.768841
     10          1           0       -3.106692   -0.563043   -0.162128
     11          1           0        1.870165   -0.524087    1.278321
     12          1           0        2.475868    1.044474    0.080680
 ---------------------------------------------------------------------

 SCF Done:  E(RHF) =  -476.456002137     A.U. after    2 cycles

 The electronic state is 1-A.
 Alpha  occ. eigenvalues -- -105.17326 -15.73135 -11.42583 -11.36372  -2.74188
 Alpha  occ. eigenvalues --   -1.46929  -1.43376  -1.42175  -1.33136  -1.05981
 Alpha  occ. eigenvalues --   -0.86466  -0.71162  -0.66197  -0.61296  -0.55674
 Alpha  occ. eigenvalues --   -0.51015  -0.48410  -0.35906  -0.25245  -0.21233
 Alpha  occ. eigenvalues --   -0.02298
 Alpha virt. eigenvalues --    0.04345   0.05495   0.05919   0.06429   0.06479
 Alpha virt. eigenvalues --    0.06907   0.08273   0.09093   0.10258   0.11597
 Alpha virt. eigenvalues --    0.13272   0.13539   0.15935   0.16736   0.17190

 Mulliken charges:
               1
     1  C   -3.555911
     2  C   -1.679118
     3  P    2.468385
     4  H    1.301103
     5  H    1.252718
     6  N   -2.571230
     7  H    1.434099
     8  H    1.304057
     9  H    0.538778
    10  H    0.593680
    11  H   -0.613539
    12  H   -0.473023
 Sum of Mulliken charges =  -0.00000

 Dipole moment (field-independent basis, Debye):
    X=             -0.2808    Y=             -1.3858    Z=             -0.8592  Tot=              1.6546

 Test job not archived.
 1\1\GINC-SE455\SP\RHF\Aug-CC-pVDZ\C2H8N1P1\OHZDE\08-Apr-2025\0\\#t hf
 aug-cc-pvdz iop(5/13=1,5/36=2,99/5=2) pseudo=read geom=check guess=(re
 ad,tcheck) scf=(maxcycle=1)\\title\\0,1\C,0,0.032797,0.584751,-0.01471
 3\C,0,-1.062795,-0.483028,0.012385\P,0,1.751047,-0.163483,-0.090919\H,
 0,-0.064758,1.250421,0.847144\H,0,-0.096761,1.193221,-0.914181\N,0,-2.
 38554,0.147302,-0.082161\H,0,-0.935068,-1.11392,0.907968\H,0,-0.944778
 ,-1.141854,-0.853773\H,0,-2.584911,0.665582,0.768841\H,0,-3.106692,-0.
 563043,-0.162128\H,0,1.870165,-0.524087,1.278321\H,0,2.475868,1.044474

 Normal termination of Gaussian 16 at Tue Apr  8 23:28:07 2025.
