 Gaussian 16, Revision C.01,

 ----------------------------------------------------------------------
 #t hf aug-cc-pvdz symm=none int=(grid=ultrafine) guess=(read,tcheck) s
 table=(opt,rrhf)
 ----------------------------------------------------------------------
 -----
 title
 -----
 Symbolic Z-matrix:
 Charge =  0 Multiplicity = 1

 SCF Done:  E(RHF) =  -644.259538717     A.U. after   16 cycles
 Normal termination of Gaussian 16 at Tue Apr  8 23:09:59 2025.
 Gaussian 16:  ES64L-G16RevC.01  3-Jul-2019

 ----------------------------------------------------------------------
 #t hf aug-cc-pvdz iop(5/13=1,5/36=2,99/5=2) pseudo=read geom=check gue
 ss=(read,tcheck) scf=(maxcycle=1)
 ----------------------------------------------------------------------
 -----
 title
 -----
 Structure from the checkpoint file:  "BDE49_expt_543_mol1.chk"
 Charge =  0 Multiplicity = 1

                         Standard orientation:
 ---------------------------------------------------------------------
 Center     Atomic      Atomic             Coordinates (Angstroms)
 Number     Number       Type             X           Y           Z
 ---------------------------------------------------------------------
      1          6           0        1.485841   -1.186314    0.000003
      2          6           0        2.237470   -0.050066    0.000006
      3          7           0        0.127000   -1.110269    0.000001
      4          6           0       -0.613314    0.062101    0.000004
      5          6           0        0.187699    1.250587    0.000001
      6          6           0        1.554079    1.196138    0.000004
      7         16           0       -2.286388    0.004748   -0.000008
      8          1           0       -0.425760   -1.958643   -0.000001
      9          1           0        1.904752   -2.183853    0.000003
     10          1           0        3.316449   -0.107136    0.000008
     11          1           0       -0.339840    2.194035   -0.000002
     12          1           0        2.126949    2.116829    0.000005
 ---------------------------------------------------------------------

 SCF Done:  E(RHF) =  -645.641444433     A.U. after    2 cycles

 The electronic state is 1-A.
 Alpha  occ. eigenvalues --  -75.62197 -15.82824 -13.12855 -12.97696 -12.93143
 Alpha  occ. eigenvalues --  -11.51858 -11.49976 -11.47557 -11.43170 -11.40402
 Alpha  occ. eigenvalues --   -7.96258  -1.51982  -1.23211  -1.19099  -1.03265
 Alpha  occ. eigenvalues --   -0.93361  -0.88652  -0.77031  -0.69534  -0.65424
 Alpha  occ. eigenvalues --   -0.62787  -0.59554  -0.56521  -0.49712  -0.42971
 Alpha  occ. eigenvalues --   -0.41912  -0.39802  -0.21060  -0.20779
 Alpha virt. eigenvalues --    0.02061   0.04278   0.04625   0.05790   0.06627
 Alpha virt. eigenvalues --    0.07643   0.09159   0.09241   0.10023   0.11422
 Alpha virt. eigenvalues --    0.12214   0.12515   0.13311   0.13867   0.13932

 Mulliken charges:
               1
     1  C   -1.122451
     2  C   -0.806185
     3  N   -3.418032
     4  C   -1.270975
     5  C   -1.198607
     6  C    0.387115
     7  S    0.686768
     8  H    0.663685
     9  H    1.449958
    10  H    1.423817
    11  H    1.635501
    12  H    1.569406
 Sum of Mulliken charges =  -0.00000

 Dipole moment (field-independent basis, Debye):
    X=              3.0411    Y=             -1.3512    Z=             -0.0000  Tot=              3.3278

 Test job not archived.
 1\1\GINC-SE249\SP\RHF\Aug-CC-pVDZ\C5H5N1S1\OHZDE\08-Apr-2025\0\\#t hf
 aug-cc-pvdz iop(5/13=1,5/36=2,99/5=2) pseudo=read geom=check guess=(re
 ad,tcheck) scf=(maxcycle=1)\\title\\0,1\C,0,1.485841,-1.186314,0.00000
 3\C,0,2.23747,-0.050066,0.000006\N,0,0.127,-1.110269,0.000001\C,0,-0.6
 13314,0.062101,0.000004\C,0,0.187699,1.250587,0.000001\C,0,1.554079,1.
 196138,0.000004\S,0,-2.286388,0.004748,-0.000008\H,0,-0.42576,-1.95864
 3,-0.000001\H,0,1.904752,-2.183853,0.000003\H,0,3.316449,-0.107136,0.0
 00008\H,0,-0.33984,2.194035,-0.000002\H,0,2.126949,2.116829,0.000005\\

 Normal termination of Gaussian 16 at Tue Apr  8 23:10:04 2025.
