 Gaussian 16, Revision C.01,

 ----------------------------------------------------------------------
 #t hf aug-cc-pvdz symm=none int=(grid=ultrafine) guess=(read,tcheck) s
 table=(opt,rrhf)
 ----------------------------------------------------------------------
 -----
 title
 -----
 Symbolic Z-matrix:
 Charge =  0 Multiplicity = 1

 SCF Done:  E(RHF) =  -764.523026055     A.U. after   15 cycles
 Normal termination of Gaussian 16 at Tue Apr  8 23:12:13 2025.
 Gaussian 16:  ES64L-G16RevC.01  3-Jul-2019

 ----------------------------------------------------------------------
 #t hf aug-cc-pvdz iop(5/13=1,5/36=2,99/5=2) pseudo=read geom=check gue
 ss=(read,tcheck) scf=(maxcycle=1)
 ----------------------------------------------------------------------
 -----
 title
 -----
 Structure from the checkpoint file:  "BDE49_expt_724_mol1.chk"
 Charge =  0 Multiplicity = 1

                         Standard orientation:
 ---------------------------------------------------------------------
 Center     Atomic      Atomic             Coordinates (Angstroms)
 Number     Number       Type             X           Y           Z
 ---------------------------------------------------------------------
      1          6           0        0.957162   -0.002030   -0.000000
      2          6           0        0.274180    1.211513   -0.000000
      3          6           0       -1.114639    1.219361   -0.000000
      4          6           0        0.264283   -1.205953   -0.000000
      5          6           0       -1.128294   -1.195683   -0.000000
      6          6           0       -1.822888    0.015318   -0.000000
      7          1           0        0.804314   -2.143835   -0.000000
      8          1           0       -1.671112   -2.136116   -0.000000
      9          8           0       -3.185565    0.088207   -0.000000
     10          1           0       -3.554078   -0.801201    0.000001
     11          1           0        0.825956    2.142628   -0.000000
     12          1           0       -1.665688    2.151544   -0.000000
     13         17           0        2.715665   -0.010226   -0.000000
 ---------------------------------------------------------------------

 SCF Done:  E(RHF) =  -766.166171057     A.U. after    2 cycles

 The electronic state is 1-A.
 Alpha  occ. eigenvalues --  -99.89177 -21.11457 -11.53272 -11.47247 -11.45108
 Alpha  occ. eigenvalues --  -11.44655 -11.41859 -11.38479 -10.46507  -9.66541
 Alpha  occ. eigenvalues --   -9.65646  -9.65477  -1.76899  -1.39092  -1.26626
 Alpha  occ. eigenvalues --   -1.11599  -1.06449  -0.90219  -0.85736  -0.72462
 Alpha  occ. eigenvalues --   -0.68758  -0.64641  -0.60077  -0.59795  -0.57731
 Alpha  occ. eigenvalues --   -0.54017  -0.53191  -0.49811  -0.46566  -0.43376
 Alpha  occ. eigenvalues --   -0.43003  -0.35123  -0.28272
 Alpha virt. eigenvalues --    0.03013   0.04680   0.05825   0.06092   0.06603
 Alpha virt. eigenvalues --    0.08644   0.10005   0.10124   0.11131   0.12043
 Alpha virt. eigenvalues --    0.12768   0.13090   0.13357   0.13848   0.14151

 Mulliken charges:
               1
     1  C   -2.153866
     2  C   -0.618422
     3  C   -1.554969
     4  C   -0.214822
     5  C   -2.954597
     6  C    4.808743
     7  H    1.716477
     8  H    1.681097
     9  O   -4.460472
    10  H    1.023459
    11  H    1.792799
    12  H    1.770455
    13  Cl  -0.835880
 Sum of Mulliken charges =   0.00000

 Dipole moment (field-independent basis, Debye):
    X=             -2.9834    Y=             -0.5909    Z=              0.0000  Tot=              3.0414

 Test job not archived.
 1\1\GINC-SE366\SP\RHF\Aug-CC-pVDZ\C6H5Cl1O1\OHZDE\08-Apr-2025\0\\#t hf
  aug-cc-pvdz iop(5/13=1,5/36=2,99/5=2) pseudo=read geom=check guess=(r
 ead,tcheck) scf=(maxcycle=1)\\title\\0,1\C,0,-0.957162,-0.00203,0.\C,0
 ,-0.27418,1.211513,0.\C,0,1.114639,1.219361,0.\C,0,-0.264283,-1.205953
 ,0.\C,0,1.128294,-1.195683,0.\C,0,1.822888,0.015318,0.\H,0,-0.804314,-
 2.143835,0.\H,0,1.671112,-2.136116,0.\O,0,3.185565,0.088207,0.\H,0,3.5
 54078,-0.801201,-0.000001\H,0,-0.825956,2.142628,0.\H,0,1.665688,2.151
 544,0.\Cl,0,-2.715665,-0.010226,0.\\Version=ES64L-G16RevC.01\State=1-A

 Normal termination of Gaussian 16 at Tue Apr  8 23:12:17 2025.
