 Gaussian 16, Revision C.01,

 ----------------------------------------------------------------------
 #t hf aug-cc-pvdz symm=none int=(grid=ultrafine) guess=(read,tcheck) s
 table=(opt,rrhf)
 ----------------------------------------------------------------------
 -----
 title
 -----
 Symbolic Z-matrix:
 Charge =  0 Multiplicity = 1

 SCF Done:  E(RHF) =  -558.536281350     A.U. after   17 cycles
 Normal termination of Gaussian 16 at Wed Apr  9 00:27:31 2025.
 Gaussian 16:  ES64L-G16RevC.01  3-Jul-2019

 ----------------------------------------------------------------------
 #t hf aug-cc-pvdz iop(5/13=1,5/36=2,99/5=2) pseudo=read geom=check gue
 ss=(read,tcheck) scf=(maxcycle=1)
 ----------------------------------------------------------------------
 -----
 title
 -----
 Structure from the checkpoint file:  "BDE49_nonexpt_266_mol1.chk"
 Charge =  0 Multiplicity = 1

                         Standard orientation:
 ---------------------------------------------------------------------
 Center     Atomic      Atomic             Coordinates (Angstroms)
 Number     Number       Type             X           Y           Z
 ---------------------------------------------------------------------
      1          6           0        1.166028    2.146184    0.000300
      2          6           0       -0.128048    2.599840    0.000216
      3          6           0        1.446187    0.756274    0.000117
      4          6           0        0.362193   -0.185521   -0.000039
      5          6           0       -0.992891    0.304365   -0.000080
      6          6           0       -1.193715    1.677699   -0.000025
      7          1           0       -0.337531    3.663801    0.000338
      8          5           0       -2.289906   -0.579557   -0.000002
      9          8           0       -2.228655   -1.953048    0.001075
     10          8           0       -3.493825    0.086082   -0.000837
     11          1           0        1.997059    2.844596    0.000489
     12          6           0        2.786706    0.288929    0.000052
     13          6           0        3.067190   -1.053909   -0.000196
     14          6           0        2.007857   -1.987160   -0.000367
     15          6           0        0.698096   -1.568381   -0.000283
     16          1           0        2.230434   -3.048779   -0.000576
     17          1           0       -0.098310   -2.297124   -0.000361
     18          1           0        3.589392    1.019446    0.000178
     19          1           0        4.094841   -1.399907   -0.000270
     20          1           0       -2.209648    2.053669   -0.000163
     21          1           0       -4.273215   -0.475076   -0.001649
     22          1           0       -3.081265   -2.397033    0.001937
 ---------------------------------------------------------------------

 SCF Done:  E(RHF) =  -561.079577139     A.U. after    2 cycles

 The electronic state is 1-A.
 Alpha  occ. eigenvalues --  -21.06675 -21.06343 -11.51979 -11.48332 -11.44178
 Alpha  occ. eigenvalues --  -11.42764 -11.42084 -11.41298 -11.40692 -11.40246
 Alpha  occ. eigenvalues --  -11.38215 -11.35316  -7.67465  -1.82390  -1.66484
 Alpha  occ. eigenvalues --   -1.38323  -1.22868  -1.13612  -1.07050  -1.04164
 Alpha  occ. eigenvalues --   -0.89685  -0.86496  -0.85275  -0.76657  -0.71648
 Alpha  occ. eigenvalues --   -0.68661  -0.66444  -0.66158  -0.60668  -0.56350
 Alpha  occ. eigenvalues --   -0.55189  -0.53921  -0.53185  -0.52528  -0.49783
 Alpha  occ. eigenvalues --   -0.48887  -0.46551  -0.43320  -0.41892  -0.38718
 Alpha  occ. eigenvalues --   -0.37229  -0.37017  -0.36397  -0.30524  -0.26933
 Alpha virt. eigenvalues --    0.02616   0.04109   0.04804   0.05575   0.05716
 Alpha virt. eigenvalues --    0.06087   0.06407   0.07072   0.07291   0.08843
 Alpha virt. eigenvalues --    0.08866   0.09236   0.09538   0.10362   0.11385

 Mulliken charges:
               1
     1  C   -4.192874
     2  C   -4.086789
     3  C    6.349693
     4  C    8.537979
     5  C   -0.898060
     6  C   -2.074463
     7  H    1.507003
     8  B    4.128020
     9  O   -4.055538
    10  O   -4.212487
    11  H    1.689693
    12  C   -4.705531
    13  C   -3.147382
    14  C   -4.825663
    15  C   -1.007196
    16  H    1.451306
    17  H    2.100730
    18  H    1.662532
    19  H    1.483703
    20  H    2.090853
    21  H    1.040132
    22  H    1.164339
 Sum of Mulliken charges =   0.00000

 Dipole moment (field-independent basis, Debye):
    X=             -1.3679    Y=             -0.5596    Z=              0.0001  Tot=              1.4779

 Test job not archived.
 1\1\GINC-SE049\SP\RHF\Aug-CC-pVDZ\C10H9B1O2\OHZDE\09-Apr-2025\0\\#t hf
  aug-cc-pvdz iop(5/13=1,5/36=2,99/5=2) pseudo=read geom=check guess=(r
 ead,tcheck) scf=(maxcycle=1)\\title\\0,1\C,0,-1.166028,2.146184,-0.000
 3\C,0,0.128048,2.59984,-0.000216\C,0,-1.446187,0.756274,-0.000117\C,0,
 -0.362193,-0.185521,0.000039\C,0,0.992891,0.304365,0.00008\C,0,1.19371
 5,1.677699,0.000025\H,0,0.337531,3.663801,-0.000338\B,0,2.289906,-0.57
 9557,0.000002\O,0,2.228655,-1.953048,-0.001075\O,0,3.493825,0.086083,0
 .000837\H,0,-1.997059,2.844596,-0.000489\C,0,-2.786706,0.288929,-0.000

 Normal termination of Gaussian 16 at Wed Apr  9 00:27:49 2025.
