 Gaussian 16, Revision C.01,

 ----------------------------------------------------------------------
 #t hf aug-cc-pvdz symm=none int=(grid=ultrafine) guess=(read,tcheck) s
 table=(opt,rrhf)
 ----------------------------------------------------------------------
 -----
 title
 -----
 Symbolic Z-matrix:
 Charge =  0 Multiplicity = 1

 SCF Done:  E(RHF) =  -1257.16057343     A.U. after   16 cycles
 Normal termination of Gaussian 16 at Tue Apr  8 23:33:08 2025.
 Gaussian 16:  ES64L-G16RevC.01  3-Jul-2019

 ----------------------------------------------------------------------
 #t hf aug-cc-pvdz iop(5/13=1,5/36=2,99/5=2) pseudo=read geom=check gue
 ss=(read,tcheck) scf=(maxcycle=1)
 ----------------------------------------------------------------------
 -----
 title
 -----
 Structure from the checkpoint file:  "BDE49_nonexpt_1355_mol1.chk"
 Charge =  0 Multiplicity = 1

                         Standard orientation:
 ---------------------------------------------------------------------
 Center     Atomic      Atomic             Coordinates (Angstroms)
 Number     Number       Type             X           Y           Z
 ---------------------------------------------------------------------
      1          9           0       -1.845310    2.154799   -0.366413
      2         16           0       -1.445788   -0.700757    0.382346
      3          8           0       -1.760744   -1.960865   -0.277137
      4          8           0       -1.817640   -0.440655    1.760810
      5         15           0       -2.520999    0.766609   -0.886609
      6          6           0        0.301660   -0.381346    0.208776
      7          6           0        1.046636   -1.117793   -0.711146
      8          6           0        2.405630   -0.857390   -0.838776
      9          6           0        3.028587    0.134936   -0.070692
     10          6           0        2.254289    0.856559    0.845630
     11          6           0        0.894808    0.606361    0.993534
     12          6           0        4.497293    0.430358   -0.242501
     13          1           0        0.566624   -1.894260   -1.293391
     14          1           0        2.994424   -1.438407   -1.540580
     15          1           0        2.723251    1.618970    1.458110
     16          1           0        0.302706    1.151580    1.716846
     17          1           0        5.061344   -0.475746   -0.474179
     18          1           0        4.922519    0.877621    0.657913
     19          1           0        4.656176    1.134289   -1.066578
     20          1           0       -1.618008    0.527785   -1.957147
 ---------------------------------------------------------------------

 SCF Done:  E(RHF) =  -1259.87802668     A.U. after    2 cycles

 The electronic state is 1-A.
 Alpha  occ. eigenvalues -- -105.28733 -75.88844 -29.30114 -21.05269 -21.04990
 Alpha  occ. eigenvalues --  -13.51296 -13.39415 -13.35513 -11.53885 -11.46789
 Alpha  occ. eigenvalues --  -11.46631 -11.45581 -11.43307 -11.40810 -11.38868
 Alpha  occ. eigenvalues --   -8.23881  -2.86347  -1.83003  -1.65529  -1.59537
 Alpha  occ. eigenvalues --   -1.53011  -1.51312  -1.38073  -1.18716  -1.12018
 Alpha  occ. eigenvalues --   -1.05139  -0.95698  -0.89807  -0.86521  -0.81535
 Alpha  occ. eigenvalues --   -0.70674  -0.66186  -0.63632  -0.60617  -0.59756
 Alpha  occ. eigenvalues --   -0.58634  -0.56237  -0.54924  -0.51830  -0.48214
 Alpha  occ. eigenvalues --   -0.47400  -0.47138  -0.44954  -0.40585  -0.38925
 Alpha  occ. eigenvalues --   -0.36664  -0.36224  -0.35558  -0.35042  -0.33935
 Alpha  occ. eigenvalues --   -0.26099  -0.17583  -0.04158
 Alpha virt. eigenvalues --    0.02899   0.04354   0.05125   0.05414   0.05666
 Alpha virt. eigenvalues --    0.06473   0.07224   0.07915   0.08125   0.09014
 Alpha virt. eigenvalues --    0.09822   0.10179   0.11135   0.11873   0.12546

 Mulliken charges:
               1
     1  F   -0.622589
     2  S    4.796840
     3  O   -2.886373
     4  O   -2.850152
     5  P    2.560128
     6  C    2.786743
     7  C   -6.070331
     8  C    0.116708
     9  C    2.123497
    10  C    0.244715
    11  C   -4.579573
    12  C   -5.623464
    13  H    2.020669
    14  H    1.867294
    15  H    1.865370
    16  H    1.886574
    17  H    1.091209
    18  H    1.158161
    19  H    1.137663
    20  H   -1.023090
 Sum of Mulliken charges =  -0.00000

 Dipole moment (field-independent basis, Debye):
    X=             -0.3122    Y=              6.1090    Z=             -1.1911  Tot=              6.2319

 Test job not archived.
 1\1\GINC-SE342\SP\RHF\Aug-CC-pVDZ\C7H8F1O2P1S1\OHZDE\08-Apr-2025\0\\#t
  hf aug-cc-pvdz iop(5/13=1,5/36=2,99/5=2) pseudo=read geom=check guess
 =(read,tcheck) scf=(maxcycle=1)\\title\\0,1\F,0,-1.84531,2.154799,-0.3
 66413\S,0,-1.445788,-0.700757,0.382346\O,0,-1.760744,-1.960865,-0.2771
 37\O,0,-1.81764,-0.440655,1.76081\P,0,-2.520999,0.766609,-0.886609\C,0
 ,0.30166,-0.381346,0.208776\C,0,1.046636,-1.117793,-0.711146\C,0,2.405
 63,-0.85739,-0.838776\C,0,3.028587,0.134936,-0.070692\C,0,2.254289,0.8
 56559,0.84563\C,0,0.894808,0.606361,0.993534\C,0,4.497293,0.430358,-0.

 Normal termination of Gaussian 16 at Tue Apr  8 23:33:22 2025.
