 Gaussian 16, Revision C.01,

 ----------------------------------------------------------------------
 #t hf aug-cc-pvdz symm=none int=(grid=ultrafine) guess=(read,tcheck) s
 table=(opt,rrhf)
 ----------------------------------------------------------------------
 -----
 title
 -----
 Symbolic Z-matrix:
 Charge =  0 Multiplicity = 1

 SCF Done:  E(RHF) =  -596.499371612     A.U. after   12 cycles
 Normal termination of Gaussian 16 at Tue Apr  8 23:53:50 2025.
 Gaussian 16:  ES64L-G16RevC.01  3-Jul-2019

 ----------------------------------------------------------------------
 #t hf aug-cc-pvdz iop(5/13=1,5/36=2,99/5=2) pseudo=read geom=check gue
 ss=(read,tcheck) scf=(maxcycle=1)
 ----------------------------------------------------------------------
 -----
 title
 -----
 Structure from the checkpoint file:  "BDE49_nonexpt_1902_mol1.chk"
 Charge =  0 Multiplicity = 1

                         Standard orientation:
 ---------------------------------------------------------------------
 Center     Atomic      Atomic             Coordinates (Angstroms)
 Number     Number       Type             X           Y           Z
 ---------------------------------------------------------------------
      1          6           0       -0.952404   -0.708049   -0.705840
      2         14           0        0.756869   -1.087067    0.024868
      3          7           0        1.808616    0.276728   -0.095213
      4          1           0        1.364201   -2.168155   -0.789815
      5          1           0        0.595913   -1.624116    1.409115
      6          7           0       -1.770501    0.282218    0.008689
      7          6           0        1.397553    1.601394    0.360755
      8          1           0        1.773691    1.829023    1.371201
      9          1           0        0.308387    1.674183    0.372182
     10          1           0        1.785631    2.374039   -0.316214
     11          6           0       -2.857767    0.780701   -0.826736
     12          1           0       -3.568060   -0.014036   -1.123192
     13          1           0       -2.451923    1.230810   -1.735558
     14          1           0       -3.415126    1.550672   -0.286738
     15          6           0        3.253913    0.113337   -0.159794
     16          1           0        3.511495   -0.872020   -0.554929
     17          1           0        3.737514    0.222165    0.824175
     18          1           0        3.693723    0.866038   -0.827407
     19          6           0       -2.286609   -0.233536    1.271116
     20          1           0       -1.467334   -0.546111    1.920034
     21          1           0       -2.959124   -1.101346    1.131401
     22          1           0       -2.846932    0.550333    1.786509
     23          1           0       -1.497350   -1.664603   -0.847461
     24          1           0       -0.755785   -0.323637   -1.712787
 ---------------------------------------------------------------------

 SCF Done:  E(RHF) =  -598.219826434     A.U. after    2 cycles

 The electronic state is 1-A.
 Alpha  occ. eigenvalues --  -76.20331 -15.70495 -15.68654 -11.38365 -11.38289
 Alpha  occ. eigenvalues --  -11.37603 -11.37461 -11.36106  -5.54254  -2.20126
 Alpha  occ. eigenvalues --   -2.17701  -2.16306  -1.41486  -1.36004  -1.03015
 Alpha  occ. eigenvalues --   -1.02650  -1.02074  -0.89905  -0.83334  -0.71531
 Alpha  occ. eigenvalues --   -0.64531  -0.63118  -0.61671  -0.61257  -0.59007
 Alpha  occ. eigenvalues --   -0.58086  -0.54334  -0.53268  -0.53133  -0.49710
 Alpha  occ. eigenvalues --   -0.48846  -0.48707  -0.45195  -0.43852  -0.40236
 Alpha  occ. eigenvalues --   -0.31838  -0.29914
 Alpha virt. eigenvalues --    0.04075   0.04837   0.05559   0.05665   0.05917
 Alpha virt. eigenvalues --    0.06135   0.06154   0.06383   0.06445   0.07413
 Alpha virt. eigenvalues --    0.07591   0.08116   0.08203   0.08922   0.09799

 Mulliken charges:
               1
     1  C   -3.377898
     2  Si   6.049126
     3  N   -2.977256
     4  H   -1.936620
     5  H   -2.292630
     6  N   -2.267066
     7  C   -3.614640
     8  H    1.407941
     9  H    1.868699
    10  H    1.398243
    11  C   -3.765447
    12  H    1.393320
    13  H    1.480324
    14  H    1.482272
    15  C   -3.401509
    16  H    1.475786
    17  H    1.461086
    18  H    1.517427
    19  C   -3.522945
    20  H    1.732306
    21  H    1.367634
    22  H    1.328009
    23  H    1.534776
    24  H    1.659061
 Sum of Mulliken charges =  -0.00000

 Dipole moment (field-independent basis, Debye):
    X=             -0.3496    Y=              0.8405    Z=             -0.2138  Tot=              0.9351

 Test job not archived.
 1\1\GINC-SE419\SP\RHF\Aug-CC-pVDZ\C5H16N2Si1\OHZDE\08-Apr-2025\0\\#t h
 f aug-cc-pvdz iop(5/13=1,5/36=2,99/5=2) pseudo=read geom=check guess=(
 read,tcheck) scf=(maxcycle=1)\\title\\0,1\C,0,-0.952404,-0.708049,-0.7
 0584\Si,0,0.756869,-1.087067,0.024868\N,0,1.808616,0.276728,-0.095213\
 H,0,1.364201,-2.168155,-0.789815\H,0,0.595913,-1.624116,1.409115\N,0,-
 1.770501,0.282218,0.008689\C,0,1.397553,1.601394,0.360755\H,0,1.773691
 ,1.829023,1.371201\H,0,0.308387,1.674183,0.372182\H,0,1.785631,2.37403
 9,-0.316214\C,0,-2.857767,0.780701,-0.826736\H,0,-3.56806,-0.014036,-1

 Normal termination of Gaussian 16 at Tue Apr  8 23:54:02 2025.
