 Gaussian 16, Revision C.01,

 ----------------------------------------------------------------------
 #t hf aug-cc-pvdz symm=none int=(grid=ultrafine) guess=(read,tcheck) s
 table=opt
 ----------------------------------------------------------------------
 -----
 title
 -----
 Symbolic Z-matrix:
 Charge =  0 Multiplicity = 2

 SCF Done:  E(UHF) =  -457.788201252     A.U. after   17 cycles
 Normal termination of Gaussian 16 at Wed Apr  9 00:42:56 2025.
 Gaussian 16:  ES64L-G16RevC.01  3-Jul-2019

 ----------------------------------------------------------------------
 #t hf aug-cc-pvdz iop(5/13=1,5/36=2,99/5=2) pseudo=read geom=check gue
 ss=(read,tcheck) scf=(maxcycle=1)
 ----------------------------------------------------------------------
 -----
 title
 -----
 Structure from the checkpoint file:  "BDE49_nonexpt_719_mol2.chk"
 Charge =  0 Multiplicity = 2

                         Standard orientation:
 ---------------------------------------------------------------------
 Center     Atomic      Atomic             Coordinates (Angstroms)
 Number     Number       Type             X           Y           Z
 ---------------------------------------------------------------------
      1          6           0        0.216805   -0.056289    0.548008
      2          6           0        1.347682    0.749595   -0.069961
      3          6           0        1.335450   -0.732622   -0.254042
      4          1           0        1.083297   -1.126226   -1.231474
      5          1           0        2.038009   -1.336859    0.307831
      6          1           0        2.072066    1.184530    0.608574
      7          1           0        1.108654    1.370068   -0.926747
      8         15           0       -1.456470    0.064559   -0.173454
      9          1           0        0.273316   -0.203873    1.620427
     10          1           0       -2.127915   -0.620123    0.879169
 ---------------------------------------------------------------------

 SCF Done:  E(UHF) =  -458.544387030     A.U. after    2 cycles

 The electronic state is 2-A.
 Alpha  occ. eigenvalues -- -105.17407 -11.41568 -11.40948 -11.36602  -2.75209
 Alpha  occ. eigenvalues --   -1.49227  -1.44335  -1.43078  -1.27749  -0.86803
 Alpha  occ. eigenvalues --   -0.84363  -0.70878  -0.66054  -0.57604  -0.51519
 Alpha  occ. eigenvalues --   -0.43075  -0.41163  -0.22191  -0.06938   0.02357
 Alpha virt. eigenvalues --    0.04339   0.05801   0.06200   0.06715   0.06828
 Alpha virt. eigenvalues --    0.07399   0.10083   0.11002   0.12202   0.13580
 Alpha virt. eigenvalues --    0.13808   0.14459   0.15425   0.16936   0.17425

  Beta  occ. eigenvalues -- -105.16789 -11.41422 -11.41016 -11.36579  -2.73328
  Beta  occ. eigenvalues --   -1.47506  -1.41581  -1.27240  -1.20870  -0.86298
  Beta  occ. eigenvalues --   -0.83965  -0.68908  -0.65003  -0.56282  -0.51406
  Beta  occ. eigenvalues --   -0.42743  -0.40126  -0.23074  -0.04655
  Beta virt. eigenvalues --    0.04370   0.05811   0.06150   0.06474   0.06783
  Beta virt. eigenvalues --    0.06918   0.09661   0.10487   0.11095   0.12611
  Beta virt. eigenvalues --    0.13801   0.14203   0.14931   0.15741   0.17034

 Mulliken charges and spin densities:
               1          2
     1  C   -1.584520  -0.493671
     2  C   -2.366477   0.134050
     3  C   -2.757885  -0.221465
     4  H    0.748768   0.423187
     5  H    1.257593  -0.108602
     6  H    1.137486   0.000395
     7  H    1.097930  -0.007266
     8  P    2.454573   1.443852
     9  H    1.076592   0.000560
    10  H   -1.064061  -0.171039
 Sum of Mulliken charges =  -0.00000   1.00000

 Dipole moment (field-independent basis, Debye):
    X=              0.1684    Y=              1.4075    Z=             -0.0151  Tot=              1.4176
                          Isotropic Fermi Contact Couplings
        Atom                 a.u.       MegaHertz       Gauss      10(-4) cm-1
     1  C(13)             -0.00456      -5.12540      -1.82887      -1.70965
     2  C(13)              0.00539       6.06062       2.16258       2.02160
     3  C(13)              0.04279      48.10948      17.16666      16.04760
     4  H(1)              -0.00078      -3.48778      -1.24453      -1.16340
     5  H(1)               0.00007       0.31018       0.11068       0.10346
     6  H(1)               0.00025       1.09544       0.39088       0.36540
     7  H(1)              -0.00031      -1.38362      -0.49371      -0.46153
     8  P(31)              0.28711     519.99234     185.54620     173.45077

 Normal termination of Gaussian 16 at Wed Apr  9 00:42:59 2025.
