 Gaussian 16, Revision C.01,

 ----------------------------------------------------------------------
 #t hf aug-cc-pvdz symm=none int=(grid=ultrafine) guess=(read,tcheck) s
 table=(opt,rrhf)
 ----------------------------------------------------------------------
 -----
 title
 -----
 Symbolic Z-matrix:
 Charge =  0 Multiplicity = 1

 SCF Done:  E(RHF) =  -408.240985064     A.U. after   13 cycles
 Normal termination of Gaussian 16 at Wed Apr  9 00:45:54 2025.
 Gaussian 16:  ES64L-G16RevC.01  3-Jul-2019

 ----------------------------------------------------------------------
 #t hf aug-cc-pvdz iop(5/13=1,5/36=2,99/5=2) pseudo=read geom=check gue
 ss=(read,tcheck) scf=(maxcycle=1)
 ----------------------------------------------------------------------
 -----
 title
 -----
 Structure from the checkpoint file:  "BDE49_nonexpt_801_mol1.chk"
 Charge =  0 Multiplicity = 1

                         Standard orientation:
 ---------------------------------------------------------------------
 Center     Atomic      Atomic             Coordinates (Angstroms)
 Number     Number       Type             X           Y           Z
 ---------------------------------------------------------------------
      1          5           0        1.903214    0.920705   -0.000480
      2          6           0       -1.204431    0.049220    0.000086
      3          7           0       -2.285777    0.457545    0.000189
      4         14           0        0.548188   -0.568912   -0.000036
      5          1           0        0.688856   -1.417584   -1.205849
      6          1           0        0.689167   -1.417194    1.206015
      7          1           0        1.600822    2.069276    0.000367
      8          1           0        3.057475    0.628608    0.000538
 ---------------------------------------------------------------------

 SCF Done:  E(RHF) =  -408.918814288     A.U. after    2 cycles

 The electronic state is 1-A.
 Alpha  occ. eigenvalues --  -76.25086 -15.76991 -11.39840  -7.65054  -5.58778
 Alpha  occ. eigenvalues --   -2.22734  -2.20954  -2.20720  -1.29740  -0.91784
 Alpha  occ. eigenvalues --   -0.79504  -0.62344  -0.52468  -0.51514  -0.48990
 Alpha  occ. eigenvalues --   -0.46793  -0.44666  -0.39247
 Alpha virt. eigenvalues --    0.00760   0.03190   0.03283   0.04290   0.06261
 Alpha virt. eigenvalues --    0.07331   0.07842   0.08422   0.09360   0.10306
 Alpha virt. eigenvalues --    0.12138   0.12301   0.12881   0.13497   0.13863

 Mulliken charges:
               1
     1  B    2.327437
     2  C    0.315922
     3  N   -1.840813
     4  Si   6.439217
     5  H   -1.682330
     6  H   -1.682245
     7  H   -1.976862
     8  H   -1.900326
 Sum of Mulliken charges =   0.00000

 Dipole moment (field-independent basis, Debye):
    X=              3.1312    Y=             -0.1948    Z=             -0.0011  Tot=              3.1372

 Test job not archived.
 1\1\GINC-SE071\SP\RHF\Aug-CC-pVDZ\C1H4B1N1Si1\OHZDE\09-Apr-2025\0\\#t
 hf aug-cc-pvdz iop(5/13=1,5/36=2,99/5=2) pseudo=read geom=check guess=
 (read,tcheck) scf=(maxcycle=1)\\title\\0,1\B,0,1.903214,0.920705,-0.00
 048\C,0,-1.204431,0.04922,0.000086\N,0,-2.285777,0.457545,0.000189\Si,
 0,0.548188,-0.568912,-0.000036\H,0,0.688856,-1.417584,-1.205849\H,0,0.
 689167,-1.417194,1.206015\H,0,1.600822,2.069276,0.000367\H,0,3.057475,
 0.628607,0.000538\\Version=ES64L-G16RevC.01\State=1-A\HF=-408.9188143\
 RMSD=1.233e-01\Dipole=1.2318934,-0.0766377,-0.0004216\Quadrupole=-2.89

 Normal termination of Gaussian 16 at Wed Apr  9 00:45:56 2025.
