 Gaussian 16, Revision C.01,

 ----------------------------------------------------------------------
 #t hf aug-cc-pvdz symm=none int=(grid=ultrafine) guess=(read,tcheck) s
 table=(opt,rrhf)
 ----------------------------------------------------------------------
 -----
 title
 -----
 Symbolic Z-matrix:
 Charge =  0 Multiplicity = 1

 SCF Done:  E(RHF) =  -347.308987831     A.U. after   13 cycles
 Normal termination of Gaussian 16 at Wed Apr  9 00:39:16 2025.
 Gaussian 16:  ES64L-G16RevC.01  3-Jul-2019

 ----------------------------------------------------------------------
 #t hf aug-cc-pvdz iop(5/13=1,5/36=2,99/5=2) pseudo=read geom=check gue
 ss=(read,tcheck) scf=(maxcycle=1)
 ----------------------------------------------------------------------
 -----
 title
 -----
 Structure from the checkpoint file:  "BDE49_nonexpt_584_mol1.chk"
 Charge =  0 Multiplicity = 1

                         Standard orientation:
 ---------------------------------------------------------------------
 Center     Atomic      Atomic             Coordinates (Angstroms)
 Number     Number       Type             X           Y           Z
 ---------------------------------------------------------------------
      1          6           0        0.894567   -0.842450   -0.159633
      2          5           0       -1.485221    0.069683   -0.013437
      3          8           0       -1.206480    1.399519   -0.204711
      4          8           0       -2.785048   -0.320068    0.186632
      5          6           0        1.656654    0.176159    0.261353
      6          6           0        3.137892    0.257348    0.026712
      7          1           0        1.208266    0.978372    0.842694
      8          1           0        3.507073   -0.630145   -0.494328
      9          1           0        3.686962    0.345364    0.970855
     10          1           0        3.410250    1.130492   -0.577572
     11          1           0       -0.288746    1.551709   -0.452992
     12          1           0       -3.385309    0.428794    0.133714
     13          7           0       -0.492608   -0.963418   -0.036894
     14          1           0        1.373329   -1.680634   -0.663387
     15          1           0       -0.839923   -1.910392   -0.059511
 ---------------------------------------------------------------------

 SCF Done:  E(RHF) =  -348.860586928     A.U. after    2 cycles

 The electronic state is 1-A.
 Alpha  occ. eigenvalues --  -21.05052 -21.04664 -15.71898 -11.45139 -11.39958
 Alpha  occ. eigenvalues --  -11.36516  -7.64318  -1.81935  -1.65228  -1.37881
 Alpha  occ. eigenvalues --   -1.16348  -0.97624  -0.82679  -0.75191  -0.69051
 Alpha  occ. eigenvalues --   -0.64833  -0.59477  -0.57470  -0.56112  -0.52053
 Alpha  occ. eigenvalues --   -0.50257  -0.49891  -0.43144  -0.41655  -0.38797
 Alpha  occ. eigenvalues --   -0.35776  -0.28678
 Alpha virt. eigenvalues --    0.03423   0.04566   0.04654   0.05623   0.06152
 Alpha virt. eigenvalues --    0.06439   0.06569   0.08129   0.08470   0.08917
 Alpha virt. eigenvalues --    0.09451   0.10654   0.11350   0.13537   0.14330

 Mulliken charges:
               1
     1  C    1.226243
     2  B    6.789013
     3  O   -4.036613
     4  O   -4.197408
     5  C   -0.642498
     6  C   -4.268441
     7  H    1.466856
     8  H    1.227484
     9  H    1.124633
    10  H    1.198728
    11  H    1.464932
    12  H    0.931743
    13  N   -5.015194
    14  H    1.613151
    15  H    1.117369
 Sum of Mulliken charges =  -0.00000

 Dipole moment (field-independent basis, Debye):
    X=              0.5821    Y=             -0.3827    Z=             -0.3077  Tot=              0.7615

 Test job not archived.
 1\1\GINC-SE120\SP\RHF\Aug-CC-pVDZ\C3H8B1N1O2\OHZDE\09-Apr-2025\0\\#t h
 f aug-cc-pvdz iop(5/13=1,5/36=2,99/5=2) pseudo=read geom=check guess=(
 read,tcheck) scf=(maxcycle=1)\\title\\0,1\C,0,0.894567,-0.84245,-0.159
 633\B,0,-1.485221,0.069683,-0.013437\O,0,-1.20648,1.399519,-0.204711\O
 ,0,-2.785048,-0.320068,0.186632\C,0,1.656654,0.176159,0.261353\C,0,3.1
 37892,0.257348,0.026712\H,0,1.208266,0.978372,0.842694\H,0,3.507073,-0
 .630145,-0.494328\H,0,3.686962,0.345364,0.970855\H,0,3.41025,1.130492,
 -0.577572\H,0,-0.288746,1.551709,-0.452992\H,0,-3.385309,0.428794,0.13

 Normal termination of Gaussian 16 at Wed Apr  9 00:39:22 2025.
