 Gaussian 16, Revision C.01,

 ----------------------------------------------------------------------
 #t hf aug-cc-pvdz symm=none int=(grid=ultrafine) guess=(read,tcheck) s
 table=(opt,rrhf)
 ----------------------------------------------------------------------
 -----
 title
 -----
 Symbolic Z-matrix:
 Charge =  0 Multiplicity = 1

 SCF Done:  E(RHF) =  -2312.33851114     A.U. after   13 cycles
 Normal termination of Gaussian 16 at Wed Apr  9 00:49:22 2025.
 Gaussian 16:  ES64L-G16RevC.01  3-Jul-2019

 ----------------------------------------------------------------------
 #t hf aug-cc-pvdz iop(5/13=1,5/36=2,99/5=2) pseudo=read geom=check gue
 ss=(read,tcheck) scf=(maxcycle=1)
 ----------------------------------------------------------------------
 -----
 title
 -----
 Structure from the checkpoint file:  "BDE49_nonexpt_867_mol1.chk"
 Charge =  0 Multiplicity = 1

                         Standard orientation:
 ---------------------------------------------------------------------
 Center     Atomic      Atomic             Coordinates (Angstroms)
 Number     Number       Type             X           Y           Z
 ---------------------------------------------------------------------
      1         16           0        0.838481   -1.193684   -0.529593
      2          5           0        2.048853    0.112245   -0.063849
      3         16           0        3.677150   -0.498810    0.467529
      4         16           0        1.811967    1.896145   -0.099453
      5         16           0       -0.905291   -0.223370   -1.162289
      6          6           0       -1.892993   -0.208885    0.382426
      7         17           0       -3.459451    0.557281   -0.036028
      8          9           0       -1.305122    0.494955    1.363146
      9          9           0       -2.115866   -1.440949    0.858962
     10          1           0        0.532894    1.862593   -0.523365
     11          1           0        3.423444   -1.814825    0.342472
 ---------------------------------------------------------------------

 SCF Done:  E(RHF) =  -2314.43666518     A.U. after    2 cycles

 The electronic state is 1-A.
 Alpha  occ. eigenvalues --  -99.93174 -75.75842 -75.73915 -75.71276 -75.70930
 Alpha  occ. eigenvalues --  -29.33401 -29.33325 -13.19560 -13.18875 -13.18257
 Alpha  occ. eigenvalues --  -13.16590 -13.15312 -13.13629 -13.13194 -13.11562
 Alpha  occ. eigenvalues --  -13.09207 -13.08723 -13.06249 -13.04860 -11.60381
 Alpha  occ. eigenvalues --  -10.50608  -9.70412  -9.69600  -9.69557  -8.09821
 Alpha  occ. eigenvalues --   -8.07847  -8.05347  -8.04716  -7.69965  -1.46588
 Alpha  occ. eigenvalues --   -1.29864  -1.24115  -1.16903  -1.11707  -1.03457
 Alpha  occ. eigenvalues --   -0.88905  -0.77812  -0.70599  -0.66954  -0.56897
 Alpha  occ. eigenvalues --   -0.55515  -0.54650  -0.50096  -0.48611  -0.45694
 Alpha  occ. eigenvalues --   -0.42904  -0.40729  -0.37805  -0.37350  -0.34948
 Alpha  occ. eigenvalues --   -0.32964  -0.30717  -0.27788  -0.26595  -0.26211
 Alpha  occ. eigenvalues --   -0.23612
 Alpha virt. eigenvalues --    0.01062   0.02245   0.02855   0.04244   0.05798
 Alpha virt. eigenvalues --    0.07560   0.08897   0.09641   0.09755   0.09887
 Alpha virt. eigenvalues --    0.10956   0.11402   0.12025   0.12972   0.13797

 Mulliken charges:
               1
     1  S   -1.575348
     2  B    4.498515
     3  S   -2.456742
     4  S   -2.301035
     5  S   -0.163443
     6  C   -0.782232
     7  Cl  -0.304380
     8  F    0.475906
     9  F    0.620542
    10  H    1.060178
    11  H    0.928038
 Sum of Mulliken charges =   0.00000

 Dipole moment (field-independent basis, Debye):
    X=              4.7513    Y=             -1.0320    Z=              3.5185  Tot=              6.0017

 Test job not archived.
 1\1\GINC-SE328\SP\RHF\Aug-CC-pVDZ\C1H2B1Cl1F2S4\OHZDE\09-Apr-2025\0\\#
 t hf aug-cc-pvdz iop(5/13=1,5/36=2,99/5=2) pseudo=read geom=check gues
 s=(read,tcheck) scf=(maxcycle=1)\\title\\0,1\S,0,0.838481,-1.193684,-0
 .529593\B,0,2.048853,0.112245,-0.063849\S,0,3.67715,-0.49881,0.467529\
 S,0,1.811967,1.896145,-0.099453\S,0,-0.905291,-0.22337,-1.162289\C,0,-
 1.892993,-0.208885,0.382426\Cl,0,-3.459451,0.557281,-0.036028\F,0,-1.3
 05122,0.494955,1.363146\F,0,-2.115866,-1.440949,0.858962\H,0,0.532894,
 1.862593,-0.523365\H,0,3.423444,-1.814825,0.342472\\Version=ES64L-G16R

 Normal termination of Gaussian 16 at Wed Apr  9 00:49:30 2025.
