 Gaussian 16, Revision C.01,

 ----------------------------------------------------------------------
 #t hf aug-cc-pvdz symm=none int=(grid=ultrafine) guess=(read,tcheck) s
 table=(opt,rrhf)
 ----------------------------------------------------------------------
 -----
 title
 -----
 Symbolic Z-matrix:
 Charge =  0 Multiplicity = 1

 SCF Done:  E(RHF) =  -1613.81847166     A.U. after   14 cycles
 Normal termination of Gaussian 16 at Tue Apr  8 23:32:13 2025.
 Gaussian 16:  ES64L-G16RevC.01  3-Jul-2019

 ----------------------------------------------------------------------
 #t hf aug-cc-pvdz iop(5/13=1,5/36=2,99/5=2) pseudo=read geom=check gue
 ss=(read,tcheck) scf=(maxcycle=1)
 ----------------------------------------------------------------------
 -----
 title
 -----
 Structure from the checkpoint file:  "BDE49_nonexpt_1362_mol1.chk"
 Charge =  0 Multiplicity = 1

                         Standard orientation:
 ---------------------------------------------------------------------
 Center     Atomic      Atomic             Coordinates (Angstroms)
 Number     Number       Type             X           Y           Z
 ---------------------------------------------------------------------
      1          9           0       -0.102870    2.143349    0.183458
      2         15           0       -0.016757    0.918847   -0.875943
      3         16           0        1.717254   -0.122506    0.173823
      4         16           0       -1.720348   -0.329287   -0.115623
      5          8           0        2.817688    0.801783   -0.032019
      6          8           0        1.365740   -0.560179    1.514743
      7          8           0       -2.918758    0.279885   -0.660664
      8          8           0       -1.342047   -1.686667   -0.487326
      9          6           0        1.968916   -1.579036   -0.843435
     10          1           0        2.819251   -2.100819   -0.400376
     11          1           0        2.203054   -1.260031   -1.858542
     12          1           0        1.066307   -2.187451   -0.801577
     13          6           0       -1.775030   -0.175109    1.670588
     14          1           0       -1.912034    0.877977    1.911874
     15          1           0       -0.849862   -0.568617    2.085339
     16          1           0       -2.644321   -0.758919    1.979325
 ---------------------------------------------------------------------

 SCF Done:  E(RHF) =  -1616.52482713     A.U. after    2 cycles

 The electronic state is 1-A.
 Alpha  occ. eigenvalues -- -105.32495 -75.91092 -75.90959 -29.33608 -21.07499
 Alpha  occ. eigenvalues --  -21.07411 -21.07225 -21.07164 -13.53314 -13.53114
 Alpha  occ. eigenvalues --  -13.41547 -13.41067 -13.36276 -13.34070 -11.44312
 Alpha  occ. eigenvalues --  -11.43840  -8.26075  -8.25969  -2.90592  -1.85232
 Alpha  occ. eigenvalues --   -1.85123  -1.67634  -1.67071  -1.64330  -1.55646
 Alpha  occ. eigenvalues --   -1.54682  -1.16995  -1.16499  -0.96207  -0.89931
 Alpha  occ. eigenvalues --   -0.83346  -0.65999  -0.65430  -0.64965  -0.64308
 Alpha  occ. eigenvalues --   -0.60263  -0.59997  -0.56011  -0.54573  -0.47990
 Alpha  occ. eigenvalues --   -0.46745  -0.46005  -0.42988  -0.42490  -0.40597
 Alpha  occ. eigenvalues --   -0.40211  -0.38734  -0.38100  -0.37867  -0.37330
 Alpha  occ. eigenvalues --   -0.21462  -0.19093  -0.06436
 Alpha virt. eigenvalues --    0.03150   0.04186   0.05473   0.06055   0.06632
 Alpha virt. eigenvalues --    0.07104   0.07828   0.09138   0.10403   0.11759
 Alpha virt. eigenvalues --    0.12394   0.12659   0.13093   0.13542   0.13869

 Mulliken charges:
               1
     1  F   -0.593787
     2  P    3.133063
     3  S    4.624667
     4  S    4.364888
     5  O   -2.477333
     6  O   -2.601055
     7  O   -2.484166
     8  O   -2.555781
     9  C   -4.846527
    10  H    1.273860
    11  H    1.364557
    12  H    1.492263
    13  C   -4.904598
    14  H    1.325420
    15  H    1.586918
    16  H    1.297610
 Sum of Mulliken charges =  -0.00000

 Dipole moment (field-independent basis, Debye):
    X=              0.2986    Y=              5.5777    Z=             -1.3551  Tot=              5.7477

 Test job not archived.
 1\1\GINC-SE060\SP\RHF\Aug-CC-pVDZ\C2H6F1O4P1S2\OHZDE\08-Apr-2025\0\\#t
  hf aug-cc-pvdz iop(5/13=1,5/36=2,99/5=2) pseudo=read geom=check guess
 =(read,tcheck) scf=(maxcycle=1)\\title\\0,1\F,0,-0.10287,2.143349,0.18
 3458\P,0,-0.016757,0.918847,-0.875943\S,0,1.717254,-0.122506,0.173823\
 S,0,-1.720348,-0.329287,-0.115623\O,0,2.817688,0.801782,-0.032019\O,0,
 1.36574,-0.560179,1.514743\O,0,-2.918758,0.279885,-0.660664\O,0,-1.342
 047,-1.686667,-0.487326\C,0,1.968916,-1.579036,-0.843435\H,0,2.819251,
 -2.10082,-0.400376\H,0,2.203054,-1.260031,-1.858542\H,0,1.066307,-2.18

 Normal termination of Gaussian 16 at Tue Apr  8 23:32:23 2025.
