 Gaussian 16, Revision C.01,

 ----------------------------------------------------------------------
 #t hf aug-cc-pvdz symm=none int=(grid=ultrafine) guess=(read,tcheck) s
 table=(opt,rrhf)
 ----------------------------------------------------------------------
 -----
 title
 -----
 Symbolic Z-matrix:
 Charge =  0 Multiplicity = 1

 SCF Done:  E(RHF) =  -747.185054051     A.U. after   15 cycles
 Normal termination of Gaussian 16 at Wed Apr  9 00:45:06 2025.
 Gaussian 16:  ES64L-G16RevC.01  3-Jul-2019

 ----------------------------------------------------------------------
 #t hf aug-cc-pvdz iop(5/13=1,5/36=2,99/5=2) pseudo=read geom=check gue
 ss=(read,tcheck) scf=(maxcycle=1)
 ----------------------------------------------------------------------
 -----
 title
 -----
 Structure from the checkpoint file:  "BDE49_nonexpt_740_mol1.chk"
 Charge =  0 Multiplicity = 1

                         Standard orientation:
 ---------------------------------------------------------------------
 Center     Atomic      Atomic             Coordinates (Angstroms)
 Number     Number       Type             X           Y           Z
 ---------------------------------------------------------------------
      1          6           0        2.375893    1.118519    0.588793
      2          6           0        1.090301    0.700717    0.931275
      3          6           0        3.121788    0.396108   -0.338911
      4          6           0        2.571859   -0.743531   -0.924101
      5          6           0        1.281551   -1.151473   -0.596540
      6          6           0        0.517197   -0.434353    0.335043
      7          1           0        0.864080   -2.032655   -1.070595
      8          1           0        4.124841    0.713673   -0.599454
      9          1           0        3.147221   -1.314319   -1.644748
     10          1           0        2.797778    1.999455    1.059887
     11          1           0        0.536159    1.250308    1.686523
     12          5           0       -2.229800    0.323169   -0.241230
     13          8           0       -3.540930    0.020709   -0.436984
     14          8           0       -1.727772    1.491544   -0.731494
     15          1           0       -0.775352    1.577959   -0.608318
     16          1           0       -3.994531    0.697603   -0.953920
     17         15           0       -1.187000   -0.925409    0.847954
     18          1           0       -1.348113   -2.040677   -0.008070
 ---------------------------------------------------------------------

 SCF Done:  E(RHF) =  -749.206469417     A.U. after    2 cycles

 The electronic state is 1-A.
 Alpha  occ. eigenvalues -- -105.16867 -21.06397 -21.05998 -11.52422 -11.44125
 Alpha  occ. eigenvalues --  -11.43891 -11.41711 -11.41369 -11.37116  -7.65135
 Alpha  occ. eigenvalues --   -2.74422  -1.81840  -1.66153  -1.50275  -1.46033
 Alpha  occ. eigenvalues --   -1.43913  -1.33307  -1.09935  -1.08534  -0.87081
 Alpha  occ. eigenvalues --   -0.85937  -0.77708  -0.72690  -0.68631  -0.63641
 Alpha  occ. eigenvalues --   -0.62062  -0.59065  -0.57353  -0.52592  -0.50737
 Alpha  occ. eigenvalues --   -0.49154  -0.48818  -0.45520  -0.42663  -0.36933
 Alpha  occ. eigenvalues --   -0.34728  -0.34031  -0.24747  -0.15830  -0.02265
 Alpha virt. eigenvalues --    0.03020   0.04667   0.04987   0.05169   0.05954
 Alpha virt. eigenvalues --    0.06492   0.06893   0.08006   0.08317   0.09206
 Alpha virt. eigenvalues --    0.09703   0.10293   0.10662   0.11273   0.11872

 Mulliken charges:
               1
     1  C   -1.028194
     2  C   -3.654138
     3  C   -2.329084
     4  C   -0.501256
     5  C   -3.614178
     6  C    3.262586
     7  H    1.904332
     8  H    1.490307
     9  H    1.525303
    10  H    1.532090
    11  H    2.020709
    12  B    5.601871
    13  O   -3.728535
    14  O   -3.856921
    15  H    1.901263
    16  H    1.139812
    17  P    0.013390
    18  H   -1.679358
 Sum of Mulliken charges =  -0.00000

 Dipole moment (field-independent basis, Debye):
    X=              1.7304    Y=             -0.2557    Z=              2.7258  Tot=              3.2388

 Test job not archived.
 1\1\GINC-SE340\SP\RHF\Aug-CC-pVDZ\C6H8B1O2P1\OHZDE\09-Apr-2025\0\\#t h
 f aug-cc-pvdz iop(5/13=1,5/36=2,99/5=2) pseudo=read geom=check guess=(
 read,tcheck) scf=(maxcycle=1)\\title\\0,1\C,0,2.375893,1.118519,0.5887
 93\C,0,1.090301,0.700717,0.931275\C,0,3.121788,0.396108,-0.338911\C,0,
 2.571859,-0.743531,-0.924101\C,0,1.281551,-1.151473,-0.59654\C,0,0.517
 197,-0.434353,0.335043\H,0,0.86408,-2.032655,-1.070595\H,0,4.124841,0.
 713673,-0.599454\H,0,3.147221,-1.314319,-1.644748\H,0,2.797778,1.99945
 5,1.059887\H,0,0.536159,1.250308,1.686523\B,0,-2.2298,0.323169,-0.2412

 Normal termination of Gaussian 16 at Wed Apr  9 00:45:15 2025.
