 Gaussian 16, Revision C.01,

 ----------------------------------------------------------------------
 #t hf aug-cc-pvdz symm=none int=(grid=ultrafine) guess=(read,tcheck) s
 table=(opt,rrhf)
 ----------------------------------------------------------------------
 -----
 title
 -----
 Symbolic Z-matrix:
 Charge =  0 Multiplicity = 1

 SCF Done:  E(RHF) =  -481.669035570     A.U. after   14 cycles

 1\1\GINC-SE461\Stability\RHF\Aug-CC-pVDZ\C5H6Si1\OHZDE\08-Apr-2025\0\\
 #t hf aug-cc-pvdz symm=none int=(grid=ultrafine) guess=(read,tcheck) s
 table=(opt,rrhf)\\title\\0,1\C,0,0.786382,-0.807506,0.000093\Si,0,-0.4
 19967,0.659769,-0.000082\C,0,-2.135639,0.01905,0.000027\H,0,-0.210342,
 1.480184,-1.210146\H,0,-0.210339,1.480465,1.209792\C,0,2.167692,-0.354
 856,0.000032\C,0,3.292992,0.068939,0.000013\C,0,-3.261444,-0.420021,0.
 000123\H,0,-4.254267,-0.803071,-0.0004\H,0,4.293041,0.4266,-0.000187\H
 ,0,0.580772,-1.427409,-0.879365\H,0,0.580779,-1.427167,0.879726\\Versi

 Normal termination of Gaussian 16 at Tue Apr  8 23:49:30 2025.
 Gaussian 16:  ES64L-G16RevC.01  3-Jul-2019

 ----------------------------------------------------------------------
 #t hf aug-cc-pvdz iop(5/13=1,5/36=2,99/5=2) pseudo=read geom=check gue
 ss=(read,tcheck) scf=(maxcycle=1)
 ----------------------------------------------------------------------
 -----
 title
 -----
 Structure from the checkpoint file:  "BDE49_nonexpt_1833_mol1.chk"
 Charge =  0 Multiplicity = 1

                         Standard orientation:
 ---------------------------------------------------------------------
 Center     Atomic      Atomic             Coordinates (Angstroms)
 Number     Number       Type             X           Y           Z
 ---------------------------------------------------------------------
      1          6           0       -0.786382   -0.807506   -0.000093
      2         14           0        0.419967    0.659769    0.000082
      3          6           0        2.135639    0.019050   -0.000027
      4          1           0        0.210342    1.480184    1.210146
      5          1           0        0.210339    1.480465   -1.209792
      6          6           0       -2.167692   -0.354856   -0.000032
      7          6           0       -3.292992    0.068939   -0.000013
      8          6           0        3.261444   -0.420021   -0.000123
      9          1           0        4.254267   -0.803071    0.000400
     10          1           0       -4.293041    0.426600    0.000187
     11          1           0       -0.580772   -1.427409    0.879365
     12          1           0       -0.580779   -1.427167   -0.879726
 ---------------------------------------------------------------------

 SCF Done:  E(RHF) =  -482.749550898     A.U. after    2 cycles

 The electronic state is 1-A.
 Alpha  occ. eigenvalues --  -76.23586 -11.44380 -11.42563 -11.40089 -11.38867
 Alpha  occ. eigenvalues --  -11.38677  -5.57207  -2.21940  -2.20303  -2.19499
 Alpha  occ. eigenvalues --   -1.18120  -1.10024  -1.00432  -0.81279  -0.73575
 Alpha  occ. eigenvalues --   -0.71816  -0.61014  -0.60868  -0.52311  -0.48692
 Alpha  occ. eigenvalues --   -0.48574  -0.39888  -0.39244  -0.36773  -0.34080
 Alpha virt. eigenvalues --    0.02955   0.04286   0.05468   0.05880   0.06714
 Alpha virt. eigenvalues --    0.06844   0.07570   0.08014   0.09447   0.10464
 Alpha virt. eigenvalues --    0.10654   0.11011   0.11369   0.12509   0.13336

 Mulliken charges:
               1
     1  C   -4.492254
     2  Si   5.683679
     3  C    0.520462
     4  H   -1.807034
     5  H   -1.806893
     6  C    4.311332
     7  C   -4.140410
     8  C   -2.390138
     9  H    0.841230
    10  H    0.814873
    11  H    1.232588
    12  H    1.232564
 Sum of Mulliken charges =   0.00000

 Dipole moment (field-independent basis, Debye):
    X=              1.2209    Y=             -0.9247    Z=              0.0009  Tot=              1.5316

 Test job not archived.
 1\1\GINC-SE461\SP\RHF\Aug-CC-pVDZ\C5H6Si1\OHZDE\08-Apr-2025\0\\#t hf a
 ug-cc-pvdz iop(5/13=1,5/36=2,99/5=2) pseudo=read geom=check guess=(rea
 d,tcheck) scf=(maxcycle=1)\\title\\0,1\C,0,0.786382,-0.807506,0.000093
 \Si,0,-0.419967,0.659769,-0.000082\C,0,-2.135639,0.01905,0.000027\H,0,
 -0.210342,1.480184,-1.210146\H,0,-0.210339,1.480465,1.209792\C,0,2.167
 692,-0.354856,0.000032\C,0,3.292992,0.068939,0.000013\C,0,-3.261444,-0
 .420021,0.000123\H,0,-4.254267,-0.803071,-0.0004\H,0,4.293041,0.4266,-
 0.000187\H,0,0.580772,-1.427409,-0.879365\H,0,0.580779,-1.427167,0.879

 Normal termination of Gaussian 16 at Tue Apr  8 23:49:34 2025.
