 Gaussian 16, Revision C.01,

 ----------------------------------------------------------------------
 #t hf aug-cc-pvdz symm=none int=(grid=ultrafine) guess=(read,tcheck) s
 table=(opt,rrhf)
 ----------------------------------------------------------------------
 -----
 title
 -----
 Symbolic Z-matrix:
 Charge =  0 Multiplicity = 1

 SCF Done:  E(RHF) =  -498.080165931     A.U. after   13 cycles
 Normal termination of Gaussian 16 at Tue Apr  8 23:58:28 2025.
 Gaussian 16:  ES64L-G16RevC.01  3-Jul-2019

 ----------------------------------------------------------------------
 #t hf aug-cc-pvdz iop(5/13=1,5/36=2,99/5=2) pseudo=read geom=check gue
 ss=(read,tcheck) scf=(maxcycle=1)
 ----------------------------------------------------------------------
 -----
 title
 -----
 Structure from the checkpoint file:  "BDE49_nonexpt_2048_mol1.chk"
 Charge =  0 Multiplicity = 1

                         Standard orientation:
 ---------------------------------------------------------------------
 Center     Atomic      Atomic             Coordinates (Angstroms)
 Number     Number       Type             X           Y           Z
 ---------------------------------------------------------------------
      1         14           0        1.821647   -0.286671    0.000001
      2          6           0       -0.009294    0.296148   -0.000037
      3          8           0       -0.221046    1.501718    0.000014
      4          7           0       -1.000230   -0.643278   -0.000008
      5          6           0       -2.416618   -0.300909    0.000013
      6          1           0       -0.735155   -1.615493    0.000003
      7          1           0       -2.488141    0.785321   -0.000001
      8          1           0       -2.915852   -0.692898    0.890455
      9          1           0       -2.915885   -0.692922   -0.890401
     10          1           0        2.468536    0.257841    1.211215
     11          1           0        2.468574    0.257840   -1.211192
     12          1           0        1.940308   -1.768521    0.000002
 ---------------------------------------------------------------------

 SCF Done:  E(RHF) =  -499.177823185     A.U. after    2 cycles

 The electronic state is 1-A.
 Alpha  occ. eigenvalues --  -76.22973 -21.02584 -15.76942 -11.45878 -11.39897
 Alpha  occ. eigenvalues --   -5.56501  -2.20342  -2.18949  -2.18632  -1.69620
 Alpha  occ. eigenvalues --   -1.38599  -1.02484  -0.83761  -0.77470  -0.65362
 Alpha  occ. eigenvalues --   -0.61903  -0.57985  -0.53106  -0.51442  -0.48197
 Alpha  occ. eigenvalues --   -0.46707  -0.46417  -0.30857  -0.26889
 Alpha virt. eigenvalues --    0.03312   0.04548   0.05532   0.05563   0.06311
 Alpha virt. eigenvalues --    0.06881   0.07312   0.07864   0.09800   0.10102
 Alpha virt. eigenvalues --    0.11883   0.13617   0.13892   0.14235   0.14575

 Mulliken charges:
               1
     1  Si   6.124695
     2  C    2.652373
     3  O   -2.608198
     4  N   -2.659695
     5  C   -3.268024
     6  H    0.868913
     7  H    1.363887
     8  H    1.308162
     9  H    1.308162
    10  H   -1.761532
    11  H   -1.761537
    12  H   -1.567207
 Sum of Mulliken charges =   0.00000

 Dipole moment (field-independent basis, Debye):
    X=             -1.2016    Y=             -1.9836    Z=              0.0001  Tot=              2.3191

 Test job not archived.
 1\1\GINC-SE253\SP\RHF\Aug-CC-pVDZ\C2H7N1O1Si1\OHZDE\08-Apr-2025\0\\#t
 hf aug-cc-pvdz iop(5/13=1,5/36=2,99/5=2) pseudo=read geom=check guess=
 (read,tcheck) scf=(maxcycle=1)\\title\\0,1\Si,0,-1.821647,-0.286671,-0
 .000001\C,0,0.009294,0.296148,0.000037\O,0,0.221046,1.501718,-0.000014
 \N,0,1.00023,-0.643278,0.000008\C,0,2.416618,-0.300909,-0.000013\H,0,0
 .735155,-1.615493,-0.000003\H,0,2.488141,0.785321,0.000001\H,0,2.91585
 2,-0.692898,-0.890455\H,0,2.915885,-0.692922,0.890401\H,0,-2.468536,0.
 257841,-1.211215\H,0,-2.468574,0.25784,1.211192\H,0,-1.940308,-1.76852

 Normal termination of Gaussian 16 at Tue Apr  8 23:58:32 2025.
