 Gaussian 16, Revision C.01,

 ----------------------------------------------------------------------
 #t hf aug-cc-pvdz symm=none int=(grid=ultrafine) guess=(read,tcheck) s
 table=(opt,rrhf)
 ----------------------------------------------------------------------
 -----
 title
 -----
 Symbolic Z-matrix:
 Charge =  0 Multiplicity = 1

 SCF Done:  E(RHF) =  -1119.23124559     A.U. after   15 cycles
 Normal termination of Gaussian 16 at Tue Apr  8 23:35:37 2025.
 Gaussian 16:  ES64L-G16RevC.01  3-Jul-2019

 ----------------------------------------------------------------------
 #t hf aug-cc-pvdz iop(5/13=1,5/36=2,99/5=2) pseudo=read geom=check gue
 ss=(read,tcheck) scf=(maxcycle=1)
 ----------------------------------------------------------------------
 -----
 title
 -----
 Structure from the checkpoint file:  "BDE49_nonexpt_1443_mol1.chk"
 Charge =  0 Multiplicity = 1

                         Standard orientation:
 ---------------------------------------------------------------------
 Center     Atomic      Atomic             Coordinates (Angstroms)
 Number     Number       Type             X           Y           Z
 ---------------------------------------------------------------------
      1         16           0       -0.310872   -1.283920   -0.000000
      2          8           0       -0.868215   -1.718286    1.268829
      3         15           0        1.791492   -1.982754   -0.000000
      4          6           0       -0.294481    0.513735    0.000000
      5          6           0       -0.302038    1.192771    1.216865
      6          6           0       -0.302038    2.584945    1.209873
      7          6           0       -0.297787    3.278369    0.000000
      8          6           0       -0.302038    2.584945   -1.209873
      9          6           0       -0.302038    1.192771   -1.216865
     10          1           0       -0.314350    3.127137   -2.148118
     11          1           0       -0.328809    0.635384   -2.144596
     12          1           0       -0.328809    0.635384    2.144596
     13          1           0       -0.314350    3.127137    2.148118
     14          1           0       -0.299752    4.362338    0.000000
     15          8           0       -0.868215   -1.718286   -1.268829
     16          1           0        2.190802   -1.097995    1.033184
     17          1           0        2.190802   -1.097995   -1.033184
 ---------------------------------------------------------------------

 SCF Done:  E(RHF) =  -1121.41263629     A.U. after    2 cycles

 The electronic state is 1-A'.
 Alpha  occ. eigenvalues -- -105.23269 -75.88613 -21.04538 -21.04471 -13.51182
 Alpha  occ. eigenvalues --  -13.38674 -13.35282 -11.54222 -11.46166 -11.45923
 Alpha  occ. eigenvalues --  -11.44010 -11.43242 -11.39273  -8.23576  -2.79769
 Alpha  occ. eigenvalues --   -1.82531  -1.64985  -1.48664  -1.48164  -1.47040
 Alpha  occ. eigenvalues --   -1.36972  -1.14433  -1.12006  -0.97816  -0.89407
 Alpha  occ. eigenvalues --   -0.85565  -0.76980  -0.73190  -0.65952  -0.61114
 Alpha  occ. eigenvalues --   -0.60621  -0.60352  -0.55041  -0.50421  -0.48739
 Alpha  occ. eigenvalues --   -0.48251  -0.44675  -0.39908  -0.38672  -0.35718
 Alpha  occ. eigenvalues --   -0.35675  -0.35462  -0.28256  -0.18999  -0.06617
 Alpha virt. eigenvalues --    0.02777   0.04784   0.04846   0.05061   0.06111
 Alpha virt. eigenvalues --    0.07152   0.07881   0.07938   0.09918   0.10180
 Alpha virt. eigenvalues --    0.10219   0.10759   0.12179   0.12403   0.13305

 Mulliken charges:
               1
     1  S    5.150285
     2  O   -2.862188
     3  P    2.160665
     4  C    2.839247
     5  C   -4.156539
     6  C   -0.003772
     7  C   -2.996065
     8  C   -0.003772
     9  C   -4.156539
    10  H    1.548817
    11  H    1.831645
    12  H    1.831645
    13  H    1.548817
    14  H    1.550431
    15  O   -2.862188
    16  H   -0.710245
    17  H   -0.710245
 Sum of Mulliken charges =   0.00000

 Dipole moment (field-independent basis, Debye):
    X=              4.4688    Y=             -4.1199    Z=             -0.0000  Tot=              6.0781

 Test job not archived.
 1\1\GINC-SE222\SP\RHF\Aug-CC-pVDZ\C6H7O2P1S1\OHZDE\08-Apr-2025\0\\#t h
 f aug-cc-pvdz iop(5/13=1,5/36=2,99/5=2) pseudo=read geom=check guess=(
 read,tcheck) scf=(maxcycle=1)\\title\\0,1\S,0,0.310872,-1.28392,0.\O,0
 ,0.868215,-1.718286,-1.268829\P,0,-1.791492,-1.982754,0.\C,0,0.294481,
 0.513735,0.\C,0,0.302038,1.192771,-1.216865\C,0,0.302038,2.584945,-1.2
 09873\C,0,0.297787,3.278369,0.\C,0,0.302038,2.584945,1.209873\C,0,0.30
 2038,1.192771,1.216865\H,0,0.31435,3.127137,2.148118\H,0,0.328809,0.63
 5384,2.144596\H,0,0.328809,0.635384,-2.144596\H,0,0.31435,3.127137,-2.

 Normal termination of Gaussian 16 at Tue Apr  8 23:35:45 2025.
