 Gaussian 16, Revision C.01,

 ----------------------------------------------------------------------
 #t hf aug-cc-pvdz symm=none int=(grid=ultrafine) guess=(read,tcheck) s
 table=(opt,rrhf)
 ----------------------------------------------------------------------
 -----
 title
 -----
 Symbolic Z-matrix:
 Charge =  0 Multiplicity = 1

 SCF Done:  E(RHF) =  -942.200744625     A.U. after   13 cycles
 Normal termination of Gaussian 16 at Wed Apr  9 00:03:54 2025.
 Gaussian 16:  ES64L-G16RevC.01  3-Jul-2019

 ----------------------------------------------------------------------
 #t hf aug-cc-pvdz iop(5/13=1,5/36=2,99/5=2) pseudo=read geom=check gue
 ss=(read,tcheck) scf=(maxcycle=1)
 ----------------------------------------------------------------------
 -----
 title
 -----
 Structure from the checkpoint file:  "BDE49_nonexpt_2168_mol1.chk"
 Charge =  0 Multiplicity = 1

                         Standard orientation:
 ---------------------------------------------------------------------
 Center     Atomic      Atomic             Coordinates (Angstroms)
 Number     Number       Type             X           Y           Z
 ---------------------------------------------------------------------
      1          6           0       -2.043037   -0.137609   -0.460502
      2          8           0       -1.255446    0.828654    0.248487
      3         14           0        0.212959    1.445034   -0.129535
      4          6           0        1.641376    0.426434    0.572329
      5          6           0       -2.246357   -1.384280    0.384050
      6         17           0        1.740622   -1.212274   -0.222337
      7          1           0        1.537353    0.246802    1.642633
      8          1           0        2.600777    0.915828    0.394540
      9          1           0       -1.564649   -0.390989   -1.413964
     10          1           0       -3.004408    0.334320   -0.684509
     11          1           0       -1.293304   -1.879816    0.580970
     12          1           0       -2.901303   -2.089504   -0.136536
     13          1           0       -2.708678   -1.124584    1.339135
     14          1           0        0.297958    2.778880    0.505059
     15          1           0        0.395934    1.530748   -1.597265
 ---------------------------------------------------------------------

 SCF Done:  E(RHF) =  -943.523070143     A.U. after    2 cycles

 The electronic state is 1-A.
 Alpha  occ. eigenvalues --  -99.88154 -76.23728 -21.04310 -11.43856 -11.40961
 Alpha  occ. eigenvalues --  -11.36378 -10.45314  -9.65173  -9.64676  -9.64539
 Alpha  occ. eigenvalues --   -5.57627  -2.24868  -2.20146  -2.19403  -1.69771
 Alpha  occ. eigenvalues --   -1.31738  -1.11715  -1.00748  -0.88167  -0.73800
 Alpha  occ. eigenvalues --   -0.64782  -0.63560  -0.60913  -0.59564  -0.54237
 Alpha  occ. eigenvalues --   -0.53396  -0.51532  -0.49469  -0.47778  -0.46643
 Alpha  occ. eigenvalues --   -0.43385  -0.36607  -0.34809
 Alpha virt. eigenvalues --    0.03580   0.04358   0.05408   0.05924   0.06153
 Alpha virt. eigenvalues --    0.06296   0.06614   0.06677   0.07661   0.08797
 Alpha virt. eigenvalues --    0.09511   0.09733   0.11266   0.12643   0.13002

 Mulliken charges:
               1
     1  C   -1.735095
     2  O   -3.285580
     3  Si   6.749158
     4  C   -4.399571
     5  C   -3.369256
     6  Cl  -0.038401
     7  H    1.577278
     8  H    1.482498
     9  H    1.572155
    10  H    1.390052
    11  H    1.306678
    12  H    1.176014
    13  H    1.333912
    14  H   -1.946121
    15  H   -1.813722
 Sum of Mulliken charges =  -0.00000

 Dipole moment (field-independent basis, Debye):
    X=             -0.9775    Y=              1.2095    Z=              0.8368  Tot=              1.7660

 Test job not archived.
 1\1\GINC-SE322\SP\RHF\Aug-CC-pVDZ\C3H9Cl1O1Si1\OHZDE\09-Apr-2025\0\\#t
  hf aug-cc-pvdz iop(5/13=1,5/36=2,99/5=2) pseudo=read geom=check guess
 =(read,tcheck) scf=(maxcycle=1)\\title\\0,1\C,0,-2.043037,-0.137609,-0
 .460502\O,0,-1.255446,0.828654,0.248487\Si,0,0.212959,1.445034,-0.1295
 35\C,0,1.641376,0.426434,0.572329\C,0,-2.246357,-1.38428,0.38405\Cl,0,
 1.740622,-1.212274,-0.222337\H,0,1.537353,0.246802,1.642633\H,0,2.6007
 77,0.915828,0.39454\H,0,-1.564649,-0.390989,-1.413964\H,0,-3.004408,0.
 33432,-0.684509\H,0,-1.293304,-1.879816,0.58097\H,0,-2.901303,-2.08950

 Normal termination of Gaussian 16 at Wed Apr  9 00:04:00 2025.
