 Gaussian 16, Revision C.01,

 ----------------------------------------------------------------------
 #t hf aug-cc-pvdz symm=none int=(grid=ultrafine) guess=(read,tcheck) s
 table=(opt,rrhf)
 ----------------------------------------------------------------------
 -----
 title
 -----
 Symbolic Z-matrix:
 Charge =  0 Multiplicity = 1

 SCF Done:  E(RHF) =  -664.452892365     A.U. after   16 cycles
 Normal termination of Gaussian 16 at Wed Apr  9 00:42:06 2025.
 Gaussian 16:  ES64L-G16RevC.01  3-Jul-2019

 ----------------------------------------------------------------------
 #t hf aug-cc-pvdz iop(5/13=1,5/36=2,99/5=2) pseudo=read geom=check gue
 ss=(read,tcheck) scf=(maxcycle=1)
 ----------------------------------------------------------------------
 -----
 title
 -----
 Structure from the checkpoint file:  "BDE49_nonexpt_597_mol1.chk"
 Charge =  0 Multiplicity = 1

                         Standard orientation:
 ---------------------------------------------------------------------
 Center     Atomic      Atomic             Coordinates (Angstroms)
 Number     Number       Type             X           Y           Z
 ---------------------------------------------------------------------
      1          6           0        1.177739    2.396641    0.186051
      2          6           0       -0.187986    2.177505    0.063188
      3          6           0        2.078646    1.334702    0.153056
      4          6           0        1.556871    0.061788   -0.027605
      5          6           0        0.198486   -0.188008   -0.177366
      6          6           0       -0.706774    0.880642   -0.111957
      7          1           0       -0.120905   -1.197924   -0.389581
      8          1           0        1.545603    3.406961    0.319970
      9          1           0       -0.874434    3.016416    0.109056
     10          5           0       -2.895623   -0.464202    0.039701
     11          8           0       -2.457126   -1.619319    0.631106
     12          8           0       -4.213744   -0.357083   -0.311021
     13          1           0        3.144536    1.473537    0.256531
     14          7           0        2.487438   -1.091462   -0.087729
     15          8           0        3.685511   -0.856251   -0.026477
     16          8           0        1.999522   -2.209662   -0.190091
     17          1           0       -4.715238   -1.134335   -0.048788
     18          1           0       -1.567299   -1.587236    0.991156
     19          7           0       -2.080776    0.689182   -0.237923
     20          1           0       -2.595970    1.518448   -0.497631
 ---------------------------------------------------------------------

 SCF Done:  E(RHF) =  -667.344047781     A.U. after    2 cycles

 The electronic state is 1-A.
 Alpha  occ. eigenvalues --  -21.09866 -21.09695 -21.07040 -21.06139 -16.00344
 Alpha  occ. eigenvalues --  -15.74403 -11.56573 -11.50421 -11.47704 -11.45221
 Alpha  occ. eigenvalues --  -11.45076 -11.40697  -7.66980  -2.00180  -1.83778
 Alpha  occ. eigenvalues --   -1.69433  -1.66956  -1.44782  -1.32117  -1.17516
 Alpha  occ. eigenvalues --   -1.10884  -1.00826  -0.90932  -0.84701  -0.79629
 Alpha  occ. eigenvalues --   -0.75165  -0.71024  -0.68854  -0.67907  -0.66879
 Alpha  occ. eigenvalues --   -0.63375  -0.62671  -0.59832  -0.58474  -0.55362
 Alpha  occ. eigenvalues --   -0.51503  -0.51287  -0.50170  -0.45007  -0.42500
 Alpha  occ. eigenvalues --   -0.40736  -0.37476  -0.36959  -0.36084  -0.32099
 Alpha  occ. eigenvalues --   -0.31477  -0.30159
 Alpha virt. eigenvalues --    0.02624   0.03819   0.04168   0.04951   0.05333
 Alpha virt. eigenvalues --    0.06244   0.06547   0.07315   0.08165   0.08437
 Alpha virt. eigenvalues --    0.09106   0.09522   0.10644   0.11688   0.12103

 Mulliken charges:
               1
     1  C    1.016188
     2  C   -4.336088
     3  C   -3.943585
     4  C    3.110324
     5  C   -2.341720
     6  C    6.843986
     7  H    2.025254
     8  H    1.508171
     9  H    1.826112
    10  B    7.002117
    11  O   -4.401093
    12  O   -4.245976
    13  H    1.867833
    14  N    3.456647
    15  O   -3.112911
    16  O   -2.986113
    17  H    1.029205
    18  H    1.514248
    19  N   -6.973369
    20  H    1.140769
 Sum of Mulliken charges =  -0.00000

 Dipole moment (field-independent basis, Debye):
    X=             -2.0861    Y=              2.5255    Z=              0.4002  Tot=              3.3000

 Test job not archived.
 1\1\GINC-SE329\SP\RHF\Aug-CC-pVDZ\C6H7B1N2O4\OHZDE\09-Apr-2025\0\\#t h
 f aug-cc-pvdz iop(5/13=1,5/36=2,99/5=2) pseudo=read geom=check guess=(
 read,tcheck) scf=(maxcycle=1)\\title\\0,1\C,0,1.177739,2.396641,0.1860
 51\C,0,-0.187986,2.177505,0.063188\C,0,2.078646,1.334702,0.153056\C,0,
 1.556871,0.061788,-0.027605\C,0,0.198486,-0.188008,-0.177366\C,0,-0.70
 6774,0.880642,-0.111957\H,0,-0.120905,-1.197924,-0.389581\H,0,1.545603
 ,3.406961,0.31997\H,0,-0.874434,3.016416,0.109056\B,0,-2.895623,-0.464
 202,0.039701\O,0,-2.457126,-1.619319,0.631106\O,0,-4.213744,-0.357083,

 Normal termination of Gaussian 16 at Wed Apr  9 00:42:19 2025.
