 Gaussian 16, Revision C.01,

 ----------------------------------------------------------------------
 #t hf aug-cc-pvdz symm=none int=(grid=ultrafine) guess=(read,tcheck) s
 table=(opt,rrhf)
 ----------------------------------------------------------------------
 -----
 title
 -----
 Symbolic Z-matrix:
 Charge =  0 Multiplicity = 1

 SCF Done:  E(RHF) =  -259.474968453     A.U. after   12 cycles

 1\1\GINC-SE212\Stability\RHF\Aug-CC-pVDZ\C6H13B1\OHZDE\09-Apr-2025\0\\
 #t hf aug-cc-pvdz symm=none int=(grid=ultrafine) guess=(read,tcheck) s
 table=(opt,rrhf)\\title\\0,1\C,0,-1.169366,0.,0.384309\C,0,-0.319106,-
 1.269542,0.600794\C,0,0.903407,-1.271372,-0.330116\C,0,1.747585,0.,-0.
 1572\C,0,0.903407,1.271372,-0.330116\C,0,-0.319107,1.269542,0.600794\B
 ,0,-2.115447,0.,-0.850019\H,0,-0.924034,-2.165349,0.431305\H,0,0.02807
 6,-1.312071,1.641625\H,0,0.560324,-1.339973,-1.37166\H,0,1.517072,-2.1
 59437,-0.147238\H,0,2.582331,0.,-0.865723\H,0,2.191913,0.,0.846811\H,0

 Normal termination of Gaussian 16 at Wed Apr  9 00:29:34 2025.
 Gaussian 16:  ES64L-G16RevC.01  3-Jul-2019

 ----------------------------------------------------------------------
 #t hf aug-cc-pvdz iop(5/13=1,5/36=2,99/5=2) pseudo=read geom=check gue
 ss=(read,tcheck) scf=(maxcycle=1)
 ----------------------------------------------------------------------
 -----
 title
 -----
 Structure from the checkpoint file:  "BDE49_nonexpt_300_mol1.chk"
 Charge =  0 Multiplicity = 1

                         Standard orientation:
 ---------------------------------------------------------------------
 Center     Atomic      Atomic             Coordinates (Angstroms)
 Number     Number       Type             X           Y           Z
 ---------------------------------------------------------------------
      1          6           0       -1.169366   -0.000000    0.384309
      2          6           0       -0.319106   -1.269542    0.600794
      3          6           0        0.903407   -1.271372   -0.330116
      4          6           0        1.747585    0.000000   -0.157200
      5          6           0        0.903407    1.271372   -0.330116
      6          6           0       -0.319107    1.269542    0.600794
      7          5           0       -2.115447   -0.000001   -0.850019
      8          1           0       -0.924033   -2.165349    0.431305
      9          1           0        0.028076   -1.312071    1.641625
     10          1           0        0.560324   -1.339973   -1.371660
     11          1           0        1.517073   -2.159437   -0.147238
     12          1           0        2.582331    0.000001   -0.865723
     13          1           0        2.191913    0.000001    0.846811
     14          1           0        0.560324    1.339973   -1.371660
     15          1           0        1.517071    2.159437   -0.147238
     16          1           0        0.028076    1.312071    1.641625
     17          1           0       -0.924035    2.165349    0.431305
     18          1           0       -1.980451   -0.000001    1.151604
     19          1           0       -2.530177   -1.026931   -1.300728
     20          1           0       -2.530177    1.026929   -1.300728
 ---------------------------------------------------------------------

 SCF Done:  E(RHF) =  -260.816482823     A.U. after    2 cycles

 The electronic state is 1-A.
 Alpha  occ. eigenvalues --  -11.43201 -11.42198 -11.41128 -11.36852 -11.35808
 Alpha  occ. eigenvalues --  -11.32771  -7.60343  -1.31810  -1.11464  -1.09585
 Alpha  occ. eigenvalues --   -0.91876  -0.87487  -0.81283  -0.72184  -0.65767
 Alpha  occ. eigenvalues --   -0.61459  -0.61237  -0.56914  -0.52246  -0.52168
 Alpha  occ. eigenvalues --   -0.50448  -0.46412  -0.44878  -0.43773  -0.38896
 Alpha  occ. eigenvalues --   -0.38153  -0.37702
 Alpha virt. eigenvalues --    0.03835   0.03913   0.04233   0.04474   0.05768
 Alpha virt. eigenvalues --    0.05796   0.05979   0.06224   0.06320   0.08530
 Alpha virt. eigenvalues --    0.08742   0.08752   0.09300   0.09312   0.11054

 Mulliken charges:
               1
     1  C   -0.739396
     2  C   -3.039884
     3  C   -3.060731
     4  C   -2.428987
     5  C   -3.060730
     6  C   -3.039885
     7  B    7.931960
     8  H    1.286440
     9  H    1.326767
    10  H    1.383724
    11  H    1.296168
    12  H    1.331582
    13  H    1.381167
    14  H    1.383724
    15  H    1.296168
    16  H    1.326767
    17  H    1.286440
    18  H    1.911158
    19  H   -3.886225
    20  H   -3.886224
 Sum of Mulliken charges =   0.00000

 Dipole moment (field-independent basis, Debye):
    X=              0.5248    Y=              0.0000    Z=              0.6441  Tot=              0.8309

 Test job not archived.
 1\1\GINC-SE212\SP\RHF\Aug-CC-pVDZ\C6H13B1\OHZDE\09-Apr-2025\0\\#t hf a
 ug-cc-pvdz iop(5/13=1,5/36=2,99/5=2) pseudo=read geom=check guess=(rea
 d,tcheck) scf=(maxcycle=1)\\title\\0,1\C,0,-1.169366,0.,0.384309\C,0,-
 0.319106,-1.269542,0.600794\C,0,0.903407,-1.271372,-0.330116\C,0,1.747
 585,0.,-0.1572\C,0,0.903407,1.271372,-0.330116\C,0,-0.319107,1.269542,
 0.600794\B,0,-2.115447,0.,-0.850019\H,0,-0.924034,-2.165349,0.431305\H
 ,0,0.028076,-1.312071,1.641625\H,0,0.560324,-1.339973,-1.37166\H,0,1.5
 17072,-2.159437,-0.147238\H,0,2.582331,0.,-0.865723\H,0,2.191913,0.,0.

 Normal termination of Gaussian 16 at Wed Apr  9 00:29:44 2025.
