 Gaussian 16, Revision C.01,

 ----------------------------------------------------------------------
 #t hf aug-cc-pvdz symm=none int=(grid=ultrafine) guess=(read,tcheck) s
 table=(opt,rrhf)
 ----------------------------------------------------------------------
 -----
 title
 -----
 Symbolic Z-matrix:
 Charge =  0 Multiplicity = 1

 SCF Done:  E(RHF) =  -761.878181145     A.U. after   12 cycles
 Normal termination of Gaussian 16 at Tue Apr  8 23:40:12 2025.
 Gaussian 16:  ES64L-G16RevC.01  3-Jul-2019

 ----------------------------------------------------------------------
 #t hf aug-cc-pvdz iop(5/13=1,5/36=2,99/5=2) pseudo=read geom=check gue
 ss=(read,tcheck) scf=(maxcycle=1)
 ----------------------------------------------------------------------
 -----
 title
 -----
 Structure from the checkpoint file:  "BDE49_nonexpt_1620_mol1.chk"
 Charge =  0 Multiplicity = 1

                         Standard orientation:
 ---------------------------------------------------------------------
 Center     Atomic      Atomic             Coordinates (Angstroms)
 Number     Number       Type             X           Y           Z
 ---------------------------------------------------------------------
      1         15           0        0.171942   -1.103466   -0.670085
      2         15           0       -0.171942    1.103466   -0.670085
      3          6           0       -0.171942   -1.700454    1.065077
      4          6           0        0.171942    1.700454    1.065077
      5          1           0       -0.319045    1.116968    1.844317
      6          1           0       -0.166041    2.737454    1.139058
      7          1           0        1.250784    1.688156    1.235245
      8          1           0       -1.250784   -1.688156    1.235245
      9          1           0        0.319045   -1.116968    1.844317
     10          1           0        0.166041   -2.737454    1.139058
     11          1           0       -1.581790    0.991774   -0.557808
     12          1           0        1.581790   -0.991774   -0.557808
 ---------------------------------------------------------------------

 SCF Done:  E(RHF) =  -762.695169756     A.U. after    2 cycles

 The electronic state is 1-A.
 Alpha  occ. eigenvalues -- -105.17371-105.17261 -11.37735 -11.37434  -2.75217
 Alpha  occ. eigenvalues --   -2.74272  -1.51716  -1.46170  -1.45496  -1.43941
 Alpha  occ. eigenvalues --   -1.42493  -1.31047  -1.02234  -0.99155  -0.71986
 Alpha  occ. eigenvalues --   -0.58270  -0.57680  -0.56781  -0.56442  -0.55005
 Alpha  occ. eigenvalues --   -0.23788  -0.23387  -0.08005  -0.03585   0.03598
 Alpha virt. eigenvalues --    0.05229   0.05715   0.06468   0.06707   0.07134
 Alpha virt. eigenvalues --    0.07336   0.09102   0.09619   0.11057   0.11332
 Alpha virt. eigenvalues --    0.12031   0.12871   0.14321   0.14758   0.15500

 Mulliken charges:
               1
     1  P    4.154852
     2  P    4.154852
     3  C   -4.242496
     4  C   -4.242496
     5  H    0.763484
     6  H   -0.223295
     7  H    0.279650
     8  H    0.279650
     9  H    0.763484
    10  H   -0.223295
    11  H   -0.732196
    12  H   -0.732196
 Sum of Mulliken charges =  -0.00000

 Dipole moment (field-independent basis, Debye):
    X=             -0.0000    Y=             -0.0000    Z=            -23.9184  Tot=             23.9184

 Test job not archived.
 1\1\GINC-SE457\SP\RHF\Aug-CC-pVDZ\C2H8P2\OHZDE\08-Apr-2025\0\\#t hf au
 g-cc-pvdz iop(5/13=1,5/36=2,99/5=2) pseudo=read geom=check guess=(read
 ,tcheck) scf=(maxcycle=1)\\title\\0,1\P,0,0.171942,-1.103466,-0.670085
 \P,0,-0.171942,1.103466,-0.670085\C,0,-0.171942,-1.700454,1.065077\C,0
 ,0.171942,1.700454,1.065077\H,0,-0.319045,1.116968,1.844317\H,0,-0.166
 041,2.737454,1.139058\H,0,1.250784,1.688156,1.235245\H,0,-1.250784,-1.
 688156,1.235245\H,0,0.319045,-1.116968,1.844317\H,0,0.166041,-2.737454
 ,1.139058\H,0,-1.58179,0.991774,-0.557808\H,0,1.58179,-0.991774,-0.557

 Normal termination of Gaussian 16 at Tue Apr  8 23:40:15 2025.
