 Gaussian 16, Revision C.01,

 ----------------------------------------------------------------------
 #t hf aug-cc-pvdz symm=none int=(grid=ultrafine) guess=(read,tcheck) s
 table=(opt,rrhf)
 ----------------------------------------------------------------------
 -----
 title
 -----
 Symbolic Z-matrix:
 Charge =  0 Multiplicity = 1

 SCF Done:  E(RHF) =  -564.549320248     A.U. after   12 cycles
 Normal termination of Gaussian 16 at Tue Apr  8 23:08:44 2025.
 Gaussian 16:  ES64L-G16RevC.01  3-Jul-2019

 ----------------------------------------------------------------------
 #t hf aug-cc-pvdz iop(5/13=1,5/36=2,99/5=2) pseudo=read geom=check gue
 ss=(read,tcheck) scf=(maxcycle=1)
 ----------------------------------------------------------------------
 -----
 title
 -----
 Structure from the checkpoint file:  "BDE49_expt_397_mol1.chk"
 Charge =  0 Multiplicity = 1

                         Standard orientation:
 ---------------------------------------------------------------------
 Center     Atomic      Atomic             Coordinates (Angstroms)
 Number     Number       Type             X           Y           Z
 ---------------------------------------------------------------------
      1          6           0        1.111942   -0.000231   -0.000018
      2         14           0       -0.811922    0.000001    0.000014
      3          6           0       -1.470703   -0.881628    1.534760
      4          1           0       -1.147203   -1.925677    1.577013
      5          1           0       -2.565466   -0.878790    1.531533
      6          1           0       -1.145710   -0.393284    2.457996
      7          6           0       -1.469639    1.770363   -0.003788
      8          1           0       -1.145979    2.328755    0.879348
      9          1           0       -2.564406    1.766707   -0.004903
     10          1           0       -1.144141    2.325659   -0.888229
     11          6           0       -1.470570   -0.888197   -1.530990
     12          1           0       -1.145988   -1.932068   -1.569431
     13          1           0       -1.146641   -0.403104   -2.456335
     14          1           0       -2.565332   -0.886453   -1.527121
     15          6           0        1.644114    0.728566    1.252145
     16          1           0        1.318376    1.772424    1.288461
     17          1           0        2.741584    0.730092    1.253613
     18          1           0        1.319264    0.243944    2.177716
     19          6           0        1.644237   -1.448898    0.005019
     20          1           0        1.319615   -2.001885    0.891515
     21          1           0        2.741718   -1.450825    0.004297
     22          1           0        1.318325   -2.008530   -0.876841
     23          6           0        1.643996    0.719900   -1.257143
     24          1           0        1.318532    1.763575   -1.300425
     25          1           0        1.318629    0.229122   -2.179270
     26          1           0        2.741464    0.721080   -1.259047
 ---------------------------------------------------------------------

 SCF Done:  E(RHF) =  -566.190633239     A.U. after    2 cycles

 The electronic state is 1-A.
 Alpha  occ. eigenvalues --  -76.17456 -11.39841 -11.38716 -11.38715 -11.34287
 Alpha  occ. eigenvalues --  -11.34286 -11.34259 -11.33675  -5.51667  -2.15973
 Alpha  occ. eigenvalues --   -2.15381  -2.15381  -1.24634  -1.06248  -1.00675
 Alpha  occ. eigenvalues --   -1.00674  -0.99319  -0.99318  -0.78984  -0.65933
 Alpha  occ. eigenvalues --   -0.59522  -0.59522  -0.58948  -0.56261  -0.56261
 Alpha  occ. eigenvalues --   -0.55113  -0.53692  -0.53691  -0.53378  -0.52155
 Alpha  occ. eigenvalues --   -0.52153  -0.49923  -0.43220  -0.43217  -0.38066
 Alpha  occ. eigenvalues --   -0.38066  -0.33256
 Alpha virt. eigenvalues --    0.03391   0.05369   0.05493   0.05494   0.05824
 Alpha virt. eigenvalues --    0.05824   0.06054   0.06096   0.06096   0.07602
 Alpha virt. eigenvalues --    0.07603   0.07633   0.08245   0.08420   0.08420

 Mulliken charges:
               1
     1  C    0.469233
     2  Si  13.391396
     3  C   -6.355219
     4  H    0.972059
     5  H    1.066250
     6  H    0.969131
     7  C   -6.354667
     8  H    0.971995
     9  H    1.066322
    10  H    0.968608
    11  C   -6.355105
    12  H    0.969600
    13  H    0.971490
    14  H    1.066436
    15  C   -4.928596
    16  H    1.278972
    17  H    1.098623
    18  H    1.278325
    19  C   -4.929012
    20  H    1.279591
    21  H    1.098722
    22  H    1.277661
    23  C   -4.927900
    24  H    1.277987
    25  H    1.279280
    26  H    1.098817
 Sum of Mulliken charges =   0.00000

 Dipole moment (field-independent basis, Debye):
    X=             -0.1416    Y=             -0.0003    Z=              0.0001  Tot=              0.1416

 Test job not archived.
 1\1\GINC-SE339\SP\RHF\Aug-CC-pVDZ\C7H18Si1\OHZDE\08-Apr-2025\0\\#t hf
 aug-cc-pvdz iop(5/13=1,5/36=2,99/5=2) pseudo=read geom=check guess=(re
 ad,tcheck) scf=(maxcycle=1)\\title\\0,1\C,0,-1.111942,-0.000231,0.0000
 18\Si,0,0.811922,0.000001,-0.000014\C,0,1.470703,-0.882449,-1.534288\H
 ,0,1.147203,-1.92652,-1.575983\H,0,2.565466,-0.879609,-1.531062\H,0,1.
 14571,-0.394599,-2.457785\C,0,1.469639,1.770365,0.002841\H,0,1.145979,
 2.328284,-0.880593\H,0,2.564406,1.76671,0.003958\H,0,1.144141,2.326134
 ,0.886985\C,0,1.47057,-0.887378,1.531465\H,0,1.145988,-1.931228,1.5704

 Normal termination of Gaussian 16 at Tue Apr  8 23:09:00 2025.
