 Gaussian 16, Revision C.01,

 ----------------------------------------------------------------------
 #t hf aug-cc-pvdz symm=none int=(grid=ultrafine) guess=(read,tcheck) s
 table=(opt,rrhf)
 ----------------------------------------------------------------------
 -----
 title
 -----
 Symbolic Z-matrix:
 Charge =  0 Multiplicity = 1

 SCF Done:  E(RHF) =  -1211.19232914     A.U. after   13 cycles
 Normal termination of Gaussian 16 at Wed Apr  9 00:08:10 2025.
 Gaussian 16:  ES64L-G16RevC.01  3-Jul-2019

 ----------------------------------------------------------------------
 #t hf aug-cc-pvdz iop(5/13=1,5/36=2,99/5=2) pseudo=read geom=check gue
 ss=(read,tcheck) scf=(maxcycle=1)
 ----------------------------------------------------------------------
 -----
 title
 -----
 Structure from the checkpoint file:  "BDE49_nonexpt_226_mol1.chk"
 Charge =  0 Multiplicity = 1

                         Standard orientation:
 ---------------------------------------------------------------------
 Center     Atomic      Atomic             Coordinates (Angstroms)
 Number     Number       Type             X           Y           Z
 ---------------------------------------------------------------------
      1         17           0       -1.266545    1.664092    0.607013
      2          5           0       -0.829670    0.169182   -0.189330
      3         17           0       -2.101038   -0.949472   -0.666604
      4          6           0        0.683407   -0.231467   -0.520351
      5          8           0        1.078565   -1.439627    0.118055
      6          8           0        1.533856    0.845568   -0.229236
      7          6           0        1.010609   -1.406335    1.542658
      8          1           0        1.558358   -0.551398    1.949038
      9          1           0        1.464177   -2.332109    1.894572
     10          1           0       -0.028405   -1.369355    1.897964
     11          6           0        2.841810    0.709085   -0.779426
     12          1           0        3.400281    1.595826   -0.482022
     13          1           0        2.799306    0.659299   -1.875592
     14          1           0        3.343198   -0.186548   -0.401739
     15          1           0        0.746003   -0.485386   -1.590364
 ---------------------------------------------------------------------

 SCF Done:  E(RHF) =  -1212.98865524     A.U. after    2 cycles

 The electronic state is 1-A.
 Alpha  occ. eigenvalues --  -99.90273 -99.90217 -21.05828 -21.05787 -11.44279
 Alpha  occ. eigenvalues --  -11.41381 -11.40657 -10.47659 -10.47423  -9.67636
 Alpha  occ. eigenvalues --   -9.67477  -9.67181  -9.67077  -9.67026  -9.66923
 Alpha  occ. eigenvalues --   -7.71528  -1.82250  -1.69787  -1.40052  -1.30042
 Alpha  occ. eigenvalues --   -1.06437  -0.99072  -0.91524  -0.78591  -0.68953
 Alpha  occ. eigenvalues --   -0.66934  -0.64736  -0.61405  -0.59819  -0.59399
 Alpha  occ. eigenvalues --   -0.57401  -0.56469  -0.52753  -0.52236  -0.50516
 Alpha  occ. eigenvalues --   -0.47636  -0.44696  -0.36893  -0.31449  -0.30350
 Alpha virt. eigenvalues --    0.03023   0.04141   0.04301   0.04839   0.05488
 Alpha virt. eigenvalues --    0.05731   0.06151   0.06297   0.07056   0.08667
 Alpha virt. eigenvalues --    0.09971   0.10095   0.11741   0.12728   0.13103

 Mulliken charges:
               1
     1  Cl  -1.310736
     2  B    3.394715
     3  Cl  -1.464444
     4  C    1.456084
     5  O   -2.939982
     6  O   -3.393429
     7  C   -3.092828
     8  H    1.418370
     9  H    1.272331
    10  H    1.362750
    11  C   -3.057306
    12  H    1.305013
    13  H    1.328715
    14  H    1.434001
    15  H    2.286746
 Sum of Mulliken charges =  -0.00000

 Dipole moment (field-independent basis, Debye):
    X=              1.7460    Y=             -0.2277    Z=             -0.0123  Tot=              1.7608

 Test job not archived.
 1\1\GINC-SE072\SP\RHF\Aug-CC-pVDZ\C3H7B1Cl2O2\OHZDE\09-Apr-2025\0\\#t
 hf aug-cc-pvdz iop(5/13=1,5/36=2,99/5=2) pseudo=read geom=check guess=
 (read,tcheck) scf=(maxcycle=1)\\title\\0,1\Cl,0,-1.266545,1.664092,0.6
 07013\B,0,-0.82967,0.169182,-0.18933\Cl,0,-2.101038,-0.949472,-0.66660
 4\C,0,0.683407,-0.231467,-0.520351\O,0,1.078565,-1.439627,0.118055\O,0
 ,1.533856,0.845568,-0.229236\C,0,1.010609,-1.406335,1.542658\H,0,1.558
 358,-0.551398,1.949038\H,0,1.464177,-2.332109,1.894572\H,0,-0.028405,-
 1.369355,1.897964\C,0,2.84181,0.709085,-0.779426\H,0,3.400281,1.595826

 Normal termination of Gaussian 16 at Wed Apr  9 00:08:16 2025.
