 Gaussian 16, Revision C.01,

 ----------------------------------------------------------------------
 #t hf aug-cc-pvdz symm=none int=(grid=ultrafine) guess=(read,tcheck) s
 table=(opt,rrhf)
 ----------------------------------------------------------------------
 -----
 title
 -----
 Symbolic Z-matrix:
 Charge =  0 Multiplicity = 1

 SCF Done:  E(RHF) =  -744.691105572     A.U. after   15 cycles
 Normal termination of Gaussian 16 at Tue Apr  8 22:52:17 2025.
 Gaussian 16:  ES64L-G16RevC.01  3-Jul-2019

 ----------------------------------------------------------------------
 #t hf aug-cc-pvdz iop(5/13=1,5/36=2,99/5=2) pseudo=read geom=check gue
 ss=(read,tcheck) scf=(maxcycle=1)
 ----------------------------------------------------------------------
 -----
 title
 -----
 Structure from the checkpoint file:  "BDE49_expt_1734_mol1.chk"
 Charge =  0 Multiplicity = 1

                         Standard orientation:
 ---------------------------------------------------------------------
 Center     Atomic      Atomic             Coordinates (Angstroms)
 Number     Number       Type             X           Y           Z
 ---------------------------------------------------------------------
      1          6           0        1.917283    1.246096   -0.059623
      2          6           0        0.588128    1.145580    0.331083
      3          6           0        2.619706    0.079405   -0.349503
      4          6           0        1.954838   -1.138011   -0.231168
      5          7           0        0.677258   -1.247399    0.142574
      6          6           0        0.006206   -0.122916    0.416077
      7          1           0        2.397129    2.215226   -0.135422
      8          1           0        0.004235    2.029852    0.558434
      9          6           0       -1.424115   -0.298064    0.839052
     10         17           0       -2.584275    0.115048   -0.514632
     11          1           0       -1.698685    0.357980    1.662690
     12          1           0       -1.609964   -1.337445    1.091876
     13          1           0        3.657753    0.108638   -0.658060
     14          1           0        2.469127   -2.070807   -0.444312
 ---------------------------------------------------------------------

 SCF Done:  E(RHF) =  -746.288402822     A.U. after    2 cycles

 The electronic state is 1-A.
 Alpha  occ. eigenvalues --  -99.87679 -15.74618 -11.50977 -11.47012 -11.45071
 Alpha  occ. eigenvalues --  -11.44310 -11.41967 -11.38744 -10.44873  -9.64810
 Alpha  occ. eigenvalues --   -9.64109  -9.64028  -1.46915  -1.31363  -1.19923
 Alpha  occ. eigenvalues --   -1.14751  -1.00891  -0.90186  -0.86534  -0.72788
 Alpha  occ. eigenvalues --   -0.66511  -0.66237  -0.62101  -0.59112  -0.58368
 Alpha  occ. eigenvalues --   -0.55622  -0.53309  -0.50366  -0.47432  -0.45596
 Alpha  occ. eigenvalues --   -0.37752  -0.36948  -0.34547
 Alpha virt. eigenvalues --    0.03040   0.04826   0.05087   0.05247   0.06369
 Alpha virt. eigenvalues --    0.07098   0.07734   0.09709   0.09809   0.10307
 Alpha virt. eigenvalues --    0.11680   0.11980   0.12432   0.13330   0.13696

 Mulliken charges:
               1
     1  C    0.282243
     2  C   -1.668337
     3  C   -1.054103
     4  C   -1.048215
     5  N   -3.719751
     6  C    2.578660
     7  H    1.561505
     8  H    1.660798
     9  C   -4.664609
    10  Cl   0.144218
    11  H    1.427010
    12  H    1.451982
    13  H    1.429573
    14  H    1.619026
 Sum of Mulliken charges =   0.00000

 Dipole moment (field-independent basis, Debye):
    X=              2.8339    Y=              1.1421    Z=              1.2813  Tot=              3.3132

 Test job not archived.
 1\1\GINC-SE329\SP\RHF\Aug-CC-pVDZ\C6H6Cl1N1\OHZDE\08-Apr-2025\0\\#t hf
  aug-cc-pvdz iop(5/13=1,5/36=2,99/5=2) pseudo=read geom=check guess=(r
 ead,tcheck) scf=(maxcycle=1)\\title\\0,1\C,0,1.917283,1.246096,-0.0596
 23\C,0,0.588128,1.14558,0.331083\C,0,2.619706,0.079405,-0.349503\C,0,1
 .954838,-1.138011,-0.231168\N,0,0.677258,-1.247399,0.142574\C,0,0.0062
 06,-0.122916,0.416077\H,0,2.397129,2.215226,-0.135422\H,0,0.004235,2.0
 29852,0.558434\C,0,-1.424115,-0.298064,0.839052\Cl,0,-2.584275,0.11504
 8,-0.514632\H,0,-1.698685,0.35798,1.66269\H,0,-1.609964,-1.337445,1.09

 Normal termination of Gaussian 16 at Tue Apr  8 22:52:22 2025.
