 Gaussian 16, Revision C.01,

 ----------------------------------------------------------------------
 #t hf aug-cc-pvdz symm=none int=(grid=ultrafine) guess=(read,tcheck) s
 table=(opt,rrhf)
 ----------------------------------------------------------------------
 -----
 title
 -----
 Symbolic Z-matrix:
 Charge =  0 Multiplicity = 1

 SCF Done:  E(RHF) =  -900.916064051     A.U. after   12 cycles
 Normal termination of Gaussian 16 at Wed Apr  9 00:18:57 2025.
 Gaussian 16:  ES64L-G16RevC.01  3-Jul-2019

 ----------------------------------------------------------------------
 #t hf aug-cc-pvdz iop(5/13=1,5/36=2,99/5=2) pseudo=read geom=check gue
 ss=(read,tcheck) scf=(maxcycle=1)
 ----------------------------------------------------------------------
 -----
 title
 -----
 Structure from the checkpoint file:  "BDE49_nonexpt_255_mol1.chk"
 Charge =  0 Multiplicity = 1

                         Standard orientation:
 ---------------------------------------------------------------------
 Center     Atomic      Atomic             Coordinates (Angstroms)
 Number     Number       Type             X           Y           Z
 ---------------------------------------------------------------------
      1          6           0       -0.820053    1.603110    0.489841
      2          8           0       -1.715501    1.186725   -0.501293
      3          6           0       -2.431549    0.000021   -0.259273
      4          8           0       -1.715607   -1.186761   -0.501208
      5          6           0       -0.820081   -1.603057    0.489893
      6          8           0        0.522562   -1.228929    0.232767
      7          5           0        1.076145   -0.000008    0.108639
      8         17           0        2.829374   -0.000023   -0.251846
      9          8           0        0.522607    1.228921    0.232886
     10          1           0       -3.251015    0.000028   -0.973555
     11          1           0       -2.812809    0.000077    0.774001
     12          1           0       -0.816866   -2.691137    0.477628
     13          1           0       -1.132456   -1.238132    1.477359
     14          1           0       -1.132524    1.238304    1.477319
     15          1           0       -0.816806    2.691189    0.477455
 ---------------------------------------------------------------------

 SCF Done:  E(RHF) =  -903.022366711     A.U. after    2 cycles

 The electronic state is 1-A.
 Alpha  occ. eigenvalues --  -99.86727 -21.08370 -21.08326 -21.05168 -21.05126
 Alpha  occ. eigenvalues --  -11.48108 -11.48072 -11.47070 -10.44023  -9.64009
 Alpha  occ. eigenvalues --   -9.63618  -9.63388  -7.71220  -1.90094  -1.80434
 Alpha  occ. eigenvalues --   -1.80135  -1.67298  -1.29885  -1.06987  -0.97129
 Alpha  occ. eigenvalues --   -0.91631  -0.78078  -0.72819  -0.69401  -0.67057
 Alpha  occ. eigenvalues --   -0.66248  -0.62621  -0.62290  -0.57661  -0.54218
 Alpha  occ. eigenvalues --   -0.52038  -0.50941  -0.44816  -0.43244  -0.41005
 Alpha  occ. eigenvalues --   -0.37019  -0.36074  -0.34446  -0.31355
 Alpha virt. eigenvalues --    0.02934   0.04377   0.04699   0.04725   0.05098
 Alpha virt. eigenvalues --    0.05717   0.06106   0.07014   0.07407   0.09548
 Alpha virt. eigenvalues --    0.10814   0.11790   0.13291   0.13659   0.13726

 Mulliken charges:
               1
     1  C    0.473579
     2  O   -2.904200
     3  C   -0.352101
     4  O   -2.904161
     5  C    0.473534
     6  O   -4.425654
     7  B    6.558328
     8  Cl  -1.346176
     9  O   -4.425758
    10  H    1.436121
    11  H    1.559713
    12  H    1.487322
    13  H    1.441026
    14  H    1.441080
    15  H    1.487345
 Sum of Mulliken charges =  -0.00000

 Dipole moment (field-independent basis, Debye):
    X=             -3.7843    Y=              0.0001    Z=              1.2633  Tot=              3.9896

 Test job not archived.
 1\1\GINC-SE120\SP\RHF\Aug-CC-pVDZ\C3H6B1Cl1O4\OHZDE\09-Apr-2025\0\\#t
 hf aug-cc-pvdz iop(5/13=1,5/36=2,99/5=2) pseudo=read geom=check guess=
 (read,tcheck) scf=(maxcycle=1)\\title\\0,1\C,0,-0.820053,1.60311,0.489
 841\O,0,-1.715501,1.186725,-0.501293\C,0,-2.431549,0.000021,-0.259273\
 O,0,-1.715607,-1.186761,-0.501208\C,0,-0.820081,-1.603057,0.489893\O,0
 ,0.522562,-1.228929,0.232767\B,0,1.076145,-0.000008,0.108639\Cl,0,2.82
 9374,-0.000023,-0.251846\O,0,0.522607,1.228921,0.232886\H,0,-3.251015,
 0.000028,-0.973555\H,0,-2.812809,0.000077,0.774001\H,0,-0.816866,-2.69

 Normal termination of Gaussian 16 at Wed Apr  9 00:19:04 2025.
