 Gaussian 16, Revision C.01,

 ----------------------------------------------------------------------
 #t hf aug-cc-pvdz symm=none int=(grid=ultrafine) guess=(read,tcheck) s
 table=opt
 ----------------------------------------------------------------------
 -----
 title
 -----
 Symbolic Z-matrix:
 Charge =  0 Multiplicity = 2

 SCF Done:  E(UHF) =  -554.291469768     A.U. after   16 cycles
 Normal termination of Gaussian 16 at Tue Apr  8 23:59:33 2025.
 Gaussian 16:  ES64L-G16RevC.01  3-Jul-2019

 ----------------------------------------------------------------------
 #t hf aug-cc-pvdz iop(5/13=1,5/36=2,99/5=2) pseudo=read geom=check gue
 ss=(read,tcheck) scf=(maxcycle=1)
 ----------------------------------------------------------------------
 -----
 title
 -----
 Structure from the checkpoint file:  "BDE49_nonexpt_2067_mol2.chk"
 Charge =  0 Multiplicity = 2

                         Standard orientation:
 ---------------------------------------------------------------------
 Center     Atomic      Atomic             Coordinates (Angstroms)
 Number     Number       Type             X           Y           Z
 ---------------------------------------------------------------------
      1         14           0       -1.557450    0.074826   -0.140849
      2          6           0        0.373949    0.012370    0.004511
      3          8           0        0.960232    1.283443    0.086171
      4          1           0        0.761398    1.737395   -0.739951
      5          8           0        0.861210   -0.711684   -1.097139
      6          1           0        1.825864   -0.743839   -0.998384
      7          8           0        0.763683   -0.586879    1.217151
      8          1           0        0.494999   -1.511317    1.170294
      9          1           0       -2.100552    0.826137    1.017398
     10          1           0       -2.102113   -1.309197   -0.153994
 ---------------------------------------------------------------------

 SCF Done:  E(UHF) =  -555.528120863     A.U. after    2 cycles

 The electronic state is 2-A.
 Alpha  occ. eigenvalues --  -76.23712 -21.09329 -21.09174 -21.09151 -11.46990
 Alpha  occ. eigenvalues --   -5.57122  -2.21156  -2.19348  -2.18581  -1.85904
 Alpha  occ. eigenvalues --   -1.67524  -1.66559  -0.91269  -0.78398  -0.69898
 Alpha  occ. eigenvalues --   -0.58536  -0.58443  -0.53540  -0.52384  -0.48171
 Alpha  occ. eigenvalues --   -0.40200  -0.37646  -0.33474  -0.31238  -0.26104
 Alpha virt. eigenvalues --    0.03550   0.04968   0.05939   0.06026   0.06457
 Alpha virt. eigenvalues --    0.07463   0.08615   0.10046   0.12380   0.13951
 Alpha virt. eigenvalues --    0.15338   0.16137   0.16955   0.17759   0.19054

  Beta  occ. eigenvalues --  -76.23158 -21.09330 -21.09184 -21.08993 -11.46924
  Beta  occ. eigenvalues --   -5.56255  -2.20452  -2.18707  -2.15057  -1.85798
  Beta  occ. eigenvalues --   -1.67492  -1.66376  -0.90257  -0.76140  -0.68649
  Beta  occ. eigenvalues --   -0.58361  -0.57599  -0.53378  -0.52124  -0.47432
  Beta  occ. eigenvalues --   -0.39446  -0.37291  -0.31397  -0.30600
  Beta virt. eigenvalues --    0.02963   0.03911   0.05235   0.06022   0.06290
  Beta virt. eigenvalues --    0.07082   0.08505   0.09443   0.10286   0.12703
  Beta virt. eigenvalues --    0.15105   0.16016   0.16906   0.17884   0.19036

 Mulliken charges and spin densities:
               1          2
     1  Si   3.837342   1.033509
     2  C    5.673129  -0.020128
     3  O   -3.013389   0.007339
     4  H    0.760113  -0.010966
     5  O   -2.539074  -0.016645
     6  H    0.538040  -0.003265
     7  O   -2.947832   0.025795
     8  H    0.742665  -0.023378
     9  H   -1.522583   0.004275
    10  H   -1.528412   0.003464
 Sum of Mulliken charges =  -0.00000   1.00000

 Dipole moment (field-independent basis, Debye):
    X=              0.4564    Y=             -0.0363    Z=             -0.4984  Tot=              0.6767
                          Isotropic Fermi Contact Couplings
        Atom                 a.u.       MegaHertz       Gauss      10(-4) cm-1
     1  Si(29)             0.44545    -395.88421    -141.26133    -132.05276
     2  C(13)              0.01430      16.07070       5.73442       5.36061
     3  O(17)             -0.00186       1.12951       0.40304       0.37676
     4  H(1)              -0.00015      -0.65657      -0.23428      -0.21901
     5  O(17)             -0.00662       4.01597       1.43300       1.33958
     6  H(1)              -0.00057      -2.54700      -0.90883      -0.84959
     7  O(17)              0.01272      -7.71335      -2.75231      -2.57290
     8  H(1)              -0.00030      -1.36324      -0.48644      -0.45473

 Normal termination of Gaussian 16 at Tue Apr  8 23:59:37 2025.
