 Gaussian 16, Revision C.01,

 ----------------------------------------------------------------------
 #t hf aug-cc-pvdz symm=none int=(grid=ultrafine) guess=(read,tcheck) s
 table=(opt,rrhf)
 ----------------------------------------------------------------------
 -----
 title
 -----
 Symbolic Z-matrix:
 Charge =  0 Multiplicity = 1

 SCF Done:  E(RHF) =  -1223.74608968     A.U. after   14 cycles
 Normal termination of Gaussian 16 at Tue Apr  8 22:52:14 2025.
 Gaussian 16:  ES64L-G16RevC.01  3-Jul-2019

 ----------------------------------------------------------------------
 #t hf aug-cc-pvdz iop(5/13=1,5/36=2,99/5=2) pseudo=read geom=check gue
 ss=(read,tcheck) scf=(maxcycle=1)
 ----------------------------------------------------------------------
 -----
 title
 -----
 Structure from the checkpoint file:  "BDE49_expt_1718_mol1.chk"
 Charge =  0 Multiplicity = 1

                         Standard orientation:
 ---------------------------------------------------------------------
 Center     Atomic      Atomic             Coordinates (Angstroms)
 Number     Number       Type             X           Y           Z
 ---------------------------------------------------------------------
      1          6           0       -0.236084   -0.000003    0.888332
      2          8           0       -0.537127    0.000002    2.053108
      3          6           0        1.231530    0.000001    0.449909
      4          8           0       -1.073903   -0.000001   -0.140951
      5         17           0        1.626399    1.485673   -0.476285
      6         17           0        1.626407   -1.485671   -0.476281
      7          1           0        1.852063    0.000004    1.338184
      8          6           0       -2.492873    0.000001    0.181053
      9          6           0       -3.252486   -0.000005   -1.127684
     10          1           0       -2.706349    0.883830    0.785986
     11          1           0       -2.706350   -0.883821    0.785996
     12          1           0       -3.011168    0.886148   -1.717891
     13          1           0       -4.327021   -0.000003   -0.927697
     14          1           0       -3.011169   -0.886166   -1.717880
 ---------------------------------------------------------------------

 SCF Done:  E(RHF) =  -1225.58594611     A.U. after    2 cycles

 The electronic state is 1-A.
 Alpha  occ. eigenvalues --  -99.91304 -99.91302 -21.10887 -21.07681 -11.55973
 Alpha  occ. eigenvalues --  -11.50779 -11.45767 -11.38451 -10.48650 -10.48505
 Alpha  occ. eigenvalues --   -9.68493  -9.68475  -9.67827  -9.67720  -9.67633
 Alpha  occ. eigenvalues --   -9.67614  -1.86683  -1.69098  -1.40556  -1.29768
 Alpha  occ. eigenvalues --   -1.15750  -1.05546  -0.92021  -0.80208  -0.70770
 Alpha  occ. eigenvalues --   -0.69506  -0.69351  -0.65755  -0.59975  -0.56398
 Alpha  occ. eigenvalues --   -0.56092  -0.53142  -0.53128  -0.52042  -0.50716
 Alpha  occ. eigenvalues --   -0.49430  -0.48640  -0.43297  -0.34146  -0.32392
 Alpha virt. eigenvalues --    0.03238   0.03621   0.05390   0.05618   0.05801
 Alpha virt. eigenvalues --    0.06268   0.06465   0.07468   0.08739   0.10385
 Alpha virt. eigenvalues --    0.11083   0.12032   0.12709   0.14479   0.14587

 Mulliken charges:
               1
     1  C    6.356489
     2  O   -3.077915
     3  C   -3.877078
     4  O   -2.748314
     5  Cl   0.274208
     6  Cl   0.274209
     7  H    1.897086
     8  C   -2.434996
     9  C   -3.498215
    10  H    1.585760
    11  H    1.585766
    12  H    1.279325
    13  H    1.104348
    14  H    1.279326
 Sum of Mulliken charges =   0.00000

 Dipole moment (field-independent basis, Debye):
    X=             -2.2274    Y=              0.0000    Z=              0.1449  Tot=              2.2321

 Test job not archived.
 1\1\GINC-SE036\SP\RHF\Aug-CC-pVDZ\C4H6Cl2O2\OHZDE\08-Apr-2025\0\\#t hf
  aug-cc-pvdz iop(5/13=1,5/36=2,99/5=2) pseudo=read geom=check guess=(r
 ead,tcheck) scf=(maxcycle=1)\\title\\0,1\C,0,0.236084,0.000003,0.88833
 2\O,0,0.537127,-0.000002,2.053108\C,0,-1.23153,-0.000001,0.449909\O,0,
 1.073903,0.000001,-0.140951\Cl,0,-1.626399,-1.485673,-0.476285\Cl,0,-1
 .626407,1.485671,-0.476281\H,0,-1.852063,-0.000004,1.338184\C,0,2.4928
 73,-0.000001,0.181053\C,0,3.252486,0.000006,-1.127684\H,0,2.706349,-0.
 88383,0.785986\H,0,2.70635,0.883821,0.785996\H,0,3.011168,-0.886148,-1

 Normal termination of Gaussian 16 at Tue Apr  8 22:52:21 2025.
