 Gaussian 16, Revision C.01,

 ----------------------------------------------------------------------
 #t hf aug-cc-pvdz symm=none int=(grid=ultrafine) guess=(read,tcheck) s
 table=(opt,rrhf)
 ----------------------------------------------------------------------
 -----
 title
 -----
 Symbolic Z-matrix:
 Charge =  0 Multiplicity = 1

 SCF Done:  E(RHF) =  -288.565218102     A.U. after   16 cycles
 Normal termination of Gaussian 16 at Tue Apr  8 23:21:56 2025.
 Gaussian 16:  ES64L-G16RevC.01  3-Jul-2019

 ----------------------------------------------------------------------
 #t hf aug-cc-pvdz iop(5/13=1,5/36=2,99/5=2) pseudo=read geom=check gue
 ss=(read,tcheck) scf=(maxcycle=1)
 ----------------------------------------------------------------------
 -----
 title
 -----
 Structure from the checkpoint file:  "BDE49_nonexpt_1181_mol1.chk"
 Charge =  0 Multiplicity = 1

                         Standard orientation:
 ---------------------------------------------------------------------
 Center     Atomic      Atomic             Coordinates (Angstroms)
 Number     Number       Type             X           Y           Z
 ---------------------------------------------------------------------
      1          8           0       -0.584039   -0.605388    0.351855
      2          9           0       -1.468599    0.517348   -0.113567
      3          8           0        0.536546   -0.557987   -0.402938
      4          6           0        1.436818    0.440896    0.124054
      5          1           0        2.331092    0.349748   -0.491068
      6          1           0        1.657999    0.228927    1.170675
      7          1           0        0.987330    1.426820    0.006840
 ---------------------------------------------------------------------

 SCF Done:  E(RHF) =  -289.708311426     A.U. after    2 cycles

 The electronic state is 1-A.
 Alpha  occ. eigenvalues --  -29.28756 -21.21464 -21.14586 -11.43486  -2.07151
 Alpha  occ. eigenvalues --   -1.46162  -1.00491  -0.72819  -0.67570  -0.63963
 Alpha  occ. eigenvalues --   -0.59074  -0.51010  -0.44670  -0.40387  -0.30200
 Alpha  occ. eigenvalues --   -0.25257  -0.22748
 Alpha virt. eigenvalues --    0.03524   0.05586   0.06291   0.10640   0.13917
 Alpha virt. eigenvalues --    0.14513   0.15114   0.16167   0.19260   0.21233
 Alpha virt. eigenvalues --    0.24514   0.25035   0.26782   0.27071   0.28328

 Mulliken charges:
               1
     1  O   -0.038802
     2  F   -0.094421
     3  O   -1.145312
     4  C   -2.505825
     5  H    1.176607
     6  H    1.269917
     7  H    1.337837
 Sum of Mulliken charges =  -0.00000

 Dipole moment (field-independent basis, Debye):
    X=              0.4123    Y=              1.2975    Z=             -0.0598  Tot=              1.3628

 Test job not archived.
 1\1\GINC-SE333\SP\RHF\Aug-CC-pVDZ\C1H3F1O2\OHZDE\08-Apr-2025\0\\#t hf
 aug-cc-pvdz iop(5/13=1,5/36=2,99/5=2) pseudo=read geom=check guess=(re
 ad,tcheck) scf=(maxcycle=1)\\title\\0,1\O,0,-0.584039,-0.605388,0.3518
 55\F,0,-1.468599,0.517348,-0.113567\O,0,0.536546,-0.557987,-0.402938\C
 ,0,1.436818,0.440896,0.124054\H,0,2.331092,0.349749,-0.491068\H,0,1.65
 7999,0.228927,1.170675\H,0,0.987329,1.42682,0.00684\\Version=ES64L-G16
 RevC.01\State=1-A\HF=-289.7083114\RMSD=5.660e-02\Dipole=0.1622272,0.51
 04849,-0.0235225\Quadrupole=1.3647172,-0.8061728,-0.5585444,0.2730951,

 Normal termination of Gaussian 16 at Tue Apr  8 23:21:58 2025.
