 Gaussian 16, Revision C.01,

 ----------------------------------------------------------------------
 #t hf aug-cc-pvdz symm=none int=(grid=ultrafine) guess=(read,tcheck) s
 table=(opt,rrhf)
 ----------------------------------------------------------------------
 -----
 title
 -----
 Symbolic Z-matrix:
 Charge =  0 Multiplicity = 1

 SCF Done:  E(RHF) =  -395.506557445     A.U. after   15 cycles
 Normal termination of Gaussian 16 at Tue Apr  8 22:54:49 2025.
 Gaussian 16:  ES64L-G16RevC.01  3-Jul-2019

 ----------------------------------------------------------------------
 #t hf aug-cc-pvdz iop(5/13=1,5/36=2,99/5=2) pseudo=read geom=check gue
 ss=(read,tcheck) scf=(maxcycle=1)
 ----------------------------------------------------------------------
 -----
 title
 -----
 Structure from the checkpoint file:  "BDE49_expt_1802_mol1.chk"
 Charge =  0 Multiplicity = 1

                         Standard orientation:
 ---------------------------------------------------------------------
 Center     Atomic      Atomic             Coordinates (Angstroms)
 Number     Number       Type             X           Y           Z
 ---------------------------------------------------------------------
      1          6           0        1.550101   -0.775483   -0.000015
      2          6           0        0.370626    0.177331   -0.000153
      3          8           0       -0.800755   -0.542388   -0.000167
      4          8           0        0.429826    1.374000   -0.000124
      5          7           0       -2.079586    0.347466    0.000009
      6          8           0       -2.995591   -0.338495    0.000328
      7          6           0        2.894953   -0.053388    0.000064
      8          1           0        1.443163   -1.430150   -0.871355
      9          1           0        1.443021   -1.430080    0.871359
     10          1           0        2.997686    0.584200   -0.879748
     11          1           0        3.713765   -0.776202    0.000158
     12          1           0        2.997545    0.584270    0.879842
 ---------------------------------------------------------------------

 SCF Done:  E(RHF) =  -397.208918168     A.U. after    2 cycles

 The electronic state is 1-A.
 Alpha  occ. eigenvalues --  -21.21746 -21.10871 -21.05966 -15.98811 -11.53332
 Alpha  occ. eigenvalues --  -11.42545 -11.37404  -1.99784  -1.80381  -1.65847
 Alpha  occ. eigenvalues --   -1.19009  -1.02044  -0.93439  -0.77616  -0.68994
 Alpha  occ. eigenvalues --   -0.65836  -0.64052  -0.62362  -0.59488  -0.53321
 Alpha  occ. eigenvalues --   -0.52924  -0.51732  -0.47760  -0.47299  -0.34261
 Alpha  occ. eigenvalues --   -0.32476  -0.28542
 Alpha virt. eigenvalues --    0.03677   0.05707   0.06112   0.06233   0.06808
 Alpha virt. eigenvalues --    0.09884   0.10115   0.11181   0.11657   0.11851
 Alpha virt. eigenvalues --    0.13183   0.14245   0.14415   0.16584   0.17272

 Mulliken charges:
               1
     1  C   -3.394126
     2  C    5.006731
     3  O   -2.546643
     4  O   -2.882597
     5  N    2.668521
     6  O   -2.013031
     7  C   -3.359287
     8  H    1.461187
     9  H    1.461131
    10  H    1.250239
    11  H    1.097620
    12  H    1.250255
 Sum of Mulliken charges =  -0.00000

 Dipole moment (field-independent basis, Debye):
    X=             -0.1155    Y=             -1.7669    Z=              0.0003  Tot=              1.7707

 Test job not archived.
 1\1\GINC-SE102\SP\RHF\Aug-CC-pVDZ\C3H5N1O3\OHZDE\08-Apr-2025\0\\#t hf
 aug-cc-pvdz iop(5/13=1,5/36=2,99/5=2) pseudo=read geom=check guess=(re
 ad,tcheck) scf=(maxcycle=1)\\title\\0,1\C,0,1.550101,-0.775483,-0.0000
 15\C,0,0.370626,0.177331,-0.000153\O,0,-0.800755,-0.542388,-0.000167\O
 ,0,0.429826,1.374,-0.000124\N,0,-2.079586,0.347466,0.000009\O,0,-2.995
 591,-0.338495,0.000328\C,0,2.894953,-0.053388,0.000064\H,0,1.443163,-1
 .43015,-0.871355\H,0,1.443021,-1.43008,0.871359\H,0,2.997686,0.5842,-0
 .879748\H,0,3.713765,-0.776202,0.000158\H,0,2.997545,0.58427,0.879842\

 Normal termination of Gaussian 16 at Tue Apr  8 22:54:53 2025.
