 Gaussian 16, Revision C.01,

 ----------------------------------------------------------------------
 #t hf aug-cc-pvdz symm=none int=(grid=ultrafine) guess=(read,tcheck) s
 table=opt
 ----------------------------------------------------------------------
 -----
 title
 -----
 Symbolic Z-matrix:
 Charge =  0 Multiplicity = 2

 SCF Done:  E(UHF) =  -515.062474102     A.U. after   22 cycles
 Normal termination of Gaussian 16 at Tue Apr  8 23:20:52 2025.
 Gaussian 16:  ES64L-G16RevC.01  3-Jul-2019

 ----------------------------------------------------------------------
 #t hf aug-cc-pvdz iop(5/13=1,5/36=2,99/5=2) pseudo=read geom=check gue
 ss=(read,tcheck) scf=(maxcycle=1)
 ----------------------------------------------------------------------
 -----
 title
 -----
 Structure from the checkpoint file:  "BDE49_nonexpt_112_mol2.chk"
 Charge =  0 Multiplicity = 2

                         Standard orientation:
 ---------------------------------------------------------------------
 Center     Atomic      Atomic             Coordinates (Angstroms)
 Number     Number       Type             X           Y           Z
 ---------------------------------------------------------------------
      1          5           0        1.617067    0.935287    0.000008
      2         16           0        0.681255   -0.548649   -0.000005
      3          6           0       -0.964979   -0.020928   -0.000000
      4          7           0       -2.074571    0.307075    0.000004
      5          1           0        1.326463    2.077987    0.000019
 ---------------------------------------------------------------------

 SCF Done:  E(UHF) =  -515.765339994     A.U. after    2 cycles

 The electronic state is 2-A.
 Alpha  occ. eigenvalues --  -75.76649 -15.78452 -13.23160 -13.17943 -13.09689
 Alpha  occ. eigenvalues --  -11.45640  -8.10809  -7.69733  -1.34459  -1.21964
 Alpha  occ. eigenvalues --   -0.82029  -0.67940  -0.53972  -0.51361  -0.50894
 Alpha  occ. eigenvalues --   -0.40517  -0.35074  -0.33534
 Alpha virt. eigenvalues --    0.02301   0.02933   0.03366   0.04807   0.07379
 Alpha virt. eigenvalues --    0.10452   0.10859   0.11854   0.12138   0.13444
 Alpha virt. eigenvalues --    0.14639   0.15618   0.16001   0.18485   0.18710

  Beta  occ. eigenvalues --  -75.76694 -15.78575 -13.23429 -13.18008 -13.09872
  Beta  occ. eigenvalues --  -11.45251  -8.10816  -7.67805  -1.34125  -1.21175
  Beta  occ. eigenvalues --   -0.76605  -0.66536  -0.53078  -0.50745  -0.50580
  Beta  occ. eigenvalues --   -0.38640  -0.33148
  Beta virt. eigenvalues --    0.00861   0.02732   0.03293   0.04333   0.06416
  Beta virt. eigenvalues --    0.09085   0.10843   0.11186   0.12258   0.12343
  Beta virt. eigenvalues --    0.13494   0.14952   0.15714   0.16160   0.18851

 Mulliken charges and spin densities:
               1          2
     1  B    2.050014   1.034902
     2  S    0.581644  -0.146504
     3  C    0.315579   0.196872
     4  N   -1.850349  -0.053915
     5  H   -1.096889  -0.031354
 Sum of Mulliken charges =   0.00000   1.00000

 Dipole moment (field-independent basis, Debye):
    X=              2.6845    Y=             -1.9985    Z=             -0.0000  Tot=              3.3467
                          Isotropic Fermi Contact Couplings
        Atom                 a.u.       MegaHertz       Gauss      10(-4) cm-1
     1  B(11)              0.17692     253.76716      90.55043      84.64761
     2  S(33)              0.43270     148.62163      53.03189      49.57484
     3  C(13)              0.06323      71.07742      25.36219      23.70888
     4  N(14)             -0.00266      -0.86032      -0.30698      -0.28697
     5  H(1)               0.00271      12.10184       4.31824       4.03674
 --------------------------------------------------------
       Center         ----  Spin Dipole Couplings  ----
                      3XX-RR        3YY-RR        3ZZ-RR

 Normal termination of Gaussian 16 at Tue Apr  8 23:20:54 2025.
