 Gaussian 16, Revision C.01,

 ----------------------------------------------------------------------
 #t hf aug-cc-pvdz symm=none int=(grid=ultrafine) guess=(read,tcheck) s
 table=(opt,rrhf)
 ----------------------------------------------------------------------
 -----
 title
 -----
 Symbolic Z-matrix:
 Charge =  0 Multiplicity = 1

 SCF Done:  E(RHF) =  -778.898052588     A.U. after   16 cycles
 Normal termination of Gaussian 16 at Tue Apr  8 23:37:25 2025.
 Gaussian 16:  ES64L-G16RevC.01  3-Jul-2019

 ----------------------------------------------------------------------
 #t hf aug-cc-pvdz iop(5/13=1,5/36=2,99/5=2) pseudo=read geom=check gue
 ss=(read,tcheck) scf=(maxcycle=1)
 ----------------------------------------------------------------------
 -----
 title
 -----
 Structure from the checkpoint file:  "BDE49_nonexpt_1472_mol1.chk"
 Charge =  0 Multiplicity = 1

                         Standard orientation:
 ---------------------------------------------------------------------
 Center     Atomic      Atomic             Coordinates (Angstroms)
 Number     Number       Type             X           Y           Z
 ---------------------------------------------------------------------
      1          6           0       -3.109236   -0.404185    0.818538
      2          6           0       -1.943167   -1.094401    0.492840
      3          6           0       -3.275957    0.911894    0.395456
      4          6           0       -2.275799    1.535684   -0.350641
      5          6           0       -1.108336    0.849955   -0.673365
      6          6           0       -0.928670   -0.476207   -0.250214
      7          1           0       -1.821838   -2.125126    0.810415
      8          1           0       -3.886240   -0.894643    1.394311
      9          1           0       -4.184127    1.450532    0.642840
     10          1           0       -2.405666    2.560310   -0.681351
     11          1           0       -0.321351    1.340225   -1.231806
     12         15           0        0.554697   -1.489084   -0.656680
     13          7           0        1.848902   -0.789182    0.288966
     14          6           0        2.437430    0.448935    0.109322
     15          8           0        2.079862    1.227929   -0.751844
     16          6           0        3.556253    0.777166    1.085564
     17          1           0        4.138163   -0.101709    1.372405
     18          1           0        3.123343    1.211399    1.991712
     19          1           0        4.210814    1.518105    0.629695
     20          1           0        2.236642   -1.376629    1.012262
     21          1           0        0.893489   -0.838398   -1.863293
 ---------------------------------------------------------------------

 SCF Done:  E(RHF) =  -781.126598182     A.U. after    2 cycles

 The electronic state is 1-A.
 Alpha  occ. eigenvalues -- -105.20342 -21.02967 -15.76017 -11.51417 -11.50503
 Alpha  occ. eigenvalues --  -11.43006 -11.42661 -11.40841 -11.40420 -11.39246
 Alpha  occ. eigenvalues --  -11.36164  -2.77861  -1.71149  -1.56416  -1.50820
 Alpha  occ. eigenvalues --   -1.47640  -1.32614  -1.27208  -1.09030  -1.08656
 Alpha  occ. eigenvalues --   -1.07009  -0.86163  -0.85202  -0.79996  -0.73676
 Alpha  occ. eigenvalues --   -0.69267  -0.65230  -0.62116  -0.61141  -0.58085
 Alpha  occ. eigenvalues --   -0.57672  -0.56401  -0.50946  -0.50042  -0.49403
 Alpha  occ. eigenvalues --   -0.48431  -0.44459  -0.34765  -0.34114  -0.33087
 Alpha  occ. eigenvalues --   -0.32669  -0.26961  -0.22838  -0.02372
 Alpha virt. eigenvalues --    0.03528   0.04804   0.05314   0.05471   0.05913
 Alpha virt. eigenvalues --    0.06330   0.06911   0.07328   0.07707   0.08666
 Alpha virt. eigenvalues --    0.09732   0.10412   0.10880   0.11136   0.11533

 Mulliken charges:
               1
     1  C   -1.236343
     2  C   -5.009881
     3  C   -2.451816
     4  C   -0.590527
     5  C   -2.387004
     6  C    2.828157
     7  H    1.926840
     8  H    1.551473
     9  H    1.468993
    10  H    1.472361
    11  H    2.252499
    12  P    2.338097
    13  N   -2.389423
    14  C    4.751906
    15  O   -3.252935
    16  C   -4.318928
    17  H    1.269245
    18  H    1.247638
    19  H    1.215093
    20  H    0.540851
    21  H   -1.226295
 Sum of Mulliken charges =  -0.00000

 Dipole moment (field-independent basis, Debye):
    X=             -0.1620    Y=              0.4407    Z=              1.2064  Tot=              1.2945

 Test job not archived.
 1\1\GINC-SE253\SP\RHF\Aug-CC-pVDZ\C8H10N1O1P1\OHZDE\08-Apr-2025\0\\#t
 hf aug-cc-pvdz iop(5/13=1,5/36=2,99/5=2) pseudo=read geom=check guess=
 (read,tcheck) scf=(maxcycle=1)\\title\\0,1\C,0,3.109236,0.404185,0.818
 538\C,0,1.943167,1.094401,0.49284\C,0,3.275957,-0.911894,0.395456\C,0,
 2.275799,-1.535684,-0.350641\C,0,1.108336,-0.849955,-0.673365\C,0,0.92
 867,0.476207,-0.250214\H,0,1.821838,2.125126,0.810415\H,0,3.88624,0.89
 4643,1.394311\H,0,4.184127,-1.450532,0.64284\H,0,2.405666,-2.56031,-0.
 681351\H,0,0.321351,-1.340225,-1.231806\P,0,-0.554697,1.489084,-0.6566

 Normal termination of Gaussian 16 at Tue Apr  8 23:37:38 2025.
