 Gaussian 16, Revision C.01,

 ----------------------------------------------------------------------
 #t hf aug-cc-pvdz symm=none int=(grid=ultrafine) guess=(read,tcheck) s
 table=(opt,rrhf)
 ----------------------------------------------------------------------
 -----
 title
 -----
 Symbolic Z-matrix:
 Charge =  0 Multiplicity = 1

 SCF Done:  E(RHF) =  -1197.38549647     A.U. after   13 cycles
 Normal termination of Gaussian 16 at Tue Apr  8 23:00:00 2025.
 Gaussian 16:  ES64L-G16RevC.01  3-Jul-2019

 ----------------------------------------------------------------------
 #t hf aug-cc-pvdz iop(5/13=1,5/36=2,99/5=2) pseudo=read geom=check gue
 ss=(read,tcheck) scf=(maxcycle=1)
 ----------------------------------------------------------------------
 -----
 title
 -----
 Structure from the checkpoint file:  "BDE49_expt_1875_mol1.chk"
 Charge =  0 Multiplicity = 1

                         Standard orientation:
 ---------------------------------------------------------------------
 Center     Atomic      Atomic             Coordinates (Angstroms)
 Number     Number       Type             X           Y           Z
 ---------------------------------------------------------------------
      1          8           0       -0.628839   -1.317474   -0.335077
      2          8           0        0.628871   -1.317712    0.334166
      3          6           0        1.458144   -0.390792   -0.255698
      4          6           0       -1.458258   -0.391283    0.255727
      5          8           0       -1.193131    0.372073    1.116066
      6          8           0        1.192951    0.373251   -1.115408
      7          6           0        3.710007    0.237380    0.069748
      8          6           0       -3.709963    0.237467   -0.069700
      9          9           0       -4.062460    0.088690    1.203730
     10          9           0       -4.709474   -0.145591   -0.849393
     11          9           0       -3.434405    1.516716   -0.300458
     12          9           0        4.062156    0.089771   -1.203915
     13          9           0        4.709672   -0.146539    0.848819
     14          9           0        3.434664    1.516442    0.301793
     15          8           0       -2.634210   -0.581937   -0.397167
     16          8           0        2.634238   -0.582205    0.396714
 ---------------------------------------------------------------------

 SCF Done:  E(RHF) =  -1201.78770564     A.U. after    2 cycles

 The electronic state is 1-A.
 Alpha  occ. eigenvalues --  -29.35211 -29.35211 -29.35028 -29.35024 -29.34982
 Alpha  occ. eigenvalues --  -29.34978 -21.20942 -21.20649 -21.17968 -21.17961
 Alpha  occ. eigenvalues --  -21.12375 -21.12341 -11.65910 -11.65648 -11.62177
 Alpha  occ. eigenvalues --  -11.61764  -2.12487  -1.97539  -1.92447  -1.78027
 Alpha  occ. eigenvalues --   -1.76432  -1.57000  -1.39311  -1.37765  -0.98183
 Alpha  occ. eigenvalues --   -0.97721  -0.96485  -0.96470  -0.94861  -0.87889
 Alpha  occ. eigenvalues --   -0.77228  -0.75603  -0.69075  -0.69006  -0.65842
 Alpha  occ. eigenvalues --   -0.64162  -0.61378  -0.54771  -0.51636  -0.51190
 Alpha  occ. eigenvalues --   -0.51157  -0.48328  -0.48138  -0.47226  -0.47119
 Alpha  occ. eigenvalues --   -0.45898  -0.45123  -0.42303  -0.41788  -0.40606
 Alpha  occ. eigenvalues --   -0.39369  -0.37098  -0.36838  -0.36729  -0.36080
 Alpha  occ. eigenvalues --   -0.33584  -0.33389  -0.28959  -0.28935  -0.28624
 Alpha  occ. eigenvalues --   -0.28590  -0.24889  -0.24881
 Alpha virt. eigenvalues --    0.08847   0.09014   0.09911   0.10592   0.10766
 Alpha virt. eigenvalues --    0.11080   0.11484   0.11674   0.12385   0.13052
 Alpha virt. eigenvalues --    0.14179   0.14458   0.15255   0.15515   0.15657

 Mulliken charges:
               1
     1  O   -1.657745
     2  O   -1.657785
     3  C    5.064690
     4  C    5.065508
     5  O   -2.384448
     6  O   -2.384269
     7  C    0.532569
     8  C    0.532045
     9  F    0.400140
    10  F    0.435277
    11  F    0.427186
    12  F    0.400122
    13  F    0.435193
    14  F    0.427132
    15  O   -2.817855
    16  O   -2.817762
 Sum of Mulliken charges =  -0.00000

 Dipole moment (field-independent basis, Debye):
    X=              0.0001    Y=              2.2068    Z=              0.0002  Tot=              2.2068

 Test job not archived.
 1\1\GINC-SE457\SP\RHF\Aug-CC-pVDZ\C4F6O6\OHZDE\08-Apr-2025\0\\#t hf au
 g-cc-pvdz iop(5/13=1,5/36=2,99/5=2) pseudo=read geom=check guess=(read
 ,tcheck) scf=(maxcycle=1)\\title\\0,1\O,0,-0.628839,-1.317474,-0.33507
 7\O,0,0.628871,-1.317712,0.334166\C,0,1.458144,-0.390792,-0.255698\C,0
 ,-1.458258,-0.391283,0.255727\O,0,-1.193131,0.372073,1.116066\O,0,1.19
 2951,0.373251,-1.115408\C,0,3.710007,0.23738,0.069748\C,0,-3.709963,0.
 237467,-0.0697\F,0,-4.06246,0.08869,1.20373\F,0,-4.709474,-0.145591,-0
 .849393\F,0,-3.434405,1.516716,-0.300458\F,0,4.062156,0.089771,-1.2039

 Normal termination of Gaussian 16 at Tue Apr  8 23:00:10 2025.
