 Gaussian 16, Revision C.01,

 ----------------------------------------------------------------------
 #t hf aug-cc-pvdz symm=none int=(grid=ultrafine) guess=(read,tcheck) s
 table=(opt,rrhf)
 ----------------------------------------------------------------------
 -----
 title
 -----
 Symbolic Z-matrix:
 Charge =  0 Multiplicity = 1

 SCF Done:  E(RHF) =  -189.264934881     A.U. after   12 cycles
 Normal termination of Gaussian 16 at Tue Apr  8 23:07:47 2025.
 Gaussian 16:  ES64L-G16RevC.01  3-Jul-2019

 ----------------------------------------------------------------------
 #t hf aug-cc-pvdz iop(5/13=1,5/36=2,99/5=2) pseudo=read geom=check gue
 ss=(read,tcheck) scf=(maxcycle=1)
 ----------------------------------------------------------------------
 -----
 title
 -----
 Structure from the checkpoint file:  "BDE49_expt_413_mol1.chk"
 Charge =  0 Multiplicity = 1

                         Standard orientation:
 ---------------------------------------------------------------------
 Center     Atomic      Atomic             Coordinates (Angstroms)
 Number     Number       Type             X           Y           Z
 ---------------------------------------------------------------------
      1          6           0        0.849482   -1.072948    0.064923
      2          7           0       -0.007055    0.019359   -0.380107
      3          1           0        0.917419   -1.136628    1.168684
      4          1           0        1.857537   -0.933430   -0.333175
      5          1           0        0.464576   -2.024832   -0.310306
      6          7           0        0.459848    1.297072    0.054021
      7          1           0        1.258653    1.545771   -0.520960
      8          1           0        0.786802    1.246656    1.025774
      9          6           0       -1.384685   -0.149202    0.059927
     10          1           0       -1.784334   -1.081384   -0.347222
     11          1           0       -1.977754    0.686015   -0.310856
     12          1           0       -1.481228   -0.184285    1.161563
 ---------------------------------------------------------------------

 SCF Done:  E(RHF) =  -190.207193093     A.U. after    2 cycles

 The electronic state is 1-A.
 Alpha  occ. eigenvalues --  -15.74294 -15.72094 -11.38077 -11.37033  -1.48719
 Alpha  occ. eigenvalues --   -1.16298  -1.03173  -0.85430  -0.67968  -0.64005
 Alpha  occ. eigenvalues --   -0.60569  -0.57845  -0.54366  -0.50099  -0.48831
 Alpha  occ. eigenvalues --   -0.36658  -0.31961
 Alpha virt. eigenvalues --    0.03854   0.05540   0.05805   0.06020   0.06828
 Alpha virt. eigenvalues --    0.07230   0.07447   0.07606   0.11553   0.13769
 Alpha virt. eigenvalues --    0.15380   0.16778   0.17111   0.17662   0.18666

 Mulliken charges:
               1
     1  C   -3.175036
     2  N   -1.141586
     3  H    1.278692
     4  H    1.270639
     5  H    1.314275
     6  N   -1.572658
     7  H    0.672150
     8  H    0.613020
     9  C   -3.226349
    10  H    1.302531
    11  H    1.340291
    12  H    1.324031
 Sum of Mulliken charges =   0.00000

 Dipole moment (field-independent basis, Debye):
    X=              0.8285    Y=             -0.5863    Z=              0.5138  Tot=              1.1376

 Test job not archived.
 1\1\GINC-SE141\SP\RHF\Aug-CC-pVDZ\C2H8N2\OHZDE\08-Apr-2025\0\\#t hf au
 g-cc-pvdz iop(5/13=1,5/36=2,99/5=2) pseudo=read geom=check guess=(read
 ,tcheck) scf=(maxcycle=1)\\title\\0,1\C,0,0.849481,-1.072949,0.064923\
 N,0,-0.007055,0.019359,-0.380107\H,0,0.917418,-1.136629,1.168684\H,0,1
 .857536,-0.933431,-0.333175\H,0,0.464575,-2.024832,-0.310306\N,0,0.459
 849,1.297072,0.054021\H,0,1.258654,1.54577,-0.52096\H,0,0.786803,1.246
 655,1.025774\C,0,-1.384685,-0.149201,0.059927\H,0,-1.784335,-1.081383,
 -0.347222\H,0,-1.977753,0.686017,-0.310856\H,0,-1.481228,-0.184284,1.1

 Normal termination of Gaussian 16 at Tue Apr  8 23:07:51 2025.
