 Gaussian 16, Revision C.01,

 ----------------------------------------------------------------------
 #t hf aug-cc-pvdz symm=none int=(grid=ultrafine) guess=(read,tcheck) s
 table=opt
 ----------------------------------------------------------------------
 -----
 title
 -----
 Symbolic Z-matrix:
 Charge =  0 Multiplicity = 2

 SCF Done:  E(UHF) =  -481.462979486     A.U. after   20 cycles
 Normal termination of Gaussian 16 at Tue Apr  8 23:50:38 2025.
 Gaussian 16:  ES64L-G16RevC.01  3-Jul-2019

 ----------------------------------------------------------------------
 #t hf aug-cc-pvdz iop(5/13=1,5/36=2,99/5=2) pseudo=read geom=check gue
 ss=(read,tcheck) scf=(maxcycle=1)
 ----------------------------------------------------------------------
 -----
 title
 -----
 Structure from the checkpoint file:  "BDE49_nonexpt_1871_mol2.chk"
 Charge =  0 Multiplicity = 2

                         Standard orientation:
 ---------------------------------------------------------------------
 Center     Atomic      Atomic             Coordinates (Angstroms)
 Number     Number       Type             X           Y           Z
 ---------------------------------------------------------------------
      1         14           0        1.856661    0.115940   -0.188063
      2          6           0        0.320728   -0.134253    0.908794
      3          1           0        2.002662   -0.990902   -1.164444
      4          1           0        1.791825    1.418391   -0.901971
      5          6           0       -0.957569   -0.221867    0.087193
      6          1           0        0.449066   -1.075840    1.447218
      7          1           0        0.278725    0.689956    1.626621
      8          8           0       -1.361812   -1.279577   -0.338989
      9          6           0       -1.693877    1.081935   -0.166245
     10          1           0       -2.157417    1.422768    0.765863
     11          1           0       -2.470135    0.924946   -0.913835
     12          1           0       -1.009176    1.869247   -0.493112
 ---------------------------------------------------------------------

 SCF Done:  E(UHF) =  -482.485509931     A.U. after    2 cycles

 The electronic state is 2-A.
 Alpha  occ. eigenvalues --  -76.23924 -21.04883 -11.49347 -11.39175 -11.37900
 Alpha  occ. eigenvalues --   -5.57247  -2.20647  -2.19298  -2.18605  -1.70709
 Alpha  occ. eigenvalues --   -1.15944  -1.04124  -0.77787  -0.73165  -0.63066
 Alpha  occ. eigenvalues --   -0.61452  -0.59707  -0.52457  -0.49347  -0.47467
 Alpha  occ. eigenvalues --   -0.47192  -0.38924  -0.30537  -0.26131
 Alpha virt. eigenvalues --    0.03127   0.04616   0.05225   0.05714   0.06085
 Alpha virt. eigenvalues --    0.07034   0.07334   0.08502   0.09199   0.10490
 Alpha virt. eigenvalues --    0.11249   0.11687   0.13918   0.13979   0.15125

  Beta  occ. eigenvalues --  -76.23367 -21.04711 -11.49333 -11.39163 -11.37884
  Beta  occ. eigenvalues --   -5.56371  -2.19952  -2.18649  -2.15080  -1.70378
  Beta  occ. eigenvalues --   -1.15646  -1.03854  -0.75939  -0.70472  -0.62894
  Beta  occ. eigenvalues --   -0.61321  -0.59595  -0.52268  -0.48958  -0.47026
  Beta  occ. eigenvalues --   -0.46662  -0.38030  -0.28459
  Beta virt. eigenvalues --    0.02867   0.03539   0.04932   0.05494   0.06077
  Beta virt. eigenvalues --    0.06307   0.07089   0.08446   0.08748   0.09988
  Beta virt. eigenvalues --    0.10731   0.11499   0.12337   0.14040   0.14282

 Mulliken charges and spin densities:
               1          2
     1  Si   4.123739   1.028439
     2  C   -4.330384   0.015138
     3  H   -1.608749   0.000046
     4  H   -1.577566  -0.004290
     5  C    3.866680  -0.101448
     6  H    1.343506  -0.005656
     7  H    1.519587  -0.003003
     8  O   -3.230390   0.053240
     9  C   -4.021441   0.031979
    10  H    1.246461  -0.000151
    11  H    1.259808  -0.001091
    12  H    1.408749  -0.013203
 Sum of Mulliken charges =  -0.00000   1.00000

 Dipole moment (field-independent basis, Debye):
    X=              0.2791    Y=              1.0852    Z=              1.1207  Tot=              1.5848
                          Isotropic Fermi Contact Couplings
        Atom                 a.u.       MegaHertz       Gauss      10(-4) cm-1
     1  Si(29)             0.47938    -426.04167    -152.02226    -142.11221
     2  C(13)              0.01154      12.96961       4.62788       4.32619
     3  H(1)               0.00510      22.79917       8.13531       7.60499
     4  H(1)               0.00360      16.11168       5.74905       5.37428
     5  C(13)              0.01289      14.48783       5.16962       4.83262
     6  H(1)               0.00077       3.42497       1.22211       1.14245
     7  H(1)               0.00078       3.50224       1.24969       1.16822
     8  O(17)              0.01004      -6.08852      -2.17254      -2.03091

 Normal termination of Gaussian 16 at Tue Apr  8 23:50:42 2025.
