 Gaussian 16, Revision C.01,

 ----------------------------------------------------------------------
 #t hf aug-cc-pvdz symm=none int=(grid=ultrafine) guess=(read,tcheck) s
 table=opt
 ----------------------------------------------------------------------
 -----
 title
 -----
 Symbolic Z-matrix:
 Charge =  0 Multiplicity = 2

 SCF Done:  E(UHF) =  -671.354771243     A.U. after   16 cycles
 Normal termination of Gaussian 16 at Wed Apr  9 00:01:08 2025.
 Gaussian 16:  ES64L-G16RevC.01  3-Jul-2019

 ----------------------------------------------------------------------
 #t hf aug-cc-pvdz iop(5/13=1,5/36=2,99/5=2) pseudo=read geom=check gue
 ss=(read,tcheck) scf=(maxcycle=1)
 ----------------------------------------------------------------------
 -----
 title
 -----
 Structure from the checkpoint file:  "BDE49_nonexpt_2068_mol2.chk"
 Charge =  0 Multiplicity = 2

                         Standard orientation:
 ---------------------------------------------------------------------
 Center     Atomic      Atomic             Coordinates (Angstroms)
 Number     Number       Type             X           Y           Z
 ---------------------------------------------------------------------
      1         14           0       -1.517779   -0.997399   -0.853798
      2          6           0       -0.013892    0.012676   -0.121420
      3          8           0        1.028029   -0.229517   -1.014805
      4          8           0        0.337029   -0.290204    1.211947
      5          8           0       -0.309216    1.387020   -0.162567
      6          6           0        2.192310    0.602583   -0.867557
      7          1           0        2.959057    0.144963   -1.491156
      8          1           0        2.527013    0.628377    0.172459
      9          1           0        1.988307    1.617761   -1.210342
     10          6           0        0.715385   -1.639974    1.455341
     11          1           0        0.920658   -1.712475    2.522876
     12          1           0        1.607248   -1.915424    0.885795
     13          1           0       -0.093575   -2.335490    1.195747
     14          6           0       -1.046986    1.949297    0.925666
     15          1           0       -1.245560    2.981571    0.638987
     16          1           0       -0.469236    1.922916    1.850467
     17          1           0       -1.998397    1.430684    1.079717
     18          1           0       -1.729327   -0.573620   -2.259230
     19          1           0       -2.744925   -0.711554   -0.060930
 ---------------------------------------------------------------------

 SCF Done:  E(UHF) =  -673.203515394     A.U. after    2 cycles

 The electronic state is 2-A.
 Alpha  occ. eigenvalues --  -76.22431 -21.05368 -21.05090 -21.04938 -11.47469
 Alpha  occ. eigenvalues --  -11.41269 -11.40452 -11.39863  -5.55769  -2.20022
 Alpha  occ. eigenvalues --   -2.18197  -2.17864  -1.87102  -1.70217  -1.69315
 Alpha  occ. eigenvalues --   -1.04764  -0.99028  -0.97897  -0.83871  -0.73774
 Alpha  occ. eigenvalues --   -0.66033  -0.65022  -0.63212  -0.61448  -0.59459
 Alpha  occ. eigenvalues --   -0.58576  -0.56176  -0.54036  -0.49738  -0.47511
 Alpha  occ. eigenvalues --   -0.44530  -0.39187  -0.36169  -0.33381  -0.32286
 Alpha  occ. eigenvalues --   -0.29856  -0.23700
 Alpha virt. eigenvalues --    0.03819   0.04597   0.04958   0.05182   0.05512
 Alpha virt. eigenvalues --    0.05949   0.06352   0.06485   0.07327   0.08634
 Alpha virt. eigenvalues --    0.09312   0.09591   0.09962   0.11266   0.12479

  Beta  occ. eigenvalues --  -76.21876 -21.05381 -21.05092 -21.04795 -11.47396
  Beta  occ. eigenvalues --  -11.41239 -11.40455 -11.39865  -5.54900  -2.19257
  Beta  occ. eigenvalues --   -2.17546  -2.14445  -1.87009  -1.70225  -1.69133
  Beta  occ. eigenvalues --   -1.04614  -0.98918  -0.97872  -0.82105  -0.71894
  Beta  occ. eigenvalues --   -0.65896  -0.64718  -0.62462  -0.60921  -0.59334
  Beta  occ. eigenvalues --   -0.58546  -0.56114  -0.53960  -0.49286  -0.46832
  Beta  occ. eigenvalues --   -0.44437  -0.38993  -0.36083  -0.33023  -0.29835
  Beta  occ. eigenvalues --   -0.27927
  Beta virt. eigenvalues --    0.03438   0.04200   0.04822   0.05152   0.05354
  Beta virt. eigenvalues --    0.05594   0.06117   0.06493   0.06939   0.08039
  Beta virt. eigenvalues --    0.08923   0.09553   0.10065   0.10186   0.11488

 Mulliken charges and spin densities:
               1          2
     1  Si   4.061648   1.202714
     2  C    7.305746  -0.067927
     3  O   -3.289743  -0.039796
     4  O   -3.596554   0.029699
     5  O   -3.769603  -0.015404
     6  C   -3.488453  -0.014343
     7  H    1.258630  -0.001614
     8  H    1.416892  -0.002709
     9  H    1.486842   0.002340
    10  C   -3.225830   0.027062
    11  H    1.299679  -0.000194
    12  H    1.452687   0.003314
    13  H    1.492747  -0.056946
    14  C   -3.243922  -0.020429
    15  H    1.301189  -0.003489
    16  H    1.512913   0.005050
    17  H    1.489169  -0.028155
    18  H   -1.778109  -0.005672
    19  H   -1.685929  -0.013501
 Sum of Mulliken charges =  -0.00000   1.00000

 Dipole moment (field-independent basis, Debye):
    X=              1.0037    Y=              0.3042    Z=              1.0433  Tot=              1.4793
                          Isotropic Fermi Contact Couplings
        Atom                 a.u.       MegaHertz       Gauss      10(-4) cm-1
     1  Si(29)             0.43007    -382.21834    -136.38501    -127.49431
     2  C(13)              0.01341      15.08004       5.38093       5.03016
     3  O(17)             -0.00716       4.34097       1.54897       1.44799
     4  O(17)             -0.00168       1.02125       0.36441       0.34065
     5  O(17)              0.01781     -10.79664      -3.85251      -3.60137
     6  C(13)             -0.00134      -1.50927      -0.53854      -0.50344
     7  H(1)               0.00005       0.24204       0.08636       0.08073
     8  H(1)               0.00004       0.17819       0.06358       0.05944

 Normal termination of Gaussian 16 at Wed Apr  9 00:01:18 2025.
