 Gaussian 16, Revision C.01,

 ----------------------------------------------------------------------
 #t hf aug-cc-pvdz symm=none int=(grid=ultrafine) guess=(read,tcheck) s
 table=(opt,rrhf)
 ----------------------------------------------------------------------
 -----
 title
 -----
 Symbolic Z-matrix:
 Charge =  0 Multiplicity = 1

 SCF Done:  E(RHF) =  -605.433779090     A.U. after   14 cycles
 Normal termination of Gaussian 16 at Tue Apr  8 22:35:48 2025.
 Gaussian 16:  ES64L-G16RevC.01  3-Jul-2019

 ----------------------------------------------------------------------
 #t hf aug-cc-pvdz iop(5/13=1,5/36=2,99/5=2) pseudo=read geom=check gue
 ss=(read,tcheck) scf=(maxcycle=1)
 ----------------------------------------------------------------------
 -----
 title
 -----
 Structure from the checkpoint file:  "BDE49_expt_1044_mol1.chk"
 Charge =  0 Multiplicity = 1

                         Standard orientation:
 ---------------------------------------------------------------------
 Center     Atomic      Atomic             Coordinates (Angstroms)
 Number     Number       Type             X           Y           Z
 ---------------------------------------------------------------------
      1          6           0        0.552469   -0.000003    0.556176
      2          6           0        1.223184   -1.203347    0.321936
      3          6           0        2.539468   -1.204590   -0.131702
      4          6           0        3.201074    0.000003   -0.359407
      5          6           0        2.539463    1.204593   -0.131699
      6          6           0        1.223180    1.203344    0.321939
      7          1           0        0.712289    2.144222    0.495915
      8          1           0        4.226780    0.000005   -0.710257
      9          1           0        3.048120    2.145997   -0.305824
     10          1           0        0.712297   -2.144227    0.495910
     11          1           0        3.048128   -2.145992   -0.305828
     12          6           0       -1.899231    0.000000   -0.086470
     13          9           0       -3.158459   -0.000005    0.409770
     14          9           0       -1.785241   -1.087027   -0.878902
     15          9           0       -1.785243    1.087037   -0.878888
     16          6           0       -0.880713   -0.000006    1.037123
     17          1           0       -1.090239   -0.881262    1.647431
     18          1           0       -1.090240    0.881242    1.647442
 ---------------------------------------------------------------------

 SCF Done:  E(RHF) =  -607.916567710     A.U. after    2 cycles

 The electronic state is 1-A.
 Alpha  occ. eigenvalues --  -29.30118 -29.30106 -29.30029 -11.60513 -11.52797
 Alpha  occ. eigenvalues --  -11.45185 -11.44220 -11.43140 -11.41654 -11.41271
 Alpha  occ. eigenvalues --  -11.37030  -1.43973  -1.34119  -1.14764  -1.09943
 Alpha  occ. eigenvalues --   -1.02296  -0.88785  -0.88542  -0.86429  -0.84165
 Alpha  occ. eigenvalues --   -0.72616  -0.69473  -0.65254  -0.62322  -0.58751
 Alpha  occ. eigenvalues --   -0.56852  -0.53908  -0.50716  -0.47537  -0.45766
 Alpha  occ. eigenvalues --   -0.45135  -0.42911  -0.42787  -0.35746  -0.35274
 Alpha  occ. eigenvalues --   -0.33982  -0.33390  -0.28955  -0.24731  -0.24379
 Alpha  occ. eigenvalues --   -0.20713
 Alpha virt. eigenvalues --    0.03474   0.04924   0.05001   0.05725   0.06250
 Alpha virt. eigenvalues --    0.07091   0.07741   0.09565   0.10214   0.11414
 Alpha virt. eigenvalues --    0.11534   0.11946   0.12458   0.12828   0.14092

 Mulliken charges:
               1
     1  C    4.769131
     2  C   -2.193888
     3  C   -1.627272
     4  C   -2.901019
     5  C   -1.627235
     6  C   -2.193853
     7  H    1.717589
     8  H    1.552936
     9  H    1.492757
    10  H    1.717587
    11  H    1.492757
    12  C    0.668593
    13  F    0.370705
    14  F    0.345221
    15  F    0.345221
    16  C   -6.353699
    17  H    1.212235
    18  H    1.212233
 Sum of Mulliken charges =  -0.00000

 Dipole moment (field-independent basis, Debye):
    X=             -0.3842    Y=              0.0000    Z=             -1.1444  Tot=              1.2071

 Test job not archived.
 1\1\GINC-SE461\SP\RHF\Aug-CC-pVDZ\C8H7F3\OHZDE\08-Apr-2025\0\\#t hf au
 g-cc-pvdz iop(5/13=1,5/36=2,99/5=2) pseudo=read geom=check guess=(read
 ,tcheck) scf=(maxcycle=1)\\title\\0,1\C,0,0.552469,-0.000003,0.556176\
 C,0,1.223184,-1.203347,0.321936\C,0,2.539468,-1.20459,-0.131702\C,0,3.
 201074,0.000003,-0.359407\C,0,2.539463,1.204593,-0.131699\C,0,1.22318,
 1.203344,0.321939\H,0,0.712289,2.144222,0.495915\H,0,4.22678,0.000005,
 -0.710257\H,0,3.04812,2.145997,-0.305824\H,0,0.712297,-2.144227,0.4959
 1\H,0,3.048128,-2.145992,-0.305828\C,0,-1.899231,0.,-0.08647\F,0,-3.15

 Normal termination of Gaussian 16 at Tue Apr  8 22:35:58 2025.
