 Gaussian 16, Revision C.01,

 ----------------------------------------------------------------------
 #t hf aug-cc-pvdz symm=none int=(grid=ultrafine) guess=(read,tcheck) s
 table=(opt,rrhf)
 ----------------------------------------------------------------------
 -----
 title
 -----
 Symbolic Z-matrix:
 Charge =  0 Multiplicity = 1

 SCF Done:  E(RHF) =  -747.515748344     A.U. after   16 cycles
 Normal termination of Gaussian 16 at Wed Apr  9 00:06:41 2025.
 Gaussian 16:  ES64L-G16RevC.01  3-Jul-2019

 ----------------------------------------------------------------------
 #t hf aug-cc-pvdz iop(5/13=1,5/36=2,99/5=2) pseudo=read geom=check gue
 ss=(read,tcheck) scf=(maxcycle=1)
 ----------------------------------------------------------------------
 -----
 title
 -----
 Structure from the checkpoint file:  "BDE49_nonexpt_2199_mol1.chk"
 Charge =  0 Multiplicity = 1

                         Standard orientation:
 ---------------------------------------------------------------------
 Center     Atomic      Atomic             Coordinates (Angstroms)
 Number     Number       Type             X           Y           Z
 ---------------------------------------------------------------------
      1          6           0       -1.595183    1.453107   -0.000016
      2          6           0       -1.252492    0.097813   -0.000024
      3          6           0        0.097296   -0.276641   -0.000014
      4          6           0       -0.590803    2.420212    0.000001
      5          6           0        0.747202    2.048972    0.000011
      6          6           0        1.094193    0.692869    0.000004
      7          1           0       -0.852812    3.472027    0.000007
      8          1           0        1.539893    2.787032    0.000025
      9          8           0        2.425919    0.391461    0.000014
     10         14           0        3.200081   -1.083951    0.000013
     11          1           0       -2.632693    1.761198   -0.000023
     12          1           0        0.328199   -1.335835   -0.000021
     13          6           0       -2.275498   -1.003001   -0.000046
     14          8           0       -1.929632   -2.167803    0.000011
     15          6           0       -3.747393   -0.633222    0.000007
     16          1           0       -4.000827   -0.037819    0.881843
     17          1           0       -4.334957   -1.549579    0.000041
     18          1           0       -4.000891   -0.037842   -0.881827
     19          1           0        4.634527   -0.749261    0.000031
     20          1           0        2.842105   -1.862253   -1.206300
     21          1           0        2.842078   -1.862270    1.206306
 ---------------------------------------------------------------------

 SCF Done:  E(RHF) =  -749.754252179     A.U. after    2 cycles

 The electronic state is 1-A.
 Alpha  occ. eigenvalues --  -76.24840 -21.07343 -21.05010 -11.54134 -11.50742
 Alpha  occ. eigenvalues --  -11.47420 -11.44259 -11.43203 -11.42223 -11.39943
 Alpha  occ. eigenvalues --  -11.37964  -5.58328  -2.24954  -2.20352  -2.19866
 Alpha  occ. eigenvalues --   -1.74722  -1.70793  -1.33554  -1.14391  -1.10008
 Alpha  occ. eigenvalues --   -1.06846  -0.91375  -0.87841  -0.78473  -0.74640
 Alpha  occ. eigenvalues --   -0.71605  -0.63945  -0.61695  -0.61209  -0.60104
 Alpha  occ. eigenvalues --   -0.58472  -0.56075  -0.54328  -0.51721  -0.50167
 Alpha  occ. eigenvalues --   -0.48912  -0.46981  -0.45363  -0.45155  -0.41671
 Alpha  occ. eigenvalues --   -0.38153  -0.33114  -0.29489  -0.28767
 Alpha virt. eigenvalues --    0.03130   0.04516   0.04845   0.05245   0.05498
 Alpha virt. eigenvalues --    0.06143   0.06967   0.07397   0.07453   0.08392
 Alpha virt. eigenvalues --    0.08428   0.09098   0.09958   0.10047   0.11233

 Mulliken charges:
               1
     1  C    1.062789
     2  C    2.601241
     3  C   -5.193944
     4  C   -0.249862
     5  C   -5.308668
     6  C    5.824181
     7  H    1.529251
     8  H    1.854657
     9  O   -5.107537
    10  Si   6.530376
    11  H    1.906529
    12  H    2.117625
    13  C    3.533849
    14  O   -3.940471
    15  C   -5.412437
    16  H    1.270128
    17  H    1.127116
    18  H    1.270105
    19  H   -1.869135
    20  H   -1.772896
    21  H   -1.772897
 Sum of Mulliken charges =   0.00000

 Dipole moment (field-independent basis, Debye):
    X=             -0.0389    Y=              1.6294    Z=              0.0000  Tot=              1.6299

 Test job not archived.
 1\1\GINC-SE341\SP\RHF\Aug-CC-pVDZ\C8H10O2Si1\OHZDE\09-Apr-2025\0\\#t h
 f aug-cc-pvdz iop(5/13=1,5/36=2,99/5=2) pseudo=read geom=check guess=(
 read,tcheck) scf=(maxcycle=1)\\title\\0,1\C,0,-1.595183,1.453107,-0.00
 0016\C,0,-1.252492,0.097813,-0.000024\C,0,0.097296,-0.276641,-0.000014
 \C,0,-0.590803,2.420212,0.000001\C,0,0.747202,2.048972,0.000011\C,0,1.
 094193,0.692869,0.000004\H,0,-0.852812,3.472027,0.000007\H,0,1.539893,
 2.787032,0.000025\O,0,2.425919,0.391461,0.000014\Si,0,3.200081,-1.0839
 51,0.000013\H,0,-2.632693,1.761198,-0.000023\H,0,0.328199,-1.335835,-0

 Normal termination of Gaussian 16 at Wed Apr  9 00:06:54 2025.
