 Gaussian 16, Revision C.01,

 ----------------------------------------------------------------------
 #t hf aug-cc-pvdz symm=none int=(grid=ultrafine) guess=(read,tcheck) s
 table=opt
 ----------------------------------------------------------------------
 -----
 title
 -----
 Symbolic Z-matrix:
 Charge =  0 Multiplicity = 2

 SCF Done:  E(UHF) =  -458.994314451     A.U. after   16 cycles
 Normal termination of Gaussian 16 at Tue Apr  8 23:36:59 2025.
 Gaussian 16:  ES64L-G16RevC.01  3-Jul-2019

 ----------------------------------------------------------------------
 #t hf aug-cc-pvdz iop(5/13=1,5/36=2,99/5=2) pseudo=read geom=check gue
 ss=(read,tcheck) scf=(maxcycle=1)
 ----------------------------------------------------------------------
 -----
 title
 -----
 Structure from the checkpoint file:  "BDE49_nonexpt_1504_mol2.chk"
 Charge =  0 Multiplicity = 2

                         Standard orientation:
 ---------------------------------------------------------------------
 Center     Atomic      Atomic             Coordinates (Angstroms)
 Number     Number       Type             X           Y           Z
 ---------------------------------------------------------------------
      1         15           0       -0.541849   -0.684874   -0.000009
      2          6           0        0.806516    0.602145    0.000016
      3          6           0        2.213338   -0.007281   -0.000003
      4          1           0        0.669769    1.247714    0.877187
      5          1           0        0.669764    1.247758   -0.877121
      6          1           0        2.375443   -0.633204   -0.881989
      7          1           0        2.375440   -0.633267    0.881940
      8          6           0       -2.014802    0.444917    0.000000
      9          1           0       -2.020314    1.089775   -0.885630
     10          1           0       -2.020311    1.089768    0.885636
     11          1           0       -2.931959   -0.147246   -0.000001
     12          1           0        2.979592    0.773122    0.000027
 ---------------------------------------------------------------------

 SCF Done:  E(UHF) =  -459.788912051     A.U. after    2 cycles

 The electronic state is 2-A.
 Alpha  occ. eigenvalues -- -105.15726 -11.39726 -11.36586 -11.35491  -2.74402
 Alpha  occ. eigenvalues --   -1.47500  -1.44672  -1.43906  -1.13128  -0.99658
 Alpha  occ. eigenvalues --   -0.86912  -0.64501  -0.61293  -0.56435  -0.56112
 Alpha  occ. eigenvalues --   -0.54386  -0.49449  -0.48990  -0.18849  -0.05951
 Alpha  occ. eigenvalues --    0.03475
 Alpha virt. eigenvalues --    0.04668   0.04948   0.06438   0.06479   0.06636
 Alpha virt. eigenvalues --    0.07173   0.07721   0.08542   0.09593   0.11241
 Alpha virt. eigenvalues --    0.12924   0.14219   0.15690   0.15734   0.16741

  Beta  occ. eigenvalues -- -105.15097 -11.39785 -11.36719 -11.35557  -2.72482
  Beta  occ. eigenvalues --   -1.45470  -1.43448  -1.19947  -1.12970  -0.99358
  Beta  occ. eigenvalues --   -0.86706  -0.61258  -0.60806  -0.56304  -0.55225
  Beta  occ. eigenvalues --   -0.53126  -0.49341  -0.48601  -0.19945  -0.03642
  Beta virt. eigenvalues --    0.04716   0.04939   0.06401   0.06535   0.06636
  Beta virt. eigenvalues --    0.07015   0.07744   0.07890   0.10005   0.10596
  Beta virt. eigenvalues --    0.11716   0.12997   0.14289   0.15742   0.15941

 Mulliken charges and spin densities:
               1          2
     1  P    4.380108   1.593937
     2  C   -4.935151  -0.284583
     3  C   -3.098926  -0.038721
     4  H    1.306390  -0.050193
     5  H    1.306410  -0.050201
     6  H    1.121350   0.108212
     7  H    1.121375   0.108184
     8  C   -5.695888  -0.371979
     9  H    1.077392   0.018576
    10  H    1.077408   0.018570
    11  H    1.240824  -0.035213
    12  H    1.098708  -0.016588
 Sum of Mulliken charges =   0.00000   1.00000

 Dipole moment (field-independent basis, Debye):
    X=             -0.4758    Y=             -0.5184    Z=              0.0000  Tot=              0.7036
                          Isotropic Fermi Contact Couplings
        Atom                 a.u.       MegaHertz       Gauss      10(-4) cm-1
     1  P(31)              0.30271     548.23972     195.62556     182.87309
     2  C(13)             -0.00108      -1.21792      -0.43458      -0.40625
     3  C(13)             -0.00174      -1.96144      -0.69989      -0.65426
     4  H(1)               0.00507      22.64930       8.08183       7.55499
     5  H(1)               0.00507      22.64879       8.08165       7.55482
     6  H(1)              -0.00024      -1.05092      -0.37499      -0.35055
     7  H(1)              -0.00024      -1.05100      -0.37502      -0.35058
     8  C(13)             -0.00243      -2.73515      -0.97597      -0.91235

 Normal termination of Gaussian 16 at Tue Apr  8 23:37:03 2025.
