 Gaussian 16, Revision C.01,

 ----------------------------------------------------------------------
 #t hf aug-cc-pvdz symm=none int=(grid=ultrafine) guess=(read,tcheck) s
 table=(opt,rrhf)
 ----------------------------------------------------------------------
 -----
 title
 -----
 Symbolic Z-matrix:
 Charge =  0 Multiplicity = 1

 SCF Done:  E(RHF) =  -723.344676587     A.U. after   13 cycles
 Normal termination of Gaussian 16 at Tue Apr  8 23:28:14 2025.
 Gaussian 16:  ES64L-G16RevC.01  3-Jul-2019

 ----------------------------------------------------------------------
 #t hf aug-cc-pvdz iop(5/13=1,5/36=2,99/5=2) pseudo=read geom=check gue
 ss=(read,tcheck) scf=(maxcycle=1)
 ----------------------------------------------------------------------
 -----
 title
 -----
 Structure from the checkpoint file:  "BDE49_nonexpt_1274_mol1.chk"
 Charge =  0 Multiplicity = 1

                         Standard orientation:
 ---------------------------------------------------------------------
 Center     Atomic      Atomic             Coordinates (Angstroms)
 Number     Number       Type             X           Y           Z
 ---------------------------------------------------------------------
      1          6           0        0.617465    0.728220   -0.400100
      2         15           0       -0.782564   -0.362673   -0.023321
      3          8           0       -0.665444   -1.814314   -0.252402
      4          8           0       -1.980505    0.306291   -0.875489
      5          6           0        1.910675    0.269545    0.311692
      6          6           0        2.522039   -1.026395   -0.231244
      7          1           0        1.712653    0.175626    1.384791
      8          1           0        2.637889    1.082942    0.209954
      9          1           0        2.780940   -0.920706   -1.289554
     10          1           0        1.829575   -1.864266   -0.141081
     11          6           0        0.275753    2.197705   -0.088022
     12          1           0        0.753669    0.621352   -1.483433
     13          1           0        1.098213    2.840467   -0.413490
     14          1           0        0.132159    2.344010    0.984462
     15          1           0       -0.632380    2.517675   -0.600738
     16          1           0        3.438874   -1.273610    0.310518
     17          1           0       -2.548984   -0.376091   -1.252491
     18          8           0       -1.102499    0.012280    1.514261
     19          1           0       -1.432160   -0.755807    1.995974
 ---------------------------------------------------------------------

 SCF Done:  E(RHF) =  -725.302823728     A.U. after    2 cycles

 The electronic state is 1-A.
 Alpha  occ. eigenvalues -- -105.29057 -21.10687 -21.10622 -21.01397 -11.43611
 Alpha  occ. eigenvalues --  -11.40748 -11.37803 -11.35418  -2.91557  -1.95256
 Alpha  occ. eigenvalues --   -1.89606  -1.80313  -1.54018  -1.39240  -1.26830
 Alpha  occ. eigenvalues --   -1.21220  -1.07697  -0.92235  -0.82372  -0.69936
 Alpha  occ. eigenvalues --   -0.63095  -0.60901  -0.58886  -0.57872  -0.56429
 Alpha  occ. eigenvalues --   -0.53996  -0.51369  -0.48421  -0.47141  -0.45210
 Alpha  occ. eigenvalues --   -0.43662  -0.38705  -0.33724  -0.33255  -0.29198
 Alpha  occ. eigenvalues --   -0.23803  -0.14458
 Alpha virt. eigenvalues --    0.03955   0.05216   0.05499   0.05625   0.06266
 Alpha virt. eigenvalues --    0.06453   0.06488   0.06694   0.07924   0.08876
 Alpha virt. eigenvalues --    0.09265   0.11305   0.11587   0.12619   0.13731

 Mulliken charges:
               1
     1  C   -3.871009
     2  P   10.295905
     3  O   -3.011027
     4  O   -2.875140
     5  C   -2.887113
     6  C   -3.932843
     7  H    1.344918
     8  H    1.457412
     9  H    1.192166
    10  H    1.465476
    11  C   -4.346229
    12  H    1.763611
    13  H    1.156894
    14  H    1.394854
    15  H    1.188158
    16  H    1.068438
    17  H    0.848506
    18  O   -3.064061
    19  H    0.811084
 Sum of Mulliken charges =   0.00000

 Dipole moment (field-independent basis, Debye):
    X=             -0.5270    Y=              2.3989    Z=              0.4343  Tot=              2.4942

 Test job not archived.
 1\1\GINC-SE103\SP\RHF\Aug-CC-pVDZ\C4H11O3P1\OHZDE\08-Apr-2025\0\\#t hf
  aug-cc-pvdz iop(5/13=1,5/36=2,99/5=2) pseudo=read geom=check guess=(r
 ead,tcheck) scf=(maxcycle=1)\\title\\0,1\C,0,0.617465,0.72822,-0.4001\
 P,0,-0.782564,-0.362673,-0.023321\O,0,-0.665444,-1.814314,-0.252402\O,
 0,-1.980505,0.306291,-0.875489\C,0,1.910675,0.269545,0.311692\C,0,2.52
 2039,-1.026395,-0.231244\H,0,1.712653,0.175626,1.384791\H,0,2.637889,1
 .082942,0.209954\H,0,2.78094,-0.920706,-1.289554\H,0,1.829575,-1.86426
 6,-0.141081\C,0,0.275753,2.197705,-0.088022\H,0,0.753669,0.621352,-1.4

 Normal termination of Gaussian 16 at Tue Apr  8 23:28:26 2025.
