 Gaussian 16, Revision C.01,

 ----------------------------------------------------------------------
 #t hf aug-cc-pvdz symm=none int=(grid=ultrafine) guess=(read,tcheck) s
 table=(opt,rrhf)
 ----------------------------------------------------------------------
 -----
 title
 -----
 Symbolic Z-matrix:
 Charge =  0 Multiplicity = 1

 SCF Done:  E(RHF) =  -1075.17218760     A.U. after   12 cycles

 1\1\GINC-SE044\Stability\RHF\Aug-CC-pVDZ\C4H8Cl2\OHZDE\08-Apr-2025\0\\
 #t hf aug-cc-pvdz symm=none int=(grid=ultrafine) guess=(read,tcheck) s
 table=(opt,rrhf)\\title\\0,1\C,0,-1.983199,1.500726,-0.284886\H,0,-1.5
 39367,2.488904,-0.44285\H,0,-2.539505,1.517034,0.655226\H,0,-2.68422,1
 .306319,-1.097227\C,0,-0.882773,0.452661,-0.251961\C,0,0.108782,0.6614
 19,0.889105\H,0,-0.357967,0.412651,-1.205612\Cl,0,-1.648969,-1.216413,
 -0.103814\C,0,1.309035,-0.271408,0.902352\H,0,-0.416819,0.544988,1.843
 998\H,0,0.461563,1.697331,0.840081\Cl,0,2.403314,0.004131,-0.529139\H,

 Normal termination of Gaussian 16 at Tue Apr  8 22:33:01 2025.
 Gaussian 16:  ES64L-G16RevC.01  3-Jul-2019

 ----------------------------------------------------------------------
 #t hf aug-cc-pvdz iop(5/13=1,5/36=2,99/5=2) pseudo=read geom=check gue
 ss=(read,tcheck) scf=(maxcycle=1)
 ----------------------------------------------------------------------
 -----
 title
 -----
 Structure from the checkpoint file:  "BDE49_expt_1031_mol1.chk"
 Charge =  0 Multiplicity = 1

                         Standard orientation:
 ---------------------------------------------------------------------
 Center     Atomic      Atomic             Coordinates (Angstroms)
 Number     Number       Type             X           Y           Z
 ---------------------------------------------------------------------
      1          6           0       -1.983199    1.500726   -0.284886
      2          1           0       -1.539367    2.488904   -0.442850
      3          1           0       -2.539505    1.517034    0.655226
      4          1           0       -2.684220    1.306319   -1.097227
      5          6           0       -0.882773    0.452661   -0.251961
      6          6           0        0.108782    0.661419    0.889105
      7          1           0       -0.357967    0.412651   -1.205612
      8         17           0       -1.648969   -1.216413   -0.103814
      9          6           0        1.309035   -0.271408    0.902352
     10          1           0       -0.416819    0.544988    1.843998
     11          1           0        0.461563    1.697331    0.840081
     12         17           0        2.403314    0.004130   -0.529139
     13          1           0        1.013766   -1.317358    0.857927
     14          1           0        1.927617   -0.101456    1.780998
 ---------------------------------------------------------------------

 SCF Done:  E(RHF) =  -1076.47183236     A.U. after    2 cycles

 The electronic state is 1-A.
 Alpha  occ. eigenvalues --  -99.87848 -99.87352 -11.47584 -11.46057 -11.41354
 Alpha  occ. eigenvalues --  -11.38657 -10.45095 -10.44612  -9.65012  -9.64567
 Alpha  occ. eigenvalues --   -9.64370  -9.64248  -9.63949  -9.63772  -1.37384
 Alpha  occ. eigenvalues --   -1.30828  -1.17876  -1.08368  -0.94250  -0.85156
 Alpha  occ. eigenvalues --   -0.69617  -0.66752  -0.63340  -0.61869  -0.57921
 Alpha  occ. eigenvalues --   -0.54355  -0.53930  -0.51791  -0.50301  -0.48374
 Alpha  occ. eigenvalues --   -0.47916  -0.45744  -0.44314
 Alpha virt. eigenvalues --    0.03659   0.04594   0.05630   0.06172   0.06283
 Alpha virt. eigenvalues --    0.06573   0.07174   0.07219   0.08597   0.09483
 Alpha virt. eigenvalues --    0.10643   0.12171   0.12606   0.13846   0.14599

 Mulliken charges:
               1
     1  C   -3.534241
     2  H    1.287531
     3  H    1.290140
     4  H    1.198060
     5  C   -2.284123
     6  C   -2.129688
     7  H    1.805701
     8  Cl  -0.018710
     9  C   -3.757054
    10  H    1.418466
    11  H    1.541854
    12  Cl   0.059426
    13  H    1.703552
    14  H    1.419086
 Sum of Mulliken charges =   0.00000

 Dipole moment (field-independent basis, Debye):
    X=             -0.5997    Y=              2.1889    Z=              1.6444  Tot=              2.8027

 Test job not archived.
 1\1\GINC-SE044\SP\RHF\Aug-CC-pVDZ\C4H8Cl2\OHZDE\08-Apr-2025\0\\#t hf a
 ug-cc-pvdz iop(5/13=1,5/36=2,99/5=2) pseudo=read geom=check guess=(rea
 d,tcheck) scf=(maxcycle=1)\\title\\0,1\C,0,-1.983199,1.500726,-0.28488
 6\H,0,-1.539367,2.488904,-0.44285\H,0,-2.539505,1.517034,0.655226\H,0,
 -2.68422,1.306319,-1.097227\C,0,-0.882773,0.452661,-0.251961\C,0,0.108
 782,0.661419,0.889105\H,0,-0.357967,0.412651,-1.205612\Cl,0,-1.648969,
 -1.216413,-0.103814\C,0,1.309035,-0.271408,0.902352\H,0,-0.416819,0.54
 4988,1.843998\H,0,0.461563,1.697331,0.840081\Cl,0,2.403314,0.004131,-0

 Normal termination of Gaussian 16 at Tue Apr  8 22:33:05 2025.
