 Gaussian 16, Revision C.01,

 ----------------------------------------------------------------------
 #t hf aug-cc-pvdz symm=none int=(grid=ultrafine) guess=(read,tcheck) s
 table=opt
 ----------------------------------------------------------------------
 -----
 title
 -----
 Symbolic Z-matrix:
 Charge =  0 Multiplicity = 2

 SCF Done:  E(UHF) =  -1756.11225395     A.U. after   24 cycles
 Normal termination of Gaussian 16 at Wed Apr  9 00:56:36 2025.
 Gaussian 16:  ES64L-G16RevC.01  3-Jul-2019

 ----------------------------------------------------------------------
 #t hf aug-cc-pvdz iop(5/13=1,5/36=2,99/5=2) pseudo=read geom=check gue
 ss=(read,tcheck) scf=(maxcycle=1)
 ----------------------------------------------------------------------
 -----
 title
 -----
 Structure from the checkpoint file:  "BDE49_nonexpt_927_mol2.chk"
 Charge =  0 Multiplicity = 2

                         Standard orientation:
 ---------------------------------------------------------------------
 Center     Atomic      Atomic             Coordinates (Angstroms)
 Number     Number       Type             X           Y           Z
 ---------------------------------------------------------------------
      1         17           0       -2.596536   -1.581877   -0.848722
      2         17           0       -2.295790    0.356175    1.276011
      3          8           0        1.232630    3.003586   -0.267843
      4          6           0        1.271792    1.905965   -1.204780
      5          1           0        2.290513    1.586846   -1.436507
      6          1           0        0.742416    2.145657   -2.135163
      7          6           0        0.472375    0.997490   -0.234450
      8          7           0       -1.402998   -0.619518    0.064993
      9          6           0       -0.715558    0.286827   -0.884477
     10          1           0       -0.337650   -0.380993   -1.662923
     11          1           0       -1.404941    1.004903   -1.339800
     12          6           0        0.239920    2.323973    0.533847
     13          1           0       -0.757103    2.752187    0.391592
     14          1           0        0.491869    2.330707    1.597569
     15          6           0        1.387049    0.035771    0.535598
     16          7           0        1.924911   -0.934315   -0.403398
     17         17           0        2.920453   -2.069814    0.412806
     18          1           0        0.841884   -0.469546    1.341756
     19          1           0        2.206956    0.601988    0.999004
 ---------------------------------------------------------------------

 SCF Done:  E(UHF) =  -1758.57315071     A.U. after    2 cycles

 The electronic state is 2-A.
 Alpha  occ. eigenvalues --  -99.93214 -99.93154 -99.92073 -21.05109 -15.85297
 Alpha  occ. eigenvalues --  -15.82356 -11.49237 -11.48263 -11.47728 -11.44898
 Alpha  occ. eigenvalues --  -11.39941 -10.50322 -10.50210 -10.49351  -9.70320
 Alpha  occ. eigenvalues --   -9.70022  -9.69606  -9.69307  -9.69300  -9.69183
 Alpha  occ. eigenvalues --   -9.69097  -9.68404  -9.68321  -1.78069  -1.52436
 Alpha  occ. eigenvalues --   -1.48363  -1.31113  -1.27624  -1.19688  -1.11983
 Alpha  occ. eigenvalues --   -1.01764  -0.96978  -0.93340  -0.80540  -0.73378
 Alpha  occ. eigenvalues --   -0.73006  -0.69989  -0.67957  -0.66281  -0.64953
 Alpha  occ. eigenvalues --   -0.61653  -0.59447  -0.58764  -0.57897  -0.55861
 Alpha  occ. eigenvalues --   -0.54245  -0.53595  -0.52213  -0.50909  -0.46652
 Alpha  occ. eigenvalues --   -0.45448  -0.43291  -0.42227  -0.41302  -0.36387
 Alpha  occ. eigenvalues --   -0.30722
 Alpha virt. eigenvalues --   -0.00121   0.03666   0.04850   0.04909   0.05052
 Alpha virt. eigenvalues --    0.05709   0.06190   0.06452   0.06768   0.07017
 Alpha virt. eigenvalues --    0.07669   0.09564   0.10652   0.10766   0.12384

  Beta  occ. eigenvalues --  -99.93214 -99.93154 -99.92086 -21.05102 -15.85297
  Beta  occ. eigenvalues --  -15.78982 -11.49244 -11.48300 -11.47836 -11.45003
  Beta  occ. eigenvalues --  -11.39971 -10.50322 -10.50210 -10.49364  -9.70322
  Beta  occ. eigenvalues --   -9.70023  -9.69606  -9.69566  -9.69307  -9.69297
  Beta  occ. eigenvalues --   -9.69181  -9.68334  -9.68022  -1.78046  -1.52239
  Beta  occ. eigenvalues --   -1.43544  -1.31113  -1.27486  -1.18331  -1.10076
  Beta  occ. eigenvalues --   -1.01746  -0.95804  -0.90968  -0.80207  -0.72865
  Beta  occ. eigenvalues --   -0.72273  -0.69374  -0.67135  -0.64549  -0.62984
  Beta  occ. eigenvalues --   -0.59870  -0.59323  -0.57742  -0.57602  -0.54387
  Beta  occ. eigenvalues --   -0.54001  -0.53025  -0.52137  -0.50871  -0.46611
  Beta  occ. eigenvalues --   -0.44137  -0.42135  -0.40913  -0.36347  -0.30790
  Beta virt. eigenvalues --   -0.00122   0.03725   0.04440   0.05054   0.05391
  Beta virt. eigenvalues --    0.05672   0.06209   0.06314   0.06557   0.06926
  Beta virt. eigenvalues --    0.07135   0.07849   0.09664   0.10672   0.10887

 Mulliken charges and spin densities:
               1          2
     1  Cl   0.304105  -0.001047
     2  Cl   0.211821  -0.000074
     3  O   -2.850763   0.002393
     4  C   -1.370958  -0.012008
     5  H    1.597349   0.004457
     6  H    1.567660  -0.000013
     7  C    0.922595   0.063779
     8  N   -1.294678   0.002960
     9  C   -2.908206  -0.003089
    10  H    1.457858   0.002294
    11  H    1.475627  -0.000110
    12  C   -1.607357  -0.005961
    13  H    1.421846   0.001121
    14  H    1.635076   0.001410
    15  C   -2.550541  -0.264096
    16  N   -1.592748   1.181377
    17  Cl   0.445808  -0.049208
    18  H    1.501892   0.032495
    19  H    1.633611   0.043322
 Sum of Mulliken charges =   0.00000   1.00000

 Dipole moment (field-independent basis, Debye):
    X=              0.3419    Y=              1.9445    Z=             -0.5920  Tot=              2.0612
                          Isotropic Fermi Contact Couplings
        Atom                 a.u.       MegaHertz       Gauss      10(-4) cm-1
     1  Cl(35)            -0.00009      -0.03902      -0.01392      -0.01302
     2  Cl(35)             0.00002       0.00708       0.00253       0.00236
     3  O(17)              0.00044      -0.26615      -0.09497      -0.08878
     4  C(13)             -0.00144      -1.62003      -0.57807      -0.54038
     5  H(1)               0.00026       1.15976       0.41383       0.38685
     6  H(1)               0.00004       0.19186       0.06846       0.06400
     7  C(13)              0.00209       2.34592       0.83708       0.78252
     8  N(14)             -0.00047      -0.15032      -0.05364      -0.05014

 1\1\GINC-SE219\SP\UHF\Aug-CC-pVDZ\C5H8Cl3N2O1(2)\OHZDE\09-Apr-2025\0\\
 #t hf aug-cc-pvdz iop(5/13=1,5/36=2,99/5=2) pseudo=read geom=check gue
 ss=(read,tcheck) scf=(maxcycle=1)\\title\\0,2\Cl,0,-2.596536,-1.581877
 ,-0.848722\Cl,0,-2.29579,0.356175,1.276011\O,0,1.23263,3.003586,-0.267
 843\C,0,1.271792,1.905965,-1.20478\H,0,2.290513,1.586846,-1.436507\H,0
 ,0.742416,2.145657,-2.135163\C,0,0.472375,0.99749,-0.23445\N,0,-1.4029
 98,-0.619518,0.064993\C,0,-0.715558,0.286827,-0.884477\H,0,-0.33765,-0
 .380993,-1.662923\H,0,-1.404941,1.004903,-1.3398\C,0,0.23992,2.323973,

 Normal termination of Gaussian 16 at Wed Apr  9 00:56:52 2025.
