 Gaussian 16, Revision C.01,

 ----------------------------------------------------------------------
 #t hf aug-cc-pvdz symm=none int=(grid=ultrafine) guess=(read,tcheck) s
 table=(opt,rrhf)
 ----------------------------------------------------------------------
 -----
 title
 -----
 Symbolic Z-matrix:
 Charge =  0 Multiplicity = 1

 SCF Done:  E(RHF) =  -1735.25312335     A.U. after   14 cycles
 Normal termination of Gaussian 16 at Tue Apr  8 23:44:22 2025.
 Gaussian 16:  ES64L-G16RevC.01  3-Jul-2019

 ----------------------------------------------------------------------
 #t hf aug-cc-pvdz iop(5/13=1,5/36=2,99/5=2) pseudo=read geom=check gue
 ss=(read,tcheck) scf=(maxcycle=1)
 ----------------------------------------------------------------------
 -----
 title
 -----
 Structure from the checkpoint file:  "BDE49_nonexpt_1701_mol1.chk"
 Charge =  0 Multiplicity = 1

                         Standard orientation:
 ---------------------------------------------------------------------
 Center     Atomic      Atomic             Coordinates (Angstroms)
 Number     Number       Type             X           Y           Z
 ---------------------------------------------------------------------
      1         16           0       -0.599672    1.335880   -0.345676
      2         15           0       -1.907332   -0.345391   -0.091083
      3          8           0       -1.675589   -1.414015   -1.058181
      4          8           0       -3.295542    0.441784   -0.119108
      5          8           0        0.850422    0.501790   -0.808365
      6          6           0        1.685042    0.144078    0.200506
      7         17           0        3.086823   -0.664107   -0.523979
      8          9           0        1.080970   -0.718303    1.073591
      9          9           0        2.092862    1.190125    0.936343
     10          1           0       -3.678374    0.466529   -1.005416
     11          8           0       -1.905617   -0.706295    1.456993
     12          1           0       -1.057020   -1.066897    1.746972
 ---------------------------------------------------------------------

 SCF Done:  E(RHF) =  -1737.98542714     A.U. after    2 cycles

 The electronic state is 1-A.
 Alpha  occ. eigenvalues -- -105.34783 -99.92787 -75.78005 -29.33672 -29.33437
 Alpha  occ. eigenvalues --  -21.15157 -21.14365 -21.14313 -21.05560 -13.24460
 Alpha  occ. eigenvalues --  -13.17383 -13.13250 -11.62555 -10.50299  -9.70129
 Alpha  occ. eigenvalues --   -9.69231  -9.69197  -8.11663  -2.97293  -2.03623
 Alpha  occ. eigenvalues --   -1.93641  -1.87804  -1.81520  -1.55696  -1.43101
 Alpha  occ. eigenvalues --   -1.40618  -1.28399  -1.20975  -1.06443  -0.91559
 Alpha  occ. eigenvalues --   -0.79921  -0.73429  -0.70712  -0.61506  -0.59431
 Alpha  occ. eigenvalues --   -0.56152  -0.55650  -0.50849  -0.49735  -0.48657
 Alpha  occ. eigenvalues --   -0.46376  -0.44906  -0.41746  -0.39587  -0.37305
 Alpha  occ. eigenvalues --   -0.36768  -0.33750  -0.31684  -0.30530  -0.28913
 Alpha  occ. eigenvalues --   -0.25777  -0.23152  -0.17125
 Alpha virt. eigenvalues --    0.03507   0.05387   0.06259   0.07432   0.07906
 Alpha virt. eigenvalues --    0.09783   0.10519   0.11651   0.12101   0.12666
 Alpha virt. eigenvalues --    0.13118   0.14012   0.15181   0.15470   0.16275

 Mulliken charges:
               1
     1  S   -1.103746
     2  P    8.107726
     3  O   -2.916344
     4  O   -2.639482
     5  O   -2.416676
     6  C    1.124413
     7  Cl  -0.504452
     8  F    0.718113
     9  F    0.713479
    10  H    0.862253
    11  O   -2.950677
    12  H    1.005394
 Sum of Mulliken charges =   0.00000

 Dipole moment (field-independent basis, Debye):
    X=             -3.4969    Y=              2.4474    Z=              5.1837  Tot=              6.7148

 Test job not archived.
 1\1\GINC-SE048\SP\RHF\Aug-CC-pVDZ\C1H2Cl1F2O4P1S1\OHZDE\08-Apr-2025\0\
 \#t hf aug-cc-pvdz iop(5/13=1,5/36=2,99/5=2) pseudo=read geom=check gu
 ess=(read,tcheck) scf=(maxcycle=1)\\title\\0,1\S,0,-0.599672,1.33588,-
 0.345676\P,0,-1.907332,-0.345391,-0.091083\O,0,-1.675589,-1.414015,-1.
 058181\O,0,-3.295542,0.441784,-0.119108\O,0,0.850422,0.50179,-0.808365
 \C,0,1.685042,0.144078,0.200506\Cl,0,3.086823,-0.664107,-0.523979\F,0,
 1.08097,-0.718303,1.073591\F,0,2.092862,1.190125,0.936343\H,0,-3.67837
 4,0.466529,-1.005416\O,0,-1.905617,-0.706295,1.456993\H,0,-1.05702,-1.

 Normal termination of Gaussian 16 at Tue Apr  8 23:44:30 2025.
