 Gaussian 16, Revision C.01,

 ----------------------------------------------------------------------
 #t hf aug-cc-pvdz symm=none int=(grid=ultrafine) guess=(read,tcheck) s
 table=(opt,rrhf)
 ----------------------------------------------------------------------
 -----
 title
 -----
 Symbolic Z-matrix:
 Charge =  0 Multiplicity = 1

 SCF Done:  E(RHF) =  -802.224693995     A.U. after   16 cycles
 Normal termination of Gaussian 16 at Wed Apr  9 00:45:57 2025.
 Gaussian 16:  ES64L-G16RevC.01  3-Jul-2019

 ----------------------------------------------------------------------
 #t hf aug-cc-pvdz iop(5/13=1,5/36=2,99/5=2) pseudo=read geom=check gue
 ss=(read,tcheck) scf=(maxcycle=1)
 ----------------------------------------------------------------------
 -----
 title
 -----
 Structure from the checkpoint file:  "BDE49_nonexpt_741_mol1.chk"
 Charge =  0 Multiplicity = 1

                         Standard orientation:
 ---------------------------------------------------------------------
 Center     Atomic      Atomic             Coordinates (Angstroms)
 Number     Number       Type             X           Y           Z
 ---------------------------------------------------------------------
      1          6           0        2.059617    1.592101    0.745462
      2          6           0        0.740775    1.688191    0.307179
      3          6           0        2.808955    0.442095    0.530350
      4          6           0        2.245705   -0.648601   -0.149846
      5          6           0        0.919060   -0.544834   -0.600211
      6          6           0        0.159860    0.610345   -0.372926
      7          1           0        0.490172   -1.372920   -1.158802
      8          1           0        3.832545    0.382725    0.885461
      9          1           0        2.510791    2.427233    1.270447
     10          1           0        0.170101    2.588999    0.495994
     11          5           0       -2.474366   -0.457423    0.335256
     12          8           0       -3.835007   -0.467466    0.425867
     13          8           0       -1.798945   -1.292639    1.162454
     14          7           0        2.964714   -1.826048   -0.330126
     15          1           0        3.969007   -1.734123   -0.299350
     16          1           0        2.655209   -2.418356   -1.086228
     17          1           0       -4.273429    0.097160   -0.214509
     18          1           0       -0.842677   -1.186402    1.100169
     19         15           0       -1.564235    0.642502   -1.022587
     20          1           0       -1.961572    1.892655   -0.486377
 ---------------------------------------------------------------------

 SCF Done:  E(RHF) =  -804.499448707     A.U. after    2 cycles

 The electronic state is 1-A.
 Alpha  occ. eigenvalues -- -105.17013 -21.06060 -21.05217 -15.76852 -11.52570
 Alpha  occ. eigenvalues --  -11.46496 -11.44235 -11.41534 -11.41445 -11.36879
 Alpha  occ. eigenvalues --   -7.64967  -2.74715  -1.81140  -1.65718  -1.50980
 Alpha  occ. eigenvalues --   -1.46222  -1.44191  -1.41346  -1.26473  -1.09238
 Alpha  occ. eigenvalues --   -1.05832  -0.87405  -0.85698  -0.76863  -0.73574
 Alpha  occ. eigenvalues --   -0.69484  -0.68220  -0.63864  -0.59018  -0.57067
 Alpha  occ. eigenvalues --   -0.55348  -0.54199  -0.51146  -0.49413  -0.48215
 Alpha  occ. eigenvalues --   -0.46477  -0.46106  -0.44007  -0.36297  -0.34845
 Alpha  occ. eigenvalues --   -0.28551  -0.25023  -0.14409  -0.02481
 Alpha virt. eigenvalues --    0.03107   0.04275   0.04920   0.05192   0.05785
 Alpha virt. eigenvalues --    0.06494   0.06792   0.07678   0.08555   0.08978
 Alpha virt. eigenvalues --    0.09686   0.09959   0.10321   0.11318   0.11393

 Mulliken charges:
               1
     1  C    0.688959
     2  C   -4.898575
     3  C   -2.849795
     4  C    2.892029
     5  C   -3.635150
     6  C    4.248483
     7  H    2.185946
     8  H    1.670937
     9  H    1.525515
    10  H    1.971214
    11  B    5.750805
    12  O   -3.982251
    13  O   -3.970585
    14  N   -4.093782
    15  H    0.650303
    16  H    0.628559
    17  H    1.335453
    18  H    2.033029
    19  P   -0.570739
    20  H   -1.580356
 Sum of Mulliken charges =   0.00000

 Dipole moment (field-independent basis, Debye):
    X=              3.1383    Y=             -0.4037    Z=             -3.3176  Tot=              4.5846

 Test job not archived.
 1\1\GINC-SE343\SP\RHF\Aug-CC-pVDZ\C6H9B1N1O2P1\OHZDE\09-Apr-2025\0\\#t
  hf aug-cc-pvdz iop(5/13=1,5/36=2,99/5=2) pseudo=read geom=check guess
 =(read,tcheck) scf=(maxcycle=1)\\title\\0,1\C,0,-2.059617,1.592101,-0.
 745462\C,0,-0.740775,1.688191,-0.307179\C,0,-2.808955,0.442095,-0.5303
 5\C,0,-2.245705,-0.648601,0.149846\C,0,-0.91906,-0.544834,0.600211\C,0
 ,-0.15986,0.610345,0.372926\H,0,-0.490172,-1.37292,1.158802\H,0,-3.832
 545,0.382725,-0.885461\H,0,-2.510791,2.427233,-1.270447\H,0,-0.170101,
 2.588999,-0.495994\B,0,2.474366,-0.457423,-0.335256\O,0,3.835007,-0.46

 Normal termination of Gaussian 16 at Wed Apr  9 00:46:10 2025.
