 Gaussian 16, Revision C.01,

 ----------------------------------------------------------------------
 #t hf aug-cc-pvdz symm=none int=(grid=ultrafine) guess=(read,tcheck) s
 table=(opt,rrhf)
 ----------------------------------------------------------------------
 -----
 title
 -----
 Symbolic Z-matrix:
 Charge =  0 Multiplicity = 1

 SCF Done:  E(RHF) =  -1545.59182767     A.U. after   14 cycles
 Normal termination of Gaussian 16 at Tue Apr  8 22:39:26 2025.
 Gaussian 16:  ES64L-G16RevC.01  3-Jul-2019

 ----------------------------------------------------------------------
 #t hf aug-cc-pvdz iop(5/13=1,5/36=2,99/5=2) pseudo=read geom=check gue
 ss=(read,tcheck) scf=(maxcycle=1)
 ----------------------------------------------------------------------
 -----
 title
 -----
 Structure from the checkpoint file:  "BDE49_expt_1229_mol1.chk"
 Charge =  0 Multiplicity = 1

                         Standard orientation:
 ---------------------------------------------------------------------
 Center     Atomic      Atomic             Coordinates (Angstroms)
 Number     Number       Type             X           Y           Z
 ---------------------------------------------------------------------
      1          6           0       -0.080714   -0.000000   -0.009297
      2          7           0        0.704070    0.000002   -1.422002
      3         17           0       -1.073269   -1.469526   -0.086019
      4         17           0       -1.073252    1.469538   -0.086004
      5         17           0        1.004252   -0.000014    1.379483
      6          8           0        1.871797    0.000001   -1.314628
 ---------------------------------------------------------------------

 SCF Done:  E(RHF) =  -1547.03994444     A.U. after    2 cycles

 The electronic state is 1-A.
 Alpha  occ. eigenvalues --  -99.93634 -99.93615 -99.93403 -21.18725 -15.92551
 Alpha  occ. eigenvalues --  -11.57675 -10.51150 -10.50910 -10.50763  -9.71009
 Alpha  occ. eigenvalues --   -9.70874  -9.70519  -9.70040  -9.70010  -9.70009
 Alpha  occ. eigenvalues --   -9.69938  -9.69796  -9.69753  -1.92941  -1.47464
 Alpha  occ. eigenvalues --   -1.32912  -1.32884  -1.11465  -0.91356  -0.74731
 Alpha  occ. eigenvalues --   -0.73749  -0.71832  -0.60911  -0.59891  -0.55606
 Alpha  occ. eigenvalues --   -0.54497  -0.53909  -0.52810  -0.52809  -0.51863
 Alpha  occ. eigenvalues --   -0.33522
 Alpha virt. eigenvalues --   -0.00389   0.04966   0.05330   0.06030   0.09290
 Alpha virt. eigenvalues --    0.09625   0.11060   0.11170   0.13284   0.14505
 Alpha virt. eigenvalues --    0.14577   0.15121   0.16519   0.16595   0.18144

 Mulliken charges:
               1
     1  C   -1.850842
     2  N    1.838239
     3  Cl   0.641550
     4  Cl   0.641550
     5  Cl   0.777992
     6  O   -2.048488
 Sum of Mulliken charges =  -0.00000

 Dipole moment (field-independent basis, Debye):
    X=              1.5765    Y=             -0.0000    Z=             -0.5867  Tot=              1.6821

 Test job not archived.
 1\1\GINC-SE398\SP\RHF\Aug-CC-pVDZ\C1Cl3N1O1\OHZDE\08-Apr-2025\0\\#t hf
  aug-cc-pvdz iop(5/13=1,5/36=2,99/5=2) pseudo=read geom=check guess=(r
 ead,tcheck) scf=(maxcycle=1)\\title\\0,1\C,0,-0.080714,0.,-0.009297\N,
 0,0.70407,0.000002,-1.422002\Cl,0,-1.07327,-1.469525,-0.086019\Cl,0,-1
 .073251,1.469539,-0.086004\Cl,0,1.004252,-0.000014,1.379483\O,0,1.8717
 97,0.,-1.314628\\Version=ES64L-G16RevC.01\State=1-A\HF=-1547.0399444\R
 MSD=7.900e-02\Dipole=0.6202424,-0.0000006,-0.2308231\Quadrupole=1.2740
 743,0.5172088,-1.791283,0.0000007,-0.6148298,0.0000075\PG=C01 [X(C1Cl3

 Normal termination of Gaussian 16 at Tue Apr  8 22:39:29 2025.
