 Gaussian 16, Revision C.01,

 ----------------------------------------------------------------------
 #t hf aug-cc-pvdz symm=none int=(grid=ultrafine) guess=(read,tcheck) s
 table=opt
 ----------------------------------------------------------------------
 -----
 title
 -----
 Symbolic Z-matrix:
 Charge =  0 Multiplicity = 2

 SCF Done:  E(UHF) =  -1247.64480227     A.U. after   15 cycles
 Normal termination of Gaussian 16 at Tue Apr  8 23:41:13 2025.
 Gaussian 16:  ES64L-G16RevC.01  3-Jul-2019

 ----------------------------------------------------------------------
 #t hf aug-cc-pvdz iop(5/13=1,5/36=2,99/5=2) pseudo=read geom=check gue
 ss=(read,tcheck) scf=(maxcycle=1)
 ----------------------------------------------------------------------
 -----
 title
 -----
 Structure from the checkpoint file:  "BDE49_nonexpt_1641_mol2.chk"
 Charge =  0 Multiplicity = 2

                         Standard orientation:
 ---------------------------------------------------------------------
 Center     Atomic      Atomic             Coordinates (Angstroms)
 Number     Number       Type             X           Y           Z
 ---------------------------------------------------------------------
      1         14           0        0.000000    0.328694   -0.511970
      2          6           0        0.000000    2.040338    0.255832
      3          1           0        0.890314    2.589670   -0.057898
      4          1           0       -0.000001    1.952141    1.346258
      5          1           0       -0.890312    2.589671   -0.057899
      6         17           0       -1.696474   -0.705154    0.129474
      7         17           0        1.696474   -0.705154    0.129474
 ---------------------------------------------------------------------

 SCF Done:  E(UHF) =  -1248.47005940     A.U. after    2 cycles

 The electronic state is 2-A.
 Alpha  occ. eigenvalues --  -99.89449 -99.89445 -76.31029 -11.38246 -10.46858
 Alpha  occ. eigenvalues --  -10.46814  -9.66780  -9.66770  -9.66139  -9.66069
 Alpha  occ. eigenvalues --   -9.66056  -9.65953  -5.64525  -2.26938  -2.26232
 Alpha  occ. eigenvalues --   -2.24504  -1.31448  -1.28759  -1.06925  -0.75847
 Alpha  occ. eigenvalues --   -0.61345  -0.59812  -0.57253  -0.57184  -0.55683
 Alpha  occ. eigenvalues --   -0.53458  -0.51537  -0.48021  -0.31802
 Alpha virt. eigenvalues --    0.03031   0.05551   0.05601   0.05758   0.07236
 Alpha virt. eigenvalues --    0.07492   0.09779   0.11049   0.12568   0.12956
 Alpha virt. eigenvalues --    0.13674   0.14029   0.14930   0.15925   0.16363

  Beta  occ. eigenvalues --  -99.89343 -99.89339 -76.30447 -11.37977 -10.46742
  Beta  occ. eigenvalues --  -10.46697  -9.66538  -9.66536  -9.66072  -9.65936
  Beta  occ. eigenvalues --   -9.65830  -9.65761  -5.63562  -2.26221  -2.25599
  Beta  occ. eigenvalues --   -2.21245  -1.30492  -1.27919  -1.05901  -0.72360
  Beta  occ. eigenvalues --   -0.60801  -0.58886  -0.56803  -0.56222  -0.54383
  Beta  occ. eigenvalues --   -0.52677  -0.51373  -0.45870
  Beta virt. eigenvalues --   -0.00062   0.04782   0.05786   0.05850   0.06374
  Beta virt. eigenvalues --    0.07363   0.07803   0.10261   0.11596   0.13016
  Beta virt. eigenvalues --    0.13708   0.14231   0.15431   0.15714   0.16179

 Mulliken charges and spin densities:
               1          2
     1  Si   2.711110   0.780424
     2  C   -4.692199   0.130948
     3  H    1.242310   0.022329
     4  H    1.135557  -0.040031
     5  H    1.242311   0.022329
     6  Cl  -0.819545   0.042001
     7  Cl  -0.819545   0.042001
 Sum of Mulliken charges =  -0.00000   1.00000

 Dipole moment (field-independent basis, Debye):
    X=             -0.0000    Y=              2.4385    Z=             -0.7684  Tot=              2.5567
                          Isotropic Fermi Contact Couplings
        Atom                 a.u.       MegaHertz       Gauss      10(-4) cm-1
     1  Si(29)             0.76190    -677.12347    -241.61449    -225.86408
     2  C(13)              0.05580      62.72751      22.38274      20.92365
     3  H(1)              -0.00135      -6.04000      -2.15522      -2.01473
     4  H(1)               0.00482      21.56252       7.69404       7.19248
     5  H(1)              -0.00135      -6.03999      -2.15522      -2.01472
     6  Cl(35)             0.08306      36.41862      12.99507      12.14794
     7  Cl(35)             0.08306      36.41862      12.99507      12.14794
 --------------------------------------------------------

 Normal termination of Gaussian 16 at Tue Apr  8 23:41:16 2025.
