 Gaussian 16, Revision C.01,

 ----------------------------------------------------------------------
 #t hf aug-cc-pvdz symm=none int=(grid=ultrafine) guess=(read,tcheck) s
 table=(opt,rrhf)
 ----------------------------------------------------------------------
 -----
 title
 -----
 Symbolic Z-matrix:
 Charge =  0 Multiplicity = 1

 SCF Done:  E(RHF) =  -476.928500193     A.U. after   13 cycles
 Normal termination of Gaussian 16 at Wed Apr  9 00:38:20 2025.
 Gaussian 16:  ES64L-G16RevC.01  3-Jul-2019

 ----------------------------------------------------------------------
 #t hf aug-cc-pvdz iop(5/13=1,5/36=2,99/5=2) pseudo=read geom=check gue
 ss=(read,tcheck) scf=(maxcycle=1)
 ----------------------------------------------------------------------
 -----
 title
 -----
 Structure from the checkpoint file:  "BDE49_nonexpt_579_mol1.chk"
 Charge =  0 Multiplicity = 1

                         Standard orientation:
 ---------------------------------------------------------------------
 Center     Atomic      Atomic             Coordinates (Angstroms)
 Number     Number       Type             X           Y           Z
 ---------------------------------------------------------------------
      1          7           0        0.402672   -0.656789   -0.000000
      2          5           0        0.018219    0.753976    0.000000
      3          9           0       -0.080828   -1.336694    1.104167
      4          9           0       -0.080828   -1.336694   -1.104167
      5          9           0       -0.080828    1.382674    1.146193
      6          9           0       -0.080828    1.382674   -1.146193
 ---------------------------------------------------------------------

 SCF Done:  E(RHF) =  -478.605772823     A.U. after    2 cycles

 The electronic state is 1-A'.
 Alpha  occ. eigenvalues --  -29.33073 -29.33031 -29.29851 -29.29761 -15.87537
 Alpha  occ. eigenvalues --   -7.76516  -1.58151  -1.15845  -0.90865  -0.79198
 Alpha  occ. eigenvalues --   -0.78026  -0.69197  -0.53191  -0.52658  -0.51495
 Alpha  occ. eigenvalues --   -0.46166  -0.43792  -0.38129  -0.35884  -0.35735
 Alpha  occ. eigenvalues --   -0.32092  -0.30181  -0.24430  -0.22018
 Alpha virt. eigenvalues --    0.01793   0.03167   0.05478   0.05958   0.09713
 Alpha virt. eigenvalues --    0.17415   0.17626   0.18025   0.18975   0.20318
 Alpha virt. eigenvalues --    0.21961   0.22852   0.23067   0.23881   0.25102

 Mulliken charges:
               1
     1  N   -0.937582
     2  B    1.300935
     3  F   -0.000836
     4  F   -0.000836
     5  F   -0.180841
     6  F   -0.180841
 Sum of Mulliken charges =  -0.00000

 Dipole moment (field-independent basis, Debye):
    X=             -1.4216    Y=              1.2715    Z=             -0.0000  Tot=              1.9072

 Test job not archived.
 1\1\GINC-SE016\SP\RHF\Aug-CC-pVDZ\B1F4N1\OHZDE\09-Apr-2025\0\\#t hf au
 g-cc-pvdz iop(5/13=1,5/36=2,99/5=2) pseudo=read geom=check guess=(read
 ,tcheck) scf=(maxcycle=1)\\title\\0,1\N,0,0.402672,-0.656789,0.\B,0,0.
 018219,0.753976,0.\F,0,-0.080828,-1.336694,1.104167\F,0,-0.080828,-1.3
 36694,-1.104167\F,0,-0.080828,1.382674,1.146193\F,0,-0.080828,1.382674
 ,-1.146193\\Version=ES64L-G16RevC.01\State=1-A'\HF=-478.6057728\RMSD=2
 .418e-01\Dipole=-0.5593003,0.5002301,0.\Quadrupole=-3.9568691,0.729742
 8,3.2271264,0.3379814,0.,0.\PG=CS [SG(B1N1),X(F4)]\\@

 Normal termination of Gaussian 16 at Wed Apr  9 00:38:22 2025.
