 Gaussian 16, Revision C.01,

 ----------------------------------------------------------------------
 #t hf aug-cc-pvdz symm=none int=(grid=ultrafine) guess=(read,tcheck) s
 table=opt
 ----------------------------------------------------------------------
 -----
 title
 -----
 Symbolic Z-matrix:
 Charge =  0 Multiplicity = 2

 SCF Done:  E(UHF) =  -899.309923230     A.U. after   26 cycles
 Normal termination of Gaussian 16 at Tue Apr  8 23:18:10 2025.
 Gaussian 16:  ES64L-G16RevC.01  3-Jul-2019

 ----------------------------------------------------------------------
 #t hf aug-cc-pvdz iop(5/13=1,5/36=2,99/5=2) pseudo=read geom=check gue
 ss=(read,tcheck) scf=(maxcycle=1)
 ----------------------------------------------------------------------
 -----
 title
 -----
 Structure from the checkpoint file:  "BDE49_expt_694_mol2.chk"
 Charge =  0 Multiplicity = 2

                         Standard orientation:
 ---------------------------------------------------------------------
 Center     Atomic      Atomic             Coordinates (Angstroms)
 Number     Number       Type             X           Y           Z
 ---------------------------------------------------------------------
      1          6           0        1.436373   -0.665850    0.000000
      2          6           0        0.131090   -1.426548   -0.000001
      3          6           0       -0.914954   -0.608871   -0.000001
      4          6           0       -0.559629    0.862905    0.000000
      5          7           0        0.926010    0.734500    0.000002
      6          6           0        2.275966   -0.911423    1.265166
      7          1           0        1.675032   -0.770257    2.165583
      8          1           0        3.108559   -0.205595    1.287516
      9          1           0        2.676341   -1.928436    1.268127
     10          6           0        2.275966   -0.911421   -1.265166
     11          1           0        1.675033   -0.770252   -2.165583
     12          1           0        2.676341   -1.928433   -1.268128
     13          1           0        3.108559   -0.205592   -1.287514
     14          6           0       -1.018543    1.603137   -1.265818
     15          1           0       -0.725298    1.058285   -2.165284
     16          1           0       -0.549788    2.588558   -1.286370
     17          1           0       -2.103532    1.724973   -1.267889
     18          6           0       -1.018545    1.603136    1.265819
     19          1           0       -0.725301    1.058282    2.165285
     20          1           0       -2.103534    1.724972    1.267888
     21          1           0       -0.549789    2.588557    1.286372
     22          8           0        1.694114    1.743456    0.000002
     23         17           0       -2.584181   -1.105141   -0.000002
     24          1           0        0.087128   -2.507195   -0.000001
 ---------------------------------------------------------------------

 SCF Done:  E(UHF) =  -901.670317838     A.U. after    2 cycles

 The electronic state is 2-A.
 Alpha  occ. eigenvalues --  -99.90611 -21.06936 -15.79357 -11.52172 -11.48262
 Alpha  occ. eigenvalues --  -11.45568 -11.42542 -11.40407 -11.40050 -11.39810
 Alpha  occ. eigenvalues --  -11.36871 -10.47963  -9.68172  -9.67229  -9.66997
 Alpha  occ. eigenvalues --   -1.82062  -1.43714  -1.32147  -1.23680  -1.09163
 Alpha  occ. eigenvalues --   -1.06462  -1.02911  -1.01992  -0.91439  -0.80823
 Alpha  occ. eigenvalues --   -0.76971  -0.68402  -0.67652  -0.63751  -0.62184
 Alpha  occ. eigenvalues --   -0.60966  -0.58853  -0.57351  -0.57274  -0.55183
 Alpha  occ. eigenvalues --   -0.54501  -0.54050  -0.52093  -0.51157  -0.50036
 Alpha  occ. eigenvalues --   -0.47152  -0.46690  -0.44921  -0.44192  -0.35361
 Alpha  occ. eigenvalues --   -0.30597  -0.24745
 Alpha virt. eigenvalues --    0.03568   0.04772   0.04960   0.05450   0.05789
 Alpha virt. eigenvalues --    0.06048   0.06111   0.07062   0.07134   0.07688
 Alpha virt. eigenvalues --    0.08290   0.08486   0.08523   0.10554   0.10573

  Beta  occ. eigenvalues --  -99.90614 -21.04246 -15.77319 -11.52244 -11.48427
  Beta  occ. eigenvalues --  -11.45683 -11.42536 -11.40339 -11.39983 -11.39749
  Beta  occ. eigenvalues --  -11.36831 -10.47966  -9.68182  -9.67231  -9.66999
  Beta  occ. eigenvalues --   -1.76298  -1.42283  -1.31172  -1.23611  -1.09009
  Beta  occ. eigenvalues --   -1.02576  -1.02555  -1.01828  -0.91421  -0.80528
  Beta  occ. eigenvalues --   -0.75815  -0.68149  -0.63585  -0.63338  -0.61990
  Beta  occ. eigenvalues --   -0.60971  -0.57985  -0.56987  -0.56846  -0.55014
  Beta  occ. eigenvalues --   -0.54465  -0.53915  -0.49934  -0.49851  -0.49310
  Beta  occ. eigenvalues --   -0.46910  -0.44781  -0.43920  -0.38891  -0.33735
  Beta  occ. eigenvalues --   -0.28908
  Beta virt. eigenvalues --    0.03571   0.04769   0.04963   0.05452   0.05795
  Beta virt. eigenvalues --    0.05985   0.06117   0.07110   0.07139   0.07684
  Beta virt. eigenvalues --    0.08292   0.08519   0.08521   0.10536   0.10584

 Mulliken charges and spin densities:
               1          2
     1  C   -0.376112  -0.209738
     2  C   -0.860159   0.073189
     3  C    2.014409   0.010543
     4  C    4.133041  -0.188655
     5  N    1.095140   0.426267
     6  C   -4.257625   0.050771
     7  H    1.282944  -0.001936
     8  H    1.303121  -0.007073
     9  H    1.225657  -0.002148
    10  C   -4.257624   0.050771
    11  H    1.282943  -0.001936
    12  H    1.225659  -0.002148
    13  H    1.303120  -0.007073
    14  C   -5.175055   0.037760
    15  H    1.196781  -0.001421
    16  H    1.319884  -0.008179
    17  H    1.102003  -0.002272
    18  C   -5.175054   0.037761
    19  H    1.196780  -0.001421
    20  H    1.102003  -0.002272
    21  H    1.319883  -0.008179
    22  O   -3.488109   0.761015
    23  Cl  -0.401482  -0.001682
    24  H    1.887851  -0.001945
 Sum of Mulliken charges =  -0.00000   1.00000

 Dipole moment (field-independent basis, Debye):
    X=              1.1042    Y=             -0.7696    Z=             -0.0000  Tot=              1.3460
                          Isotropic Fermi Contact Couplings
        Atom                 a.u.       MegaHertz       Gauss      10(-4) cm-1
     1  C(13)             -0.02281     -25.64327      -9.15016      -8.55367
     2  C(13)              0.00143       1.60383       0.57229       0.53498
     3  C(13)             -0.00275      -3.09613      -1.10478      -1.03276
     4  C(13)             -0.02300     -25.85285      -9.22494      -8.62358
     5  N(14)              0.17297      55.88799      19.94222      18.64223
     6  C(13)              0.00954      10.72825       3.82811       3.57856
     7  H(1)              -0.00041      -1.82225      -0.65022      -0.60784
     8  H(1)              -0.00057      -2.53439      -0.90433      -0.84538

 Normal termination of Gaussian 16 at Tue Apr  8 23:18:31 2025.
