 Gaussian 16, Revision C.01,

 ----------------------------------------------------------------------
 #t hf aug-cc-pvdz symm=none int=(grid=ultrafine) guess=(read,tcheck) s
 table=opt
 ----------------------------------------------------------------------
 -----
 title
 -----
 Symbolic Z-matrix:
 Charge =  0 Multiplicity = 2

 SCF Done:  E(UHF) =  -389.555679944     A.U. after   13 cycles

 1\1\GINC-SE072\Stability\UHF\Aug-CC-pVDZ\F1H2Si1\OHZDE\08-Apr-2025\0\\
 #t hf aug-cc-pvdz symm=none int=(grid=ultrafine) guess=(read,tcheck) s
 table=opt\\title\\0,2\Si,0,-0.056603,-0.545753,0.\F,0,-0.056603,1.0707
 42,0.\H,0,0.650939,-0.99807,1.226739\H,0,0.650939,-0.99807,-1.226739\\
 Version=ES64L-G16RevC.01\HF=-389.5556799\S2=0.753319\S2-1=0.\S2A=0.750
 004\RMSD=8.838e-09\Dipole=0.0063572,-0.6056984,0.\Quadrupole=0.2820724
 ,-0.67952,0.3974476,-0.0144759,0.,0.\PG=Unknown\\@
 The archive entry for this job was punched.

 Normal termination of Gaussian 16 at Tue Apr  8 23:47:13 2025.
 Gaussian 16:  ES64L-G16RevC.01  3-Jul-2019

 ----------------------------------------------------------------------
 #t hf aug-cc-pvdz iop(5/13=1,5/36=2,99/5=2) pseudo=read geom=check gue
 ss=(read,tcheck) scf=(maxcycle=1)
 ----------------------------------------------------------------------
 -----
 title
 -----
 Structure from the checkpoint file:  "BDE49_nonexpt_1789_mol2.chk"
 Charge =  0 Multiplicity = 2

                         Standard orientation:
 ---------------------------------------------------------------------
 Center     Atomic      Atomic             Coordinates (Angstroms)
 Number     Number       Type             X           Y           Z
 ---------------------------------------------------------------------
      1         14           0       -0.056603   -0.545753   -0.000000
      2          9           0       -0.056603    1.070742    0.000000
      3          1           0        0.650939   -0.998070    1.226739
      4          1           0        0.650939   -0.998070   -1.226739
 ---------------------------------------------------------------------

 SCF Done:  E(UHF) =  -390.036854663     A.U. after    2 cycles

 The electronic state is 2-A'.
 Alpha  occ. eigenvalues --  -76.27550 -29.27100  -5.61530  -2.25569  -2.22277
 Alpha  occ. eigenvalues --   -2.21172  -0.88053  -0.59735  -0.52110  -0.41077
 Alpha  occ. eigenvalues --   -0.33704  -0.32894  -0.23986
 Alpha virt. eigenvalues --    0.04613   0.06107   0.06537   0.07530   0.09409
 Alpha virt. eigenvalues --    0.14974   0.15776   0.16540   0.18512   0.25665
 Alpha virt. eigenvalues --    0.26545   0.26924   0.30666   0.30851   0.32030

  Beta  occ. eigenvalues --  -76.26994 -29.26820  -5.60630  -2.24947  -2.21693
  Beta  occ. eigenvalues --   -2.17664  -0.84636  -0.57822  -0.50716  -0.35715
  Beta  occ. eigenvalues --   -0.33446  -0.32513
  Beta virt. eigenvalues --    0.03664   0.05158   0.06279   0.06899   0.09610
  Beta virt. eigenvalues --    0.10893   0.16191   0.16935   0.19866   0.20491
  Beta virt. eigenvalues --    0.26169   0.27315   0.28897   0.30924   0.31078

 Mulliken charges and spin densities:
               1          2
     1  Si   4.046025   0.933638
     2  F   -1.053969   0.017412
     3  H   -1.496028   0.024475
     4  H   -1.496028   0.024475
 Sum of Mulliken charges =   0.00000   1.00000

 Dipole moment (field-independent basis, Debye):
    X=             -0.4460    Y=              2.0748    Z=              0.0000  Tot=              2.1222
                          Isotropic Fermi Contact Couplings
        Atom                 a.u.       MegaHertz       Gauss      10(-4) cm-1
     1  Si(29)             0.49513    -440.03827    -157.01660    -146.78097
     2  F(19)              0.03741     157.41631      56.17005      52.50843
     3  H(1)               0.01408      62.93984      22.45850      20.99447
     4  H(1)               0.01408      62.93984      22.45850      20.99447
 --------------------------------------------------------
       Center         ----  Spin Dipole Couplings  ----
                      3XX-RR        3YY-RR        3ZZ-RR
 --------------------------------------------------------

 Normal termination of Gaussian 16 at Tue Apr  8 23:47:14 2025.
