 Gaussian 16, Revision C.01,

 ----------------------------------------------------------------------
 #t hf aug-cc-pvdz symm=none int=(grid=ultrafine) guess=(read,tcheck) s
 table=(opt,rrhf)
 ----------------------------------------------------------------------
 -----
 title
 -----
 Symbolic Z-matrix:
 Charge =  0 Multiplicity = 1

 SCF Done:  E(RHF) =  -334.050022177     A.U. after   15 cycles

 1\1\GINC-SE105\Stability\RHF\Aug-CC-pVDZ\C8H11B1\OHZDE\09-Apr-2025\0\\
 #t hf aug-cc-pvdz symm=none int=(grid=ultrafine) guess=(read,tcheck) s
 table=(opt,rrhf)\\title\\0,1\C,0,0.248687,-0.17474,-0.125238\C,0,-0.26
 4578,1.09305,0.191879\C,0,-1.638584,1.313677,0.250654\C,0,-2.528711,0.
 270383,0.010975\C,0,-2.035739,-1.000307,-0.284177\C,0,-0.664683,-1.220
 267,-0.343275\B,0,1.83958,-0.728658,1.369935\H,0,-2.012759,2.30393,0.4
 85481\H,0,-3.597896,0.443899,0.055462\H,0,-2.721023,-1.819684,-0.47056
 6\H,0,-0.286896,-2.210744,-0.574217\H,0,0.413471,1.916256,0.380515\C,0

 Normal termination of Gaussian 16 at Wed Apr  9 00:32:09 2025.
 Gaussian 16:  ES64L-G16RevC.01  3-Jul-2019

 ----------------------------------------------------------------------
 #t hf aug-cc-pvdz iop(5/13=1,5/36=2,99/5=2) pseudo=read geom=check gue
 ss=(read,tcheck) scf=(maxcycle=1)
 ----------------------------------------------------------------------
 -----
 title
 -----
 Structure from the checkpoint file:  "BDE49_nonexpt_346_mol1.chk"
 Charge =  0 Multiplicity = 1

                         Standard orientation:
 ---------------------------------------------------------------------
 Center     Atomic      Atomic             Coordinates (Angstroms)
 Number     Number       Type             X           Y           Z
 ---------------------------------------------------------------------
      1          6           0        0.248687   -0.174740   -0.125238
      2          6           0       -0.264578    1.093050    0.191879
      3          6           0       -1.638584    1.313677    0.250654
      4          6           0       -2.528711    0.270383    0.010975
      5          6           0       -2.035739   -1.000307   -0.284177
      6          6           0       -0.664683   -1.220267   -0.343275
      7          5           0        1.839580   -0.728658    1.369935
      8          1           0       -2.012759    2.303930    0.485481
      9          1           0       -3.597896    0.443899    0.055462
     10          1           0       -2.721023   -1.819684   -0.470566
     11          1           0       -0.286896   -2.210744   -0.574217
     12          1           0        0.413471    1.916256    0.380515
     13          6           0        1.756004   -0.451591   -0.168728
     14          6           0        2.612807    0.684809   -0.738937
     15          1           0        1.899654   -1.358176   -0.762687
     16          1           0        2.576064    1.580684   -0.114601
     17          1           0        2.297419    0.960666   -1.750130
     18          1           0        3.660244    0.374619   -0.787719
     19          1           0        2.052502    0.174896    2.121215
     20          1           0        1.610100   -1.813144    1.808655
 ---------------------------------------------------------------------

 SCF Done:  E(RHF) =  -335.703805000     A.U. after    2 cycles

 The electronic state is 1-A.
 Alpha  occ. eigenvalues --  -11.51874 -11.44564 -11.43543 -11.41192 -11.40780
 Alpha  occ. eigenvalues --  -11.39691 -11.37163 -11.35612  -7.60857  -1.36465
 Alpha  occ. eigenvalues --   -1.20085  -1.09207  -1.05934  -0.95014  -0.86378
 Alpha  occ. eigenvalues --   -0.83560  -0.76339  -0.70664  -0.64834  -0.61317
 Alpha  occ. eigenvalues --   -0.57904  -0.57535  -0.55966  -0.52274  -0.50627
 Alpha  occ. eigenvalues --   -0.50188  -0.45225  -0.44322  -0.42639  -0.39301
 Alpha  occ. eigenvalues --   -0.33065  -0.31275
 Alpha virt. eigenvalues --    0.03388   0.03943   0.04249   0.04866   0.05489
 Alpha virt. eigenvalues --    0.05582   0.05937   0.06854   0.07426   0.07926
 Alpha virt. eigenvalues --    0.08098   0.09543   0.10057   0.11046   0.11285

 Mulliken charges:
               1
     1  C    5.118797
     2  C   -1.806517
     3  C   -2.239979
     4  C   -3.092245
     5  C   -1.488084
     6  C   -3.306253
     7  B    8.304221
     8  H    1.499723
     9  H    1.543915
    10  H    1.514286
    11  H    1.709569
    12  H    1.866059
    13  C   -2.871160
    14  C   -4.700356
    15  H    1.563183
    16  H    1.255365
    17  H    1.277396
    18  H    1.095672
    19  H   -3.561057
    20  H   -3.682537
 Sum of Mulliken charges =   0.00000

 Dipole moment (field-independent basis, Debye):
    X=             -0.4476    Y=              0.1393    Z=             -0.8541  Tot=              0.9743

 Test job not archived.
 1\1\GINC-SE105\SP\RHF\Aug-CC-pVDZ\C8H11B1\OHZDE\09-Apr-2025\0\\#t hf a
 ug-cc-pvdz iop(5/13=1,5/36=2,99/5=2) pseudo=read geom=check guess=(rea
 d,tcheck) scf=(maxcycle=1)\\title\\0,1\C,0,0.248687,-0.17474,-0.125238
 \C,0,-0.264578,1.09305,0.191879\C,0,-1.638584,1.313677,0.250654\C,0,-2
 .528711,0.270383,0.010975\C,0,-2.035739,-1.000307,-0.284177\C,0,-0.664
 683,-1.220267,-0.343275\B,0,1.83958,-0.728658,1.369935\H,0,-2.012759,2
 .30393,0.485481\H,0,-3.597896,0.443899,0.055462\H,0,-2.721023,-1.81968
 4,-0.470566\H,0,-0.286896,-2.210744,-0.574217\H,0,0.413471,1.916256,0.

 Normal termination of Gaussian 16 at Wed Apr  9 00:32:19 2025.
