 Gaussian 16, Revision C.01,

 ----------------------------------------------------------------------
 #t hf aug-cc-pvdz symm=none int=(grid=ultrafine) guess=(read,tcheck) s
 table=(opt,rrhf)
 ----------------------------------------------------------------------
 -----
 title
 -----
 Symbolic Z-matrix:
 Charge =  0 Multiplicity = 1

 SCF Done:  E(RHF) =  -538.245595766     A.U. after   12 cycles
 Normal termination of Gaussian 16 at Tue Apr  8 23:58:50 2025.
 Gaussian 16:  ES64L-G16RevC.01  3-Jul-2019

 ----------------------------------------------------------------------
 #t hf aug-cc-pvdz iop(5/13=1,5/36=2,99/5=2) pseudo=read geom=check gue
 ss=(read,tcheck) scf=(maxcycle=1)
 ----------------------------------------------------------------------
 -----
 title
 -----
 Structure from the checkpoint file:  "BDE49_nonexpt_2050_mol1.chk"
 Charge =  0 Multiplicity = 1

                         Standard orientation:
 ---------------------------------------------------------------------
 Center     Atomic      Atomic             Coordinates (Angstroms)
 Number     Number       Type             X           Y           Z
 ---------------------------------------------------------------------
      1         14           0       -1.911575    0.314314   -0.267513
      2          6           0       -0.200366   -0.540898   -0.266533
      3          8           0       -0.162906   -1.496384    0.831131
      4          7           0        0.931766    0.344801   -0.360033
      5          6           0        2.194611   -0.345963   -0.621407
      6          1           0        2.081226   -0.994936   -1.492863
      7          1           0        2.531557   -0.962942    0.224948
      8          1           0        2.970629    0.390364   -0.845686
      9          6           0        1.058974    1.319008    0.717008
     10          1           0        0.126619    1.875815    0.840569
     11          1           0        1.839181    2.040636    0.463204
     12          1           0        1.325211    0.871373    1.690279
     13          1           0       -0.168267   -1.185908   -1.149230
     14          1           0       -0.348581   -1.024857    1.650246
     15          1           0       -2.237858    0.750848    1.114899
     16          1           0       -2.923899   -0.682228   -0.682520
     17          1           0       -1.972197    1.486020   -1.171890
 ---------------------------------------------------------------------

 SCF Done:  E(RHF) =  -539.595694707     A.U. after    2 cycles

 The electronic state is 1-A.
 Alpha  occ. eigenvalues --  -76.21401 -21.06731 -15.71178 -11.41406 -11.39115
 Alpha  occ. eigenvalues --  -11.37908  -5.54956  -2.19152  -2.17519  -2.17326
 Alpha  occ. eigenvalues --   -1.70606  -1.40465  -1.03853  -1.00871  -0.84226
 Alpha  occ. eigenvalues --   -0.75993  -0.66175  -0.63760  -0.61020  -0.56774
 Alpha  occ. eigenvalues --   -0.54185  -0.52863  -0.50561  -0.49621  -0.46557
 Alpha  occ. eigenvalues --   -0.45840  -0.41356  -0.30807  -0.29581
 Alpha virt. eigenvalues --    0.03832   0.04740   0.05522   0.05647   0.06005
 Alpha virt. eigenvalues --    0.06560   0.06673   0.07180   0.07366   0.08717
 Alpha virt. eigenvalues --    0.09233   0.10053   0.10204   0.11779   0.13341

 Mulliken charges:
               1
     1  Si   6.275282
     2  C    0.911573
     3  O   -2.862032
     4  N   -2.541570
     5  C   -3.662510
     6  H    1.309005
     7  H    1.444658
     8  H    1.384999
     9  C   -3.545003
    10  H    1.404172
    11  H    1.307248
    12  H    1.411543
    13  H    1.875529
    14  H    0.841808
    15  H   -1.788998
    16  H   -1.894360
    17  H   -1.871346
 Sum of Mulliken charges =  -0.00000

 Dipole moment (field-independent basis, Debye):
    X=              0.9084    Y=              0.1512    Z=              0.1458  Tot=              0.9324

 Test job not archived.
 1\1\GINC-SE453\SP\RHF\Aug-CC-pVDZ\C3H11N1O1Si1\OHZDE\08-Apr-2025\0\\#t
  hf aug-cc-pvdz iop(5/13=1,5/36=2,99/5=2) pseudo=read geom=check guess
 =(read,tcheck) scf=(maxcycle=1)\\title\\0,1\Si,0,-1.911575,0.314314,-0
 .267513\C,0,-0.200366,-0.540898,-0.266533\O,0,-0.162906,-1.496384,0.83
 1131\N,0,0.931766,0.344801,-0.360033\C,0,2.194611,-0.345963,-0.621407\
 H,0,2.081226,-0.994936,-1.492863\H,0,2.531557,-0.962942,0.224948\H,0,2
 .970629,0.390365,-0.845686\C,0,1.058974,1.319008,0.717008\H,0,0.126619
 ,1.875815,0.840569\H,0,1.839181,2.040636,0.463204\H,0,1.325211,0.87137

 Normal termination of Gaussian 16 at Tue Apr  8 23:58:55 2025.
