 Gaussian 16, Revision C.01,

 ----------------------------------------------------------------------
 #t hf aug-cc-pvdz symm=none int=(grid=ultrafine) guess=(read,tcheck) s
 table=(opt,rrhf)
 ----------------------------------------------------------------------
 -----
 title
 -----
 Symbolic Z-matrix:
 Charge =  0 Multiplicity = 1

 SCF Done:  E(RHF) =  -404.463382138     A.U. after   15 cycles
 Normal termination of Gaussian 16 at Tue Apr  8 23:12:13 2025.
 Gaussian 16:  ES64L-G16RevC.01  3-Jul-2019

 ----------------------------------------------------------------------
 #t hf aug-cc-pvdz iop(5/13=1,5/36=2,99/5=2) pseudo=read geom=check gue
 ss=(read,tcheck) scf=(maxcycle=1)
 ----------------------------------------------------------------------
 -----
 title
 -----
 Structure from the checkpoint file:  "BDE49_expt_721_mol1.chk"
 Charge =  0 Multiplicity = 1

                         Standard orientation:
 ---------------------------------------------------------------------
 Center     Atomic      Atomic             Coordinates (Angstroms)
 Number     Number       Type             X           Y           Z
 ---------------------------------------------------------------------
      1          6           0        1.386436   -0.007644   -0.000000
      2          6           0        0.717956    1.208584   -0.000000
      3          6           0       -0.671908    1.219956   -0.000000
      4          6           0        0.701425   -1.210911   -0.000000
      5          6           0       -0.692316   -1.196181   -0.000000
      6          6           0       -1.382752    0.017276   -0.000000
      7          9           0        2.741011   -0.017143   -0.000000
      8          1           0        1.286438    2.130281   -0.000000
      9          1           0       -1.221727    2.152790   -0.000000
     10          1           0        1.253239   -2.142531   -0.000000
     11          1           0       -1.239228   -2.134174   -0.000000
     12          8           0       -2.747976    0.094466   -0.000000
     13          1           0       -3.117066   -0.794286    0.000001
 ---------------------------------------------------------------------

 SCF Done:  E(RHF) =  -406.194123337     A.U. after    2 cycles

 The electronic state is 1-A.
 Alpha  occ. eigenvalues --  -29.27902 -21.10984 -11.53830 -11.47557 -11.44903
 Alpha  occ. eigenvalues --  -11.43824 -11.41339 -11.38299  -1.76354  -1.35550
 Alpha  occ. eigenvalues --   -1.12869  -1.11635  -0.90735  -0.89960  -0.76893
 Alpha  occ. eigenvalues --   -0.69720  -0.64484  -0.61175  -0.60038  -0.56461
 Alpha  occ. eigenvalues --   -0.53626  -0.48724  -0.48652  -0.43275  -0.38122
 Alpha  occ. eigenvalues --   -0.35036  -0.34432  -0.26997  -0.20873
 Alpha virt. eigenvalues --    0.03301   0.04841   0.05947   0.06147   0.06835
 Alpha virt. eigenvalues --    0.10192   0.10234   0.11593   0.13154   0.13398
 Alpha virt. eigenvalues --    0.13443   0.13458   0.13843   0.13963   0.14776

 Mulliken charges:
               1
     1  C    2.515168
     2  C   -3.501651
     3  C   -1.358722
     4  C   -3.706655
     5  C   -2.637100
     6  C    4.828878
     7  F    0.596842
     8  H    1.680448
     9  H    1.704084
    10  H    1.651558
    11  H    1.650240
    12  O   -4.439446
    13  H    1.016356
 Sum of Mulliken charges =  -0.00000

 Dipole moment (field-independent basis, Debye):
    X=              1.2236    Y=             -0.5767    Z=              0.0000  Tot=              1.3527

 Test job not archived.
 1\1\GINC-SE339\SP\RHF\Aug-CC-pVDZ\C6H5F1O1\OHZDE\08-Apr-2025\0\\#t hf
 aug-cc-pvdz iop(5/13=1,5/36=2,99/5=2) pseudo=read geom=check guess=(re
 ad,tcheck) scf=(maxcycle=1)\\title\\0,1\C,0,-1.386436,-0.007644,0.\C,0
 ,-0.717956,1.208584,0.\C,0,0.671908,1.219956,0.\C,0,-0.701425,-1.21091
 1,0.\C,0,0.692316,-1.196181,0.\C,0,1.382752,0.017276,0.\F,0,-2.741011,
 -0.017142,0.\H,0,-1.286437,2.130281,0.\H,0,1.221728,2.15279,0.\H,0,-1.
 253239,-2.142531,0.\H,0,1.239228,-2.134174,0.\O,0,2.747976,0.094465,0.
 \H,0,3.117066,-0.794287,-0.000001\\Version=ES64L-G16RevC.01\State=1-A\

 Normal termination of Gaussian 16 at Tue Apr  8 23:12:17 2025.
