 Gaussian 16, Revision C.01,

 ----------------------------------------------------------------------
 #t hf aug-cc-pvdz symm=none int=(grid=ultrafine) guess=(read,tcheck) s
 table=opt
 ----------------------------------------------------------------------
 -----
 title
 -----
 Symbolic Z-matrix:
 Charge =  0 Multiplicity = 2

 SCF Done:  E(UHF) =  -870.102621333     A.U. after   16 cycles
 Normal termination of Gaussian 16 at Tue Apr  8 22:46:22 2025.
 Gaussian 16:  ES64L-G16RevC.01  3-Jul-2019

 ----------------------------------------------------------------------
 #t hf aug-cc-pvdz iop(5/13=1,5/36=2,99/5=2) pseudo=read geom=check gue
 ss=(read,tcheck) scf=(maxcycle=1)
 ----------------------------------------------------------------------
 -----
 title
 -----
 Structure from the checkpoint file:  "BDE49_expt_1321_mol2.chk"
 Charge =  0 Multiplicity = 2

                         Standard orientation:
 ---------------------------------------------------------------------
 Center     Atomic      Atomic             Coordinates (Angstroms)
 Number     Number       Type             X           Y           Z
 ---------------------------------------------------------------------
      1          7           0       -0.000001    0.000004   -0.535694
      2         14           0        1.656803   -0.006739   -0.050026
      3         14           0       -1.656804    0.006738   -0.050021
      4          6           0       -1.952109   -0.464758    1.751730
      5          1           0       -1.588116   -1.474906    1.964164
      6          1           0       -3.020757   -0.444811    1.991051
      7          1           0       -1.444719    0.223274    2.434203
      8          6           0       -2.599238   -1.188763   -1.156250
      9          1           0       -2.231549   -2.212069   -1.036344
     10          1           0       -2.487516   -0.913835   -2.208148
     11          1           0       -3.666274   -1.187975   -0.910738
     12          6           0       -2.250960    1.775586   -0.340133
     13          1           0       -3.316417    1.849524   -0.098005
     14          1           0       -1.713263    2.488551    0.290392
     15          1           0       -2.114594    2.069852   -1.383284
     16          6           0        2.599221    1.188825   -1.156202
     17          1           0        2.487498    0.913945   -2.208113
     18          1           0        3.666258    1.188036   -0.910694
     19          1           0        2.231522    2.212121   -1.036247
     20          6           0        1.952111    0.464676    1.751747
     21          1           0        1.588110    1.474810    1.964229
     22          1           0        3.020760    0.444727    1.991063
     23          1           0        1.444730   -0.223394    2.434189
     24          6           0        2.250976   -1.775567   -0.340223
     25          1           0        3.316434   -1.849507   -0.098099
     26          1           0        1.713286   -2.488568    0.290267
     27          1           0        2.114613   -2.069784   -1.383389
 ---------------------------------------------------------------------

 SCF Done:  E(UHF) =  -871.912024099     A.U. after    2 cycles

 The electronic state is 2-A.
 Alpha  occ. eigenvalues --  -76.19313 -76.19311 -15.71129 -11.34233 -11.34138
 Alpha  occ. eigenvalues --  -11.34099 -11.33873 -11.33859 -11.33740  -5.53715
 Alpha  occ. eigenvalues --   -5.53543  -2.19311  -2.18914  -2.16969  -2.16920
 Alpha  occ. eigenvalues --   -2.16802  -2.16730  -1.23153  -1.07326  -1.04194
 Alpha  occ. eigenvalues --   -1.00994  -1.00568  -1.00279  -1.00134  -0.69543
 Alpha  occ. eigenvalues --   -0.59724  -0.57322  -0.56895  -0.56528  -0.55949
 Alpha  occ. eigenvalues --   -0.55868  -0.55465  -0.55321  -0.54204  -0.53948
 Alpha  occ. eigenvalues --   -0.53661  -0.52869  -0.52707  -0.48820  -0.44613
 Alpha  occ. eigenvalues --   -0.42987  -0.39017  -0.38487  -0.36709  -0.35384
 Alpha virt. eigenvalues --    0.02834   0.04355   0.05307   0.05613   0.05964
 Alpha virt. eigenvalues --    0.05981   0.06215   0.06438   0.06494   0.06897
 Alpha virt. eigenvalues --    0.07028   0.07356   0.07965   0.07982   0.08237

  Beta  occ. eigenvalues --  -76.19369 -76.19367 -15.68426 -11.34180 -11.34070
  Beta  occ. eigenvalues --  -11.34009 -11.33836 -11.33835 -11.33696  -5.53800
  Beta  occ. eigenvalues --   -5.53628  -2.19410  -2.19103  -2.17059  -2.16991
  Beta  occ. eigenvalues --   -2.16872  -2.16808  -1.13894  -1.07180  -1.01723
  Beta  occ. eigenvalues --   -1.00734  -1.00376  -1.00243  -0.99885  -0.68708
  Beta  occ. eigenvalues --   -0.59151  -0.57170  -0.56424  -0.55945  -0.55915
  Beta  occ. eigenvalues --   -0.55827  -0.55165  -0.54159  -0.53930  -0.53743
  Beta  occ. eigenvalues --   -0.53649  -0.52847  -0.52687  -0.42933  -0.41202
  Beta  occ. eigenvalues --   -0.39657  -0.38250  -0.37886  -0.33720
  Beta virt. eigenvalues --    0.02229   0.02870   0.04364   0.05629   0.05943
  Beta virt. eigenvalues --    0.05968   0.05987   0.06218   0.06493   0.06532
  Beta virt. eigenvalues --    0.06900   0.07093   0.07357   0.07982   0.08019

 Mulliken charges and spin densities:
               1          2
     1  N   -4.985258   1.206620
     2  Si  10.855502  -0.122474
     3  Si  10.855518  -0.122474
     4  C   -6.501381   0.001896
     5  H    1.156090   0.001105
     6  H    1.131766  -0.000604
     7  H    1.213750   0.000244
     8  C   -6.189476   0.005808
     9  H    1.085043  -0.000520
    10  H    1.215852  -0.001004
    11  H    1.260215  -0.002162
    12  C   -6.234485   0.020925
    13  H    1.174837  -0.007687
    14  H    1.109830  -0.002827
    15  H    1.215074   0.003991
    16  C   -6.189466   0.005809
    17  H    1.215854  -0.001004
    18  H    1.260214  -0.002162
    19  H    1.085041  -0.000520
    20  C   -6.501381   0.001895
    21  H    1.156093   0.001105
    22  H    1.131767  -0.000604
    23  H    1.213750   0.000244
    24  C   -6.234490   0.020924
    25  H    1.174839  -0.007688
    26  H    1.109828  -0.002827
    27  H    1.215076   0.003990
 Sum of Mulliken charges =  -0.00000   1.00000

 Dipole moment (field-independent basis, Debye):
    X=             -0.0000    Y=             -0.0000    Z=              0.4428  Tot=              0.4428
                          Isotropic Fermi Contact Couplings
        Atom                 a.u.       MegaHertz       Gauss      10(-4) cm-1
     1  N(14)              0.15410      49.78897      17.76594      16.60781
     2  Si(29)            -0.04639      41.22991      14.71186      13.75282
     3  Si(29)            -0.04639      41.22987      14.71184      13.75280
     4  C(13)             -0.00188      -2.11542      -0.75483      -0.70563
     5  H(1)              -0.00012      -0.55427      -0.19778      -0.18488
     6  H(1)              -0.00027      -1.19712      -0.42716      -0.39931
     7  H(1)              -0.00009      -0.40101      -0.14309      -0.13376
     8  C(13)              0.00715       8.04117       2.86929       2.68224

 Normal termination of Gaussian 16 at Tue Apr  8 22:46:43 2025.
