 Gaussian 16, Revision C.01,

 ----------------------------------------------------------------------
 #t hf aug-cc-pvdz symm=none int=(grid=ultrafine) guess=(read,tcheck) s
 table=(opt,rrhf)
 ----------------------------------------------------------------------
 -----
 title
 -----
 Symbolic Z-matrix:
 Charge =  0 Multiplicity = 1

 SCF Done:  E(RHF) =  -663.519185848     A.U. after   16 cycles

 1\1\GINC-SE106\Stability\RHF\Aug-CC-pVDZ\Cl1N1O2\OHZDE\08-Apr-2025\0\\
 #t hf aug-cc-pvdz symm=none int=(grid=ultrafine) guess=(read,tcheck) s
 table=(opt,rrhf)\\title\\0,1\Cl,0,-1.264201,-0.380414,0.\O,0,0.,0.9237
 43,0.\N,0,1.285086,0.544546,0.\O,0,1.561978,-0.591841,0.\\Version=ES64
 L-G16RevC.01\HF=-663.5191858\RMSD=2.489e-09\Dipole=-0.2314934,-0.05656
 75,0.\Quadrupole=0.2118955,-0.594078,0.3821825,1.4001597,0.,0.\PG=Unkn
 own\\@
 The archive entry for this job was punched.

 Normal termination of Gaussian 16 at Tue Apr  8 23:18:48 2025.
 Gaussian 16:  ES64L-G16RevC.01  3-Jul-2019

 ----------------------------------------------------------------------
 #t hf aug-cc-pvdz iop(5/13=1,5/36=2,99/5=2) pseudo=read geom=check gue
 ss=(read,tcheck) scf=(maxcycle=1)
 ----------------------------------------------------------------------
 -----
 title
 -----
 Structure from the checkpoint file:  "BDE49_nonexpt_1055_mol1.chk"
 Charge =  0 Multiplicity = 1

                         Standard orientation:
 ---------------------------------------------------------------------
 Center     Atomic      Atomic             Coordinates (Angstroms)
 Number     Number       Type             X           Y           Z
 ---------------------------------------------------------------------
      1         17           0       -1.264201   -0.380414    0.000000
      2          8           0        0.000000    0.923743    0.000000
      3          7           0        1.285086    0.544546    0.000000
      4          8           0        1.561978   -0.591841    0.000000
 ---------------------------------------------------------------------

 SCF Done:  E(RHF) =  -664.598763929     A.U. after    2 cycles

 The electronic state is 1-A'.
 Alpha  occ. eigenvalues --  -99.97326 -21.19306 -21.17743 -15.96845 -10.53853
 Alpha  occ. eigenvalues --   -9.73593  -9.72924  -9.72820  -2.01828  -1.76967
 Alpha  occ. eigenvalues --   -1.30225  -0.96189  -0.71958  -0.67750  -0.66917
 Alpha  occ. eigenvalues --   -0.57505  -0.55600  -0.50624  -0.39498  -0.34175
 Alpha virt. eigenvalues --    0.01548   0.09804   0.11351   0.12075   0.12137
 Alpha virt. eigenvalues --    0.12410   0.15423   0.15510   0.17574   0.19993
 Alpha virt. eigenvalues --    0.22188   0.23915   0.25234   0.26072   0.28217

 Mulliken charges:
               1
     1  Cl   0.346506
     2  O   -1.457812
     3  N    2.866562
     4  O   -1.755257
 Sum of Mulliken charges =   0.00000

 Dipole moment (field-independent basis, Debye):
    X=              1.4094    Y=              0.4126    Z=              0.0000  Tot=              1.4686

 Test job not archived.
 1\1\GINC-SE106\SP\RHF\Aug-CC-pVDZ\Cl1N1O2\OHZDE\08-Apr-2025\0\\#t hf a
 ug-cc-pvdz iop(5/13=1,5/36=2,99/5=2) pseudo=read geom=check guess=(rea
 d,tcheck) scf=(maxcycle=1)\\title\\0,1\Cl,0,-1.264201,-0.380414,0.\O,0
 ,0.,0.923743,0.\N,0,1.285086,0.544546,0.\O,0,1.561978,-0.591841,0.\\Ve
 rsion=ES64L-G16RevC.01\State=1-A'\HF=-664.5987639\RMSD=6.707e-02\Dipol
 e=0.5545129,0.1623367,0.\Quadrupole=-0.205822,0.205275,0.000547,0.3964
 271,0.,0.\PG=CS [SG(Cl1N1O2)]\\@

 Normal termination of Gaussian 16 at Tue Apr  8 23:18:50 2025.
