 Gaussian 16, Revision C.01,

 ----------------------------------------------------------------------
 #t hf aug-cc-pvdz symm=none int=(grid=ultrafine) guess=(read,tcheck) s
 table=(opt,rrhf)
 ----------------------------------------------------------------------
 -----
 title
 -----
 Symbolic Z-matrix:
 Charge =  0 Multiplicity = 1

 SCF Done:  E(RHF) =  -592.716232892     A.U. after   12 cycles

 1\1\GINC-SE454\Stability\RHF\Aug-CC-pVDZ\C5H10S1\OHZDE\08-Apr-2025\0\\
 #t hf aug-cc-pvdz symm=none int=(grid=ultrafine) guess=(read,tcheck) s
 table=(opt,rrhf)\\title\\0,1\C,0,0.387609,0.000005,0.791113\C,0,-0.548
 778,-1.203001,0.586276\C,0,-1.500428,-0.779315,-0.557243\H,0,-1.119799
 ,-1.348786,1.510578\H,0,-0.011023,-2.129422,0.382424\C,0,-1.500441,0.7
 79305,-0.557242\H,0,-2.501392,-1.190483,-0.41218\H,0,-1.143366,-1.1633
 52,-1.516026\C,0,-0.54878,1.203007,0.586264\H,0,-2.50141,1.190454,-0.4
 1216\H,0,-1.143404,1.16335,-1.516031\H,0,-0.011026,2.129424,0.382393\H

 Normal termination of Gaussian 16 at Tue Apr  8 22:46:52 2025.
 Gaussian 16:  ES64L-G16RevC.01  3-Jul-2019

 ----------------------------------------------------------------------
 #t hf aug-cc-pvdz iop(5/13=1,5/36=2,99/5=2) pseudo=read geom=check gue
 ss=(read,tcheck) scf=(maxcycle=1)
 ----------------------------------------------------------------------
 -----
 title
 -----
 Structure from the checkpoint file:  "BDE49_expt_1557_mol1.chk"
 Charge =  0 Multiplicity = 1

                         Standard orientation:
 ---------------------------------------------------------------------
 Center     Atomic      Atomic             Coordinates (Angstroms)
 Number     Number       Type             X           Y           Z
 ---------------------------------------------------------------------
      1          6           0        0.387609    0.000005    0.791113
      2          6           0       -0.548778   -1.203001    0.586276
      3          6           0       -1.500428   -0.779315   -0.557243
      4          1           0       -1.119799   -1.348786    1.510578
      5          1           0       -0.011023   -2.129422    0.382424
      6          6           0       -1.500441    0.779305   -0.557242
      7          1           0       -2.501392   -1.190483   -0.412180
      8          1           0       -1.143366   -1.163352   -1.516026
      9          6           0       -0.548780    1.203007    0.586264
     10          1           0       -2.501410    1.190454   -0.412160
     11          1           0       -1.143404    1.163350   -1.516031
     12          1           0       -0.011026    2.129424    0.382393
     13          1           0       -1.119793    1.348808    1.510568
     14         16           0        1.860743   -0.000000   -0.331618
     15          1           0        0.850018    0.000010    1.780044
     16          1           0        1.194222    0.000001   -1.498729
 ---------------------------------------------------------------------

 SCF Done:  E(RHF) =  -593.951367299     A.U. after    2 cycles

 The electronic state is 1-A.
 Alpha  occ. eigenvalues --  -75.67659 -13.12059 -13.09669 -13.03426 -11.46550
 Alpha  occ. eigenvalues --  -11.44348 -11.38307 -11.37952 -11.34598  -8.01529
 Alpha  occ. eigenvalues --   -1.34026  -1.12332  -1.04530  -0.99697  -0.82152
 Alpha  occ. eigenvalues --   -0.80072  -0.68344  -0.65816  -0.58863  -0.56068
 Alpha  occ. eigenvalues --   -0.50226  -0.46913  -0.45367  -0.45040  -0.44175
 Alpha  occ. eigenvalues --   -0.43980  -0.35872  -0.23129
 Alpha virt. eigenvalues --    0.03551   0.04869   0.05583   0.05730   0.05850
 Alpha virt. eigenvalues --    0.06065   0.06151   0.06364   0.06495   0.09088
 Alpha virt. eigenvalues --    0.11649   0.12371   0.13580   0.13840   0.14591

 Mulliken charges:
               1
     1  C   -1.699201
     2  C   -2.771206
     3  C   -2.735449
     4  H    1.281868
     5  H    1.433958
     6  C   -2.735470
     7  H    1.315349
     8  H    1.335640
     9  C   -2.771201
    10  H    1.315354
    11  H    1.335633
    12  H    1.433968
    13  H    1.281863
    14  S   -0.571455
    15  H    1.543144
    16  H    1.007206
 Sum of Mulliken charges =   0.00000

 Dipole moment (field-independent basis, Debye):
    X=              0.0931    Y=              0.0000    Z=              1.0619  Tot=              1.0659

 Test job not archived.
 1\1\GINC-SE454\SP\RHF\Aug-CC-pVDZ\C5H10S1\OHZDE\08-Apr-2025\0\\#t hf a
 ug-cc-pvdz iop(5/13=1,5/36=2,99/5=2) pseudo=read geom=check guess=(rea
 d,tcheck) scf=(maxcycle=1)\\title\\0,1\C,0,0.387609,0.000005,0.791113\
 C,0,-0.548778,-1.203001,0.586276\C,0,-1.500428,-0.779315,-0.557243\H,0
 ,-1.119799,-1.348786,1.510578\H,0,-0.011023,-2.129422,0.382424\C,0,-1.
 500441,0.779305,-0.557242\H,0,-2.501392,-1.190483,-0.41218\H,0,-1.1433
 66,-1.163352,-1.516026\C,0,-0.54878,1.203007,0.586264\H,0,-2.50141,1.1
 90454,-0.41216\H,0,-1.143404,1.16335,-1.516031\H,0,-0.011026,2.129424,

 Normal termination of Gaussian 16 at Tue Apr  8 22:46:58 2025.
