 Gaussian 16, Revision C.01,

 ----------------------------------------------------------------------
 #t hf aug-cc-pvdz symm=none int=(grid=ultrafine) guess=(read,tcheck) s
 table=(opt,rrhf)
 ----------------------------------------------------------------------
 -----
 title
 -----
 Symbolic Z-matrix:
 Charge =  0 Multiplicity = 1

 SCF Done:  E(RHF) =  -159.574248825     A.U. after   12 cycles
 Normal termination of Gaussian 16 at Wed Apr  9 00:37:01 2025.
 Gaussian 16:  ES64L-G16RevC.01  3-Jul-2019

 ----------------------------------------------------------------------
 #t hf aug-cc-pvdz iop(5/13=1,5/36=2,99/5=2) pseudo=read geom=check gue
 ss=(read,tcheck) scf=(maxcycle=1)
 ----------------------------------------------------------------------
 -----
 title
 -----
 Structure from the checkpoint file:  "BDE49_nonexpt_552_mol1.chk"
 Charge =  0 Multiplicity = 1

                         Standard orientation:
 ---------------------------------------------------------------------
 Center     Atomic      Atomic             Coordinates (Angstroms)
 Number     Number       Type             X           Y           Z
 ---------------------------------------------------------------------
      1          5           0       -1.913447    0.026879    0.332167
      2          7           0       -0.727993   -0.264265   -0.327243
      3          6           0        1.679622   -0.245444    0.312378
      4          6           0        0.509152    0.513034   -0.315223
      5          1           0        0.310003    1.431349    0.240808
      6          1           0        0.767524    0.807573   -1.339851
      7          1           0        1.886466   -1.173412   -0.230295
      8          1           0        2.588971    0.361721    0.290504
      9          1           0        1.461337   -0.503979    1.351505
     10          1           0       -1.984003    1.021763    0.988775
     11          1           0       -2.833598   -0.725040    0.225151
     12          1           0       -0.666157   -1.110057   -0.879657
 ---------------------------------------------------------------------

 SCF Done:  E(RHF) =  -160.380804940     A.U. after    2 cycles

 The electronic state is 1-A.
 Alpha  occ. eigenvalues --  -15.70893 -11.42140 -11.36222  -7.58806  -1.38353
 Alpha  occ. eigenvalues --   -1.10718  -0.90118  -0.80435  -0.65241  -0.59773
 Alpha  occ. eigenvalues --   -0.56990  -0.51892  -0.49746  -0.47527  -0.43785
 Alpha  occ. eigenvalues --   -0.37067
 Alpha virt. eigenvalues --    0.03406   0.03669   0.04287   0.04935   0.06287
 Alpha virt. eigenvalues --    0.06790   0.07282   0.07702   0.09332   0.10922
 Alpha virt. eigenvalues --    0.11723   0.12580   0.13447   0.14539   0.15536

 Mulliken charges:
               1
     1  B    7.083272
     2  N   -2.448629
     3  C   -3.358470
     4  C   -2.246569
     5  H    1.545057
     6  H    1.308699
     7  H    1.252055
     8  H    1.200193
     9  H    1.264427
    10  H   -3.092262
    11  H   -3.573465
    12  H    1.065692
 Sum of Mulliken charges =   0.00000

 Dipole moment (field-independent basis, Debye):
    X=              1.5720    Y=             -0.3461    Z=             -0.8701  Tot=              1.8298

 Test job not archived.
 1\1\GINC-SE247\SP\RHF\Aug-CC-pVDZ\C2H8B1N1\OHZDE\09-Apr-2025\0\\#t hf
 aug-cc-pvdz iop(5/13=1,5/36=2,99/5=2) pseudo=read geom=check guess=(re
 ad,tcheck) scf=(maxcycle=1)\\title\\0,1\B,0,-1.913447,0.026879,0.33216
 7\N,0,-0.727993,-0.264265,-0.327243\C,0,1.679622,-0.245444,0.312378\C,
 0,0.509152,0.513034,-0.315223\H,0,0.310003,1.431349,0.240808\H,0,0.767
 524,0.807573,-1.339851\H,0,1.886466,-1.173412,-0.230295\H,0,2.588971,0
 .361721,0.290504\H,0,1.461337,-0.503979,1.351505\H,0,-1.984003,1.02176
 3,0.988775\H,0,-2.833598,-0.72504,0.225151\H,0,-0.666157,-1.110057,-0.

 Normal termination of Gaussian 16 at Wed Apr  9 00:37:03 2025.
