 Gaussian 16, Revision C.01,

 ----------------------------------------------------------------------
 #t hf aug-cc-pvdz symm=none int=(grid=ultrafine) guess=(read,tcheck) s
 table=(opt,rrhf)
 ----------------------------------------------------------------------
 -----
 title
 -----
 Symbolic Z-matrix:
 Charge =  0 Multiplicity = 1

 SCF Done:  E(RHF) =  -204.167601308     A.U. after   13 cycles
 Normal termination of Gaussian 16 at Tue Apr  8 23:07:44 2025.
 Gaussian 16:  ES64L-G16RevC.01  3-Jul-2019

 ----------------------------------------------------------------------
 #t hf aug-cc-pvdz iop(5/13=1,5/36=2,99/5=2) pseudo=read geom=check gue
 ss=(read,tcheck) scf=(maxcycle=1)
 ----------------------------------------------------------------------
 -----
 title
 -----
 Structure from the checkpoint file:  "BDE49_expt_419_mol1.chk"
 Charge =  0 Multiplicity = 1

                         Standard orientation:
 ---------------------------------------------------------------------
 Center     Atomic      Atomic             Coordinates (Angstroms)
 Number     Number       Type             X           Y           Z
 ---------------------------------------------------------------------
      1          6           0        0.017238    0.124158   -0.000308
      2          7           0        0.192024    1.389211    0.011157
      3          7           0        0.991373   -0.877076    0.078306
      4          7           0       -1.270319   -0.406311   -0.084960
      5          1           0        1.937818   -0.548691   -0.044201
      6          1           0        0.794599   -1.696101   -0.481470
      7          1           0       -1.967790    0.318714    0.010003
      8          1           0       -1.439535   -1.188003    0.534227
      9          1           0        1.179931    1.628363   -0.048235
 ---------------------------------------------------------------------

 SCF Done:  E(RHF) =  -205.116901198     A.U. after    2 cycles

 The electronic state is 1-A.
 Alpha  occ. eigenvalues --  -15.77028 -15.75885 -15.69941 -11.46404  -1.47561
 Alpha  occ. eigenvalues --   -1.26990  -1.22367  -0.82711  -0.71449  -0.69346
 Alpha  occ. eigenvalues --   -0.59549  -0.56557  -0.53843  -0.39438  -0.37628
 Alpha  occ. eigenvalues --   -0.32702
 Alpha virt. eigenvalues --    0.03462   0.04990   0.05673   0.07140   0.07195
 Alpha virt. eigenvalues --    0.12077   0.12609   0.15120   0.15283   0.16489
 Alpha virt. eigenvalues --    0.17772   0.18545   0.19621   0.19908   0.21058

 Mulliken charges:
               1
     1  C    4.664898
     2  N   -2.689632
     3  N   -2.410020
     4  N   -2.511403
     5  H    0.537275
     6  H    0.629928
     7  H    0.589060
     8  H    0.539883
     9  H    0.650011
 Sum of Mulliken charges =  -0.00000

 Dipole moment (field-independent basis, Debye):
    X=              0.7125    Y=             -2.5759    Z=             -0.0341  Tot=              2.6728

 Test job not archived.
 1\1\GINC-SE060\SP\RHF\Aug-CC-pVDZ\C1H5N3\OHZDE\08-Apr-2025\0\\#t hf au
 g-cc-pvdz iop(5/13=1,5/36=2,99/5=2) pseudo=read geom=check guess=(read
 ,tcheck) scf=(maxcycle=1)\\title\\0,1\C,0,0.017238,0.124158,-0.000308\
 N,0,0.192027,1.38921,0.011157\N,0,0.991371,-0.877078,0.078306\N,0,-1.2
 7032,-0.406308,-0.08496\H,0,1.937817,-0.548696,-0.044201\H,0,0.794595,
 -1.696103,-0.48147\H,0,-1.967789,0.318718,0.010003\H,0,-1.439538,-1.18
 8,0.534227\H,0,1.179934,1.62836,-0.048235\\Version=ES64L-G16RevC.01\St
 ate=1-A\HF=-205.1169012\RMSD=6.299e-02\Dipole=0.2803154,-1.0134341,-0.

 Normal termination of Gaussian 16 at Tue Apr  8 23:07:47 2025.
