 Gaussian 16, Revision C.01,

 ----------------------------------------------------------------------
 #t hf aug-cc-pvdz symm=none int=(grid=ultrafine) guess=(read,tcheck) s
 table=opt
 ----------------------------------------------------------------------
 -----
 title
 -----
 Symbolic Z-matrix:
 Charge =  0 Multiplicity = 2

 SCF Done:  E(UHF) =  -513.718825014     A.U. after   15 cycles
 Normal termination of Gaussian 16 at Wed Apr  9 00:31:14 2025.
 Gaussian 16:  ES64L-G16RevC.01  3-Jul-2019

 ----------------------------------------------------------------------
 #t hf aug-cc-pvdz iop(5/13=1,5/36=2,99/5=2) pseudo=read geom=check gue
 ss=(read,tcheck) scf=(maxcycle=1)
 ----------------------------------------------------------------------
 -----
 title
 -----
 Structure from the checkpoint file:  "BDE49_nonexpt_360_mol2.chk"
 Charge =  0 Multiplicity = 2

                         Standard orientation:
 ---------------------------------------------------------------------
 Center     Atomic      Atomic             Coordinates (Angstroms)
 Number     Number       Type             X           Y           Z
 ---------------------------------------------------------------------
      1          9           0       -2.221900    0.400667   -0.000008
      2          5           0       -1.275799   -0.491907    0.000008
      3         14           0        0.729895   -0.490213    0.000002
      4          9           0        1.545799    0.910107    0.000001
      5          1           0        1.122688   -1.237228    1.213916
      6          1           0        1.122683   -1.237225   -1.213915
 ---------------------------------------------------------------------

 SCF Done:  E(UHF) =  -514.638849398     A.U. after    2 cycles

 The electronic state is 2-A.
 Alpha  occ. eigenvalues --  -76.26345 -29.28732 -29.26931  -7.69865  -5.60620
 Alpha  occ. eigenvalues --   -2.25386  -2.21867  -2.21585  -1.00361  -0.87149
 Alpha  occ. eigenvalues --   -0.62014  -0.52921  -0.52363  -0.49775  -0.45395
 Alpha  occ. eigenvalues --   -0.40972  -0.36253  -0.33303  -0.32814  -0.18678
 Alpha virt. eigenvalues --    0.03590   0.04270   0.04665   0.06209   0.08372
 Alpha virt. eigenvalues --    0.08569   0.09285   0.09662   0.10758   0.15006
 Alpha virt. eigenvalues --    0.16066   0.17756   0.20243   0.20968   0.23154

  Beta  occ. eigenvalues --  -76.26232 -29.28408 -29.26779  -7.68321  -5.60421
  Beta  occ. eigenvalues --   -2.25416  -2.21405  -2.21144  -0.96729  -0.86203
  Beta  occ. eigenvalues --   -0.61515  -0.52356  -0.50920  -0.45030  -0.42859
  Beta  occ. eigenvalues --   -0.39308  -0.34282  -0.32779  -0.32732
  Beta virt. eigenvalues --    0.03785   0.03801   0.04305   0.06050   0.08321
  Beta virt. eigenvalues --    0.08943   0.09619   0.09743   0.11338   0.12163
  Beta virt. eigenvalues --    0.15385   0.18007   0.18113   0.20965   0.22051

 Mulliken charges and spin densities:
               1          2
     1  F   -0.535566  -0.028949
     2  B   -0.839866   1.030568
     3  Si   5.769854  -0.015430
     4  F   -1.111731   0.015601
     5  H   -1.641346  -0.000895
     6  H   -1.641344  -0.000895
 Sum of Mulliken charges =  -0.00000   1.00000

 Dipole moment (field-independent basis, Debye):
    X=             -1.5377    Y=              5.3588    Z=             -0.0001  Tot=              5.5751
                          Isotropic Fermi Contact Couplings
        Atom                 a.u.       MegaHertz       Gauss      10(-4) cm-1
     1  F(19)              0.02434     102.39830      36.53826      34.15640
     2  B(11)              0.10030     143.86152      51.33337      47.98704
     3  Si(29)             0.13703    -121.78528     -43.45602     -40.62320
     4  F(19)              0.02817     118.52136      42.29137      39.53447
     5  H(1)              -0.00227     -10.14353      -3.61947      -3.38352
     6  H(1)              -0.00227     -10.14326      -3.61937      -3.38343
 --------------------------------------------------------
       Center         ----  Spin Dipole Couplings  ----

 Normal termination of Gaussian 16 at Wed Apr  9 00:31:17 2025.
