 Gaussian 16, Revision C.01,

 ----------------------------------------------------------------------
 #t hf aug-cc-pvdz symm=none int=(grid=ultrafine) guess=(read,tcheck) s
 table=(opt,rrhf)
 ----------------------------------------------------------------------
 -----
 title
 -----
 Symbolic Z-matrix:
 Charge =  0 Multiplicity = 1

 SCF Done:  E(RHF) =  -2003.83299788     A.U. after   11 cycles
 Normal termination of Gaussian 16 at Tue Apr  8 23:46:24 2025.
 Gaussian 16:  ES64L-G16RevC.01  3-Jul-2019

 ----------------------------------------------------------------------
 #t hf aug-cc-pvdz iop(5/13=1,5/36=2,99/5=2) pseudo=read geom=check gue
 ss=(read,tcheck) scf=(maxcycle=1)
 ----------------------------------------------------------------------
 -----
 title
 -----
 Structure from the checkpoint file:  "BDE49_nonexpt_1764_mol1.chk"
 Charge =  0 Multiplicity = 1

                         Standard orientation:
 ---------------------------------------------------------------------
 Center     Atomic      Atomic             Coordinates (Angstroms)
 Number     Number       Type             X           Y           Z
 ---------------------------------------------------------------------
      1         14           0        0.450380    0.000000   -0.000000
      2          6           0       -1.475384   -0.000006   -0.000014
      3         17           0        1.088946    1.736917   -0.857797
      4         17           0        1.088967   -1.611342   -1.075287
      5         17           0        1.088909   -0.125563    1.933123
      6          9           0       -1.962569    1.046368    0.698818
      7          9           0       -1.962563   -1.128410    0.556745
      8          9           0       -1.962535    0.082025   -1.255626
 ---------------------------------------------------------------------

 SCF Done:  E(RHF) =  -2005.88137969     A.U. after    2 cycles

 The electronic state is 1-A.
 Alpha  occ. eigenvalues --  -99.93066 -99.93066 -99.93059 -76.37336 -29.32736
 Alpha  occ. eigenvalues --  -29.32736 -29.32668 -11.57836 -10.50586 -10.50585
 Alpha  occ. eigenvalues --  -10.50487  -9.70400  -9.70400  -9.70387  -9.69858
 Alpha  occ. eigenvalues --   -9.69858  -9.69809  -9.69700  -9.69700  -9.69585
 Alpha  occ. eigenvalues --   -5.71307  -2.33781  -2.33302  -2.33302  -1.41108
 Alpha  occ. eigenvalues --   -1.35978  -1.32512  -1.32512  -0.89546  -0.89546
 Alpha  occ. eigenvalues --   -0.86769  -0.71478  -0.64445  -0.64445  -0.59042
 Alpha  occ. eigenvalues --   -0.59042  -0.58677  -0.55920  -0.55920  -0.54101
 Alpha  occ. eigenvalues --   -0.49460  -0.44982  -0.44982  -0.38300  -0.38300
 Alpha  occ. eigenvalues --   -0.28382  -0.27843  -0.27843  -0.23131
 Alpha virt. eigenvalues --    0.03310   0.05882   0.05882   0.06086   0.08433
 Alpha virt. eigenvalues --    0.09998   0.09998   0.10158   0.12567   0.13396
 Alpha virt. eigenvalues --    0.13396   0.14931   0.14931   0.15185   0.15185

 Mulliken charges:
               1
     1  Si   2.548018
     2  C   -0.775720
     3  Cl  -0.744662
     4  Cl  -0.744663
     5  Cl  -0.744663
     6  F    0.153896
     7  F    0.153890
     8  F    0.153903
 Sum of Mulliken charges =   0.00000

 Dipole moment (field-independent basis, Debye):
    X=             -3.4152    Y=             -0.0000    Z=             -0.0001  Tot=              3.4152

 Test job not archived.
 1\1\GINC-SE082\SP\RHF\Aug-CC-pVDZ\C1Cl3F3Si1\OHZDE\08-Apr-2025\0\\#t h
 f aug-cc-pvdz iop(5/13=1,5/36=2,99/5=2) pseudo=read geom=check guess=(
 read,tcheck) scf=(maxcycle=1)\\title\\0,1\Si,0,-0.45038,0.,0.\C,0,1.47
 5384,0.000006,-0.000014\Cl,0,-1.088946,-1.734207,-0.863261\Cl,0,-1.088
 967,1.61472,-1.070209\Cl,0,-1.088909,0.119477,1.933509\F,0,1.962569,-1
 .048563,0.69552\F,0,1.962563,1.126651,0.560295\F,0,1.962535,-0.078072,
 -1.255878\\Version=ES64L-G16RevC.01\State=1-A\HF=-2005.8813797\RMSD=3.
 711e-02\Dipole=1.343625,0.0000002,-0.0000315\Quadrupole=2.1369692,-1.0

 Normal termination of Gaussian 16 at Tue Apr  8 23:46:28 2025.
