 Gaussian 16, Revision C.01,

 ----------------------------------------------------------------------
 #t hf aug-cc-pvdz symm=none int=(grid=ultrafine) guess=(read,tcheck) s
 table=opt
 ----------------------------------------------------------------------
 -----
 title
 -----
 Symbolic Z-matrix:
 Charge =  0 Multiplicity = 2

 SCF Done:  E(UHF) =  -573.365682927     A.U. after   19 cycles
 Normal termination of Gaussian 16 at Tue Apr  8 23:17:49 2025.
 Gaussian 16:  ES64L-G16RevC.01  3-Jul-2019

 ----------------------------------------------------------------------
 #t hf aug-cc-pvdz iop(5/13=1,5/36=2,99/5=2) pseudo=read geom=check gue
 ss=(read,tcheck) scf=(maxcycle=1)
 ----------------------------------------------------------------------
 -----
 title
 -----
 Structure from the checkpoint file:  "BDE49_nonexpt_1024_mol2.chk"
 Charge =  0 Multiplicity = 2

                         Standard orientation:
 ---------------------------------------------------------------------
 Center     Atomic      Atomic             Coordinates (Angstroms)
 Number     Number       Type             X           Y           Z
 ---------------------------------------------------------------------
      1          8           0       -1.606850   -0.432950   -0.000034
      2          6           0       -0.678526    0.485888   -0.000007
      3         17           0        1.085457   -0.100819    0.000018
      4          1           0       -0.763408    1.131081    0.891137
      5          1           0       -0.763398    1.131114   -0.891125
 ---------------------------------------------------------------------

 SCF Done:  E(UHF) =  -574.050825315     A.U. after    2 cycles

 The electronic state is 2-A.
 Alpha  occ. eigenvalues --  -99.88237 -21.16863 -11.48981 -10.45452  -9.65165
 Alpha  occ. eigenvalues --   -9.64598  -9.64585  -1.79132  -1.29740  -0.96821
 Alpha  occ. eigenvalues --   -0.72513  -0.65719  -0.59273  -0.51035  -0.49337
 Alpha  occ. eigenvalues --   -0.43795  -0.39959
 Alpha virt. eigenvalues --    0.02736   0.05734   0.07345   0.10020   0.10542
 Alpha virt. eigenvalues --    0.14581   0.15341   0.15342   0.16939   0.19071
 Alpha virt. eigenvalues --    0.19994   0.24126   0.25345   0.25718   0.28576

  Beta  occ. eigenvalues --  -99.88258 -21.13103 -11.49321 -10.45476  -9.65230
  Beta  occ. eigenvalues --   -9.64614  -9.64608  -1.67897  -1.29350  -0.94429
  Beta  occ. eigenvalues --   -0.67658  -0.65127  -0.57333  -0.49348  -0.48750
  Beta  occ. eigenvalues --   -0.36889
  Beta virt. eigenvalues --    0.02786   0.05710   0.07440   0.08733   0.10073
  Beta virt. eigenvalues --    0.10574   0.14582   0.15364   0.15388   0.18035
  Beta virt. eigenvalues --    0.19062   0.20202   0.25474   0.25810   0.29007

 Mulliken charges and spin densities:
               1          2
     1  O   -1.506823   1.116063
     2  C   -1.417037  -0.257565
     3  Cl  -0.040823  -0.012797
     4  H    1.482340   0.077150
     5  H    1.482342   0.077149
 Sum of Mulliken charges =  -0.00000   1.00000

 Dipole moment (field-independent basis, Debye):
    X=             -2.3349    Y=              1.3036    Z=             -0.0000  Tot=              2.6742
                          Isotropic Fermi Contact Couplings
        Atom                 a.u.       MegaHertz       Gauss      10(-4) cm-1
     1  O(17)              0.18963    -114.95472     -41.01870     -38.34477
     2  C(13)             -0.04253     -47.81475     -17.06149     -15.94928
     3  Cl(35)            -0.02767     -12.13226      -4.32909      -4.04689
     4  H(1)               0.02589     115.74700      41.30141      38.60904
     5  H(1)               0.02589     115.74471      41.30059      38.60828
 --------------------------------------------------------
       Center         ----  Spin Dipole Couplings  ----
                      3XX-RR        3YY-RR        3ZZ-RR

 Normal termination of Gaussian 16 at Tue Apr  8 23:17:51 2025.
