 Gaussian 16, Revision C.01,

 ----------------------------------------------------------------------
 #t hf aug-cc-pvdz symm=none int=(grid=ultrafine) guess=(read,tcheck) s
 table=(opt,rrhf)
 ----------------------------------------------------------------------
 -----
 title
 -----
 Symbolic Z-matrix:
 Charge =  0 Multiplicity = 1

 SCF Done:  E(RHF) =  -704.368372804     A.U. after   15 cycles
 Normal termination of Gaussian 16 at Wed Apr  9 00:22:44 2025.
 Gaussian 16:  ES64L-G16RevC.01  3-Jul-2019

 ----------------------------------------------------------------------
 #t hf aug-cc-pvdz iop(5/13=1,5/36=2,99/5=2) pseudo=read geom=check gue
 ss=(read,tcheck) scf=(maxcycle=1)
 ----------------------------------------------------------------------
 -----
 title
 -----
 Structure from the checkpoint file:  "BDE49_nonexpt_2657_mol1.chk"
 Charge =  0 Multiplicity = 1

                         Standard orientation:
 ---------------------------------------------------------------------
 Center     Atomic      Atomic             Coordinates (Angstroms)
 Number     Number       Type             X           Y           Z
 ---------------------------------------------------------------------
      1          9           0       -1.701955   -1.259989   -0.000111
      2         16           0       -1.466588    0.412449    0.000042
      3          6           0        0.326071    0.535014    0.000037
      4          8           0        0.747902    1.672225   -0.000029
      5          7           0        1.009311   -0.621961    0.000040
      6          6           0        2.465948   -0.668282    0.000002
      7          1           0        0.473948   -1.477708    0.000073
      8          1           0        2.836825   -1.180835    0.891024
      9          1           0        2.834948    0.355681   -0.000037
     10          1           0        2.836776   -1.180886   -0.891010
 ---------------------------------------------------------------------

 SCF Done:  E(RHF) =  -705.849633481     A.U. after    2 cycles

 The electronic state is 1-A.
 Alpha  occ. eigenvalues --  -75.78030 -29.28988 -21.05714 -15.79202 -13.21886
 Alpha  occ. eigenvalues --  -13.19481 -13.08376 -11.52802 -11.41881  -8.12024
 Alpha  occ. eigenvalues --   -1.73987  -1.42643  -1.22750  -1.03620  -0.83288
 Alpha  occ. eigenvalues --   -0.75091  -0.66382  -0.64436  -0.58272  -0.54835
 Alpha  occ. eigenvalues --   -0.54832  -0.49836  -0.41591  -0.38391  -0.34019
 Alpha  occ. eigenvalues --   -0.33898  -0.26255  -0.19642
 Alpha virt. eigenvalues --    0.02971   0.05654   0.05974   0.07185   0.07681
 Alpha virt. eigenvalues --    0.09509   0.11560   0.11816   0.12734   0.13923
 Alpha virt. eigenvalues --    0.13929   0.14916   0.16807   0.17509   0.18521

 Mulliken charges:
               1
     1  F   -0.301320
     2  S    1.389237
     3  C    1.919579
     4  O   -2.675421
     5  N   -1.929736
     6  C   -3.005522
     7  H    0.585409
     8  H    1.329820
     9  H    1.358138
    10  H    1.329816
 Sum of Mulliken charges =  -0.00000

 Dipole moment (field-independent basis, Debye):
    X=             -0.8939    Y=             -4.3740    Z=             -0.0002  Tot=              4.4644

 Test job not archived.
 1\1\GINC-SE322\SP\RHF\Aug-CC-pVDZ\C2H4F1N1O1S1\OHZDE\09-Apr-2025\0\\#t
  hf aug-cc-pvdz iop(5/13=1,5/36=2,99/5=2) pseudo=read geom=check guess
 =(read,tcheck) scf=(maxcycle=1)\\title\\0,1\F,0,-1.701955,-1.259989,-0
 .000111\S,0,-1.466588,0.412449,0.000042\C,0,0.326071,0.535014,0.000037
 \O,0,0.747902,1.672225,-0.000029\N,0,1.009311,-0.621961,0.00004\C,0,2.
 465948,-0.668282,0.000002\H,0,0.473948,-1.477708,0.000073\H,0,2.836825
 ,-1.180835,0.891024\H,0,2.834948,0.355681,-0.000037\H,0,2.836776,-1.18
 0886,-0.89101\\Version=ES64L-G16RevC.01\State=1-A\HF=-705.8496335\RMSD

 Normal termination of Gaussian 16 at Wed Apr  9 00:22:48 2025.
