 Gaussian 16, Revision C.01,

 ----------------------------------------------------------------------
 #t hf aug-cc-pvdz symm=none int=(grid=ultrafine) guess=(read,tcheck) s
 table=(opt,rrhf)
 ----------------------------------------------------------------------
 -----
 title
 -----
 Symbolic Z-matrix:
 Charge =  0 Multiplicity = 1

 SCF Done:  E(RHF) =  -835.836590540     A.U. after   14 cycles
 Normal termination of Gaussian 16 at Tue Apr  8 23:21:57 2025.
 Gaussian 16:  ES64L-G16RevC.01  3-Jul-2019

 ----------------------------------------------------------------------
 #t hf aug-cc-pvdz iop(5/13=1,5/36=2,99/5=2) pseudo=read geom=check gue
 ss=(read,tcheck) scf=(maxcycle=1)
 ----------------------------------------------------------------------
 -----
 title
 -----
 Structure from the checkpoint file:  "BDE49_nonexpt_1151_mol1.chk"
 Charge =  0 Multiplicity = 1

                         Standard orientation:
 ---------------------------------------------------------------------
 Center     Atomic      Atomic             Coordinates (Angstroms)
 Number     Number       Type             X           Y           Z
 ---------------------------------------------------------------------
      1          9           0        1.557271    1.471663   -0.043791
      2          8           0        0.893793    0.583749    0.873434
      3         16           0        0.101852   -0.587228   -0.031636
      4          8           0       -0.489342   -1.327329    1.036222
      5          8           0       -0.968219    0.277619   -0.806391
      6          6           0       -2.016680    0.933749   -0.032500
      7          1           0       -2.687651    1.343631   -0.782581
      8          1           0       -1.579771    1.729468    0.570101
      9          1           0       -2.528621    0.203609    0.592100
     10          8           0        0.970149   -1.125105   -1.013806
 ---------------------------------------------------------------------

 SCF Done:  E(RHF) =  -837.867672575     A.U. after    2 cycles

 The electronic state is 1-A.
 Alpha  occ. eigenvalues --  -75.98259 -29.34360 -21.20481 -21.14544 -21.10883
 Alpha  occ. eigenvalues --  -21.10761 -13.62563 -13.53232 -13.45823 -11.46277
 Alpha  occ. eigenvalues --   -8.33700  -1.99493  -1.82845  -1.77409  -1.71555
 Alpha  occ. eigenvalues --   -1.08428  -0.94246  -0.76259  -0.69908  -0.69504
 Alpha  occ. eigenvalues --   -0.64998  -0.62924  -0.58349  -0.52766  -0.49946
 Alpha  occ. eigenvalues --   -0.46521  -0.44494  -0.42895  -0.41688  -0.40336
 Alpha  occ. eigenvalues --   -0.38448  -0.28522  -0.27210
 Alpha virt. eigenvalues --    0.02565   0.05369   0.05760   0.08226   0.10280
 Alpha virt. eigenvalues --    0.10781   0.12282   0.13365   0.13768   0.14644
 Alpha virt. eigenvalues --    0.17155   0.19152   0.20089   0.20563   0.22018

 Mulliken charges:
               1
     1  F   -0.136942
     2  O   -1.324890
     3  S    8.283396
     4  O   -2.429011
     5  O   -3.030877
     6  C   -2.943378
     7  H    1.307709
     8  H    1.386005
     9  H    1.392982
    10  O   -2.504993
 Sum of Mulliken charges =  -0.00000

 Dipole moment (field-independent basis, Debye):
    X=             -1.1330    Y=              3.1822    Z=             -0.9754  Tot=              3.5159

 Test job not archived.
 1\1\GINC-SE058\SP\RHF\Aug-CC-pVDZ\C1H3F1O4S1\OHZDE\08-Apr-2025\0\\#t h
 f aug-cc-pvdz iop(5/13=1,5/36=2,99/5=2) pseudo=read geom=check guess=(
 read,tcheck) scf=(maxcycle=1)\\title\\0,1\F,0,1.557271,1.471663,-0.043
 791\O,0,0.893793,0.583749,0.873434\S,0,0.101852,-0.587228,-0.031636\O,
 0,-0.489343,-1.327329,1.036222\O,0,-0.968219,0.277619,-0.806391\C,0,-2
 .01668,0.93375,-0.0325\H,0,-2.687651,1.343632,-0.782581\H,0,-1.579771,
 1.729468,0.570101\H,0,-2.528621,0.20361,0.5921\O,0,0.970149,-1.125105,
 -1.013806\\Version=ES64L-G16RevC.01\State=1-A\HF=-837.8676726\RMSD=5.1

 Normal termination of Gaussian 16 at Tue Apr  8 23:22:01 2025.
