 Gaussian 16, Revision C.01,

 ----------------------------------------------------------------------
 #t hf aug-cc-pvdz symm=none int=(grid=ultrafine) guess=(read,tcheck) s
 table=(opt,rrhf)
 ----------------------------------------------------------------------
 -----
 title
 -----
 Symbolic Z-matrix:
 Charge =  0 Multiplicity = 1

 SCF Done:  E(RHF) =  -1212.98978630     A.U. after   15 cycles
 Normal termination of Gaussian 16 at Wed Apr  9 00:14:50 2025.
 Gaussian 16:  ES64L-G16RevC.01  3-Jul-2019

 ----------------------------------------------------------------------
 #t hf aug-cc-pvdz iop(5/13=1,5/36=2,99/5=2) pseudo=read geom=check gue
 ss=(read,tcheck) scf=(maxcycle=1)
 ----------------------------------------------------------------------
 -----
 title
 -----
 Structure from the checkpoint file:  "BDE49_nonexpt_244_mol1.chk"
 Charge =  0 Multiplicity = 1

                         Standard orientation:
 ---------------------------------------------------------------------
 Center     Atomic      Atomic             Coordinates (Angstroms)
 Number     Number       Type             X           Y           Z
 ---------------------------------------------------------------------
      1         17           0        2.753131   -1.109053   -0.000001
      2         17           0        2.008517    1.807216   -0.000004
      3          5           0        1.471785    0.116792    0.000004
      4          6           0       -0.021638   -0.265447    0.000003
      5          6           0       -1.025004    0.725146    0.000001
      6          6           0       -2.381394    0.408408    0.000000
      7          6           0       -2.741959   -0.945454    0.000000
      8          6           0       -0.426059   -1.613334    0.000002
      9          1           0        0.320316   -2.398031    0.000003
     10          6           0       -1.775108   -1.946829    0.000001
     11          1           0       -2.076222   -2.988324    0.000000
     12          6           0       -3.439632    1.485319    0.000002
     13          1           0       -3.793442   -1.216441   -0.000002
     14          1           0       -4.083750    1.406618   -0.881044
     15          1           0       -2.992621    2.480858   -0.000032
     16          1           0       -4.083704    1.406659    0.881085
     17          1           0       -0.732763    1.769071    0.000001
 ---------------------------------------------------------------------

 SCF Done:  E(RHF) =  -1214.89094913     A.U. after    2 cycles

 The electronic state is 1-A.
 Alpha  occ. eigenvalues --  -99.89282 -99.89254 -11.51592 -11.44814 -11.44287
 Alpha  occ. eigenvalues --  -11.42899 -11.41689 -11.39565 -11.36879 -10.46702
 Alpha  occ. eigenvalues --  -10.46444  -9.66684  -9.66422  -9.66159  -9.66116
 Alpha  occ. eigenvalues --   -9.65919  -9.65836  -7.73664  -1.41196  -1.34059
 Alpha  occ. eigenvalues --   -1.28955  -1.15653  -1.11039  -1.00528  -0.90045
 Alpha  occ. eigenvalues --   -0.85557  -0.78136  -0.71491  -0.64749  -0.63999
 Alpha  occ. eigenvalues --   -0.61505  -0.58646  -0.58550  -0.57315  -0.56704
 Alpha  occ. eigenvalues --   -0.51875  -0.51847  -0.50346  -0.49826  -0.49286
 Alpha  occ. eigenvalues --   -0.44143  -0.42436  -0.35096  -0.33023
 Alpha virt. eigenvalues --    0.02780   0.03707   0.04294   0.04575   0.05081
 Alpha virt. eigenvalues --    0.05144   0.05647   0.06498   0.06660   0.07657
 Alpha virt. eigenvalues --    0.08952   0.10382   0.11805   0.12035   0.12283

 Mulliken charges:
               1
     1  Cl  -1.491299
     2  Cl  -1.424618
     3  B    1.011449
     4  C   -1.076124
     5  C   -1.082533
     6  C    4.551545
     7  C   -2.336100
     8  C   -2.856570
     9  H    1.851835
    10  C   -0.466518
    11  H    1.619666
    12  C   -5.646334
    13  H    1.818705
    14  H    1.092422
    15  H    1.313939
    16  H    1.092431
    17  H    2.028103
 Sum of Mulliken charges =   0.00000

 Dipole moment (field-independent basis, Debye):
    X=             -3.2149    Y=             -0.5574    Z=              0.0000  Tot=              3.2628

 Test job not archived.
 1\1\GINC-SE334\SP\RHF\Aug-CC-pVDZ\C7H7B1Cl2\OHZDE\09-Apr-2025\0\\#t hf
  aug-cc-pvdz iop(5/13=1,5/36=2,99/5=2) pseudo=read geom=check guess=(r
 ead,tcheck) scf=(maxcycle=1)\\title\\0,1\Cl,0,2.753131,-1.109053,-0.00
 0001\Cl,0,2.008517,1.807216,-0.000004\B,0,1.471785,0.116792,0.000004\C
 ,0,-0.021638,-0.265447,0.000003\C,0,-1.025004,0.725146,0.000001\C,0,-2
 .381394,0.408408,0.\C,0,-2.741959,-0.945454,0.\C,0,-0.426059,-1.613334
 ,0.000002\H,0,0.320316,-2.398031,0.000003\C,0,-1.775108,-1.946829,0.00
 0001\H,0,-2.076222,-2.988324,0.\C,0,-3.439632,1.485319,0.000002\H,0,-3

 Normal termination of Gaussian 16 at Wed Apr  9 00:14:59 2025.
