 Gaussian 16, Revision C.01,

 ----------------------------------------------------------------------
 #t hf aug-cc-pvdz symm=none int=(grid=ultrafine) guess=(read,tcheck) s
 table=(opt,rrhf)
 ----------------------------------------------------------------------
 -----
 title
 -----
 Symbolic Z-matrix:
 Charge =  0 Multiplicity = 1

 SCF Done:  E(RHF) =  -1258.64552272     A.U. after   15 cycles
 Normal termination of Gaussian 16 at Tue Apr  8 23:42:39 2025.
 Gaussian 16:  ES64L-G16RevC.01  3-Jul-2019

 ----------------------------------------------------------------------
 #t hf aug-cc-pvdz iop(5/13=1,5/36=2,99/5=2) pseudo=read geom=check gue
 ss=(read,tcheck) scf=(maxcycle=1)
 ----------------------------------------------------------------------
 -----
 title
 -----
 Structure from the checkpoint file:  "BDE49_nonexpt_1662_mol1.chk"
 Charge =  0 Multiplicity = 1

                         Standard orientation:
 ---------------------------------------------------------------------
 Center     Atomic      Atomic             Coordinates (Angstroms)
 Number     Number       Type             X           Y           Z
 ---------------------------------------------------------------------
      1         14           0        0.587890   -0.684266   -0.073856
      2         15           0       -1.476227    0.209562    0.171294
      3          7           0        1.779596    0.742578    0.074765
      4          8           0       -1.718573    0.519896    1.583378
      5          8           0       -1.502662    1.364341   -0.920166
      6          8           0        2.941430    0.547978    0.371160
      7          8           0        1.286614    1.850994   -0.182414
      8          9           0        0.978843   -1.727034    1.044473
      9          9           0        0.920800   -1.296313   -1.495719
     10          1           0       -0.762487    1.982624   -0.790994
     11          8           0       -2.482330   -0.820642   -0.518174
     12          1           0       -3.074367   -1.234770    0.123154
 ---------------------------------------------------------------------

 SCF Done:  E(RHF) =  -1261.43325044     A.U. after    2 cycles

 The electronic state is 1-A.
 Alpha  occ. eigenvalues -- -105.34912 -76.37811 -29.34538 -29.34518 -21.15654
 Alpha  occ. eigenvalues --  -21.14689 -21.14662 -21.13155 -21.06256 -16.00607
 Alpha  occ. eigenvalues --   -5.73617  -2.97111  -2.38976  -2.36888  -2.34216
 Alpha  occ. eigenvalues --   -2.03303  -2.01651  -1.94309  -1.81699  -1.72681
 Alpha  occ. eigenvalues --   -1.55208  -1.43320  -1.28841  -1.08954  -0.92550
 Alpha  occ. eigenvalues --   -0.77036  -0.74742  -0.73594  -0.68490  -0.64719
 Alpha  occ. eigenvalues --   -0.61579  -0.59847  -0.49150  -0.47811  -0.46814
 Alpha  occ. eigenvalues --   -0.46260  -0.44870  -0.41240  -0.40685  -0.37915
 Alpha  occ. eigenvalues --   -0.37076  -0.36467  -0.34877  -0.34334  -0.33868
 Alpha  occ. eigenvalues --   -0.31150  -0.23925  -0.17559
 Alpha virt. eigenvalues --    0.03706   0.06075   0.06555   0.07410   0.07620
 Alpha virt. eigenvalues --    0.09780   0.10046   0.11426   0.11833   0.12820
 Alpha virt. eigenvalues --    0.15023   0.15586   0.16996   0.17366   0.17587

 Mulliken charges:
               1
     1  Si   2.319805
     2  P    6.842480
     3  N    4.841129
     4  O   -3.013841
     5  O   -3.324509
     6  O   -2.657178
     7  O   -2.387327
     8  F   -1.077682
     9  F   -0.731107
    10  H    1.173720
    11  O   -2.832104
    12  H    0.846615
 Sum of Mulliken charges =  -0.00000

 Dipole moment (field-independent basis, Debye):
    X=             -1.0089    Y=             -4.4967    Z=             -2.7723  Tot=              5.3781

 Test job not archived.
 1\1\GINC-SE252\SP\RHF\Aug-CC-pVDZ\F2H2N1O5P1Si1\OHZDE\08-Apr-2025\0\\#
 t hf aug-cc-pvdz iop(5/13=1,5/36=2,99/5=2) pseudo=read geom=check gues
 s=(read,tcheck) scf=(maxcycle=1)\\title\\0,1\Si,0,0.58789,-0.684266,-0
 .073856\P,0,-1.476227,0.209562,0.171294\N,0,1.779596,0.742578,0.074765
 \O,0,-1.718573,0.519896,1.583378\O,0,-1.502662,1.364341,-0.920166\O,0,
 2.94143,0.547978,0.37116\O,0,1.286614,1.850994,-0.182414\F,0,0.978843,
 -1.727034,1.044473\F,0,0.9208,-1.296313,-1.495719\H,0,-0.762487,1.9826
 24,-0.790994\O,0,-2.48233,-0.820642,-0.518174\H,0,-3.074367,-1.23477,0

 Normal termination of Gaussian 16 at Tue Apr  8 23:42:46 2025.
