 Gaussian 16, Revision C.01,

 ----------------------------------------------------------------------
 #t hf aug-cc-pvdz symm=none int=(grid=ultrafine) guess=(read,tcheck) s
 table=(opt,rrhf)
 ----------------------------------------------------------------------
 -----
 title
 -----
 Symbolic Z-matrix:
 Charge =  0 Multiplicity = 1

 SCF Done:  E(RHF) =  -1093.70115228     A.U. after   16 cycles
 Normal termination of Gaussian 16 at Tue Apr  8 23:49:02 2025.
 Gaussian 16:  ES64L-G16RevC.01  3-Jul-2019

 ----------------------------------------------------------------------
 #t hf aug-cc-pvdz iop(5/13=1,5/36=2,99/5=2) pseudo=read geom=check gue
 ss=(read,tcheck) scf=(maxcycle=1)
 ----------------------------------------------------------------------
 -----
 title
 -----
 Structure from the checkpoint file:  "BDE49_nonexpt_1776_mol1.chk"
 Charge =  0 Multiplicity = 1

                         Standard orientation:
 ---------------------------------------------------------------------
 Center     Atomic      Atomic             Coordinates (Angstroms)
 Number     Number       Type             X           Y           Z
 ---------------------------------------------------------------------
      1          6           0        0.085451    1.925470    0.022077
      2          6           0       -1.216147    2.293084   -0.327232
      3          6           0       -2.225313    1.345132   -0.373013
      4          6           0       -1.947727    0.004989   -0.067138
      5          6           0       -0.650087   -0.367700    0.285572
      6          6           0        0.377600    0.592535    0.329785
      7          1           0        0.864706    2.678867    0.053341
      8          1           0       -1.442528    3.326403   -0.565193
      9         14           0        2.108208    0.099627    0.800627
     10          1           0       -0.427710   -1.399923    0.525343
     11         17           0        3.076942   -0.879638   -0.777020
     12          1           0       -3.240888    1.609941   -0.641566
     13          8           0       -3.008009   -0.845725   -0.140254
     14          6           0       -2.796997   -2.223170    0.142828
     15          1           0       -2.076480   -2.669511   -0.551114
     16          1           0       -3.765451   -2.703162    0.014063
     17          1           0       -2.453398   -2.373368    1.172251
     18          1           0        2.110094   -0.861828    1.920929
     19          1           0        2.912131    1.295431    1.117282
 ---------------------------------------------------------------------

 SCF Done:  E(RHF) =  -1095.71086706     A.U. after    2 cycles

 The electronic state is 1-A.
 Alpha  occ. eigenvalues --  -99.87599 -76.25881 -21.08069 -11.53484 -11.46292
 Alpha  occ. eigenvalues --  -11.43471 -11.42518 -11.41868 -11.41291 -11.37192
 Alpha  occ. eigenvalues --  -10.44963  -9.64888  -9.64305  -9.64253  -5.59459
 Alpha  occ. eigenvalues --   -2.24027  -2.22627  -2.21428  -1.79481  -1.32822
 Alpha  occ. eigenvalues --   -1.27700  -1.10852  -1.09482  -0.99596  -0.88391
 Alpha  occ. eigenvalues --   -0.84497  -0.77283  -0.70836  -0.64549  -0.63427
 Alpha  occ. eigenvalues --   -0.63017  -0.61026  -0.55953  -0.55436  -0.54949
 Alpha  occ. eigenvalues --   -0.53881  -0.52617  -0.51102  -0.47155  -0.46237
 Alpha  occ. eigenvalues --   -0.43929  -0.41949  -0.37845  -0.34790  -0.27120
 Alpha virt. eigenvalues --    0.03021   0.04644   0.04864   0.05618   0.05952
 Alpha virt. eigenvalues --    0.06018   0.06112   0.06458   0.08256   0.08602
 Alpha virt. eigenvalues --    0.08777   0.09682   0.10379   0.10904   0.11713

 Mulliken charges:
               1
     1  C   -3.663852
     2  C    0.654270
     3  C   -3.492019
     4  C    6.201391
     5  C   -3.841166
     6  C    0.770072
     7  H    1.854350
     8  H    1.506668
     9  Si   4.775254
    10  H    2.159750
    11  Cl  -0.975606
    12  H    1.855192
    13  O   -4.751907
    14  C   -3.747947
    15  H    1.386805
    16  H    1.410137
    17  H    1.390518
    18  H   -1.730697
    19  H   -1.761214
 Sum of Mulliken charges =  -0.00000

 Dipole moment (field-independent basis, Debye):
    X=             -2.8477    Y=              0.2692    Z=              0.7565  Tot=              2.9588

 Test job not archived.
 1\1\GINC-SE393\SP\RHF\Aug-CC-pVDZ\C7H9Cl1O1Si1\OHZDE\08-Apr-2025\0\\#t
  hf aug-cc-pvdz iop(5/13=1,5/36=2,99/5=2) pseudo=read geom=check guess
 =(read,tcheck) scf=(maxcycle=1)\\title\\0,1\C,0,0.085451,1.92547,0.022
 077\C,0,-1.216147,2.293084,-0.327232\C,0,-2.225313,1.345132,-0.373013\
 C,0,-1.947727,0.004989,-0.067138\C,0,-0.650087,-0.3677,0.285572\C,0,0.
 3776,0.592535,0.329785\H,0,0.864706,2.678867,0.053341\H,0,-1.442528,3.
 326403,-0.565193\Si,0,2.108208,0.099627,0.800627\H,0,-0.42771,-1.39992
 3,0.525343\Cl,0,3.076942,-0.879638,-0.77702\H,0,-3.240888,1.609941,-0.

 Normal termination of Gaussian 16 at Tue Apr  8 23:49:13 2025.
