 Gaussian 16, Revision C.01,

 ----------------------------------------------------------------------
 #t hf aug-cc-pvdz symm=none int=(grid=ultrafine) guess=(read,tcheck) s
 table=(opt,rrhf)
 ----------------------------------------------------------------------
 -----
 title
 -----
 Symbolic Z-matrix:
 Charge =  0 Multiplicity = 1

 SCF Done:  E(RHF) =  -318.415838713     A.U. after   12 cycles
 Normal termination of Gaussian 16 at Wed Apr  9 00:30:43 2025.
 Gaussian 16:  ES64L-G16RevC.01  3-Jul-2019

 ----------------------------------------------------------------------
 #t hf aug-cc-pvdz iop(5/13=1,5/36=2,99/5=2) pseudo=read geom=check gue
 ss=(read,tcheck) scf=(maxcycle=1)
 ----------------------------------------------------------------------
 -----
 title
 -----
 Structure from the checkpoint file:  "BDE49_nonexpt_352_mol1.chk"
 Charge =  0 Multiplicity = 1

                         Standard orientation:
 ---------------------------------------------------------------------
 Center     Atomic      Atomic             Coordinates (Angstroms)
 Number     Number       Type             X           Y           Z
 ---------------------------------------------------------------------
      1          9           0        1.697319   -0.725428   -0.000006
      2          9           0        0.679012    1.322150   -0.000010
      3          7           0       -0.677731   -0.639338    0.000005
      4          5           0        0.564765   -0.011795   -0.000007
      5          6           0       -1.972282    0.027927    0.000014
      6          1           0       -0.702420   -1.647622    0.000012
      7          1           0       -1.814609    1.106042   -0.000009
      8          1           0       -2.557972   -0.231054    0.887920
      9          1           0       -2.558000   -0.231088   -0.887864
 ---------------------------------------------------------------------

 SCF Done:  E(RHF) =  -319.644770993     A.U. after    2 cycles

 The electronic state is 1-A.
 Alpha  occ. eigenvalues --  -29.24208 -29.24052 -15.72172 -11.40410  -7.69008
 Alpha  occ. eigenvalues --   -1.42401  -1.10723  -0.95118  -0.76270  -0.67929
 Alpha  occ. eigenvalues --   -0.61733  -0.60748  -0.55334  -0.50990  -0.43888
 Alpha  occ. eigenvalues --   -0.42783  -0.33115  -0.32365  -0.30925  -0.26850
 Alpha virt. eigenvalues --    0.02352   0.04113   0.04129   0.04973   0.07328
 Alpha virt. eigenvalues --    0.07389   0.07905   0.09155   0.12336   0.13862
 Alpha virt. eigenvalues --    0.15870   0.16304   0.16803   0.19628   0.20286

 Mulliken charges:
               1
     1  F   -0.074445
     2  F   -1.030437
     3  N   -3.200805
     4  B    1.530035
     5  C   -2.550215
     6  H    1.134099
     7  H    1.714206
     8  H    1.238780
     9  H    1.238783
 Sum of Mulliken charges =  -0.00000

 Dipole moment (field-independent basis, Debye):
    X=              1.1168    Y=              0.6610    Z=              0.0000  Tot=              1.2977

 Test job not archived.
 1\1\GINC-SE461\SP\RHF\Aug-CC-pVDZ\C1H4B1F2N1\OHZDE\09-Apr-2025\0\\#t h
 f aug-cc-pvdz iop(5/13=1,5/36=2,99/5=2) pseudo=read geom=check guess=(
 read,tcheck) scf=(maxcycle=1)\\title\\0,1\F,0,1.697319,-0.725428,-0.00
 0006\F,0,0.679012,1.32215,-0.00001\N,0,-0.677731,-0.639338,0.000005\B,
 0,0.564765,-0.011795,-0.000007\C,0,-1.972282,0.027928,0.000014\H,0,-0.
 702421,-1.647622,0.000012\H,0,-1.814609,1.106043,-0.000009\H,0,-2.5579
 72,-0.231053,0.88792\H,0,-2.558,-0.231087,-0.887864\\Version=ES64L-G16
 RevC.01\State=1-A\HF=-319.644771\RMSD=2.130e-01\Dipole=0.439376,0.2600

 Normal termination of Gaussian 16 at Wed Apr  9 00:30:46 2025.
