 Gaussian 16, Revision C.01,

 ----------------------------------------------------------------------
 #t hf aug-cc-pvdz symm=none int=(grid=ultrafine) guess=(read,tcheck) s
 table=(opt,rrhf)
 ----------------------------------------------------------------------
 -----
 title
 -----
 Symbolic Z-matrix:
 Charge =  0 Multiplicity = 1

 SCF Done:  E(RHF) =  -1515.80529341     A.U. after   11 cycles

 1\1\GINC-SE118\Stability\RHF\Aug-CC-pVDZ\C1Cl3F1\OHZDE\08-Apr-2025\0\\
 #t hf aug-cc-pvdz symm=none int=(grid=ultrafine) guess=(read,tcheck) s
 table=(opt,rrhf)\\title\\0,1\C,0,-0.000006,-0.000018,0.252624\Cl,0,1.4
 37293,-0.893438,-0.310628\F,0,0.000007,0.000005,1.591811\Cl,0,-1.49241
 5,-0.79797,-0.310644\Cl,0,0.05512,1.691411,-0.310614\\Version=ES64L-G1
 6RevC.01\HF=-1515.8052934\RMSD=8.862e-09\Dipole=-0.0000147,-0.0000143,
 -0.1898164\Quadrupole=0.6603495,0.660086,-1.3204355,0.0000254,0.000014
 3,-0.0000015\PG=Unknown\\@

 Normal termination of Gaussian 16 at Tue Apr  8 22:45:28 2025.
 Gaussian 16:  ES64L-G16RevC.01  3-Jul-2019

 ----------------------------------------------------------------------
 #t hf aug-cc-pvdz iop(5/13=1,5/36=2,99/5=2) pseudo=read geom=check gue
 ss=(read,tcheck) scf=(maxcycle=1)
 ----------------------------------------------------------------------
 -----
 title
 -----
 Structure from the checkpoint file:  "BDE49_expt_1503_mol1.chk"
 Charge =  0 Multiplicity = 1

                         Standard orientation:
 ---------------------------------------------------------------------
 Center     Atomic      Atomic             Coordinates (Angstroms)
 Number     Number       Type             X           Y           Z
 ---------------------------------------------------------------------
      1          6           0       -0.000006   -0.000018    0.252624
      2         17           0        1.434883   -0.897303   -0.310628
      3          9           0        0.000007    0.000005    1.591811
      4         17           0       -1.494557   -0.793950   -0.310644
      5         17           0        0.059672    1.691257   -0.310614
 ---------------------------------------------------------------------

 SCF Done:  E(RHF) =  -1517.04375520     A.U. after    2 cycles

 The electronic state is 1-A.
 Alpha  occ. eigenvalues --  -99.93292 -99.93292 -99.93264 -29.33997 -11.61517
 Alpha  occ. eigenvalues --  -10.50825 -10.50662 -10.50661  -9.70580  -9.70580
 Alpha  occ. eigenvalues --   -9.70291  -9.69736  -9.69685  -9.69685  -9.69617
 Alpha  occ. eigenvalues --   -9.69583  -9.69583  -1.49858  -1.33105  -1.33105
 Alpha  occ. eigenvalues --   -1.10732  -0.82325  -0.75542  -0.75542  -0.58840
 Alpha  occ. eigenvalues --   -0.58840  -0.54824  -0.53099  -0.53098  -0.51783
 Alpha  occ. eigenvalues --   -0.44585  -0.33950  -0.33949
 Alpha virt. eigenvalues --   -0.00867   0.06175   0.06346   0.06346   0.09031
 Alpha virt. eigenvalues --    0.09031   0.13183   0.13892   0.13892   0.14522
 Alpha virt. eigenvalues --    0.17126   0.17126   0.18032   0.18247   0.18247

 Mulliken charges:
               1
     1  C   -2.639521
     2  Cl   0.453482
     3  F    1.279065
     4  Cl   0.453482
     5  Cl   0.453492
 Sum of Mulliken charges =  -0.00000

 Dipole moment (field-independent basis, Debye):
    X=              0.0000    Y=              0.0001    Z=              4.3221  Tot=              4.3221

 Test job not archived.
 1\1\GINC-SE118\SP\RHF\Aug-CC-pVDZ\C1Cl3F1\OHZDE\08-Apr-2025\0\\#t hf a
 ug-cc-pvdz iop(5/13=1,5/36=2,99/5=2) pseudo=read geom=check guess=(rea
 d,tcheck) scf=(maxcycle=1)\\title\\0,1\C,0,-0.000006,-0.000018,0.25262
 4\Cl,0,1.437293,-0.893438,-0.310628\F,0,0.000007,0.000005,1.591811\Cl,
 0,-1.492415,-0.79797,-0.310644\Cl,0,0.05512,1.691411,-0.310614\\Versio
 n=ES64L-G16RevC.01\State=1-A\HF=-1517.0437552\RMSD=4.677e-02\Dipole=0.
 0000007,0.0000203,1.7004287\Quadrupole=-1.4936883,-1.4938143,2.9875026
 ,0.000031,0.000067,0.0000563\PG=C01 [X(C1Cl3F1)]\\@

 Normal termination of Gaussian 16 at Tue Apr  8 22:45:31 2025.
