 Gaussian 16, Revision C.01,

 ----------------------------------------------------------------------
 #t hf aug-cc-pvdz symm=none int=(grid=ultrafine) guess=(read,tcheck) s
 table=opt
 ----------------------------------------------------------------------
 -----
 title
 -----
 Symbolic Z-matrix:
 Charge =  0 Multiplicity = 2

 SCF Done:  E(UHF) =  -711.412908618     A.U. after   22 cycles
 Normal termination of Gaussian 16 at Tue Apr  8 23:51:29 2025.
 Gaussian 16:  ES64L-G16RevC.01  3-Jul-2019

 ----------------------------------------------------------------------
 #t hf aug-cc-pvdz iop(5/13=1,5/36=2,99/5=2) pseudo=read geom=check gue
 ss=(read,tcheck) scf=(maxcycle=1)
 ----------------------------------------------------------------------
 -----
 title
 -----
 Structure from the checkpoint file:  "BDE49_nonexpt_188_mol2.chk"
 Charge =  0 Multiplicity = 2

                         Standard orientation:
 ---------------------------------------------------------------------
 Center     Atomic      Atomic             Coordinates (Angstroms)
 Number     Number       Type             X           Y           Z
 ---------------------------------------------------------------------
      1         17           0        2.390142   -0.223379    0.181979
      2          5           0        0.944589    0.039304   -0.704758
      3          6           0       -0.498355    0.324125   -0.192422
      4          8           0       -0.822324    1.456102    0.101630
      5          8           0       -1.324259   -0.736717   -0.182415
      6          6           0       -2.688383   -0.472471    0.216427
      7          1           0       -3.198973   -1.429430    0.145613
      8          1           0       -3.143608    0.259254   -0.452045
      9          1           0       -2.719687   -0.093908    1.238826
 ---------------------------------------------------------------------

 SCF Done:  E(UHF) =  -712.693876863     A.U. after    2 cycles

 The electronic state is 2-A.
 Alpha  occ. eigenvalues --  -99.92602 -21.10633 -21.06776 -11.49070 -11.42470
 Alpha  occ. eigenvalues --  -10.49849  -9.69796  -9.69375  -9.69110  -7.71269
 Alpha  occ. eigenvalues --   -1.85067  -1.67461  -1.37626  -1.04928  -0.91199
 Alpha  occ. eigenvalues --   -0.73856  -0.67603  -0.64306  -0.59607  -0.58393
 Alpha  occ. eigenvalues --   -0.56514  -0.56201  -0.51619  -0.43116  -0.35997
 Alpha  occ. eigenvalues --   -0.33750  -0.29343
 Alpha virt. eigenvalues --    0.03327   0.04041   0.04374   0.04610   0.06087
 Alpha virt. eigenvalues --    0.06587   0.06691   0.07747   0.12449   0.13032
 Alpha virt. eigenvalues --    0.13900   0.14391   0.15277   0.16202   0.16541

  Beta  occ. eigenvalues --  -99.92537 -21.10642 -21.06350 -11.49093 -11.42471
  Beta  occ. eigenvalues --  -10.49774  -9.69771  -9.69155  -9.69030  -7.69299
  Beta  occ. eigenvalues --   -1.84932  -1.66758  -1.36748  -1.04528  -0.88476
  Beta  occ. eigenvalues --   -0.73015  -0.66954  -0.63872  -0.58364  -0.57539
  Beta  occ. eigenvalues --   -0.56401  -0.54889  -0.50863  -0.42373  -0.32717
  Beta  occ. eigenvalues --   -0.30988
  Beta virt. eigenvalues --    0.02472   0.03777   0.04518   0.04694   0.05862
  Beta virt. eigenvalues --    0.06266   0.06709   0.08513   0.08900   0.13001
  Beta virt. eigenvalues --    0.13553   0.13951   0.14432   0.15967   0.16586

 Mulliken charges and spin densities:
               1          2
     1  Cl  -1.043616   0.066805
     2  B    1.489246   0.934145
     3  C    3.444224  -0.161472
     4  O   -2.496038   0.147813
     5  O   -2.710422   0.017227
     6  C   -2.666663  -0.003176
     7  H    1.305282  -0.000125
     8  H    1.329234   0.000725
     9  H    1.348752  -0.001943
 Sum of Mulliken charges =  -0.00000   1.00000

 Dipole moment (field-independent basis, Debye):
    X=             -1.4726    Y=             -0.9087    Z=              0.3616  Tot=              1.7678
                          Isotropic Fermi Contact Couplings
        Atom                 a.u.       MegaHertz       Gauss      10(-4) cm-1
     1  Cl(35)             0.09803      42.98362      15.33762      14.33779
     2  B(11)              0.23259     333.61310     119.04145     111.28135
     3  C(13)              0.01550      17.42158       6.21645       5.81121
     4  O(17)              0.02343     -14.20245      -5.06779      -4.73743
     5  O(17)             -0.00572       3.46793       1.23744       1.15678
     6  C(13)              0.00023       0.25730       0.09181       0.08582
     7  H(1)               0.00019       0.86370       0.30819       0.28810
     8  H(1)               0.00011       0.50830       0.18138       0.16955

 1\1\GINC-SE343\SP\UHF\Aug-CC-pVDZ\C2H3B1Cl1O2(2)\OHZDE\08-Apr-2025\0\\
 #t hf aug-cc-pvdz iop(5/13=1,5/36=2,99/5=2) pseudo=read geom=check gue
 ss=(read,tcheck) scf=(maxcycle=1)\\title\\0,2\Cl,0,2.390142,-0.223379,
 0.181979\B,0,0.944589,0.039304,-0.704758\C,0,-0.498355,0.324125,-0.192
 422\O,0,-0.822324,1.456102,0.10163\O,0,-1.324259,-0.736717,-0.182415\C
 ,0,-2.688383,-0.472471,0.216427\H,0,-3.198973,-1.42943,0.145613\H,0,-3
 .143608,0.259254,-0.452045\H,0,-2.719687,-0.093908,1.238826\\Version=E
 S64L-G16RevC.01\State=2-A\HF=-712.6938769\S2=0.764332\S2-1=0.\S2A=0.75

 Normal termination of Gaussian 16 at Tue Apr  8 23:51:33 2025.
