 Gaussian 16, Revision C.01,

 ----------------------------------------------------------------------
 #t hf aug-cc-pvdz symm=none int=(grid=ultrafine) guess=(read,tcheck) s
 table=(opt,rrhf)
 ----------------------------------------------------------------------
 -----
 title
 -----
 Symbolic Z-matrix:
 Charge =  0 Multiplicity = 1

 SCF Done:  E(RHF) =  -1517.14804290     A.U. after   13 cycles
 Normal termination of Gaussian 16 at Wed Apr  9 00:29:46 2025.
 Gaussian 16:  ES64L-G16RevC.01  3-Jul-2019

 ----------------------------------------------------------------------
 #t hf aug-cc-pvdz iop(5/13=1,5/36=2,99/5=2) pseudo=read geom=check gue
 ss=(read,tcheck) scf=(maxcycle=1)
 ----------------------------------------------------------------------
 -----
 title
 -----
 Structure from the checkpoint file:  "BDE49_nonexpt_331_mol1.chk"
 Charge =  0 Multiplicity = 1

                         Standard orientation:
 ---------------------------------------------------------------------
 Center     Atomic      Atomic             Coordinates (Angstroms)
 Number     Number       Type             X           Y           Z
 ---------------------------------------------------------------------
      1          6           0        0.092735    0.000004   -0.083058
      2          5           0       -0.968376    0.000094   -1.290080
      3         17           0        1.108666    1.474088   -0.237507
      4         17           0        1.108832   -1.473924   -0.237882
      5         17           0       -0.709298   -0.000249    1.539626
      6          8           0       -2.285377    0.000080   -1.076081
      7          1           0       -2.527885   -0.000080   -0.138433
      8          1           0       -0.543038    0.000388   -2.396197
 ---------------------------------------------------------------------

 SCF Done:  E(RHF) =  -1518.49179021     A.U. after    2 cycles

 The electronic state is 1-A.
 Alpha  occ. eigenvalues --  -99.92544 -99.92328 -99.92322 -21.09034 -11.52854
 Alpha  occ. eigenvalues --  -10.49982 -10.49550 -10.49531  -9.69734  -9.69544
 Alpha  occ. eigenvalues --   -9.69431  -9.69089  -9.68902  -9.68749  -9.68749
 Alpha  occ. eigenvalues --   -9.68632  -9.68598  -7.66445  -1.78153  -1.45541
 Alpha  occ. eigenvalues --   -1.31115  -1.30940  -1.02218  -0.82494  -0.71404
 Alpha  occ. eigenvalues --   -0.70675  -0.70401  -0.56977  -0.56951  -0.53716
 Alpha  occ. eigenvalues --   -0.52303  -0.52107  -0.51647  -0.50774  -0.45942
 Alpha  occ. eigenvalues --   -0.41767
 Alpha virt. eigenvalues --   -0.00515   0.03566   0.04582   0.04655   0.05451
 Alpha virt. eigenvalues --    0.06175   0.06551   0.08924   0.10509   0.11917
 Alpha virt. eigenvalues --    0.12479   0.13223   0.13506   0.15574   0.15967

 Mulliken charges:
               1
     1  C   -4.027290
     2  B    9.276557
     3  Cl   0.484180
     4  Cl   0.484197
     5  Cl   0.245103
     6  O   -3.728347
     7  H    1.288348
     8  H   -4.022748
 Sum of Mulliken charges =  -0.00000

 Dipole moment (field-independent basis, Debye):
    X=             -1.4833    Y=             -0.0001    Z=             -0.2070  Tot=              1.4977

 Test job not archived.
 1\1\GINC-SE070\SP\RHF\Aug-CC-pVDZ\C1H2B1Cl3O1\OHZDE\09-Apr-2025\0\\#t
 hf aug-cc-pvdz iop(5/13=1,5/36=2,99/5=2) pseudo=read geom=check guess=
 (read,tcheck) scf=(maxcycle=1)\\title\\0,1\C,0,-0.092735,-0.000004,-0.
 083058\B,0,0.968376,-0.000094,-1.29008\Cl,0,-1.108665,-1.474088,-0.237
 507\Cl,0,-1.108832,1.473924,-0.237882\Cl,0,0.709298,0.000249,1.539626\
 O,0,2.285377,-0.000079,-1.076081\H,0,2.527885,0.000081,-0.138433\H,0,0
 .543038,-0.000388,-2.396197\\Version=ES64L-G16RevC.01\State=1-A\HF=-15
 18.4917902\RMSD=1.948e-01\Dipole=0.5835845,0.0000358,-0.0814321\Quadru

 Normal termination of Gaussian 16 at Wed Apr  9 00:29:49 2025.
