 Gaussian 16, Revision C.01,

 ----------------------------------------------------------------------
 #t hf aug-cc-pvdz symm=none int=(grid=ultrafine) guess=(read,tcheck) s
 table=opt
 ----------------------------------------------------------------------
 -----
 title
 -----
 Symbolic Z-matrix:
 Charge =  0 Multiplicity = 2

 SCF Done:  E(UHF) =  -419.951969429     A.U. after   16 cycles
 Normal termination of Gaussian 16 at Tue Apr  8 23:13:50 2025.
 Gaussian 16:  ES64L-G16RevC.01  3-Jul-2019

 ----------------------------------------------------------------------
 #t hf aug-cc-pvdz iop(5/13=1,5/36=2,99/5=2) pseudo=read geom=check gue
 ss=(read,tcheck) scf=(maxcycle=1)
 ----------------------------------------------------------------------
 -----
 title
 -----
 Structure from the checkpoint file:  "BDE49_expt_818_mol2.chk"
 Charge =  0 Multiplicity = 2

                         Standard orientation:
 ---------------------------------------------------------------------
 Center     Atomic      Atomic             Coordinates (Angstroms)
 Number     Number       Type             X           Y           Z
 ---------------------------------------------------------------------
      1         15           0        1.228900   -0.097029   -0.085473
      2          6           0       -0.471988    0.645081    0.098766
      3          1           0        1.058438   -1.081168    0.933003
      4          6           0       -1.631758   -0.349557   -0.062002
      5          1           0       -0.551519    1.443869   -0.644928
      6          1           0       -0.526663    1.128363    1.081612
      7          1           0       -1.598646   -0.845926   -1.035386
      8          1           0       -2.595839    0.161980    0.019345
      9          1           0       -1.596801   -1.124827    0.707869
 ---------------------------------------------------------------------

 SCF Done:  E(UHF) =  -420.536235988     A.U. after    2 cycles

 The electronic state is 2-A.
 Alpha  occ. eigenvalues -- -105.17330 -11.40135 -11.36055  -2.75038  -1.47135
 Alpha  occ. eigenvalues --   -1.44575  -1.42638  -1.13283  -0.88127  -0.67655
 Alpha  occ. eigenvalues --   -0.61684  -0.55675  -0.50240  -0.49517  -0.21736
 Alpha  occ. eigenvalues --   -0.06722   0.01756
 Alpha virt. eigenvalues --    0.04159   0.06237   0.06398   0.06715   0.07198
 Alpha virt. eigenvalues --    0.07399   0.10932   0.11533   0.13052   0.13967
 Alpha virt. eigenvalues --    0.15090   0.16210   0.16990   0.17446   0.19036

  Beta  occ. eigenvalues -- -105.16704 -11.40169 -11.36068  -2.73124  -1.45351
  Beta  occ. eigenvalues --   -1.40935  -1.20670  -1.12995  -0.87765  -0.63826
  Beta  occ. eigenvalues --   -0.61458  -0.54789  -0.49907  -0.49309  -0.22672
  Beta  occ. eigenvalues --   -0.04398
  Beta virt. eigenvalues --    0.03894   0.05888   0.06360   0.06505   0.07192
  Beta virt. eigenvalues --    0.07260   0.09664   0.11413   0.11752   0.13347
  Beta virt. eigenvalues --    0.14648   0.15347   0.16511   0.17033   0.18561

 Mulliken charges and spin densities:
               1          2
     1  P    2.719152   1.275942
     2  C   -3.696926  -0.443349
     3  H   -1.140692  -0.190417
     4  C   -3.363719  -0.294154
     5  H    1.347712  -0.010797
     6  H    1.187005  -0.024543
     7  H    0.776539   0.420064
     8  H    1.016624   0.127724
     9  H    1.154305   0.139529
 Sum of Mulliken charges =  -0.00000   1.00000

 Dipole moment (field-independent basis, Debye):
    X=              3.6322    Y=              2.2343    Z=             -0.4720  Tot=              4.2904
                          Isotropic Fermi Contact Couplings
        Atom                 a.u.       MegaHertz       Gauss      10(-4) cm-1
     1  P(31)              0.27751     502.59428     179.33814     167.64741
     2  C(13)             -0.00318      -3.57439      -1.27543      -1.19229
     3  H(1)              -0.00667     -29.79199     -10.63052      -9.93754
     4  C(13)              0.05315      59.75079      21.32057      19.93072
     5  H(1)               0.00019       0.87031       0.31055       0.29031
     6  H(1)               0.00525      23.48362       8.37954       7.83329
     7  H(1)              -0.00018      -0.82557      -0.29458      -0.27538
     8  H(1)               0.00040       1.80630       0.64453       0.60252

 Normal termination of Gaussian 16 at Tue Apr  8 23:13:53 2025.
