 Gaussian 16, Revision C.01,

 ----------------------------------------------------------------------
 #t hf aug-cc-pvdz symm=none int=(grid=ultrafine) guess=(read,tcheck) s
 table=(opt,rrhf)
 ----------------------------------------------------------------------
 -----
 title
 -----
 Symbolic Z-matrix:
 Charge =  0 Multiplicity = 1

 SCF Done:  E(RHF) =  -764.853034511     A.U. after   12 cycles
 Normal termination of Gaussian 16 at Wed Apr  9 00:12:40 2025.
 Gaussian 16:  ES64L-G16RevC.01  3-Jul-2019

 ----------------------------------------------------------------------
 #t hf aug-cc-pvdz iop(5/13=1,5/36=2,99/5=2) pseudo=read geom=check gue
 ss=(read,tcheck) scf=(maxcycle=1)
 ----------------------------------------------------------------------
 -----
 title
 -----
 Structure from the checkpoint file:  "BDE49_nonexpt_2402_mol1.chk"
 Charge =  0 Multiplicity = 1

                         Standard orientation:
 ---------------------------------------------------------------------
 Center     Atomic      Atomic             Coordinates (Angstroms)
 Number     Number       Type             X           Y           Z
 ---------------------------------------------------------------------
      1         14           0       -0.808250    0.860893    0.000067
      2         14           0        0.808250   -0.860892    0.000061
      3          6           0        2.466927   -0.034307    0.000003
      4          1           0        0.722077   -1.688468   -1.218238
      5          1           0        0.722072   -1.688447    1.218374
      6          7           0        3.480994    0.520689   -0.000145
      7          6           0       -2.466927    0.034307   -0.000001
      8          1           0       -0.722076    1.688481   -1.218224
      9          1           0       -0.722075    1.688437    1.218388
     10          7           0       -3.480993   -0.520690   -0.000156
 ---------------------------------------------------------------------

 SCF Done:  E(RHF) =  -765.958878607     A.U. after    2 cycles

 The electronic state is 1-A.
 Alpha  occ. eigenvalues --  -76.28242 -76.28237 -15.78993 -15.78991 -11.41812
 Alpha  occ. eigenvalues --  -11.41792  -5.61796  -5.61782  -2.25873  -2.25577
 Alpha  occ. eigenvalues --   -2.23906  -2.23747  -2.23439  -2.22392  -1.31602
 Alpha  occ. eigenvalues --   -1.31568  -0.90911  -0.84028  -0.64799  -0.64081
 Alpha  occ. eigenvalues --   -0.54778  -0.52693  -0.52469  -0.51315  -0.49625
 Alpha  occ. eigenvalues --   -0.47767  -0.46586  -0.46559  -0.38972
 Alpha virt. eigenvalues --    0.03367   0.03799   0.05120   0.05475   0.05767
 Alpha virt. eigenvalues --    0.06662   0.06972   0.07311   0.07420   0.08212
 Alpha virt. eigenvalues --    0.08962   0.09706   0.10474   0.11028   0.11171

 Mulliken charges:
               1
     1  Si   4.651382
     2  Si   4.651381
     3  C    0.413371
     4  H   -1.611552
     5  H   -1.611551
     6  N   -1.841648
     7  C    0.413372
     8  H   -1.611554
     9  H   -1.611551
    10  N   -1.841649
 Sum of Mulliken charges =  -0.00000

 Dipole moment (field-independent basis, Debye):
    X=              0.0000    Y=              0.0000    Z=              0.0004  Tot=              0.0004

 Test job not archived.
 1\1\GINC-SE096\SP\RHF\Aug-CC-pVDZ\C2H4N2Si2\OHZDE\09-Apr-2025\0\\#t hf
  aug-cc-pvdz iop(5/13=1,5/36=2,99/5=2) pseudo=read geom=check guess=(r
 ead,tcheck) scf=(maxcycle=1)\\title\\0,1\Si,0,0.80825,0.860893,-0.0000
 67\Si,0,-0.80825,-0.860892,-0.000061\C,0,-2.466927,-0.034307,-0.000003
 \H,0,-0.722077,-1.688468,1.218238\H,0,-0.722072,-1.688447,-1.218374\N,
 0,-3.480994,0.520689,0.000145\C,0,2.466927,0.034307,0.000001\H,0,0.722
 076,1.688481,1.218224\H,0,0.722075,1.688437,-1.218388\N,0,3.480993,-0.
 52069,0.000156\\Version=ES64L-G16RevC.01\State=1-A\HF=-765.9588786\RMS

 Normal termination of Gaussian 16 at Wed Apr  9 00:12:44 2025.
