 Gaussian 16, Revision C.01,

 ----------------------------------------------------------------------
 #t hf aug-cc-pvdz symm=none int=(grid=ultrafine) guess=(read,tcheck) s
 table=(opt,rrhf)
 ----------------------------------------------------------------------
 -----
 title
 -----
 Symbolic Z-matrix:
 Charge =  0 Multiplicity = 1

 SCF Done:  E(RHF) =  -779.056668754     A.U. after   12 cycles
 Normal termination of Gaussian 16 at Tue Apr  8 23:44:11 2025.
 Gaussian 16:  ES64L-G16RevC.01  3-Jul-2019

 ----------------------------------------------------------------------
 #t hf aug-cc-pvdz iop(5/13=1,5/36=2,99/5=2) pseudo=read geom=check gue
 ss=(read,tcheck) scf=(maxcycle=1)
 ----------------------------------------------------------------------
 -----
 title
 -----
 Structure from the checkpoint file:  "BDE49_nonexpt_1710_mol1.chk"
 Charge =  0 Multiplicity = 1

                         Standard orientation:
 ---------------------------------------------------------------------
 Center     Atomic      Atomic             Coordinates (Angstroms)
 Number     Number       Type             X           Y           Z
 ---------------------------------------------------------------------
      1          6           0       -1.692034    0.683963    0.000128
      2         16           0       -0.511901   -0.721907   -0.000032
      3          1           0       -1.577066    1.295093    0.894483
      4          1           0       -2.686167    0.234167    0.000078
      5          1           0       -1.577063    1.295291   -0.894091
      6         15           0        1.346412    0.357418   -0.000073
      7          1           0        1.993516   -0.369766   -1.031814
      8          1           0        1.993228   -0.369311    1.032177
 ---------------------------------------------------------------------

 SCF Done:  E(RHF) =  -779.691984874     A.U. after    2 cycles

 The electronic state is 1-A.
 Alpha  occ. eigenvalues -- -105.20245 -75.68334 -13.08989 -13.06296 -13.01401
 Alpha  occ. eigenvalues --  -11.39755  -8.02313  -2.77116  -1.46656  -1.45553
 Alpha  occ. eigenvalues --   -1.44002  -1.15351  -0.92021  -0.71140  -0.58846
 Alpha  occ. eigenvalues --   -0.58292  -0.42147  -0.27260  -0.23784  -0.18710
 Alpha  occ. eigenvalues --   -0.03951
 Alpha virt. eigenvalues --    0.03938   0.04800   0.05868   0.06516   0.07836
 Alpha virt. eigenvalues --    0.09244   0.11357   0.11422   0.13318   0.14083
 Alpha virt. eigenvalues --    0.16309   0.17376   0.17689   0.17792   0.18717

 Mulliken charges:
               1
     1  C   -4.322327
     2  S   -0.912522
     3  H    1.235637
     4  H    1.192556
     5  H    1.235564
     6  P    2.505941
     7  H   -0.467407
     8  H   -0.467442
 Sum of Mulliken charges =  -0.00000

 Dipole moment (field-independent basis, Debye):
    X=              3.6516    Y=              3.2197    Z=             -0.0010  Tot=              4.8683

 Test job not archived.
 1\1\GINC-SE398\SP\RHF\Aug-CC-pVDZ\C1H5P1S1\OHZDE\08-Apr-2025\0\\#t hf
 aug-cc-pvdz iop(5/13=1,5/36=2,99/5=2) pseudo=read geom=check guess=(re
 ad,tcheck) scf=(maxcycle=1)\\title\\0,1\C,0,1.692034,0.683963,-0.00012
 8\S,0,0.511901,-0.721907,0.000032\H,0,1.577066,1.295093,-0.894483\H,0,
 2.686167,0.234167,-0.000078\H,0,1.577063,1.295291,0.894091\P,0,-1.3464
 12,0.357418,0.000073\H,0,-1.993516,-0.369766,1.031814\H,0,-1.993228,-0
 .369311,-1.032177\\Version=ES64L-G16RevC.01\State=1-A\HF=-779.6919849\
 RMSD=2.605e-01\Dipole=-1.4366403,1.2667096,0.0004117\Quadrupole=0.6239

 Normal termination of Gaussian 16 at Tue Apr  8 23:44:14 2025.
