 Gaussian 16, Revision C.01,

 ----------------------------------------------------------------------
 #t hf aug-cc-pvdz symm=none int=(grid=ultrafine) guess=(read,tcheck) s
 table=(opt,rrhf)
 ----------------------------------------------------------------------
 -----
 title
 -----
 Symbolic Z-matrix:
 Charge =  0 Multiplicity = 1

 SCF Done:  E(RHF) =  -1196.17964603     A.U. after   15 cycles
 Normal termination of Gaussian 16 at Tue Apr  8 23:41:29 2025.
 Gaussian 16:  ES64L-G16RevC.01  3-Jul-2019

 ----------------------------------------------------------------------
 #t hf aug-cc-pvdz iop(5/13=1,5/36=2,99/5=2) pseudo=read geom=check gue
 ss=(read,tcheck) scf=(maxcycle=1)
 ----------------------------------------------------------------------
 -----
 title
 -----
 Structure from the checkpoint file:  "BDE49_nonexpt_1567_mol1.chk"
 Charge =  0 Multiplicity = 1

                         Standard orientation:
 ---------------------------------------------------------------------
 Center     Atomic      Atomic             Coordinates (Angstroms)
 Number     Number       Type             X           Y           Z
 ---------------------------------------------------------------------
      1          6           0       -2.158948   -0.083848    0.149278
      2          6           0       -1.550318    1.163827    0.070214
      3          6           0       -0.196073    1.239407   -0.223989
      4          6           0       -1.412051   -1.235762   -0.064221
      5          6           0       -0.055185   -1.131383   -0.349874
      6          6           0        0.586533    0.104413   -0.441684
      7          9           0       -3.459227   -0.174232    0.427667
      8          9           0       -2.271174    2.270323    0.274928
      9          9           0        0.358045    2.458076   -0.295692
     10          9           0       -2.002413   -2.432533    0.015279
     11          9           0        0.615511   -2.274139   -0.544592
     12          7           0        3.029138    0.441580    0.733317
     13          8           0        2.960400   -0.761349    1.518678
     14          1           0        2.441062   -0.488305    2.283945
     15         15           0        2.374279    0.323162   -0.856744
     16          1           0        2.599594   -1.041995   -1.157250
     17          1           0        4.007563    0.715211    0.705168
 ---------------------------------------------------------------------

 SCF Done:  E(RHF) =  -1199.62635238     A.U. after    2 cycles

 The electronic state is 1-A.
 Alpha  occ. eigenvalues -- -105.22494 -29.33245 -29.32479 -29.32416 -29.32229
 Alpha  occ. eigenvalues --  -29.32171 -21.11272 -15.78808 -11.61113 -11.55041
 Alpha  occ. eigenvalues --  -11.54053 -11.52109 -11.50062 -11.45212  -2.80470
 Alpha  occ. eigenvalues --   -1.78346  -1.57144  -1.54318  -1.49813  -1.46767
 Alpha  occ. eigenvalues --   -1.28829  -1.25174  -1.12305  -1.08844  -1.04510
 Alpha  occ. eigenvalues --   -0.91777  -0.85193  -0.76701  -0.76513  -0.76094
 Alpha  occ. eigenvalues --   -0.67840  -0.67453  -0.63411  -0.63282  -0.60226
 Alpha  occ. eigenvalues --   -0.56313  -0.53042  -0.44729  -0.44127  -0.43455
 Alpha  occ. eigenvalues --   -0.43137  -0.41734  -0.41692  -0.39932  -0.38519
 Alpha  occ. eigenvalues --   -0.37651  -0.35839  -0.32128  -0.31498  -0.30779
 Alpha  occ. eigenvalues --   -0.30635  -0.28527  -0.26569  -0.24390  -0.23435
 Alpha  occ. eigenvalues --   -0.19157  -0.02769
 Alpha virt. eigenvalues --    0.04201   0.05545   0.06682   0.08047   0.09586
 Alpha virt. eigenvalues --    0.09941   0.10623   0.11159   0.11485   0.11822
 Alpha virt. eigenvalues --    0.12034   0.12121   0.12328   0.13079   0.14023

 Mulliken charges:
               1
     1  C    0.694759
     2  C   -2.327530
     3  C    2.250079
     4  C   -2.107990
     5  C    2.648186
     6  C   -6.214409
     7  F    1.101405
     8  F    1.134971
     9  F    0.924474
    10  F    1.105806
    11  F    0.884789
    12  N   -0.613617
    13  O   -2.028284
    14  H    0.763549
    15  P    2.367569
    16  H   -1.253354
    17  H    0.669598
 Sum of Mulliken charges =   0.00000

 Dipole moment (field-independent basis, Debye):
    X=             -3.6924    Y=             -0.0010    Z=              1.5348  Tot=              3.9987

 Test job not archived.
 1\1\GINC-SE097\SP\RHF\Aug-CC-pVDZ\C6H3F5N1O1P1\OHZDE\08-Apr-2025\0\\#t
  hf aug-cc-pvdz iop(5/13=1,5/36=2,99/5=2) pseudo=read geom=check guess
 =(read,tcheck) scf=(maxcycle=1)\\title\\0,1\C,0,-2.158948,-0.083848,0.
 149278\C,0,-1.550318,1.163827,0.070214\C,0,-0.196073,1.239407,-0.22398
 9\C,0,-1.412051,-1.235762,-0.064221\C,0,-0.055185,-1.131383,-0.349874\
 C,0,0.586533,0.104413,-0.441684\F,0,-3.459227,-0.174232,0.427667\F,0,-
 2.271174,2.270323,0.274928\F,0,0.358045,2.458076,-0.295692\F,0,-2.0024
 13,-2.432533,0.015279\F,0,0.615511,-2.274139,-0.544592\N,0,3.029138,0.

 Normal termination of Gaussian 16 at Tue Apr  8 23:41:42 2025.
