 Gaussian 16, Revision C.01,

 ----------------------------------------------------------------------
 #t hf aug-cc-pvdz symm=none int=(grid=ultrafine) guess=(read,tcheck) s
 table=(opt,rrhf)
 ----------------------------------------------------------------------
 -----
 title
 -----
 Symbolic Z-matrix:
 Charge =  0 Multiplicity = 1

 SCF Done:  E(RHF) =  -939.185895069     A.U. after   15 cycles
 Normal termination of Gaussian 16 at Wed Apr  9 00:07:25 2025.
 Gaussian 16:  ES64L-G16RevC.01  3-Jul-2019

 ----------------------------------------------------------------------
 #t hf aug-cc-pvdz iop(5/13=1,5/36=2,99/5=2) pseudo=read geom=check gue
 ss=(read,tcheck) scf=(maxcycle=1)
 ----------------------------------------------------------------------
 -----
 title
 -----
 Structure from the checkpoint file:  "BDE49_nonexpt_1971_mol1.chk"
 Charge =  0 Multiplicity = 1

                         Standard orientation:
 ---------------------------------------------------------------------
 Center     Atomic      Atomic             Coordinates (Angstroms)
 Number     Number       Type             X           Y           Z
 ---------------------------------------------------------------------
      1         14           0        0.503904    2.299681   -0.470921
      2          6           0       -0.960034    2.171091    0.736702
      3          6           0       -1.851002    0.974664    0.500025
      4          6           0       -2.914275    1.030870   -0.407048
      5          6           0       -1.627971   -0.242483    1.158606
      6          6           0       -2.429390   -1.354492    0.929313
      7          6           0       -3.485568   -1.275931    0.021114
      8          6           0       -3.725614   -0.075402   -0.647611
      9          1           0       -0.811347   -0.321533    1.868325
     10          1           0       -2.253532   -2.289279    1.447969
     11          6           0        1.718201    0.884209   -0.317697
     12          1           0        1.228587    3.566193   -0.189346
     13          1           0       -0.040824    2.348907   -1.850759
     14          6           0        1.485253   -0.359627   -0.925658
     15          6           0        2.900174    1.021121    0.432216
     16          6           0        3.803925   -0.023531    0.576882
     17          6           0        3.544188   -1.250586   -0.036866
     18          6           0        2.380351   -1.416126   -0.791126
     19          1           0        3.127332    1.968875    0.910537
     20          1           0        4.714248    0.090775    1.153094
     21          8           0       -4.246414   -2.398121   -0.168349
     22          8           0        4.461386   -2.246071    0.131277
     23          1           0       -3.119761    1.956943   -0.934392
     24          1           0        0.589383   -0.515173   -1.517503
     25          1           0       -4.548838   -0.000855   -1.352919
     26          1           0        2.176487   -2.368660   -1.272619
     27          1           0        4.166892   -3.032040   -0.340709
     28          1           0       -4.941024   -2.203127   -0.805452
     29          1           0       -1.534506    3.099757    0.645579
     30          1           0       -0.556963    2.154562    1.754567
 ---------------------------------------------------------------------

 SCF Done:  E(RHF) =  -942.362209957     A.U. after    2 cycles

 The electronic state is 1-A.
 Alpha  occ. eigenvalues --  -76.20422 -21.10830 -21.10093 -11.52310 -11.51825
 Alpha  occ. eigenvalues --  -11.45710 -11.45261 -11.43821 -11.43318 -11.42929
 Alpha  occ. eigenvalues --  -11.40846 -11.40545 -11.40268 -11.37993 -11.36371
 Alpha  occ. eigenvalues --  -11.36033  -5.54116  -2.19484  -2.17682  -2.17224
 Alpha  occ. eigenvalues --   -1.76233  -1.75359  -1.33040  -1.31525  -1.12613
 Alpha  occ. eigenvalues --   -1.09756  -1.09402  -1.06806  -0.98085  -0.87980
 Alpha  occ. eigenvalues --   -0.87758  -0.84980  -0.82480  -0.74834  -0.69545
 Alpha  occ. eigenvalues --   -0.68941  -0.65615  -0.63934  -0.62918  -0.61935
 Alpha  occ. eigenvalues --   -0.58311  -0.58062  -0.57598  -0.55245  -0.54276
 Alpha  occ. eigenvalues --   -0.54008  -0.53327  -0.49649  -0.47637  -0.46170
 Alpha  occ. eigenvalues --   -0.45855  -0.43994  -0.43141  -0.42910  -0.41392
 Alpha  occ. eigenvalues --   -0.39658  -0.37677  -0.33908  -0.33029  -0.27783
 Alpha  occ. eigenvalues --   -0.25496
 Alpha virt. eigenvalues --    0.03315   0.04322   0.04550   0.05292   0.05509
 Alpha virt. eigenvalues --    0.05814   0.06132   0.06403   0.06475   0.07034
 Alpha virt. eigenvalues --    0.07432   0.07706   0.08030   0.08851   0.09474

 Mulliken charges:
               1
     1  Si   5.991592
     2  C   -5.830018
     3  C    3.997825
     4  C   -1.211068
     5  C   -0.567933
     6  C   -3.737433
     7  C    4.818665
     8  C   -4.756195
     9  H    2.014912
    10  H    1.789995
    11  C   -2.246309
    12  H   -1.937261
    13  H   -2.101069
    14  C    0.192251
    15  C   -1.963817
    16  C   -2.528278
    17  C    5.747377
    18  C   -4.057161
    19  H    1.880462
    20  H    1.838521
    21  O   -4.540307
    22  O   -4.468103
    23  H    1.751406
    24  H    1.928208
    25  H    1.710714
    26  H    1.709239
    27  H    1.052348
    28  H    1.046707
    29  H    1.152553
    30  H    1.322174
 Sum of Mulliken charges =  -0.00000

 Dipole moment (field-independent basis, Debye):
    X=             -0.1040    Y=             -1.5936    Z=             -0.0954  Tot=              1.5998

 Test job not archived.
 1\1\GINC-SE080\SP\RHF\Aug-CC-pVDZ\C13H14O2Si1\OHZDE\09-Apr-2025\0\\#t
 hf aug-cc-pvdz iop(5/13=1,5/36=2,99/5=2) pseudo=read geom=check guess=
 (read,tcheck) scf=(maxcycle=1)\\title\\0,1\Si,0,0.503904,2.299681,-0.4
 70921\C,0,-0.960034,2.171091,0.736702\C,0,-1.851002,0.974664,0.500025\
 C,0,-2.914275,1.03087,-0.407048\C,0,-1.627971,-0.242483,1.158606\C,0,-
 2.42939,-1.354492,0.929313\C,0,-3.485568,-1.275931,0.021114\C,0,-3.725
 614,-0.075402,-0.647611\H,0,-0.811347,-0.321533,1.868325\H,0,-2.253532
 ,-2.289279,1.447969\C,0,1.718201,0.884209,-0.317697\H,0,1.228587,3.566

 Normal termination of Gaussian 16 at Wed Apr  9 00:08:04 2025.
