 Gaussian 16, Revision C.01,

 ----------------------------------------------------------------------
 #t hf aug-cc-pvdz symm=none int=(grid=ultrafine) guess=(read,tcheck) s
 table=(opt,rrhf)
 ----------------------------------------------------------------------
 -----
 title
 -----
 Symbolic Z-matrix:
 Charge =  0 Multiplicity = 1

 SCF Done:  E(RHF) =  -445.244163508     A.U. after   12 cycles
 Normal termination of Gaussian 16 at Wed Apr  9 00:42:16 2025.
 Gaussian 16:  ES64L-G16RevC.01  3-Jul-2019

 ----------------------------------------------------------------------
 #t hf aug-cc-pvdz iop(5/13=1,5/36=2,99/5=2) pseudo=read geom=check gue
 ss=(read,tcheck) scf=(maxcycle=1)
 ----------------------------------------------------------------------
 -----
 title
 -----
 Structure from the checkpoint file:  "BDE49_nonexpt_667_mol1.chk"
 Charge =  0 Multiplicity = 1

                         Standard orientation:
 ---------------------------------------------------------------------
 Center     Atomic      Atomic             Coordinates (Angstroms)
 Number     Number       Type             X           Y           Z
 ---------------------------------------------------------------------
      1          8           0        1.595928    0.937509   -0.021173
      2          8           0        2.493574   -1.216954    0.014301
      3          8           0        0.144538   -0.996962   -0.004965
      4          6           0        0.474738    1.820328   -0.017730
      5          6           0       -0.757857    1.168732   -0.635421
      6          6           0       -1.066408   -0.201590   -0.004851
      7          6           0       -1.549697   -0.082287    1.445181
      8          6           0       -2.081274   -0.972429   -0.848320
      9          5           0        1.389204   -0.412340   -0.001460
     10          1           0        2.239660   -2.143931    0.022451
     11          1           0        0.762309    2.708144   -0.585553
     12          1           0        0.280006    2.139092    1.012452
     13          1           0       -0.585049    1.026885   -1.707718
     14          1           0       -1.620870    1.833381   -0.529370
     15          1           0       -2.499927    0.456553    1.497080
     16          1           0       -0.822372    0.441867    2.069088
     17          1           0       -1.693588   -1.079106    1.867198
     18          1           0       -1.707138   -1.101998   -1.866317
     19          1           0       -2.251779   -1.962095   -0.418527
     20          1           0       -3.036601   -0.442357   -0.891938
 ---------------------------------------------------------------------

 SCF Done:  E(RHF) =  -447.255594031     A.U. after    2 cycles

 The electronic state is 1-A.
 Alpha  occ. eigenvalues --  -21.03959 -21.01868 -21.01804 -11.47117 -11.45351
 Alpha  occ. eigenvalues --  -11.40927 -11.40214 -11.36362  -7.64574  -1.89393
 Alpha  occ. eigenvalues --   -1.69828  -1.66892  -1.24206  -1.08560  -1.02023
 Alpha  occ. eigenvalues --   -0.92268  -0.82879  -0.70476  -0.68012  -0.63821
 Alpha  occ. eigenvalues --   -0.62515  -0.61382  -0.58162  -0.55978  -0.55114
 Alpha  occ. eigenvalues --   -0.52298  -0.52000  -0.50193  -0.46141  -0.45837
 Alpha  occ. eigenvalues --   -0.44460  -0.36886  -0.34029  -0.32759  -0.30970
 Alpha virt. eigenvalues --    0.03169   0.04816   0.05035   0.05292   0.05472
 Alpha virt. eigenvalues --    0.05582   0.05790   0.05860   0.06243   0.07663
 Alpha virt. eigenvalues --    0.08385   0.09074   0.09169   0.09611   0.11193

 Mulliken charges:
               1
     1  O   -5.394381
     2  O   -4.041487
     3  O   -7.402835
     4  C   -0.587932
     5  C   -4.441574
     6  C    7.301027
     7  C   -5.038867
     8  C   -4.396625
     9  B    9.992827
    10  H    1.020989
    11  H    1.253207
    12  H    1.632030
    13  H    1.156966
    14  H    1.358277
    15  H    1.108927
    16  H    1.389812
    17  H    1.293554
    18  H    1.294946
    19  H    1.284715
    20  H    1.216423
 Sum of Mulliken charges =  -0.00000

 Dipole moment (field-independent basis, Debye):
    X=             -2.2680    Y=              0.5058    Z=             -0.0659  Tot=              2.3247

 Test job not archived.
 1\1\GINC-SE097\SP\RHF\Aug-CC-pVDZ\C5H11B1O3\OHZDE\09-Apr-2025\0\\#t hf
  aug-cc-pvdz iop(5/13=1,5/36=2,99/5=2) pseudo=read geom=check guess=(r
 ead,tcheck) scf=(maxcycle=1)\\title\\0,1\O,0,1.595928,0.937509,-0.0211
 73\O,0,2.493574,-1.216954,0.014301\O,0,0.144538,-0.996962,-0.004965\C,
 0,0.474738,1.820328,-0.01773\C,0,-0.757857,1.168732,-0.635421\C,0,-1.0
 66408,-0.20159,-0.004851\C,0,-1.549697,-0.082287,1.445181\C,0,-2.08127
 4,-0.972429,-0.84832\B,0,1.389204,-0.41234,-0.00146\H,0,2.23966,-2.143
 931,0.022451\H,0,0.762309,2.708144,-0.585553\H,0,0.280006,2.139092,1.0

 Normal termination of Gaussian 16 at Wed Apr  9 00:42:26 2025.
