 Gaussian 16, Revision C.01,

 ----------------------------------------------------------------------
 #t hf aug-cc-pvdz symm=none int=(grid=ultrafine) guess=(read,tcheck) s
 table=(opt,rrhf)
 ----------------------------------------------------------------------
 -----
 title
 -----
 Symbolic Z-matrix:
 Charge =  0 Multiplicity = 1

 SCF Done:  E(RHF) =  -1287.84380194     A.U. after   16 cycles
 Normal termination of Gaussian 16 at Wed Apr  9 00:14:15 2025.
 Gaussian 16:  ES64L-G16RevC.01  3-Jul-2019

 ----------------------------------------------------------------------
 #t hf aug-cc-pvdz iop(5/13=1,5/36=2,99/5=2) pseudo=read geom=check gue
 ss=(read,tcheck) scf=(maxcycle=1)
 ----------------------------------------------------------------------
 -----
 title
 -----
 Structure from the checkpoint file:  "BDE49_nonexpt_241_mol1.chk"
 Charge =  0 Multiplicity = 1

                         Standard orientation:
 ---------------------------------------------------------------------
 Center     Atomic      Atomic             Coordinates (Angstroms)
 Number     Number       Type             X           Y           Z
 ---------------------------------------------------------------------
      1         17           0       -1.895351   -1.988658   -0.000014
      2         17           0       -3.192801    0.726184   -0.000012
      3          5           0       -1.697551   -0.224617    0.000027
      4          6           0       -0.305265    0.438355    0.000017
      5          6           0        0.863961   -0.353313    0.000012
      6          6           0        2.124105    0.239579    0.000003
      7          6           0        2.231528    1.637812   -0.000000
      8          6           0       -0.173171    1.836944    0.000013
      9          1           0       -1.056907    2.461746    0.000017
     10          6           0        1.089526    2.424954    0.000005
     11          1           0        1.185203    3.504703    0.000002
     12          1           0        3.222375    2.076205   -0.000007
     13          1           0        0.766291   -1.429517    0.000015
     14          8           0        3.303456   -0.439742   -0.000002
     15          6           0        3.268465   -1.861983   -0.000000
     16          1           0        2.769135   -2.250664   -0.894094
     17          1           0        2.769146   -2.250662    0.894101
     18          1           0        4.308540   -2.182815   -0.000006
 ---------------------------------------------------------------------

 SCF Done:  E(RHF) =  -1290.03665487     A.U. after    2 cycles

 The electronic state is 1-A.
 Alpha  occ. eigenvalues --  -99.89567 -99.89457 -21.08196 -11.53787 -11.47065
 Alpha  occ. eigenvalues --  -11.44249 -11.43199 -11.42156 -11.41885 -11.37393
 Alpha  occ. eigenvalues --  -10.46955 -10.46676  -9.66937  -9.66667  -9.66485
 Alpha  occ. eigenvalues --   -9.66307  -9.66188  -9.66057  -7.73736  -1.79664
 Alpha  occ. eigenvalues --   -1.40745  -1.31870  -1.29184  -1.12140  -1.09860
 Alpha  occ. eigenvalues --   -0.99959  -0.90981  -0.85411  -0.78802  -0.72162
 Alpha  occ. eigenvalues --   -0.65877  -0.64978  -0.63280  -0.63142  -0.61653
 Alpha  occ. eigenvalues --   -0.59061  -0.57726  -0.53686  -0.53125  -0.52100
 Alpha  occ. eigenvalues --   -0.51433  -0.49855  -0.46416  -0.45138  -0.42296
 Alpha  occ. eigenvalues --   -0.39412  -0.35397  -0.27312
 Alpha virt. eigenvalues --    0.02778   0.03569   0.04117   0.04358   0.05125
 Alpha virt. eigenvalues --    0.05167   0.06010   0.06320   0.06751   0.08148
 Alpha virt. eigenvalues --    0.09021   0.10056   0.11281   0.12281   0.12557

 Mulliken charges:
               1
     1  Cl  -1.409553
     2  Cl  -1.532756
     3  B    1.157356
     4  C    0.136060
     5  C   -4.604865
     6  C    8.379432
     7  C   -4.367116
     8  C   -2.147108
     9  H    1.880846
    10  C    1.401754
    11  H    1.587994
    12  H    1.912513
    13  H    1.987080
    14  O   -4.879651
    15  C   -3.744453
    16  H    1.413436
    17  H    1.413437
    18  H    1.415595
 Sum of Mulliken charges =  -0.00000

 Dipole moment (field-independent basis, Debye):
    X=              3.1452    Y=              0.4207    Z=              0.0000  Tot=              3.1733

 Test job not archived.
 1\1\GINC-SE341\SP\RHF\Aug-CC-pVDZ\C7H7B1Cl2O1\OHZDE\09-Apr-2025\0\\#t
 hf aug-cc-pvdz iop(5/13=1,5/36=2,99/5=2) pseudo=read geom=check guess=
 (read,tcheck) scf=(maxcycle=1)\\title\\0,1\Cl,0,1.895351,-1.988658,0.0
 00014\Cl,0,3.192801,0.726184,0.000012\B,0,1.697551,-0.224617,-0.000027
 \C,0,0.305265,0.438355,-0.000017\C,0,-0.863961,-0.353313,-0.000012\C,0
 ,-2.124105,0.239579,-0.000003\C,0,-2.231528,1.637812,0.\C,0,0.173171,1
 .836944,-0.000013\H,0,1.056907,2.461746,-0.000017\C,0,-1.089526,2.4249
 54,-0.000005\H,0,-1.185203,3.504703,-0.000002\H,0,-3.222375,2.076205,0

 Normal termination of Gaussian 16 at Wed Apr  9 00:14:26 2025.
