 Gaussian 16, Revision C.01,

 ----------------------------------------------------------------------
 #t hf aug-cc-pvdz symm=none int=(grid=ultrafine) guess=(read,tcheck) s
 table=(opt,rrhf)
 ----------------------------------------------------------------------
 -----
 title
 -----
 Symbolic Z-matrix:
 Charge =  0 Multiplicity = 1

 SCF Done:  E(RHF) =  -820.009676761     A.U. after   17 cycles
 Normal termination of Gaussian 16 at Wed Apr  9 00:43:03 2025.
 Gaussian 16:  ES64L-G16RevC.01  3-Jul-2019

 ----------------------------------------------------------------------
 #t hf aug-cc-pvdz iop(5/13=1,5/36=2,99/5=2) pseudo=read geom=check gue
 ss=(read,tcheck) scf=(maxcycle=1)
 ----------------------------------------------------------------------
 -----
 title
 -----
 Structure from the checkpoint file:  "BDE49_nonexpt_708_mol1.chk"
 Charge =  0 Multiplicity = 1

                         Standard orientation:
 ---------------------------------------------------------------------
 Center     Atomic      Atomic             Coordinates (Angstroms)
 Number     Number       Type             X           Y           Z
 ---------------------------------------------------------------------
      1         15           0        0.106511   -0.680876    0.752073
      2          5           0       -1.403939    0.347400   -0.037724
      3          7           0        1.407311    0.353825   -0.071162
      4          9           0        0.146480   -1.965758   -0.223242
      5          8           0        1.374297    1.534712    0.305431
      6          8           0        2.228771   -0.127882   -0.813232
      7          8           0       -2.477826   -0.406811   -0.352920
      8          8           0       -1.377519    1.689008   -0.136403
      9          1           0       -0.508611    2.067121    0.078668
     10          1           0       -3.220646    0.111854   -0.686826
 ---------------------------------------------------------------------

 SCF Done:  E(RHF) =  -822.084012516     A.U. after    2 cycles

 The electronic state is 1-A.
 Alpha  occ. eigenvalues -- -105.30059 -29.31334 -21.13257 -21.11002 -21.09652
 Alpha  occ. eigenvalues --  -21.08845 -16.00292  -7.69778  -2.88524  -2.01226
 Alpha  occ. eigenvalues --   -1.85241  -1.72080  -1.69956  -1.62759  -1.56883
 Alpha  occ. eigenvalues --   -1.55200  -0.99968  -0.82140  -0.77398  -0.68065
 Alpha  occ. eigenvalues --   -0.66833  -0.63980  -0.62639  -0.56440  -0.53311
 Alpha  occ. eigenvalues --   -0.46667  -0.44936  -0.40077  -0.38662  -0.36815
 Alpha  occ. eigenvalues --   -0.33876  -0.32763  -0.25574  -0.18188  -0.04353
 Alpha virt. eigenvalues --    0.03683   0.04919   0.05546   0.06528   0.08253
 Alpha virt. eigenvalues --    0.09159   0.09327   0.10489   0.11243   0.14241
 Alpha virt. eigenvalues --    0.14694   0.16296   0.17291   0.19030   0.19638

 Mulliken charges:
               1
     1  P    1.478187
     2  B    4.356391
     3  N    3.724508
     4  F   -0.543752
     5  O   -2.510657
     6  O   -2.426705
     7  O   -3.248624
     8  O   -3.832367
     9  H    1.871915
    10  H    1.131103
 Sum of Mulliken charges =  -0.00000

 Dipole moment (field-independent basis, Debye):
    X=             -0.0707    Y=             -4.6888    Z=              0.1220  Tot=              4.6909

 Test job not archived.
 1\1\GINC-SE179\SP\RHF\Aug-CC-pVDZ\B1F1H2N1O4P1\OHZDE\09-Apr-2025\0\\#t
  hf aug-cc-pvdz iop(5/13=1,5/36=2,99/5=2) pseudo=read geom=check guess
 =(read,tcheck) scf=(maxcycle=1)\\title\\0,1\P,0,0.106511,-0.680876,0.7
 52073\B,0,-1.403939,0.3474,-0.037724\N,0,1.407311,0.353825,-0.071162\F
 ,0,0.14648,-1.965758,-0.223242\O,0,1.374297,1.534712,0.305431\O,0,2.22
 8771,-0.127882,-0.813232\O,0,-2.477826,-0.40681,-0.35292\O,0,-1.377519
 ,1.689008,-0.136403\H,0,-0.508611,2.067121,0.078668\H,0,-3.220646,0.11
 1855,-0.686826\\Version=ES64L-G16RevC.01\State=1-A\HF=-822.0840125\RMS

 Normal termination of Gaussian 16 at Wed Apr  9 00:43:07 2025.
