 Gaussian 16, Revision C.01,

 ----------------------------------------------------------------------
 #t hf aug-cc-pvdz symm=none int=(grid=ultrafine) guess=(read,tcheck) s
 table=opt
 ----------------------------------------------------------------------
 -----
 title
 -----
 Symbolic Z-matrix:
 Charge =  0 Multiplicity = 2

 SCF Done:  E(UHF) =  -103.868092171     A.U. after   13 cycles
 Normal termination of Gaussian 16 at Tue Apr  8 23:56:20 2025.
 Gaussian 16:  ES64L-G16RevC.01  3-Jul-2019

 ----------------------------------------------------------------------
 #t hf aug-cc-pvdz iop(5/13=1,5/36=2,99/5=2) pseudo=read geom=check gue
 ss=(read,tcheck) scf=(maxcycle=1)
 ----------------------------------------------------------------------
 -----
 title
 -----
 Structure from the checkpoint file:  "BDE49_nonexpt_1_mol2.chk"
 Charge =  0 Multiplicity = 2

                         Standard orientation:
 ---------------------------------------------------------------------
 Center     Atomic      Atomic             Coordinates (Angstroms)
 Number     Number       Type             X           Y           Z
 ---------------------------------------------------------------------
      1          5           0       -0.000000    0.561277    0.000000
      2          6           0       -1.402784   -0.098296    0.011466
      3          1           0       -1.415653   -1.111174    0.439447
      4          1           0       -1.691817   -0.202910   -1.047018
      5          1           0       -2.186736    0.500665    0.481426
      6          6           0        1.402784   -0.098296   -0.011466
      7          1           0        1.691817   -0.202909    1.047018
      8          1           0        2.186736    0.500664   -0.481426
      9          1           0        1.415653   -1.111175   -0.439447
 ---------------------------------------------------------------------

 SCF Done:  E(UHF) =  -104.380639904     A.U. after    2 cycles

 The electronic state is 2-A.
 Alpha  occ. eigenvalues --  -11.33563 -11.33379  -7.60838  -1.12604  -1.01334
 Alpha  occ. eigenvalues --   -0.66215  -0.57809  -0.55987  -0.54721  -0.53274
 Alpha  occ. eigenvalues --   -0.42684  -0.26464
 Alpha virt. eigenvalues --    0.03480   0.04004   0.04232   0.04510   0.07840
 Alpha virt. eigenvalues --    0.08225   0.08248   0.08562   0.09538   0.11598
 Alpha virt. eigenvalues --    0.14360   0.15777   0.16144   0.16766   0.17174

  Beta  occ. eigenvalues --  -11.33533 -11.33350  -7.59174  -1.10946  -1.01031
  Beta  occ. eigenvalues --   -0.62574  -0.55732  -0.55281  -0.53953  -0.53149
  Beta  occ. eigenvalues --   -0.41728
  Beta virt. eigenvalues --    0.02474   0.04097   0.04331   0.04505   0.07990
  Beta virt. eigenvalues --    0.08223   0.08468   0.08721   0.09263   0.09592
  Beta virt. eigenvalues --    0.14518   0.15723   0.16566   0.16885   0.17054

 Mulliken charges and spin densities:
               1          2
     1  B    2.066044   1.118810
     2  C   -5.058506  -0.091184
     3  H    1.243101   0.020001
     4  H    1.250148  -0.005961
     5  H    1.532233   0.017739
     6  C   -5.058506  -0.091184
     7  H    1.250149  -0.005961
     8  H    1.532234   0.017739
     9  H    1.243101   0.020001
 Sum of Mulliken charges =  -0.00000   1.00000

 Dipole moment (field-independent basis, Debye):
    X=              0.0000    Y=             -0.9592    Z=              0.0000  Tot=              0.9592
                          Isotropic Fermi Contact Couplings
        Atom                 a.u.       MegaHertz       Gauss      10(-4) cm-1
     1  B(11)              0.14180     203.39249      72.57550      67.84443
     2  C(13)              0.02916      32.77685      11.69560      10.93318
     3  H(1)               0.00934      41.73303      14.89138      13.92064
     4  H(1)              -0.00089      -3.96265      -1.41397      -1.32180
     5  H(1)               0.00507      22.67275       8.09020       7.56282
     6  C(13)              0.02916      32.77693      11.69562      10.93321
     7  H(1)              -0.00089      -3.96265      -1.41397      -1.32180
     8  H(1)               0.00507      22.67270       8.09018       7.56280

 Normal termination of Gaussian 16 at Tue Apr  8 23:56:22 2025.
