 Gaussian 16, Revision C.01,

 ----------------------------------------------------------------------
 #t hf aug-cc-pvdz symm=none int=(grid=ultrafine) guess=(read,tcheck) s
 table=(opt,rrhf)
 ----------------------------------------------------------------------
 -----
 title
 -----
 Symbolic Z-matrix:
 Charge =  0 Multiplicity = 1

 SCF Done:  E(RHF) =  -556.654562836     A.U. after   13 cycles
 Normal termination of Gaussian 16 at Wed Apr  9 00:43:56 2025.
 Gaussian 16:  ES64L-G16RevC.01  3-Jul-2019

 ----------------------------------------------------------------------
 #t hf aug-cc-pvdz iop(5/13=1,5/36=2,99/5=2) pseudo=read geom=check gue
 ss=(read,tcheck) scf=(maxcycle=1)
 ----------------------------------------------------------------------
 -----
 title
 -----
 Structure from the checkpoint file:  "BDE49_nonexpt_747_mol1.chk"
 Charge =  0 Multiplicity = 1

                         Standard orientation:
 ---------------------------------------------------------------------
 Center     Atomic      Atomic             Coordinates (Angstroms)
 Number     Number       Type             X           Y           Z
 ---------------------------------------------------------------------
      1         15           0       -0.838613   -0.788495   -0.267166
      2          5           0        0.896255    0.061773   -0.017414
      3          8           0        1.966527   -0.748092    0.202562
      4          8           0        1.111781    1.410236   -0.129694
      5          6           0       -2.004900    0.582328    0.258923
      6          1           0       -1.715085    1.089010    1.181351
      7          1           0       -3.004747    0.165190    0.391624
      8          1           0       -2.076601    1.317901   -0.547568
      9          1           0        0.314007    1.927094   -0.266183
     10          1           0        2.791431   -0.250126    0.254745
     11          1           0       -0.808148   -1.521632    0.944101
 ---------------------------------------------------------------------

 SCF Done:  E(RHF) =  -557.781193403     A.U. after    2 cycles

 The electronic state is 1-A.
 Alpha  occ. eigenvalues -- -105.15858 -21.07092 -21.05846 -11.37885  -7.64909
 Alpha  occ. eigenvalues --   -2.73423  -1.81973  -1.66099  -1.46281  -1.44333
 Alpha  occ. eigenvalues --   -1.41636  -1.01329  -0.76473  -0.68646  -0.61884
 Alpha  occ. eigenvalues --   -0.57138  -0.56780  -0.50260  -0.48832  -0.42656
 Alpha  occ. eigenvalues --   -0.37030  -0.23447  -0.15854  -0.01756
 Alpha virt. eigenvalues --    0.03237   0.04728   0.05380   0.06037   0.07448
 Alpha virt. eigenvalues --    0.07731   0.08112   0.09089   0.09612   0.10719
 Alpha virt. eigenvalues --    0.11477   0.12618   0.14343   0.16674   0.16928

 Mulliken charges:
               1
     1  P    2.044395
     2  B    4.795679
     3  O   -3.559240
     4  O   -3.551560
     5  C   -5.406180
     6  H    1.277280
     7  H    1.284824
     8  H    1.200767
     9  H    1.628763
    10  H    1.211588
    11  H   -0.926316
 Sum of Mulliken charges =  -0.00000

 Dipole moment (field-independent basis, Debye):
    X=             -1.3685    Y=             -0.1970    Z=             -1.3254  Tot=              1.9153

 Test job not archived.
 1\1\GINC-SE072\SP\RHF\Aug-CC-pVDZ\C1H6B1O2P1\OHZDE\09-Apr-2025\0\\#t h
 f aug-cc-pvdz iop(5/13=1,5/36=2,99/5=2) pseudo=read geom=check guess=(
 read,tcheck) scf=(maxcycle=1)\\title\\0,1\P,0,-0.838613,-0.788495,-0.2
 67166\B,0,0.896255,0.061773,-0.017414\O,0,1.966527,-0.748092,0.202562\
 O,0,1.111781,1.410236,-0.129694\C,0,-2.0049,0.582329,0.258923\H,0,-1.7
 15085,1.089011,1.181351\H,0,-3.004747,0.165191,0.391624\H,0,-2.076601,
 1.317902,-0.547568\H,0,0.314008,1.927094,-0.266183\H,0,2.791431,-0.250
 127,0.254745\H,0,-0.808148,-1.521632,0.944101\\Version=ES64L-G16RevC.0

 Normal termination of Gaussian 16 at Wed Apr  9 00:43:59 2025.
