 Gaussian 16, Revision C.01,

 ----------------------------------------------------------------------
 #t hf aug-cc-pvdz symm=none int=(grid=ultrafine) guess=(read,tcheck) s
 table=(opt,rrhf)
 ----------------------------------------------------------------------
 -----
 title
 -----
 Symbolic Z-matrix:
 Charge =  0 Multiplicity = 1

 SCF Done:  E(RHF) =  -475.607691446     A.U. after   12 cycles
 Normal termination of Gaussian 16 at Tue Apr  8 23:36:10 2025.
 Gaussian 16:  ES64L-G16RevC.01  3-Jul-2019

 ----------------------------------------------------------------------
 #t hf aug-cc-pvdz iop(5/13=1,5/36=2,99/5=2) pseudo=read geom=check gue
 ss=(read,tcheck) scf=(maxcycle=1)
 ----------------------------------------------------------------------
 -----
 title
 -----
 Structure from the checkpoint file:  "BDE49_nonexpt_1502_mol1.chk"
 Charge =  0 Multiplicity = 1

                         Standard orientation:
 ---------------------------------------------------------------------
 Center     Atomic      Atomic             Coordinates (Angstroms)
 Number     Number       Type             X           Y           Z
 ---------------------------------------------------------------------
      1          7           0        0.514358    1.476801    0.295091
      2         15           0        0.019090    0.076247   -0.563275
      3          6           0       -1.583450   -0.410064    0.244795
      4          1           0       -2.357576    0.315366   -0.016941
      5          1           0       -1.502743   -0.464030    1.336418
      6          6           0        1.117508   -1.176684    0.238935
      7          1           0       -1.901750   -1.388102   -0.128596
      8          1           0        0.847252   -2.176835   -0.110842
      9          1           0        2.151792   -0.979090   -0.048232
     10          1           0        1.043915   -1.155931    1.331598
     11          1           0        0.316002    1.537897    1.288053
     12          1           0        0.311913    2.349906   -0.170348
 ---------------------------------------------------------------------

 SCF Done:  E(RHF) =  -476.499117452     A.U. after    2 cycles

 The electronic state is 1-A.
 Alpha  occ. eigenvalues -- -105.16571 -15.73242 -11.36042 -11.35868  -2.75749
 Alpha  occ. eigenvalues --   -1.53904  -1.46807  -1.44971  -1.17374  -1.01282
 Alpha  occ. eigenvalues --   -0.96045  -0.66096  -0.63948  -0.57060  -0.56017
 Alpha  occ. eigenvalues --   -0.55134  -0.54020  -0.40143  -0.25793  -0.20274
 Alpha  occ. eigenvalues --   -0.01206
 Alpha virt. eigenvalues --    0.05336   0.05607   0.05920   0.06300   0.07103
 Alpha virt. eigenvalues --    0.07454   0.07551   0.07602   0.10416   0.11939
 Alpha virt. eigenvalues --    0.12109   0.14124   0.17057   0.17453   0.17556

 Mulliken charges:
               1
     1  N   -2.707585
     2  P    7.723896
     3  C   -5.846786
     4  H    1.007665
     5  H    0.859347
     6  C   -5.944819
     7  H    1.039153
     8  H    1.091037
     9  H    1.025208
    10  H    0.914080
    11  H    0.322151
    12  H    0.516651
 Sum of Mulliken charges =   0.00000

 Dipole moment (field-independent basis, Debye):
    X=              0.5633    Y=              2.0823    Z=             -2.2506  Tot=              3.1175

 Test job not archived.
 1\1\GINC-SE070\SP\RHF\Aug-CC-pVDZ\C2H8N1P1\OHZDE\08-Apr-2025\0\\#t hf
 aug-cc-pvdz iop(5/13=1,5/36=2,99/5=2) pseudo=read geom=check guess=(re
 ad,tcheck) scf=(maxcycle=1)\\title\\0,1\N,0,0.514353,1.476802,0.295091
 \P,0,0.019089,0.076247,-0.563275\C,0,-1.583449,-0.410069,0.244795\H,0,
 -2.357577,0.315359,-0.016941\H,0,-1.502742,-0.464035,1.336418\C,0,1.11
 7511,-1.176681,0.238935\H,0,-1.901746,-1.388108,-0.128596\H,0,0.847258
 ,-2.176833,-0.110842\H,0,2.151795,-0.979084,-0.048232\H,0,1.043918,-1.
 155928,1.331598\H,0,0.315997,1.537898,1.288053\H,0,0.311906,2.349907,-

 Normal termination of Gaussian 16 at Tue Apr  8 23:36:13 2025.
