 Gaussian 16, Revision C.01,

 ----------------------------------------------------------------------
 #t hf aug-cc-pvdz symm=none int=(grid=ultrafine) guess=(read,tcheck) s
 table=opt
 ----------------------------------------------------------------------
 -----
 title
 -----
 Symbolic Z-matrix:
 Charge =  0 Multiplicity = 2

 SCF Done:  E(UHF) =  -2522.82844911     A.U. after   24 cycles

 1\1\GINC-SE009\Stability\UHF\Aug-CC-pVDZ\C2Cl5O2\OHZDE\08-Apr-2025\0\\
 #t hf aug-cc-pvdz symm=none int=(grid=ultrafine) guess=(read,tcheck) s
 table=opt\\title\\0,2\C,0,0.772984,-0.188849,-0.093014\O,0,1.24624,0.4
 57594,-1.325254\O,0,1.63876,1.702688,-1.179495\C,0,-0.782427,0.076482,
 0.044961\Cl,0,1.105892,-1.905858,-0.388978\Cl,0,-1.08146,1.82247,0.271
 794\Cl,0,-1.608861,-0.45889,-1.448115\Cl,0,-1.432329,-0.825301,1.44471
 \Cl,0,1.662444,0.390634,1.316254\\Version=ES64L-G16RevC.01\HF=-2522.82
 84491\S2=0.761924\S2-1=0.\S2A=0.750108\RMSD=7.682e-09\Dipole=-0.083358

 Normal termination of Gaussian 16 at Tue Apr  8 23:12:35 2025.
 Gaussian 16:  ES64L-G16RevC.01  3-Jul-2019

 ----------------------------------------------------------------------
 #t hf aug-cc-pvdz iop(5/13=1,5/36=2,99/5=2) pseudo=read geom=check gue
 ss=(read,tcheck) scf=(maxcycle=1)
 ----------------------------------------------------------------------
 -----
 title
 -----
 Structure from the checkpoint file:  "BDE49_expt_627_mol2.chk"
 Charge =  0 Multiplicity = 2

                         Standard orientation:
 ---------------------------------------------------------------------
 Center     Atomic      Atomic             Coordinates (Angstroms)
 Number     Number       Type             X           Y           Z
 ---------------------------------------------------------------------
      1          6           0        0.772984   -0.188849   -0.093014
      2          8           0        1.246240    0.457594   -1.325254
      3          8           0        1.638760    1.702688   -1.179495
      4          6           0       -0.782427    0.076482    0.044961
      5         17           0        1.105891   -1.905858   -0.388978
      6         17           0       -1.081460    1.822470    0.271794
      7         17           0       -1.608861   -0.458890   -1.448115
      8         17           0       -1.432329   -0.825301    1.444710
      9         17           0        1.662444    0.390634    1.316254
 ---------------------------------------------------------------------

 SCF Done:  E(UHF) =  -2524.98477200     A.U. after    2 cycles

 The electronic state is 2-A.
 Alpha  occ. eigenvalues --  -99.93450 -99.93314 -99.93284 -99.93264 -99.93090
 Alpha  occ. eigenvalues --  -21.19013 -21.17971 -11.61807 -11.57090 -10.50954
 Alpha  occ. eigenvalues --  -10.50796 -10.50722 -10.50556 -10.50402  -9.70878
 Alpha  occ. eigenvalues --   -9.70671  -9.70589  -9.70529  -9.70288  -9.69964
 Alpha  occ. eigenvalues --   -9.69948  -9.69824  -9.69798  -9.69738  -9.69710
 Alpha  occ. eigenvalues --   -9.69657  -9.69619  -9.69491  -9.69417  -2.10133
 Alpha  occ. eigenvalues --   -1.52502  -1.43800  -1.35798  -1.33008  -1.32546
 Alpha  occ. eigenvalues --   -1.32291  -1.07950  -0.91593  -0.77960  -0.77057
 Alpha  occ. eigenvalues --   -0.74827  -0.69440  -0.67884  -0.62864  -0.58479
 Alpha  occ. eigenvalues --   -0.57729  -0.57482  -0.57073  -0.54382  -0.53652
 Alpha  occ. eigenvalues --   -0.52973  -0.52237  -0.51074  -0.50669  -0.50018
 Alpha  occ. eigenvalues --   -0.37881  -0.34342
 Alpha virt. eigenvalues --   -0.00679   0.02361   0.03874   0.05297   0.05550
 Alpha virt. eigenvalues --    0.06725   0.09011   0.09585   0.09964   0.11441
 Alpha virt. eigenvalues --    0.11819   0.13343   0.13835   0.14354   0.14705

  Beta  occ. eigenvalues --  -99.93448 -99.93315 -99.93280 -99.93263 -99.93090
  Beta  occ. eigenvalues --  -21.17377 -21.15051 -11.61840 -11.57114 -10.50953
  Beta  occ. eigenvalues --  -10.50792 -10.50723 -10.50553 -10.50401  -9.70865
  Beta  occ. eigenvalues --   -9.70667  -9.70587  -9.70525  -9.70288  -9.69966
  Beta  occ. eigenvalues --   -9.69949  -9.69823  -9.69789  -9.69737  -9.69709
  Beta  occ. eigenvalues --   -9.69656  -9.69616  -9.69489  -9.69417  -2.04974
  Beta  occ. eigenvalues --   -1.51005  -1.41727  -1.33583  -1.32629  -1.32482
  Beta  occ. eigenvalues --   -1.29752  -1.07391  -0.91281  -0.77415  -0.76965
  Beta  occ. eigenvalues --   -0.74480  -0.69213  -0.67469  -0.58338  -0.57694
  Beta  occ. eigenvalues --   -0.57411  -0.56960  -0.55247  -0.54086  -0.53027
  Beta  occ. eigenvalues --   -0.52375  -0.50779  -0.50370  -0.49480  -0.46156
  Beta  occ. eigenvalues --   -0.35646
  Beta virt. eigenvalues --   -0.00829   0.02051   0.03868   0.05307   0.05451
  Beta virt. eigenvalues --    0.06751   0.08768   0.09584   0.09632   0.10599
  Beta virt. eigenvalues --    0.11856   0.12316   0.13885   0.13975   0.14497

 Mulliken charges and spin densities:
               1          2
     1  C    1.929659  -0.033045
     2  O   -1.126117   0.089363
     3  O   -0.371490   0.919210
     4  C   -1.063109   0.020922
     5  Cl   0.028189   0.003718
     6  Cl   0.218280  -0.006845
     7  Cl   0.165367   0.001360
     8  Cl   0.068283   0.005532
     9  Cl   0.150938  -0.000214
 Sum of Mulliken charges =  -0.00000   1.00000

 Dipole moment (field-independent basis, Debye):
    X=              0.6100    Y=              1.0198    Z=             -0.8973  Tot=              1.4890
                          Isotropic Fermi Contact Couplings
        Atom                 a.u.       MegaHertz       Gauss      10(-4) cm-1
     1  C(13)             -0.01410     -15.85633      -5.65793      -5.28910
     2  O(17)              0.05375     -32.58432     -11.62689     -10.86896
     3  O(17)              0.19925    -120.78519     -43.09916     -40.28960
     4  C(13)              0.01178      13.24703       4.72687       4.41873
     5  Cl(35)             0.00564       2.47337       0.88256       0.82503
     6  Cl(35)             0.00376       1.64916       0.58846       0.55010
     7  Cl(35)             0.00317       1.39086       0.49629       0.46394
     8  Cl(35)             0.00137       0.59962       0.21396       0.20001

 Normal termination of Gaussian 16 at Tue Apr  8 23:12:42 2025.
