 Gaussian 16, Revision C.01,

 ----------------------------------------------------------------------
 #t hf aug-cc-pvdz symm=none int=(grid=ultrafine) guess=(read,tcheck) s
 table=opt
 ----------------------------------------------------------------------
 -----
 title
 -----
 Symbolic Z-matrix:
 Charge =  0 Multiplicity = 2

 SCF Done:  E(UHF) =  -119.921053524     A.U. after   15 cycles
 Normal termination of Gaussian 16 at Wed Apr  9 00:27:40 2025.
 Gaussian 16:  ES64L-G16RevC.01  3-Jul-2019

 ----------------------------------------------------------------------
 #t hf aug-cc-pvdz iop(5/13=1,5/36=2,99/5=2) pseudo=read geom=check gue
 ss=(read,tcheck) scf=(maxcycle=1)
 ----------------------------------------------------------------------
 -----
 title
 -----
 Structure from the checkpoint file:  "BDE49_nonexpt_284_mol2.chk"
 Charge =  0 Multiplicity = 2

                         Standard orientation:
 ---------------------------------------------------------------------
 Center     Atomic      Atomic             Coordinates (Angstroms)
 Number     Number       Type             X           Y           Z
 ---------------------------------------------------------------------
      1          5           0        0.087379   -0.549005    0.000006
      2          7           0        1.305949    0.102901   -0.000009
      3          6           0       -1.338035    0.092888    0.000007
      4          1           0       -1.318533    1.193467   -0.000016
      5          1           0       -1.910725   -0.232091    0.874967
      6          1           0       -1.910746   -0.232127   -0.874925
      7          1           0        2.192497   -0.376935   -0.000008
      8          1           0        1.397182    1.115068   -0.000023
 ---------------------------------------------------------------------

 SCF Done:  E(UHF) =  -120.481100030     A.U. after    2 cycles

 The electronic state is 2-A.
 Alpha  occ. eigenvalues --  -15.72682 -11.32876  -7.60469  -1.32068  -1.04875
 Alpha  occ. eigenvalues --   -0.73035  -0.67530  -0.56072  -0.54447  -0.46868
 Alpha  occ. eigenvalues --   -0.40745  -0.27901
 Alpha virt. eigenvalues --    0.03544   0.03748   0.04565   0.04684   0.08147
 Alpha virt. eigenvalues --    0.09018   0.09049   0.09569   0.11827   0.16481
 Alpha virt. eigenvalues --    0.16571   0.16954   0.17296   0.17578   0.21765

  Beta  occ. eigenvalues --  -15.72845 -11.32789  -7.58705  -1.31351  -1.04094
  Beta  occ. eigenvalues --   -0.70511  -0.66059  -0.54220  -0.54186  -0.45582
  Beta  occ. eigenvalues --   -0.41384
  Beta virt. eigenvalues --    0.02863   0.03831   0.04312   0.04761   0.08121
  Beta virt. eigenvalues --    0.08608   0.09076   0.09592   0.09798   0.14904
  Beta virt. eigenvalues --    0.17083   0.17311   0.17518   0.19012   0.19495

 Mulliken charges and spin densities:
               1          2
     1  B    1.818994   1.095601
     2  N   -2.612047  -0.127123
     3  C   -4.962641  -0.068221
     4  H    1.121145   0.019869
     5  H    1.461505   0.009481
     6  H    1.461509   0.009482
     7  H    1.023247   0.039769
     8  H    0.688287   0.021143
 Sum of Mulliken charges =  -0.00000   1.00000

 Dipole moment (field-independent basis, Debye):
    X=              0.9507    Y=              1.3305    Z=             -0.0000  Tot=              1.6353
                          Isotropic Fermi Contact Couplings
        Atom                 a.u.       MegaHertz       Gauss      10(-4) cm-1
     1  B(11)              0.20031     287.32213     102.52368      95.84035
     2  N(14)              0.03391      10.95629       3.90948       3.65462
     3  C(13)              0.04027      45.27627      16.15570      15.10254
     4  H(1)               0.00955      42.69750      15.23553      14.24235
     5  H(1)               0.00104       4.62668       1.65091       1.54329
     6  H(1)               0.00104       4.62709       1.65106       1.54343
     7  H(1)               0.00596      26.63062       9.50247       8.88302
     8  H(1)               0.01366      61.06067      21.78797      20.36765

 Normal termination of Gaussian 16 at Wed Apr  9 00:27:42 2025.
