 Gaussian 16, Revision C.01,

 ----------------------------------------------------------------------
 #t hf aug-cc-pvdz symm=none int=(grid=ultrafine) guess=(read,tcheck) s
 table=(opt,rrhf)
 ----------------------------------------------------------------------
 -----
 title
 -----
 Symbolic Z-matrix:
 Charge =  0 Multiplicity = 1

 SCF Done:  E(RHF) =  -649.179768031     A.U. after   16 cycles
 Normal termination of Gaussian 16 at Tue Apr  8 23:20:53 2025.
 Gaussian 16:  ES64L-G16RevC.01  3-Jul-2019

 ----------------------------------------------------------------------
 #t hf aug-cc-pvdz iop(5/13=1,5/36=2,99/5=2) pseudo=read geom=check gue
 ss=(read,tcheck) scf=(maxcycle=1)
 ----------------------------------------------------------------------
 -----
 title
 -----
 Structure from the checkpoint file:  "BDE49_nonexpt_1146_mol1.chk"
 Charge =  0 Multiplicity = 1

                         Standard orientation:
 ---------------------------------------------------------------------
 Center     Atomic      Atomic             Coordinates (Angstroms)
 Number     Number       Type             X           Y           Z
 ---------------------------------------------------------------------
      1          9           0       -2.099738   -0.508945    0.000006
      2          8           0       -0.622479   -0.899655    0.000008
      3          6           0        0.155242    0.180299    0.000010
      4         16           0        1.727767   -0.255211   -0.000012
      5          6           0       -0.466069    1.533801    0.000003
      6          1           0       -1.107958    1.643131    0.877868
      7          1           0       -1.107970    1.643117   -0.877855
      8          1           0        0.314099    2.290279   -0.000009
 ---------------------------------------------------------------------

 SCF Done:  E(RHF) =  -650.421869774     A.U. after    2 cycles

 The electronic state is 1-A.
 Alpha  occ. eigenvalues --  -75.68704 -29.31931 -21.23225 -13.17280 -13.02668
 Alpha  occ. eigenvalues --  -12.99522 -11.54978 -11.42579  -8.02950  -1.86784
 Alpha  occ. eigenvalues --   -1.21858  -1.09582  -0.84373  -0.71660  -0.65369
 Alpha  occ. eigenvalues --   -0.65043  -0.54503  -0.52666  -0.50891  -0.36036
 Alpha  occ. eigenvalues --   -0.35555  -0.29575  -0.24435  -0.23392
 Alpha virt. eigenvalues --    0.03060   0.05835   0.05955   0.07076   0.08111
 Alpha virt. eigenvalues --    0.08935   0.11926   0.13255   0.14007   0.15385
 Alpha virt. eigenvalues --    0.15674   0.15876   0.18101   0.19203   0.19885

 Mulliken charges:
               1
     1  F   -0.111620
     2  O   -1.631275
     3  C    0.701644
     4  S    0.935260
     5  C   -3.621656
     6  H    1.167458
     7  H    1.167446
     8  H    1.392743
 Sum of Mulliken charges =  -0.00000

 Dipole moment (field-independent basis, Debye):
    X=             -1.2378    Y=              0.6401    Z=             -0.0000  Tot=              1.3935

 Test job not archived.
 1\1\GINC-SE455\SP\RHF\Aug-CC-pVDZ\C2H3F1O1S1\OHZDE\08-Apr-2025\0\\#t h
 f aug-cc-pvdz iop(5/13=1,5/36=2,99/5=2) pseudo=read geom=check guess=(
 read,tcheck) scf=(maxcycle=1)\\title\\0,1\F,0,-2.099738,-0.508946,0.00
 0006\O,0,-0.622479,-0.899655,0.000008\C,0,0.155242,0.180299,0.00001\S,
 0,1.727767,-0.255211,-0.000012\C,0,-0.466069,1.533801,0.000003\H,0,-1.
 107958,1.643131,0.877868\H,0,-1.10797,1.643117,-0.877855\H,0,0.314099,
 2.290279,-0.000009\\Version=ES64L-G16RevC.01\State=1-A\HF=-650.4218698
 \RMSD=2.090e-01\Dipole=-0.4869916,0.2518415,-0.0000163\Quadrupole=2.71

 Normal termination of Gaussian 16 at Tue Apr  8 23:20:55 2025.
