 Gaussian 16, Revision C.01,

 ----------------------------------------------------------------------
 #t hf aug-cc-pvdz symm=none int=(grid=ultrafine) guess=(read,tcheck) s
 table=opt
 ----------------------------------------------------------------------
 -----
 title
 -----
 Symbolic Z-matrix:
 Charge =  0 Multiplicity = 2

 SCF Done:  E(UHF) =  -1125.72474982     A.U. after   18 cycles
 Normal termination of Gaussian 16 at Tue Apr  8 23:53:36 2025.
 Gaussian 16:  ES64L-G16RevC.01  3-Jul-2019

 ----------------------------------------------------------------------
 #t hf aug-cc-pvdz iop(5/13=1,5/36=2,99/5=2) pseudo=read geom=check gue
 ss=(read,tcheck) scf=(maxcycle=1)
 ----------------------------------------------------------------------
 -----
 title
 -----
 Structure from the checkpoint file:  "BDE49_nonexpt_191_mol2.chk"
 Charge =  0 Multiplicity = 2

                         Standard orientation:
 ---------------------------------------------------------------------
 Center     Atomic      Atomic             Coordinates (Angstroms)
 Number     Number       Type             X           Y           Z
 ---------------------------------------------------------------------
      1         17           0        3.053682    0.066380    0.000079
      2          5           0        1.401377   -0.515072   -0.048414
      3         15           0       -1.230198   -0.045278   -0.113925
      4          8           0       -1.666957   -0.855097   -1.237738
      5          8           0       -1.450431   -0.679094    1.335273
      6          1           0       -1.985248   -1.481386    1.296594
      7          8           0       -1.861127    1.403703   -0.054003
      8          1           0       -1.476722    1.988561    0.610447
      9          8           0        0.352947    0.332851   -0.038212
 ---------------------------------------------------------------------

 SCF Done:  E(UHF) =  -1127.46950062     A.U. after    2 cycles

 The electronic state is 2-A.
 Alpha  occ. eigenvalues -- -105.35577 -99.91000 -21.14184 -21.14115 -21.10017
 Alpha  occ. eigenvalues --  -21.04842 -10.48274  -9.68332  -9.67717  -9.67563
 Alpha  occ. eigenvalues --   -7.73514  -2.98875  -2.04440  -1.95656  -1.94136
 Alpha  occ. eigenvalues --   -1.78529  -1.48404  -1.43053  -1.34206  -1.27109
 Alpha  occ. eigenvalues --   -0.79482  -0.71109  -0.63358  -0.62504  -0.58489
 Alpha  occ. eigenvalues --   -0.57877  -0.54311  -0.51248  -0.47270  -0.41450
 Alpha  occ. eigenvalues --   -0.41102  -0.38293  -0.35391  -0.30858  -0.30001
 Alpha  occ. eigenvalues --   -0.18031
 Alpha virt. eigenvalues --    0.03097   0.04326   0.04584   0.04852   0.06270
 Alpha virt. eigenvalues --    0.08093   0.09967   0.10631   0.12048   0.13061
 Alpha virt. eigenvalues --    0.13647   0.14917   0.16815   0.17621   0.19142

  Beta  occ. eigenvalues -- -105.35572 -99.90878 -21.14188 -21.14117 -21.09789
  Beta  occ. eigenvalues --  -21.04850 -10.48131  -9.67992  -9.67546  -9.67472
  Beta  occ. eigenvalues --   -7.71344  -2.98861  -2.04389  -1.95635  -1.93794
  Beta  occ. eigenvalues --   -1.78373  -1.47927  -1.43050  -1.33136  -1.27048
  Beta  occ. eigenvalues --   -0.77707  -0.69099  -0.62936  -0.61154  -0.57463
  Beta  occ. eigenvalues --   -0.54781  -0.53646  -0.51121  -0.47170  -0.41268
  Beta  occ. eigenvalues --   -0.40417  -0.37536  -0.32780  -0.30418  -0.18135
  Beta virt. eigenvalues --    0.01893   0.03676   0.04457   0.05025   0.06269
  Beta virt. eigenvalues --    0.06399   0.10423   0.10899   0.11491   0.12546
  Beta virt. eigenvalues --    0.13425   0.14000   0.15090   0.17103   0.17813

 Mulliken charges and spin densities:
               1          2
     1  Cl  -1.032499   0.106570
     2  B    1.825062   1.128605
     3  P    8.798240   0.039829
     4  O   -2.766465   0.024471
     5  O   -2.628526  -0.012039
     6  H    0.884939   0.004356
     7  O   -2.810281  -0.001722
     8  H    0.927562  -0.001557
     9  O   -3.198031  -0.288512
 Sum of Mulliken charges =   0.00000   1.00000

 Dipole moment (field-independent basis, Debye):
    X=             -1.0515    Y=              1.8534    Z=              2.9032  Tot=              3.6013
                          Isotropic Fermi Contact Couplings
        Atom                 a.u.       MegaHertz       Gauss      10(-4) cm-1
     1  Cl(35)             0.21622      94.80548      33.82895      31.62370
     2  B(11)              0.38129     546.91404     195.15253     182.43089
     3  P(31)              0.01389      25.14730       8.97318       8.38824
     4  O(17)             -0.00186       1.12613       0.40183       0.37564
     5  O(17)             -0.00066       0.40147       0.14325       0.13392
     6  H(1)              -0.00002      -0.07274      -0.02595      -0.02426
     7  O(17)             -0.00007       0.04317       0.01540       0.01440
     8  H(1)               0.00002       0.10932       0.03901       0.03646

 1\1\GINC-SE105\SP\UHF\Aug-CC-pVDZ\B1Cl1H2O4P1(2)\OHZDE\08-Apr-2025\0\\
 #t hf aug-cc-pvdz iop(5/13=1,5/36=2,99/5=2) pseudo=read geom=check gue
 ss=(read,tcheck) scf=(maxcycle=1)\\title\\0,2\Cl,0,3.053682,0.06638,0.
 000079\B,0,1.401377,-0.515072,-0.048414\P,0,-1.230198,-0.045278,-0.113
 925\O,0,-1.666957,-0.855097,-1.237738\O,0,-1.450431,-0.679094,1.335273
 \H,0,-1.985248,-1.481386,1.296594\O,0,-1.861127,1.403703,-0.054003\H,0
 ,-1.476722,1.988561,0.610447\O,0,0.352947,0.332851,-0.038212\\Version=
 ES64L-G16RevC.01\State=2-A\HF=-1127.4695006\S2=0.756341\S2-1=0.\S2A=0.

 Normal termination of Gaussian 16 at Tue Apr  8 23:53:40 2025.
