 Gaussian 16, Revision C.01,

 ----------------------------------------------------------------------
 #t hf aug-cc-pvdz symm=none int=(grid=ultrafine) guess=(read,tcheck) s
 table=(opt,rrhf)
 ----------------------------------------------------------------------
 -----
 title
 -----
 Symbolic Z-matrix:
 Charge =  0 Multiplicity = 1

 SCF Done:  E(RHF) =  -948.194553166     A.U. after   17 cycles
 Normal termination of Gaussian 16 at Tue Apr  8 23:10:09 2025.
 Gaussian 16:  ES64L-G16RevC.01  3-Jul-2019

 ----------------------------------------------------------------------
 #t hf aug-cc-pvdz iop(5/13=1,5/36=2,99/5=2) pseudo=read geom=check gue
 ss=(read,tcheck) scf=(maxcycle=1)
 ----------------------------------------------------------------------
 -----
 title
 -----
 Structure from the checkpoint file:  "BDE49_expt_478_mol1.chk"
 Charge =  0 Multiplicity = 1

                         Standard orientation:
 ---------------------------------------------------------------------
 Center     Atomic      Atomic             Coordinates (Angstroms)
 Number     Number       Type             X           Y           Z
 ---------------------------------------------------------------------
      1          6           0        1.481524    1.446382   -0.000034
      2          6           0        0.223425    2.004382   -0.000009
      3          6           0       -0.954755    1.214784    0.000089
      4          6           0        1.630772    0.052603    0.000035
      5          6           0        0.521027   -0.759344    0.000131
      6          6           0       -0.761106   -0.192680    0.000168
      7          1           0        0.117493    3.083561   -0.000068
      8          7           0       -2.165149    1.821217    0.000091
      9          1           0       -2.220167    2.824449    0.000098
     10          1           0       -2.997809    1.253059    0.000214
     11          1           0        2.358204    2.081496   -0.000109
     12          1           0        0.604466   -1.835856    0.000189
     13          7           0       -1.882798   -1.123785    0.000280
     14          8           0       -3.032292   -0.661811   -0.000339
     15          8           0       -1.646831   -2.324097   -0.000312
     16         17           0        3.238889   -0.646955    0.000000
 ---------------------------------------------------------------------

 SCF Done:  E(RHF) =  -950.621955962     A.U. after    2 cycles

 The electronic state is 1-A.
 Alpha  occ. eigenvalues --  -99.90372 -21.09691 -21.09159 -16.00509 -15.79081
 Alpha  occ. eigenvalues --  -11.56709 -11.51184 -11.48888 -11.47493 -11.45965
 Alpha  occ. eigenvalues --  -11.41434 -10.47700  -9.67759  -9.66841  -9.66659
 Alpha  occ. eigenvalues --   -2.00047  -1.69311  -1.46146  -1.37247  -1.27270
 Alpha  occ. eigenvalues --   -1.18963  -1.09285  -1.00689  -0.90828  -0.85299
 Alpha  occ. eigenvalues --   -0.75244  -0.73045  -0.71037  -0.68482  -0.65718
 Alpha  occ. eigenvalues --   -0.64559  -0.62385  -0.58789  -0.58785  -0.54469
 Alpha  occ. eigenvalues --   -0.53448  -0.51236  -0.48910  -0.45327  -0.37659
 Alpha  occ. eigenvalues --   -0.36256  -0.32102  -0.31670  -0.29804
 Alpha virt. eigenvalues --    0.02782   0.04235   0.05021   0.06195   0.07052
 Alpha virt. eigenvalues --    0.07539   0.08386   0.09754   0.10466   0.10873
 Alpha virt. eigenvalues --    0.11524   0.11664   0.12790   0.13475   0.13977

 Mulliken charges:
               1
     1  C   -2.340724
     2  C    1.082149
     3  C    0.753592
     4  C   -0.581931
     5  C   -1.131830
     6  C    3.248851
     7  H    1.668335
     8  N   -4.482739
     9  H    0.813505
    10  H    0.844735
    11  H    1.763979
    12  H    1.918552
    13  N    3.310169
    14  O   -3.164382
    15  O   -2.878508
    16  Cl  -0.823754
 Sum of Mulliken charges =  -0.00000

 Dipole moment (field-independent basis, Debye):
    X=             -1.3615    Y=              3.8866    Z=             -0.0002  Tot=              4.1182

 Test job not archived.
 1\1\GINC-SE455\SP\RHF\Aug-CC-pVDZ\C6H5Cl1N2O2\OHZDE\08-Apr-2025\0\\#t
 hf aug-cc-pvdz iop(5/13=1,5/36=2,99/5=2) pseudo=read geom=check guess=
 (read,tcheck) scf=(maxcycle=1)\\title\\0,1\C,0,1.481524,1.446382,-0.00
 0034\C,0,0.223425,2.004382,-0.000009\C,0,-0.954755,1.214784,0.000089\C
 ,0,1.630772,0.052603,0.000035\C,0,0.521027,-0.759344,0.000131\C,0,-0.7
 61106,-0.19268,0.000168\H,0,0.117493,3.083561,-0.000068\N,0,-2.165149,
 1.821217,0.000091\H,0,-2.220167,2.824449,0.000098\H,0,-2.997809,1.2530
 59,0.000214\H,0,2.358204,2.081496,-0.000109\H,0,0.604466,-1.835856,0.0

 Normal termination of Gaussian 16 at Tue Apr  8 23:10:18 2025.
