 Gaussian 16, Revision C.01,

 ----------------------------------------------------------------------
 #t hf aug-cc-pvdz symm=none int=(grid=ultrafine) guess=(read,tcheck) s
 table=(opt,rrhf)
 ----------------------------------------------------------------------
 -----
 title
 -----
 Symbolic Z-matrix:
 Charge =  0 Multiplicity = 1

 SCF Done:  E(RHF) =  -772.400578017     A.U. after   12 cycles
 Normal termination of Gaussian 16 at Tue Apr  8 22:52:23 2025.
 Gaussian 16:  ES64L-G16RevC.01  3-Jul-2019

 ----------------------------------------------------------------------
 #t hf aug-cc-pvdz iop(5/13=1,5/36=2,99/5=2) pseudo=read geom=check gue
 ss=(read,tcheck) scf=(maxcycle=1)
 ----------------------------------------------------------------------
 -----
 title
 -----
 Structure from the checkpoint file:  "BDE49_expt_1668_mol1.chk"
 Charge =  0 Multiplicity = 1

                         Standard orientation:
 ---------------------------------------------------------------------
 Center     Atomic      Atomic             Coordinates (Angstroms)
 Number     Number       Type             X           Y           Z
 ---------------------------------------------------------------------
      1          6           0        2.523090   -0.350406    0.399227
      2          6           0        1.184682   -0.812304   -0.168962
      3          6           0       -0.039480   -0.030691    0.316833
      4          1           0        1.072862   -1.867608    0.114768
      5          1           0        1.238963   -0.789170   -1.263066
      6          6           0        3.688328   -1.252123    0.022301
      7          1           0        3.515045   -2.256974    0.421205
      8          1           0        4.627181   -0.876910    0.431653
      9          1           0        3.789205   -1.324918   -1.062986
     10         17           0        2.898161    1.362599   -0.177174
     11          1           0        2.457974   -0.242514    1.483109
     12          6           0       -1.356728   -0.572025   -0.250866
     13          1           0        0.070977    1.022895    0.042546
     14          1           0       -0.076331   -0.062760    1.413396
     15          6           0       -2.590284    0.200156    0.230019
     16          1           0       -1.464692   -1.630427    0.020222
     17          1           0       -1.316591   -0.541612   -1.347220
     18          6           0       -3.909825   -0.334824   -0.337947
     19          1           0       -2.482969    1.258186   -0.041159
     20          1           0       -2.631578    0.171024    1.326640
     21          6           0       -5.136847    0.442114    0.147655
     22          1           0       -4.016726   -1.392330   -0.067189
     23          1           0       -3.868886   -0.304791   -1.433503
     24          1           0       -5.224964    0.401189    1.237859
     25          1           0       -6.060013    0.036478   -0.275149
     26          1           0       -5.075815    1.496669   -0.138729
 ---------------------------------------------------------------------

 SCF Done:  E(RHF) =  -774.293614796     A.U. after    2 cycles

 The electronic state is 1-A.
 Alpha  occ. eigenvalues --  -99.86296 -11.46886 -11.43126 -11.41993 -11.40577
 Alpha  occ. eigenvalues --  -11.38720 -11.37696 -11.36164 -11.34198 -10.43543
 Alpha  occ. eigenvalues --   -9.63507  -9.62956  -9.62744  -1.34983  -1.25918
 Alpha  occ. eigenvalues --   -1.17948  -1.11295  -1.03355  -0.94818  -0.86779
 Alpha  occ. eigenvalues --   -0.83111  -0.82053  -0.68168  -0.65039  -0.62187
 Alpha  occ. eigenvalues --   -0.61088  -0.59148  -0.57835  -0.55712  -0.54175
 Alpha  occ. eigenvalues --   -0.52161  -0.51079  -0.50028  -0.49020  -0.47035
 Alpha  occ. eigenvalues --   -0.46674  -0.45627  -0.44995  -0.44713  -0.44230
 Alpha  occ. eigenvalues --   -0.38083
 Alpha virt. eigenvalues --    0.04004   0.04488   0.04576   0.05469   0.05530
 Alpha virt. eigenvalues --    0.05826   0.06199   0.06699   0.06901   0.07068
 Alpha virt. eigenvalues --    0.07490   0.07767   0.08871   0.09206   0.09450

 Mulliken charges:
               1
     1  C   -2.829703
     2  C   -2.314863
     3  C   -2.450847
     4  H    1.632553
     5  H    1.573178
     6  C   -4.469315
     7  H    1.300488
     8  H    1.205162
     9  H    1.339826
    10  Cl  -0.001559
    11  H    1.850843
    12  C   -2.290503
    13  H    1.593256
    14  H    1.521161
    15  C   -2.521536
    16  H    1.587422
    17  H    1.620544
    18  C   -3.553156
    19  H    1.572589
    20  H    1.594891
    21  C   -4.715339
    22  H    1.485823
    23  H    1.490026
    24  H    1.342233
    25  H    1.086947
    26  H    1.349880
 Sum of Mulliken charges =  -0.00000

 Dipole moment (field-independent basis, Debye):
    X=             -0.7993    Y=             -2.4947    Z=              0.6475  Tot=              2.6985

 Test job not archived.
 1\1\GINC-SE105\SP\RHF\Aug-CC-pVDZ\C8H17Cl1\OHZDE\08-Apr-2025\0\\#t hf
 aug-cc-pvdz iop(5/13=1,5/36=2,99/5=2) pseudo=read geom=check guess=(re
 ad,tcheck) scf=(maxcycle=1)\\title\\0,1\C,0,2.52309,-0.350406,0.399227
 \C,0,1.184682,-0.812304,-0.168962\C,0,-0.03948,-0.030691,0.316833\H,0,
 1.072862,-1.867608,0.114768\H,0,1.238963,-0.78917,-1.263066\C,0,3.6883
 28,-1.252123,0.022301\H,0,3.515045,-2.256974,0.421205\H,0,4.627181,-0.
 87691,0.431653\H,0,3.789205,-1.324918,-1.062986\Cl,0,2.898161,1.362599
 ,-0.177174\H,0,2.457974,-0.242514,1.483109\C,0,-1.356728,-0.572025,-0.

 Normal termination of Gaussian 16 at Tue Apr  8 22:52:38 2025.
