 Gaussian 16, Revision C.01,

 ----------------------------------------------------------------------
 #t hf aug-cc-pvdz symm=none int=(grid=ultrafine) guess=(read,tcheck) s
 table=(opt,rrhf)
 ----------------------------------------------------------------------
 -----
 title
 -----
 Symbolic Z-matrix:
 Charge =  0 Multiplicity = 1

 SCF Done:  E(RHF) =  -796.371988637     A.U. after   17 cycles
 Normal termination of Gaussian 16 at Tue Apr  8 23:36:31 2025.
 Gaussian 16:  ES64L-G16RevC.01  3-Jul-2019

 ----------------------------------------------------------------------
 #t hf aug-cc-pvdz iop(5/13=1,5/36=2,99/5=2) pseudo=read geom=check gue
 ss=(read,tcheck) scf=(maxcycle=1)
 ----------------------------------------------------------------------
 -----
 title
 -----
 Structure from the checkpoint file:  "BDE49_nonexpt_1486_mol1.chk"
 Charge =  0 Multiplicity = 1

                         Standard orientation:
 ---------------------------------------------------------------------
 Center     Atomic      Atomic             Coordinates (Angstroms)
 Number     Number       Type             X           Y           Z
 ---------------------------------------------------------------------
      1          6           0        1.584295   -1.410750   -0.015340
      2          6           0        2.780385   -0.700838   -0.030655
      3          6           0        2.780385    0.700838   -0.030653
      4          6           0        1.584295    1.410749   -0.015335
      5          6           0        0.384500    0.699658   -0.005144
      6          6           0        0.384500   -0.699659   -0.005147
      7          1           0        1.564508   -2.493930   -0.007312
      8          1           0        1.564507    2.493929   -0.007301
      9          1           0        3.723852   -1.234675   -0.038916
     10          1           0        3.723852    1.234675   -0.038911
     11          6           0       -0.967775   -1.332130    0.035873
     12          6           0       -0.967775    1.332129    0.035889
     13         15           0       -2.289665    0.000001   -0.247373
     14          8           0       -1.175530   -2.511162    0.182091
     15          8           0       -1.175527    2.511164    0.182080
     16          1           0       -2.800147   -0.000005    1.072737
 ---------------------------------------------------------------------

 SCF Done:  E(RHF) =  -798.564402982     A.U. after    2 cycles

 The electronic state is 1-A.
 Alpha  occ. eigenvalues -- -105.20453 -21.08132 -21.08126 -11.54847 -11.51944
 Alpha  occ. eigenvalues --  -11.50992 -11.48001 -11.46742 -11.45162 -11.44334
 Alpha  occ. eigenvalues --  -11.39945  -2.78435  -1.73804  -1.72863  -1.51399
 Alpha  occ. eigenvalues --   -1.48319  -1.46980  -1.37483  -1.16617  -1.13569
 Alpha  occ. eigenvalues --   -0.94856  -0.94742  -0.84112  -0.77325  -0.75678
 Alpha  occ. eigenvalues --   -0.66111  -0.63760  -0.60646  -0.59263  -0.57481
 Alpha  occ. eigenvalues --   -0.55918  -0.49357  -0.49119  -0.48009  -0.47261
 Alpha  occ. eigenvalues --   -0.46522  -0.38696  -0.35397  -0.34419  -0.22462
 Alpha  occ. eigenvalues --   -0.15232  -0.04621
 Alpha virt. eigenvalues --    0.02846   0.04741   0.05020   0.06197   0.06967
 Alpha virt. eigenvalues --    0.06980   0.07415   0.07800   0.08649   0.10618
 Alpha virt. eigenvalues --    0.10915   0.11338   0.12049   0.12239   0.12936

 Mulliken charges:
               1
     1  C   -1.202691
     2  C   -2.435850
     3  C   -2.435850
     4  C   -1.202650
     5  C    2.772829
     6  C    2.772963
     7  H    1.821089
     8  H    1.821089
     9  H    1.533732
    10  H    1.533735
    11  C    0.323688
    12  C    0.323757
    13  P    2.177394
    14  O   -3.704862
    15  O   -3.704899
    16  H   -0.393474
 Sum of Mulliken charges =   0.00000

 Dipole moment (field-independent basis, Debye):
    X=             -0.8961    Y=             -0.0000    Z=             -2.9612  Tot=              3.0938

 Test job not archived.
 1\1\GINC-SE461\SP\RHF\Aug-CC-pVDZ\C8H5O2P1\OHZDE\08-Apr-2025\0\\#t hf
 aug-cc-pvdz iop(5/13=1,5/36=2,99/5=2) pseudo=read geom=check guess=(re
 ad,tcheck) scf=(maxcycle=1)\\title\\0,1\C,0,1.584295,-1.41075,-0.01534
 \C,0,2.780385,-0.700838,-0.030655\C,0,2.780385,0.700838,-0.030653\C,0,
 1.584295,1.410749,-0.015335\C,0,0.3845,0.699658,-0.005144\C,0,0.3845,-
 0.699659,-0.005147\H,0,1.564508,-2.49393,-0.007312\H,0,1.564507,2.4939
 29,-0.007301\H,0,3.723852,-1.234675,-0.038916\H,0,3.723852,1.234675,-0
 .038911\C,0,-0.967775,-1.33213,0.035873\C,0,-0.967775,1.332129,0.03588

 Normal termination of Gaussian 16 at Tue Apr  8 23:36:40 2025.
