 Gaussian 16, Revision C.01,

 ----------------------------------------------------------------------
 #t hf aug-cc-pvdz symm=none int=(grid=ultrafine) guess=(read,tcheck) s
 table=(opt,rrhf)
 ----------------------------------------------------------------------
 -----
 title
 -----
 Symbolic Z-matrix:
 Charge =  0 Multiplicity = 1

 SCF Done:  E(RHF) =  -986.254997243     A.U. after   15 cycles
 Normal termination of Gaussian 16 at Wed Apr  9 00:18:33 2025.
 Gaussian 16:  ES64L-G16RevC.01  3-Jul-2019

 ----------------------------------------------------------------------
 #t hf aug-cc-pvdz iop(5/13=1,5/36=2,99/5=2) pseudo=read geom=check gue
 ss=(read,tcheck) scf=(maxcycle=1)
 ----------------------------------------------------------------------
 -----
 title
 -----
 Structure from the checkpoint file:  "BDE49_nonexpt_2569_mol1.chk"
 Charge =  0 Multiplicity = 1

                         Standard orientation:
 ---------------------------------------------------------------------
 Center     Atomic      Atomic             Coordinates (Angstroms)
 Number     Number       Type             X           Y           Z
 ---------------------------------------------------------------------
      1         17           0       -1.423899   -0.457225    0.000000
      2         16           0        0.000000    1.011261    0.000000
      3          7           0        1.641556    0.059449    0.000000
      4          8           0        1.589424   -1.102937    0.000000
 ---------------------------------------------------------------------

 SCF Done:  E(RHF) =  -987.255318140     A.U. after    2 cycles

 The electronic state is 1-A'.
 Alpha  occ. eigenvalues --  -99.92896 -75.77080 -21.20003 -15.95514 -13.15244
 Alpha  occ. eigenvalues --  -13.11296 -13.07493 -10.50094  -9.69756  -9.69095
 Alpha  occ. eigenvalues --   -9.69017  -8.10817  -1.93918  -1.36543  -1.15270
 Alpha  occ. eigenvalues --   -0.93766  -0.67163  -0.63468  -0.60449  -0.56650
 Alpha  occ. eigenvalues --   -0.55944  -0.52576  -0.28692  -0.27935
 Alpha virt. eigenvalues --    0.03608   0.07195   0.08482   0.09582   0.11979
 Alpha virt. eigenvalues --    0.12179   0.12460   0.13791   0.16683   0.16735
 Alpha virt. eigenvalues --    0.17894   0.18937   0.20573   0.22928   0.25947

 Mulliken charges:
               1
     1  Cl  -0.370822
     2  S    0.895853
     3  N    1.240451
     4  O   -1.765482
 Sum of Mulliken charges =  -0.00000

 Dipole moment (field-independent basis, Debye):
    X=              1.2184    Y=              1.7181    Z=              0.0000  Tot=              2.1062

 Test job not archived.
 1\1\GINC-SE250\SP\RHF\Aug-CC-pVDZ\Cl1N1O1S1\OHZDE\09-Apr-2025\0\\#t hf
  aug-cc-pvdz iop(5/13=1,5/36=2,99/5=2) pseudo=read geom=check guess=(r
 ead,tcheck) scf=(maxcycle=1)\\title\\0,1\Cl,0,-1.423899,-0.457225,0.\S
 ,0,0.,1.011261,0.\N,0,1.641556,0.059449,0.\O,0,1.589424,-1.102937,0.\\
 Version=ES64L-G16RevC.01\State=1-A'\HF=-987.2553181\RMSD=6.359e-02\Dip
 ole=0.4793359,0.6759374,0.\Quadrupole=-1.4032365,2.7968206,-1.3935841,
 -0.0270462,0.,0.\PG=CS [SG(Cl1N1O1S1)]\\@

 Normal termination of Gaussian 16 at Wed Apr  9 00:18:36 2025.
