 Gaussian 16, Revision C.01,

 ----------------------------------------------------------------------
 #t hf aug-cc-pvdz symm=none int=(grid=ultrafine) guess=(read,tcheck) s
 table=(opt,rrhf)
 ----------------------------------------------------------------------
 -----
 title
 -----
 Symbolic Z-matrix:
 Charge =  0 Multiplicity = 1

 SCF Done:  E(RHF) =  -727.846187593     A.U. after   12 cycles
 Normal termination of Gaussian 16 at Tue Apr  8 23:56:20 2025.
 Gaussian 16:  ES64L-G16RevC.01  3-Jul-2019

 ----------------------------------------------------------------------
 #t hf aug-cc-pvdz iop(5/13=1,5/36=2,99/5=2) pseudo=read geom=check gue
 ss=(read,tcheck) scf=(maxcycle=1)
 ----------------------------------------------------------------------
 -----
 title
 -----
 Structure from the checkpoint file:  "BDE49_nonexpt_2008_mol1.chk"
 Charge =  0 Multiplicity = 1

                         Standard orientation:
 ---------------------------------------------------------------------
 Center     Atomic      Atomic             Coordinates (Angstroms)
 Number     Number       Type             X           Y           Z
 ---------------------------------------------------------------------
      1         16           0       -0.553731   -0.741005   -0.000001
      2         14           0        1.366814    0.228117   -0.000000
      3          6           0       -1.666317    0.726530    0.000002
      4          1           0       -2.685269    0.340122    0.000001
      5          1           0       -1.516752    1.331497   -0.894215
      6          1           0       -1.516752    1.331494    0.894220
      7          1           0        2.365920   -0.860698   -0.000002
      8          1           0        1.537528    1.080415    1.200550
      9          1           0        1.537528    1.080419   -1.200547
 ---------------------------------------------------------------------

 SCF Done:  E(RHF) =  -728.453641686     A.U. after    2 cycles

 The electronic state is 1-A.
 Alpha  occ. eigenvalues --  -76.24034 -75.67094 -13.08590 -13.05784 -13.01205
 Alpha  occ. eigenvalues --  -11.40239  -8.01224  -5.57377  -2.19531  -2.19410
 Alpha  occ. eigenvalues --   -2.19129  -1.17776  -0.94213  -0.75860  -0.59194
 Alpha  occ. eigenvalues --   -0.59154  -0.49421  -0.48213  -0.42705  -0.33060
 Alpha  occ. eigenvalues --   -0.25459
 Alpha virt. eigenvalues --    0.02834   0.04020   0.05097   0.05682   0.06802
 Alpha virt. eigenvalues --    0.07887   0.08474   0.09910   0.10309   0.11399
 Alpha virt. eigenvalues --    0.12150   0.14420   0.15286   0.15852   0.15897

 Mulliken charges:
               1
     1  S   -0.813317
     2  Si   6.173066
     3  C   -4.499671
     4  H    1.380533
     5  H    1.383974
     6  H    1.383974
     7  H   -1.653049
     8  H   -1.677755
     9  H   -1.677755
 Sum of Mulliken charges =   0.00000

 Dipole moment (field-independent basis, Debye):
    X=             -1.5243    Y=             -0.6741    Z=             -0.0000  Tot=              1.6667

 Test job not archived.
 1\1\GINC-SE071\SP\RHF\Aug-CC-pVDZ\C1H6S1Si1\OHZDE\08-Apr-2025\0\\#t hf
  aug-cc-pvdz iop(5/13=1,5/36=2,99/5=2) pseudo=read geom=check guess=(r
 ead,tcheck) scf=(maxcycle=1)\\title\\0,1\S,0,-0.553731,-0.741005,-0.00
 0001\Si,0,1.366814,0.228117,0.\C,0,-1.666317,0.72653,0.000002\H,0,-2.6
 85269,0.340122,0.000001\H,0,-1.516752,1.331497,-0.894215\H,0,-1.516752
 ,1.331494,0.89422\H,0,2.36592,-0.860698,-0.000002\H,0,1.537528,1.08041
 5,1.20055\H,0,1.537528,1.080419,-1.200547\\Version=ES64L-G16RevC.01\St
 ate=1-A\HF=-728.4536417\RMSD=9.700e-02\Dipole=-0.5996893,-0.2652154,-0

 Normal termination of Gaussian 16 at Tue Apr  8 23:56:22 2025.
