 Gaussian 16, Revision C.01,

 ----------------------------------------------------------------------
 #t hf aug-cc-pvdz symm=none int=(grid=ultrafine) guess=(read,tcheck) s
 table=(opt,rrhf)
 ----------------------------------------------------------------------
 -----
 title
 -----
 Symbolic Z-matrix:
 Charge =  0 Multiplicity = 1

 SCF Done:  E(RHF) =  -1199.38827604     A.U. after   15 cycles
 Normal termination of Gaussian 16 at Tue Apr  8 23:11:52 2025.
 Gaussian 16:  ES64L-G16RevC.01  3-Jul-2019

 ----------------------------------------------------------------------
 #t hf aug-cc-pvdz iop(5/13=1,5/36=2,99/5=2) pseudo=read geom=check gue
 ss=(read,tcheck) scf=(maxcycle=1)
 ----------------------------------------------------------------------
 -----
 title
 -----
 Structure from the checkpoint file:  "BDE49_expt_645_mol1.chk"
 Charge =  0 Multiplicity = 1

                         Standard orientation:
 ---------------------------------------------------------------------
 Center     Atomic      Atomic             Coordinates (Angstroms)
 Number     Number       Type             X           Y           Z
 ---------------------------------------------------------------------
      1          8           0       -0.517922   -0.157335    1.308962
      2          8           0       -1.948348   -0.046130    1.115770
      3          1           0       -2.194144   -0.982535    1.038933
      4          6           0        0.103401    0.042958    0.083370
      5          6           0       -0.304281    1.279927   -0.582909
      6          7           0       -0.604284    2.262256   -1.102536
      7         17           0        1.838843    0.099448    0.485877
      8         17           0       -0.229457   -1.344322   -1.057748
 ---------------------------------------------------------------------

 SCF Done:  E(RHF) =  -1201.05112755     A.U. after    2 cycles

 The electronic state is 1-A.
 Alpha  occ. eigenvalues --  -99.94397 -99.93832 -21.17718 -21.17310 -15.80452
 Alpha  occ. eigenvalues --  -11.61897 -11.46853 -10.51762 -10.51102  -9.71692
 Alpha  occ. eigenvalues --   -9.70996  -9.70789  -9.70748  -9.70215  -9.70194
 Alpha  occ. eigenvalues --   -2.02225  -1.55142  -1.39137  -1.33092  -1.32651
 Alpha  occ. eigenvalues --   -1.05329  -0.81522  -0.74807  -0.70743  -0.65734
 Alpha  occ. eigenvalues --   -0.59038  -0.58352  -0.56156  -0.53257  -0.52776
 Alpha  occ. eigenvalues --   -0.49685  -0.47532  -0.47292  -0.39762  -0.39382
 Alpha virt. eigenvalues --    0.00997   0.03756   0.04712   0.06891   0.09120
 Alpha virt. eigenvalues --    0.09813   0.11351   0.11797   0.11922   0.13222
 Alpha virt. eigenvalues --    0.13953   0.14318   0.14920   0.16079   0.17363

 Mulliken charges:
               1
     1  O   -1.737447
     2  O   -0.728638
     3  H    0.873603
     4  C    1.078032
     5  C    2.705846
     6  N   -2.393405
     7  Cl   0.075491
     8  Cl   0.126519
 Sum of Mulliken charges =   0.00000

 Dipole moment (field-independent basis, Debye):
    X=             -1.3959    Y=             -1.7020    Z=              2.0901  Tot=              3.0354

 Test job not archived.
 1\1\GINC-SE048\SP\RHF\Aug-CC-pVDZ\C2H1Cl2N1O2\OHZDE\08-Apr-2025\0\\#t
 hf aug-cc-pvdz iop(5/13=1,5/36=2,99/5=2) pseudo=read geom=check guess=
 (read,tcheck) scf=(maxcycle=1)\\title\\0,1\O,0,-0.517922,-0.157335,1.3
 08962\O,0,-1.948348,-0.046131,1.11577\H,0,-2.194144,-0.982536,1.038933
 \C,0,0.103401,0.042958,0.08337\C,0,-0.304281,1.279927,-0.582909\N,0,-0
 .604285,2.262256,-1.102536\Cl,0,1.838843,0.099449,0.485877\Cl,0,-0.229
 456,-1.344322,-1.057748\\Version=ES64L-G16RevC.01\State=1-A\HF=-1201.0
 511275\RMSD=1.557e-01\Dipole=-0.5491701,-0.6696359,0.8223159\Quadrupol

 Normal termination of Gaussian 16 at Tue Apr  8 23:11:55 2025.
