 Gaussian 16, Revision C.01,

 ----------------------------------------------------------------------
 #t hf aug-cc-pvdz symm=none int=(grid=ultrafine) guess=(read,tcheck) s
 table=(opt,rrhf)
 ----------------------------------------------------------------------
 -----
 title
 -----
 Symbolic Z-matrix:
 Charge =  0 Multiplicity = 1

 SCF Done:  E(RHF) =  -952.346975646     A.U. after   13 cycles
 Normal termination of Gaussian 16 at Tue Apr  8 23:58:32 2025.
 Gaussian 16:  ES64L-G16RevC.01  3-Jul-2019

 ----------------------------------------------------------------------
 #t hf aug-cc-pvdz iop(5/13=1,5/36=2,99/5=2) pseudo=read geom=check gue
 ss=(read,tcheck) scf=(maxcycle=1)
 ----------------------------------------------------------------------
 -----
 title
 -----
 Structure from the checkpoint file:  "BDE49_nonexpt_2058_mol1.chk"
 Charge =  0 Multiplicity = 1

                         Standard orientation:
 ---------------------------------------------------------------------
 Center     Atomic      Atomic             Coordinates (Angstroms)
 Number     Number       Type             X           Y           Z
 ---------------------------------------------------------------------
      1         14           0        1.961832   -0.568758   -0.000007
      2         16           0       -0.037676    0.429637    0.000003
      3          8           0       -0.265384    1.126393   -1.248733
      4          8           0       -0.918762   -0.953340   -0.000003
      5          6           0       -2.359958   -0.796069   -0.000001
      6          1           0       -2.756817   -1.808770   -0.000007
      7          1           0       -2.680738   -0.264318   -0.897021
      8          1           0       -2.680737   -0.264328    0.897025
      9          8           0       -0.265377    1.126378    1.248749
     10          1           0        2.051789   -1.377058   -1.227585
     11          1           0        2.051793   -1.377073    1.227560
     12          1           0        2.907813    0.560919   -0.000002
 ---------------------------------------------------------------------

 SCF Done:  E(RHF) =  -953.906177211     A.U. after    2 cycles

 The electronic state is 1-A.
 Alpha  occ. eigenvalues --  -76.27809 -75.89881 -21.09548 -21.05358 -21.05323
 Alpha  occ. eigenvalues --  -13.51984 -13.43347 -13.34134 -11.43025  -8.24962
 Alpha  occ. eigenvalues --   -5.61178  -2.23603  -2.23340  -2.23330  -1.88922
 Alpha  occ. eigenvalues --   -1.73087  -1.65387  -1.05817  -0.92214  -0.80170
 Alpha  occ. eigenvalues --   -0.66444  -0.63881  -0.59991  -0.56334  -0.52969
 Alpha  occ. eigenvalues --   -0.51058  -0.49013  -0.48948  -0.41403  -0.36853
 Alpha  occ. eigenvalues --   -0.36784  -0.33851  -0.33217
 Alpha virt. eigenvalues --    0.02947   0.03356   0.05501   0.05672   0.06615
 Alpha virt. eigenvalues --    0.07029   0.07141   0.09072   0.09374   0.11092
 Alpha virt. eigenvalues --    0.11720   0.13057   0.13912   0.14082   0.15402

 Mulliken charges:
               1
     1  Si   5.563116
     2  S    5.577828
     3  O   -2.492664
     4  O   -2.683973
     5  C   -2.779835
     6  H    1.312775
     7  H    1.363435
     8  H    1.363435
     9  O   -2.492663
    10  H   -1.579369
    11  H   -1.579370
    12  H   -1.572715
 Sum of Mulliken charges =  -0.00000

 Dipole moment (field-independent basis, Debye):
    X=              0.1076    Y=             -2.2145    Z=             -0.0000  Tot=              2.2171

 Test job not archived.
 1\1\GINC-SE343\SP\RHF\Aug-CC-pVDZ\C1H6O3S1Si1\OHZDE\08-Apr-2025\0\\#t
 hf aug-cc-pvdz iop(5/13=1,5/36=2,99/5=2) pseudo=read geom=check guess=
 (read,tcheck) scf=(maxcycle=1)\\title\\0,1\Si,0,1.961832,-0.568758,-0.
 000007\S,0,-0.037676,0.429637,0.000003\O,0,-0.265384,1.126393,-1.24873
 3\O,0,-0.918762,-0.95334,-0.000003\C,0,-2.359958,-0.796069,-0.000001\H
 ,0,-2.756817,-1.80877,-0.000007\H,0,-2.680738,-0.264318,-0.897021\H,0,
 -2.680737,-0.264328,0.897025\O,0,-0.265377,1.126378,1.248749\H,0,2.051
 789,-1.377058,-1.227585\H,0,2.051793,-1.377073,1.22756\H,0,2.907813,0.

 Normal termination of Gaussian 16 at Tue Apr  8 23:58:37 2025.
