 Gaussian 16, Revision C.01,

 ----------------------------------------------------------------------
 #t hf aug-cc-pvdz symm=none int=(grid=ultrafine) guess=(read,tcheck) s
 table=opt
 ----------------------------------------------------------------------
 -----
 title
 -----
 Symbolic Z-matrix:
 Charge =  0 Multiplicity = 2

 SCF Done:  E(UHF) =  -191.360682828     A.U. after   18 cycles
 Normal termination of Gaussian 16 at Tue Apr  8 22:36:26 2025.
 Gaussian 16:  ES64L-G16RevC.01  3-Jul-2019

 ----------------------------------------------------------------------
 #t hf aug-cc-pvdz iop(5/13=1,5/36=2,99/5=2) pseudo=read geom=check gue
 ss=(read,tcheck) scf=(maxcycle=1)
 ----------------------------------------------------------------------
 -----
 title
 -----
 Structure from the checkpoint file:  "BDE49_expt_1089_mol2.chk"
 Charge =  0 Multiplicity = 2

                         Standard orientation:
 ---------------------------------------------------------------------
 Center     Atomic      Atomic             Coordinates (Angstroms)
 Number     Number       Type             X           Y           Z
 ---------------------------------------------------------------------
      1          6           0        0.951481    0.504213    0.000000
      2          8           0        1.530451   -0.525693   -0.000022
      3          6           0       -0.552336    0.733152    0.000020
      4          6           0       -1.386404   -0.552143   -0.000001
      5          1           0       -0.764930    1.362590   -0.870803
      6          1           0       -0.764911    1.362548    0.870879
      7          1           0       -1.168588   -1.157910   -0.881693
      8          1           0       -2.453056   -0.315059    0.000017
      9          1           0       -1.168567   -1.157952    0.881656
 ---------------------------------------------------------------------

 SCF Done:  E(UHF) =  -192.224033600     A.U. after    2 cycles

 The electronic state is 2-A.
 Alpha  occ. eigenvalues --  -21.10098 -11.48046 -11.42520 -11.38018  -1.74090
 Alpha  occ. eigenvalues --   -1.19870  -0.96223  -0.74272  -0.64317  -0.63690
 Alpha  occ. eigenvalues --   -0.55379  -0.51957  -0.51675  -0.47448  -0.44542
 Alpha  occ. eigenvalues --   -0.25797
 Alpha virt. eigenvalues --    0.03382   0.05491   0.05925   0.06111   0.06753
 Alpha virt. eigenvalues --    0.09237   0.11306   0.11582   0.12102   0.14149
 Alpha virt. eigenvalues --    0.15088   0.15849   0.17006   0.17568   0.18822

  Beta  occ. eigenvalues --  -21.09083 -11.46297 -11.41990 -11.37824  -1.71753
  Beta  occ. eigenvalues --   -1.18387  -0.94304  -0.70350  -0.63908  -0.58107
  Beta  occ. eigenvalues --   -0.53357  -0.51631  -0.49144  -0.44043  -0.39697
  Beta virt. eigenvalues --    0.03044   0.05199   0.05947   0.06107   0.06767
  Beta virt. eigenvalues --    0.09116   0.10986   0.11369   0.11701   0.12395
  Beta virt. eigenvalues --    0.14179   0.15713   0.17476   0.17561   0.18153

 Mulliken charges and spin densities:
               1          2
     1  C    1.343815   0.932841
     2  O   -2.056292   0.180420
     3  C   -2.407845  -0.013021
     4  C   -3.569211  -0.020860
     5  H    1.496121  -0.039957
     6  H    1.496120  -0.039957
     7  H    1.254776   0.001223
     8  H    1.187738  -0.001913
     9  H    1.254777   0.001223
 Sum of Mulliken charges =  -0.00000   1.00000

 Dipole moment (field-independent basis, Debye):
    X=             -1.6207    Y=             -0.2844    Z=              0.0000  Tot=              1.6455
                          Isotropic Fermi Contact Couplings
        Atom                 a.u.       MegaHertz       Gauss      10(-4) cm-1
     1  C(13)              0.17596     197.81169      70.58413      65.98288
     2  O(17)              0.08237     -49.93237     -17.81711     -16.65565
     3  C(13)              0.10705     120.34542      42.94224      40.14291
     4  C(13)              0.00799       8.97819       3.20364       2.99480
     5  H(1)              -0.00160      -7.16032      -2.55498      -2.38843
     6  H(1)              -0.00160      -7.16043      -2.55502      -2.38846
     7  H(1)              -0.00058      -2.60247      -0.92863      -0.86809
     8  H(1)               0.00168       7.53006       2.68691       2.51176

 Normal termination of Gaussian 16 at Tue Apr  8 22:36:29 2025.
