 Gaussian 16, Revision C.01,

 ----------------------------------------------------------------------
 #t hf aug-cc-pvdz symm=none int=(grid=ultrafine) guess=(read,tcheck) s
 table=(opt,rrhf)
 ----------------------------------------------------------------------
 -----
 title
 -----
 Symbolic Z-matrix:
 Charge =  0 Multiplicity = 1

 SCF Done:  E(RHF) =  -1144.90999942     A.U. after   18 cycles
 Normal termination of Gaussian 16 at Tue Apr  8 23:31:21 2025.
 Gaussian 16:  ES64L-G16RevC.01  3-Jul-2019

 ----------------------------------------------------------------------
 #t hf aug-cc-pvdz iop(5/13=1,5/36=2,99/5=2) pseudo=read geom=check gue
 ss=(read,tcheck) scf=(maxcycle=1)
 ----------------------------------------------------------------------
 -----
 title
 -----
 Structure from the checkpoint file:  "BDE49_nonexpt_1379_mol1.chk"
 Charge =  0 Multiplicity = 1

                         Standard orientation:
 ---------------------------------------------------------------------
 Center     Atomic      Atomic             Coordinates (Angstroms)
 Number     Number       Type             X           Y           Z
 ---------------------------------------------------------------------
      1          9           0       -2.405025   -0.840029    0.135347
      2          9           0        1.975060   -0.037502    1.280077
      3          8           0        0.129567   -2.087798   -1.083627
      4          8           0       -1.635720    1.957364   -0.478564
      5         15           0        1.828224    0.023397   -0.366270
      6         15           0       -1.007624   -0.381284    0.805531
      7          6           0        0.262087   -1.120329   -0.397692
      8          6           0        0.745662    1.541645   -0.427268
      9          1           0        1.145646    2.247932    0.309688
     10          1           0        0.808083    2.027742   -1.405733
     11          6           0       -0.731719    1.250998   -0.130732
 ---------------------------------------------------------------------

 SCF Done:  E(RHF) =  -1147.07060439     A.U. after    2 cycles

 The electronic state is 1-A.
 Alpha  occ. eigenvalues -- -105.28405-105.26981 -29.30210 -29.30009 -21.12549
 Alpha  occ. eigenvalues --  -21.10528 -11.52576 -11.51058 -11.43683  -2.86750
 Alpha  occ. eigenvalues --   -2.86207  -1.76808  -1.75645  -1.61379  -1.58737
 Alpha  occ. eigenvalues --   -1.57038  -1.54436  -1.53789  -1.52743  -1.12666
 Alpha  occ. eigenvalues --   -0.93001  -0.87381  -0.73438  -0.68565  -0.65373
 Alpha  occ. eigenvalues --   -0.58697  -0.55930  -0.53504  -0.52323  -0.48564
 Alpha  occ. eigenvalues --   -0.47937  -0.46375  -0.37273  -0.36602  -0.35671
 Alpha  occ. eigenvalues --   -0.34785  -0.33294  -0.24159  -0.19114  -0.12074
 Alpha  occ. eigenvalues --   -0.04234  -0.00989
 Alpha virt. eigenvalues --    0.04057   0.05852   0.06771   0.07688   0.08005
 Alpha virt. eigenvalues --    0.08375   0.10311   0.11180   0.11410   0.11478
 Alpha virt. eigenvalues --    0.13029   0.13173   0.14054   0.14204   0.15181

 Mulliken charges:
               1
     1  F   -0.142645
     2  F   -0.465245
     3  O   -2.817380
     4  O   -2.824699
     5  P    4.557702
     6  P    3.685379
     7  C   -0.562663
     8  C   -5.491054
     9  H    1.258444
    10  H    1.315498
    11  C    1.486663
 Sum of Mulliken charges =   0.00000

 Dipole moment (field-independent basis, Debye):
    X=             -3.4297    Y=             -2.2812    Z=              5.3971  Tot=              6.7893

 Test job not archived.
 1\1\GINC-SE069\SP\RHF\Aug-CC-pVDZ\C3H2F2O2P2\OHZDE\08-Apr-2025\0\\#t h
 f aug-cc-pvdz iop(5/13=1,5/36=2,99/5=2) pseudo=read geom=check guess=(
 read,tcheck) scf=(maxcycle=1)\\title\\0,1\F,0,-2.405025,-0.840029,0.13
 5347\F,0,1.97506,-0.037502,1.280077\O,0,0.129567,-2.087798,-1.083627\O
 ,0,-1.63572,1.957364,-0.478564\P,0,1.828224,0.023397,-0.36627\P,0,-1.0
 07624,-0.381284,0.805531\C,0,0.262087,-1.120329,-0.397692\C,0,0.745662
 ,1.541645,-0.427268\H,0,1.145646,2.247932,0.309688\H,0,0.808083,2.0277
 42,-1.405733\C,0,-0.731719,1.250998,-0.130732\\Version=ES64L-G16RevC.0

 Normal termination of Gaussian 16 at Tue Apr  8 23:31:26 2025.
