 Gaussian 16, Revision C.01,

 ----------------------------------------------------------------------
 #t hf aug-cc-pvdz symm=none int=(grid=ultrafine) guess=(read,tcheck) s
 table=(opt,rrhf)
 ----------------------------------------------------------------------
 -----
 title
 -----
 Symbolic Z-matrix:
 Charge =  0 Multiplicity = 1

 SCF Done:  E(RHF) =  -215.949053873     A.U. after   12 cycles
 Normal termination of Gaussian 16 at Tue Apr  8 22:44:27 2025.
 Gaussian 16:  ES64L-G16RevC.01  3-Jul-2019

 ----------------------------------------------------------------------
 #t hf aug-cc-pvdz iop(5/13=1,5/36=2,99/5=2) pseudo=read geom=check gue
 ss=(read,tcheck) scf=(maxcycle=1)
 ----------------------------------------------------------------------
 -----
 title
 -----
 Structure from the checkpoint file:  "BDE49_expt_147_mol1.chk"
 Charge =  0 Multiplicity = 1

                         Standard orientation:
 ---------------------------------------------------------------------
 Center     Atomic      Atomic             Coordinates (Angstroms)
 Number     Number       Type             X           Y           Z
 ---------------------------------------------------------------------
      1          6           0       -1.492249   -0.497688   -0.000002
      2          6           0       -0.744745    0.598724   -0.000001
      3          1           0       -1.039599   -1.481776   -0.000002
      4          1           0       -2.574135   -0.442373   -0.000004
      5          6           0        0.751041    0.606643    0.000001
      6          1           0       -1.202987    1.585741   -0.000001
      7          1           0        1.135609    1.122898   -0.887902
      8          9           0        1.273470   -0.683718    0.000001
      9          1           0        1.135606    1.122897    0.887906
 ---------------------------------------------------------------------

 SCF Done:  E(RHF) =  -216.866729720     A.U. after    2 cycles

 The electronic state is 1-A.
 Alpha  occ. eigenvalues --  -29.25101 -11.46033 -11.41281 -11.37671  -1.25149
 Alpha  occ. eigenvalues --   -1.05220  -0.82652  -0.69179  -0.64485  -0.63290
 Alpha  occ. eigenvalues --   -0.54626  -0.51093  -0.36175  -0.36084  -0.25071
 Alpha  occ. eigenvalues --   -0.25032
 Alpha virt. eigenvalues --    0.03797   0.05467   0.05827   0.06159   0.06910
 Alpha virt. eigenvalues --    0.10666   0.11816   0.12382   0.13943   0.14275
 Alpha virt. eigenvalues --    0.15286   0.15882   0.17608   0.18200   0.20215

 Mulliken charges:
               1
     1  C   -2.863156
     2  C   -1.405923
     3  H    1.460165
     4  H    1.355724
     5  C   -2.909792
     6  H    1.325975
     7  H    1.337321
     8  F    0.362365
     9  H    1.337321
 Sum of Mulliken charges =   0.00000

 Dipole moment (field-independent basis, Debye):
    X=              0.4614    Y=             -0.7750    Z=             -0.0000  Tot=              0.9020

 Test job not archived.
 1\1\GINC-SE454\SP\RHF\Aug-CC-pVDZ\C3H5F1\OHZDE\08-Apr-2025\0\\#t hf au
 g-cc-pvdz iop(5/13=1,5/36=2,99/5=2) pseudo=read geom=check guess=(read
 ,tcheck) scf=(maxcycle=1)\\title\\0,1\C,0,-1.492249,-0.497688,-0.00000
 2\C,0,-0.744745,0.598724,-0.000001\H,0,-1.039599,-1.481776,-0.000002\H
 ,0,-2.574135,-0.442373,-0.000004\C,0,0.751041,0.606643,0.000001\H,0,-1
 .202987,1.585741,-0.000001\H,0,1.135609,1.122898,-0.887902\F,0,1.27347
 ,-0.683718,0.000001\H,0,1.135606,1.122897,0.887906\\Version=ES64L-G16R
 evC.01\State=1-A\HF=-216.8667297\RMSD=4.137e-01\Dipole=0.1815186,-0.30

 Normal termination of Gaussian 16 at Tue Apr  8 22:44:29 2025.
