 Gaussian 16, Revision C.01,

 ----------------------------------------------------------------------
 #t hf aug-cc-pvdz symm=none int=(grid=ultrafine) guess=(read,tcheck) s
 table=(opt,rrhf)
 ----------------------------------------------------------------------
 -----
 title
 -----
 Symbolic Z-matrix:
 Charge =  0 Multiplicity = 1

 SCF Done:  E(RHF) =  -709.616550732     A.U. after   15 cycles
 Normal termination of Gaussian 16 at Wed Apr  9 00:06:06 2025.
 Gaussian 16:  ES64L-G16RevC.01  3-Jul-2019

 ----------------------------------------------------------------------
 #t hf aug-cc-pvdz iop(5/13=1,5/36=2,99/5=2) pseudo=read geom=check gue
 ss=(read,tcheck) scf=(maxcycle=1)
 ----------------------------------------------------------------------
 -----
 title
 -----
 Structure from the checkpoint file:  "BDE49_nonexpt_2196_mol1.chk"
 Charge =  0 Multiplicity = 1

                         Standard orientation:
 ---------------------------------------------------------------------
 Center     Atomic      Atomic             Coordinates (Angstroms)
 Number     Number       Type             X           Y           Z
 ---------------------------------------------------------------------
      1          6           0        2.819643    0.137622    0.000261
      2          6           0        1.749091    1.035633    0.000155
      3          6           0        0.441066    0.559688   -0.000105
      4          6           0        2.581664   -1.230607    0.000103
      5          6           0        1.271084   -1.708961   -0.000142
      6          6           0        0.197465   -0.827164   -0.000222
      7          1           0        3.408294   -1.931053    0.000170
      8          1           0        1.055555   -2.770479   -0.000263
      9          8           0       -1.065392   -1.334917   -0.000476
     10         14           0       -2.606087   -0.702640    0.000297
     11          1           0        3.833710    0.519310    0.000459
     12          8           0       -0.684742    1.337492   -0.000306
     13          6           0       -0.544150    2.751243   -0.000063
     14          1           0       -1.556138    3.152377   -0.000225
     15          1           0       -0.015539    3.097355   -0.894511
     16          1           0       -0.015928    3.097089    0.894717
     17          1           0        1.941772    2.100334    0.000251
     18          1           0       -2.907247    0.082746   -1.214281
     19          1           0       -2.906303    0.082224    1.215453
     20          1           0       -3.447069   -1.918274    0.000413
 ---------------------------------------------------------------------

 SCF Done:  E(RHF) =  -711.692489449     A.U. after    2 cycles

 The electronic state is 1-A.
 Alpha  occ. eigenvalues --  -76.23636 -21.08256 -21.06118 -11.54378 -11.46049
 Alpha  occ. eigenvalues --  -11.45617 -11.42584 -11.41671 -11.40748 -11.36675
 Alpha  occ. eigenvalues --   -5.56982  -2.23667  -2.18901  -2.18520  -1.80799
 Alpha  occ. eigenvalues --   -1.72174  -1.30511  -1.09215  -1.08146  -0.99610
 Alpha  occ. eigenvalues --   -0.86889  -0.84275  -0.75949  -0.69177  -0.65680
 Alpha  occ. eigenvalues --   -0.63516  -0.63501  -0.61088  -0.56280  -0.56041
 Alpha  occ. eigenvalues --   -0.54800  -0.49108  -0.48863  -0.47539  -0.46659
 Alpha  occ. eigenvalues --   -0.42945  -0.41343  -0.40130  -0.36997  -0.30608
 Alpha  occ. eigenvalues --   -0.25129
 Alpha virt. eigenvalues --    0.03191   0.04451   0.04920   0.05464   0.05578
 Alpha virt. eigenvalues --    0.06235   0.06990   0.07236   0.07457   0.08033
 Alpha virt. eigenvalues --    0.09315   0.09589   0.10922   0.12604   0.12669

 Mulliken charges:
               1
     1  C   -0.771757
     2  C   -2.291876
     3  C    4.355275
     4  C   -0.813011
     5  C   -3.463796
     6  C    4.711308
     7  H    1.569849
     8  H    1.871723
     9  O   -5.550777
    10  Si   6.779211
    11  H    1.539682
    12  O   -5.009753
    13  C   -3.855394
    14  H    1.480670
    15  H    1.459388
    16  H    1.459243
    17  H    1.941761
    18  H   -1.737451
    19  H   -1.737534
    20  H   -1.936762
 Sum of Mulliken charges =  -0.00000

 Dipole moment (field-independent basis, Debye):
    X=              0.4588    Y=              1.5672    Z=             -0.0003  Tot=              1.6329

 Test job not archived.
 1\1\GINC-SE454\SP\RHF\Aug-CC-pVDZ\C7H10O2Si1\OHZDE\09-Apr-2025\0\\#t h
 f aug-cc-pvdz iop(5/13=1,5/36=2,99/5=2) pseudo=read geom=check guess=(
 read,tcheck) scf=(maxcycle=1)\\title\\0,1\C,0,2.819643,0.137623,0.0002
 61\C,0,1.749091,1.035634,0.000155\C,0,0.441066,0.559688,-0.000105\C,0,
 2.581665,-1.230606,0.000103\C,0,1.271085,-1.70896,-0.000142\C,0,0.1974
 65,-0.827164,-0.000222\H,0,3.408295,-1.931052,0.00017\H,0,1.055556,-2.
 770479,-0.000263\O,0,-1.065391,-1.334917,-0.000476\Si,0,-2.606087,-0.7
 02641,0.000297\H,0,3.83371,0.519312,0.000459\O,0,-0.684743,1.337492,-0

 Normal termination of Gaussian 16 at Wed Apr  9 00:06:17 2025.
