 Gaussian 16, Revision C.01,

 ----------------------------------------------------------------------
 #t hf aug-cc-pvdz symm=none int=(grid=ultrafine) guess=(read,tcheck) s
 table=(opt,rrhf)
 ----------------------------------------------------------------------
 -----
 title
 -----
 Symbolic Z-matrix:
 Charge =  0 Multiplicity = 1

 SCF Done:  E(RHF) =  -800.244489938     A.U. after   13 cycles
 Normal termination of Gaussian 16 at Tue Apr  8 22:38:15 2025.
 Gaussian 16:  ES64L-G16RevC.01  3-Jul-2019

 ----------------------------------------------------------------------
 #t hf aug-cc-pvdz iop(5/13=1,5/36=2,99/5=2) pseudo=read geom=check gue
 ss=(read,tcheck) scf=(maxcycle=1)
 ----------------------------------------------------------------------
 -----
 title
 -----
 Structure from the checkpoint file:  "BDE49_expt_1131_mol1.chk"
 Charge =  0 Multiplicity = 1

                         Standard orientation:
 ---------------------------------------------------------------------
 Center     Atomic      Atomic             Coordinates (Angstroms)
 Number     Number       Type             X           Y           Z
 ---------------------------------------------------------------------
      1          6           0       -1.138215    0.475473   -0.158429
      2          8           0       -1.665057    1.243970   -0.908730
      3          8           0       -1.684197   -0.600398    0.400876
      4          6           0        0.332717    0.623924    0.310432
      5          6           0       -3.065646   -0.856482    0.055374
      6          1           0       -3.324690   -1.773786    0.576421
      7          1           0       -3.164352   -0.978375   -1.023357
      8          1           0       -3.691971   -0.028864    0.388725
      9          6           0        1.268642   -0.505291   -0.195070
     10          9           0        0.384423    0.636996    1.667629
     11          9           0        0.814600    1.793727   -0.150635
     12          9           0        2.545196   -0.190883    0.041568
     13          9           0        0.995924   -1.664345    0.410362
     14          9           0        1.103197   -0.663638   -1.519236
 ---------------------------------------------------------------------

 SCF Done:  E(RHF) =  -803.213151471     A.U. after    2 cycles

 The electronic state is 1-A.
 Alpha  occ. eigenvalues --  -29.33931 -29.33707 -29.33587 -29.32801 -29.32421
 Alpha  occ. eigenvalues --  -21.13141 -21.09682 -11.65344 -11.60581 -11.54715
 Alpha  occ. eigenvalues --  -11.44537  -1.88526  -1.71145  -1.50369  -1.29383
 Alpha  occ. eigenvalues --   -1.06737  -0.96201  -0.94943  -0.86748  -0.83781
 Alpha  occ. eigenvalues --   -0.82033  -0.72958  -0.66026  -0.60443  -0.60055
 Alpha  occ. eigenvalues --   -0.55440  -0.51306  -0.49113  -0.47076  -0.46469
 Alpha  occ. eigenvalues --   -0.45678  -0.42810  -0.41585  -0.39532  -0.37978
 Alpha  occ. eigenvalues --   -0.37785  -0.35409  -0.33055  -0.30775  -0.28880
 Alpha  occ. eigenvalues --   -0.27416  -0.25608  -0.24270  -0.22985
 Alpha virt. eigenvalues --    0.03320   0.05599   0.05837   0.08799   0.10039
 Alpha virt. eigenvalues --    0.10400   0.11008   0.11954   0.13278   0.13455
 Alpha virt. eigenvalues --    0.13720   0.14244   0.15392   0.16187   0.16517

 Mulliken charges:
               1
     1  C    4.370520
     2  O   -3.041265
     3  O   -2.926895
     4  C   -0.406968
     5  C   -3.100934
     6  H    1.426485
     7  H    1.284513
     8  H    1.273268
     9  C   -0.722741
    10  F    0.158913
    11  F    0.408008
    12  F    0.516442
    13  F    0.341026
    14  F    0.419627
 Sum of Mulliken charges =   0.00000

 Dipole moment (field-independent basis, Debye):
    X=              0.5862    Y=             -1.0517    Z=              1.0615  Tot=              1.6051

 Test job not archived.
 1\1\GINC-SE423\SP\RHF\Aug-CC-pVDZ\C4H3F5O2\OHZDE\08-Apr-2025\0\\#t hf
 aug-cc-pvdz iop(5/13=1,5/36=2,99/5=2) pseudo=read geom=check guess=(re
 ad,tcheck) scf=(maxcycle=1)\\title\\0,1\C,0,-1.138215,0.475473,-0.1584
 29\O,0,-1.665057,1.24397,-0.90873\O,0,-1.684197,-0.600398,0.400876\C,0
 ,0.332717,0.623924,0.310432\C,0,-3.065646,-0.856482,0.055374\H,0,-3.32
 469,-1.773786,0.576421\H,0,-3.164352,-0.978375,-1.023357\H,0,-3.691971
 ,-0.028864,0.388725\C,0,1.268642,-0.505291,-0.19507\F,0,0.384423,0.636
 996,1.667629\F,0,0.8146,1.793727,-0.150635\F,0,2.545196,-0.190883,0.04

 Normal termination of Gaussian 16 at Tue Apr  8 22:38:21 2025.
