 Gaussian 16, Revision C.01,

 ----------------------------------------------------------------------
 #t hf aug-cc-pvdz symm=none int=(grid=ultrafine) guess=(read,tcheck) s
 table=(opt,rrhf)
 ----------------------------------------------------------------------
 -----
 title
 -----
 Symbolic Z-matrix:
 Charge =  0 Multiplicity = 1

 SCF Done:  E(RHF) =  -856.006657831     A.U. after   15 cycles
 Normal termination of Gaussian 16 at Tue Apr  8 22:50:01 2025.
 Gaussian 16:  ES64L-G16RevC.01  3-Jul-2019

 ----------------------------------------------------------------------
 #t hf aug-cc-pvdz iop(5/13=1,5/36=2,99/5=2) pseudo=read geom=check gue
 ss=(read,tcheck) scf=(maxcycle=1)
 ----------------------------------------------------------------------
 -----
 title
 -----
 Structure from the checkpoint file:  "BDE49_expt_1604_mol1.chk"
 Charge =  0 Multiplicity = 1

                         Standard orientation:
 ---------------------------------------------------------------------
 Center     Atomic      Atomic             Coordinates (Angstroms)
 Number     Number       Type             X           Y           Z
 ---------------------------------------------------------------------
      1         16           0       -1.914804    0.114463    0.042319
      2          6           0       -1.638776   -1.033881    1.395837
      3          8           0       -3.158276   -0.247039   -0.611364
      4          8           0       -1.716529    1.457318    0.553988
      5          1           0       -1.737012   -2.054328    1.027436
      6          1           0       -2.420354   -0.817430    2.124566
      7          1           0       -0.655033   -0.853496    1.825688
      8          6           0        0.816741   -0.110002   -0.605660
      9          6           0        1.608803   -1.243969   -0.396789
     10          6           0        1.345274    1.150411   -0.301323
     11          6           0        2.903668   -1.124838    0.103077
     12          6           0        2.637877    1.268612    0.199428
     13          6           0        3.420681    0.132839    0.403028
     14          1           0        1.214212   -2.226095   -0.637712
     15          1           0        3.507446   -2.012649    0.253249
     16          1           0        0.734006    2.033076   -0.444736
     17          1           0        3.035434    2.250289    0.430561
     18          1           0        4.428723    0.228750    0.790058
     19          6           0       -0.577530   -0.250700   -1.149708
     20          1           0       -0.790406    0.462194   -1.950871
     21          1           0       -0.782141   -1.254801   -1.523683
 ---------------------------------------------------------------------

 SCF Done:  E(RHF) =  -858.416690587     A.U. after    2 cycles

 The electronic state is 1-A.
 Alpha  occ. eigenvalues --  -75.87640 -21.03654 -21.03622 -13.50192 -13.41287
 Alpha  occ. eigenvalues --  -13.33978 -11.53524 -11.46425 -11.44889 -11.44311
 Alpha  occ. eigenvalues --  -11.42472 -11.42299 -11.41921 -11.37753  -8.22769
 Alpha  occ. eigenvalues --   -1.82127  -1.64065  -1.37027  -1.20160  -1.13020
 Alpha  occ. eigenvalues --   -1.10517  -1.04135  -0.89111  -0.87874  -0.83731
 Alpha  occ. eigenvalues --   -0.72354  -0.66998  -0.66131  -0.64955  -0.62692
 Alpha  occ. eigenvalues --   -0.59593  -0.59218  -0.56620  -0.56403  -0.52998
 Alpha  occ. eigenvalues --   -0.50708  -0.47376  -0.45713  -0.42434  -0.38680
 Alpha  occ. eigenvalues --   -0.38559  -0.36873  -0.35033  -0.33816  -0.31269
 Alpha virt. eigenvalues --    0.02567   0.04381   0.04550   0.04782   0.05438
 Alpha virt. eigenvalues --    0.05668   0.06562   0.06995   0.07621   0.08271
 Alpha virt. eigenvalues --    0.10296   0.10418   0.10497   0.11084   0.12131

 Mulliken charges:
               1
     1  S    6.966922
     2  C   -5.011653
     3  O   -2.630715
     4  O   -2.694799
     5  H    1.310162
     6  H    1.351540
     7  H    1.534137
     8  C    5.554287
     9  C   -2.834814
    10  C   -2.948382
    11  C   -1.404109
    12  C   -1.235561
    13  C   -3.073280
    14  H    1.765829
    15  H    1.523302
    16  H    2.057950
    17  H    1.514490
    18  H    1.551744
    19  C   -5.826061
    20  H    1.198005
    21  H    1.331004
 Sum of Mulliken charges =   0.00000

 Dipole moment (field-independent basis, Debye):
    X=              2.1683    Y=             -1.1852    Z=              0.4341  Tot=              2.5090

 Test job not archived.
 1\1\GINC-SE128\SP\RHF\Aug-CC-pVDZ\C8H10O2S1\OHZDE\08-Apr-2025\0\\#t hf
  aug-cc-pvdz iop(5/13=1,5/36=2,99/5=2) pseudo=read geom=check guess=(r
 ead,tcheck) scf=(maxcycle=1)\\title\\0,1\S,0,-1.914804,0.114463,0.0423
 19\C,0,-1.638776,-1.033881,1.395837\O,0,-3.158276,-0.247039,-0.611364\
 O,0,-1.716529,1.457318,0.553988\H,0,-1.737012,-2.054328,1.027436\H,0,-
 2.420354,-0.81743,2.124566\H,0,-0.655033,-0.853496,1.825688\C,0,0.8167
 41,-0.110002,-0.60566\C,0,1.608803,-1.243969,-0.396789\C,0,1.345274,1.
 150411,-0.301323\C,0,2.903668,-1.124838,0.103077\C,0,2.637877,1.268612

 Normal termination of Gaussian 16 at Tue Apr  8 22:50:17 2025.
