 Gaussian 16, Revision C.01,

 ----------------------------------------------------------------------
 #t hf aug-cc-pvdz symm=none int=(grid=ultrafine) guess=(read,tcheck) s
 table=(opt,rrhf)
 ----------------------------------------------------------------------
 -----
 title
 -----
 Symbolic Z-matrix:
 Charge =  0 Multiplicity = 1

 SCF Done:  E(RHF) =  -719.310306150     A.U. after   14 cycles
 Normal termination of Gaussian 16 at Wed Apr  9 00:47:01 2025.
 Gaussian 16:  ES64L-G16RevC.01  3-Jul-2019

 ----------------------------------------------------------------------
 #t hf aug-cc-pvdz iop(5/13=1,5/36=2,99/5=2) pseudo=read geom=check gue
 ss=(read,tcheck) scf=(maxcycle=1)
 ----------------------------------------------------------------------
 -----
 title
 -----
 Structure from the checkpoint file:  "BDE49_nonexpt_825_mol1.chk"
 Charge =  0 Multiplicity = 1

                         Standard orientation:
 ---------------------------------------------------------------------
 Center     Atomic      Atomic             Coordinates (Angstroms)
 Number     Number       Type             X           Y           Z
 ---------------------------------------------------------------------
      1          6           0       -0.005357    1.629058    0.542390
      2          5           0        0.001245    0.115446    0.243444
      3         14           0       -1.759162   -0.842773   -0.031038
      4          8           0       -0.032662    2.157368   -0.565697
      5         14           0        1.773248   -0.817881   -0.037192
      6          1           0        0.007268    2.233503    1.469280
      7          1           0       -1.820688   -1.943203    0.967221
      8          1           0       -1.821415   -1.448563   -1.383123
      9          1           0       -2.942815    0.029483    0.158911
     10          1           0        1.719895   -1.815601   -1.132107
     11          1           0        2.064256   -1.545625    1.228065
     12          1           0        2.883500    0.128647   -0.299012
 ---------------------------------------------------------------------

 SCF Done:  E(RHF) =  -720.216247948     A.U. after    2 cycles

 The electronic state is 1-A.
 Alpha  occ. eigenvalues --  -76.21764 -76.21715 -21.07675 -11.45876  -7.63479
 Alpha  occ. eigenvalues --   -5.55383  -5.55060  -2.18152  -2.18050  -2.17405
 Alpha  occ. eigenvalues --   -2.17261  -2.17178  -2.17138  -1.72330  -0.97420
 Alpha  occ. eigenvalues --   -0.82615  -0.77967  -0.70635  -0.54480  -0.50110
 Alpha  occ. eigenvalues --   -0.49423  -0.48545  -0.46982  -0.46120  -0.44330
 Alpha  occ. eigenvalues --   -0.32350  -0.30202
 Alpha virt. eigenvalues --    0.03011   0.03805   0.03911   0.04187   0.06258
 Alpha virt. eigenvalues --    0.07128   0.07518   0.07822   0.08286   0.08487
 Alpha virt. eigenvalues --    0.09383   0.09643   0.09833   0.10294   0.10367

 Mulliken charges:
               1
     1  C   -1.138961
     2  B   -1.095860
     3  Si   6.669207
     4  O   -2.066392
     5  Si   6.659308
     6  H    1.156761
     7  H   -1.623708
     8  H   -1.709995
     9  H   -1.746820
    10  H   -1.757266
    11  H   -1.632488
    12  H   -1.713786
 Sum of Mulliken charges =  -0.00000

 Dipole moment (field-independent basis, Debye):
    X=             -0.0164    Y=              0.9678    Z=              0.6147  Tot=              1.1467

 Test job not archived.
 1\1\GINC-SE069\SP\RHF\Aug-CC-pVDZ\C1H7B1O1Si2\OHZDE\09-Apr-2025\0\\#t
 hf aug-cc-pvdz iop(5/13=1,5/36=2,99/5=2) pseudo=read geom=check guess=
 (read,tcheck) scf=(maxcycle=1)\\title\\0,1\C,0,-0.005356,1.629058,0.54
 239\B,0,0.001245,0.115446,0.243444\Si,0,-1.759162,-0.842772,-0.031038\
 O,0,-0.032661,2.157368,-0.565697\Si,0,1.773248,-0.817882,-0.037192\H,0
 ,0.007269,2.233503,1.46928\H,0,-1.820689,-1.943202,0.967221\H,0,-1.821
 415,-1.448562,-1.383123\H,0,-2.942815,0.029484,0.158911\H,0,1.719894,-
 1.815602,-1.132107\H,0,2.064256,-1.545626,1.228065\H,0,2.8835,0.128646

 Normal termination of Gaussian 16 at Wed Apr  9 00:47:05 2025.
