 Gaussian 16, Revision C.01,

 ----------------------------------------------------------------------
 #t hf aug-cc-pvdz symm=none int=(grid=ultrafine) guess=(read,tcheck) s
 table=opt
 ----------------------------------------------------------------------
 -----
 title
 -----
 Symbolic Z-matrix:
 Charge =  0 Multiplicity = 2

 SCF Done:  E(UHF) =  -549.879377865     A.U. after   19 cycles
 Normal termination of Gaussian 16 at Tue Apr  8 23:20:53 2025.
 Gaussian 16:  ES64L-G16RevC.01  3-Jul-2019

 ----------------------------------------------------------------------
 #t hf aug-cc-pvdz iop(5/13=1,5/36=2,99/5=2) pseudo=read geom=check gue
 ss=(read,tcheck) scf=(maxcycle=1)
 ----------------------------------------------------------------------
 -----
 title
 -----
 Structure from the checkpoint file:  "BDE49_nonexpt_1146_mol2.chk"
 Charge =  0 Multiplicity = 2

                         Standard orientation:
 ---------------------------------------------------------------------
 Center     Atomic      Atomic             Coordinates (Angstroms)
 Number     Number       Type             X           Y           Z
 ---------------------------------------------------------------------
      1          8           0        0.587636    1.401470   -0.000029
      2          6           0        0.394182    0.205639    0.000084
      3         16           0       -1.313962   -0.252126   -0.000027
      4          6           0        1.465156   -0.846602    0.000020
      5          1           0        2.445859   -0.369135   -0.000157
      6          1           0        1.360087   -1.481500   -0.883392
      7          1           0        1.360332   -1.481322    0.883590
 ---------------------------------------------------------------------

 SCF Done:  E(UHF) =  -550.741465716     A.U. after    2 cycles

 The electronic state is 2-A.
 Alpha  occ. eigenvalues --  -75.73319 -21.07214 -13.16168 -13.08294 -13.04310
 Alpha  occ. eigenvalues --  -11.51421 -11.41024  -8.07195  -1.73310  -1.19732
 Alpha  occ. eigenvalues --   -1.09149  -0.75849  -0.62820  -0.61954  -0.58062
 Alpha  occ. eigenvalues --   -0.48309  -0.46898  -0.33417  -0.26963  -0.26769
 Alpha virt. eigenvalues --    0.02512   0.05815   0.05937   0.07079   0.09209
 Alpha virt. eigenvalues --    0.12078   0.12439   0.12903   0.14543   0.14709
 Alpha virt. eigenvalues --    0.15517   0.16069   0.16512   0.18816   0.19692

  Beta  occ. eigenvalues --  -75.72306 -21.07011 -13.15592 -13.03677 -13.02232
  Beta  occ. eigenvalues --  -11.51525 -11.41024  -8.06060  -1.72890  -1.16387
  Beta  occ. eigenvalues --   -1.04244  -0.74379  -0.62244  -0.61971  -0.56610
  Beta  occ. eigenvalues --   -0.47846  -0.46809  -0.27981  -0.25410
  Beta virt. eigenvalues --    0.01916   0.04179   0.05824   0.06073   0.07274
  Beta virt. eigenvalues --    0.09347   0.12423   0.12784   0.13068   0.14752
  Beta virt. eigenvalues --    0.15527   0.16091   0.16920   0.17695   0.19054

 Mulliken charges and spin densities:
               1          2
     1  O   -2.631407  -0.020726
     2  C    1.491459  -0.094384
     3  S    0.876122   1.115320
     4  C   -3.553869  -0.002547
     5  H    1.288618   0.001645
     6  H    1.264572   0.000342
     7  H    1.264505   0.000351
 Sum of Mulliken charges =  -0.00000   1.00000

 Dipole moment (field-independent basis, Debye):
    X=             -0.5243    Y=             -1.3019    Z=             -0.0002  Tot=              1.4036
                          Isotropic Fermi Contact Couplings
        Atom                 a.u.       MegaHertz       Gauss      10(-4) cm-1
     1  O(17)              0.02904     -17.60214      -6.28088      -5.87144
     2  C(13)             -0.01121     -12.59709      -4.49496      -4.20194
     3  S(33)              0.32187     110.55321      39.44814      36.87658
     4  C(13)             -0.00021      -0.23594      -0.08419      -0.07870
     5  H(1)               0.00159       7.09634       2.53215       2.36709
     6  H(1)               0.00019       0.83713       0.29871       0.27924
     7  H(1)               0.00019       0.83477       0.29787       0.27845
 --------------------------------------------------------

 Normal termination of Gaussian 16 at Tue Apr  8 23:20:56 2025.
