 Gaussian 16, Revision C.01,

 ----------------------------------------------------------------------
 #t hf aug-cc-pvdz symm=none int=(grid=ultrafine) guess=(read,tcheck) s
 table=opt
 ----------------------------------------------------------------------
 -----
 title
 -----
 Symbolic Z-matrix:
 Charge =  0 Multiplicity = 2

 SCF Done:  E(UHF) =  -152.249799118     A.U. after   18 cycles
 Normal termination of Gaussian 16 at Tue Apr  8 22:37:22 2025.
 Gaussian 16:  ES64L-G16RevC.01  3-Jul-2019

 ----------------------------------------------------------------------
 #t hf aug-cc-pvdz iop(5/13=1,5/36=2,99/5=2) pseudo=read geom=check gue
 ss=(read,tcheck) scf=(maxcycle=1)
 ----------------------------------------------------------------------
 -----
 title
 -----
 Structure from the checkpoint file:  "BDE49_expt_1144_mol2.chk"
 Charge =  0 Multiplicity = 2

                         Standard orientation:
 ---------------------------------------------------------------------
 Center     Atomic      Atomic             Coordinates (Angstroms)
 Number     Number       Type             X           Y           Z
 ---------------------------------------------------------------------
      1          8           0        0.330924    0.758236    0.031073
      2          6           0       -0.795230   -0.192202    0.017780
      3          6           0        0.594748   -0.567445   -0.159744
      4          1           0       -1.442893   -0.112156   -0.849887
      5          1           0       -1.294924   -0.287434    0.978649
      6          1           0        1.293314   -1.108416    0.474441
 ---------------------------------------------------------------------

 SCF Done:  E(UHF) =  -152.905381241     A.U. after    2 cycles

 The electronic state is 2-A.
 Alpha  occ. eigenvalues --  -21.08586 -11.45635 -11.42371  -1.79798  -0.99467
 Alpha  occ. eigenvalues --   -0.88805  -0.69311  -0.64179  -0.48711  -0.44119
 Alpha  occ. eigenvalues --   -0.39063  -0.27830
 Alpha virt. eigenvalues --    0.03797   0.05424   0.06003   0.10333   0.10760
 Alpha virt. eigenvalues --    0.11172   0.12506   0.15803   0.16540   0.18712
 Alpha virt. eigenvalues --    0.20148   0.21641   0.24392   0.27349   0.29944

  Beta  occ. eigenvalues --  -21.08017 -11.44966 -11.40711  -1.78175  -0.97899
  Beta  occ. eigenvalues --   -0.83212  -0.66536  -0.62098  -0.46491  -0.38878
  Beta  occ. eigenvalues --   -0.35159
  Beta virt. eigenvalues --    0.03771   0.05483   0.06015   0.08257   0.10737
  Beta virt. eigenvalues --    0.11227   0.11907   0.14492   0.16368   0.17392
  Beta virt. eigenvalues --    0.18802   0.20283   0.22931   0.25942   0.27763

 Mulliken charges and spin densities:
               1          2
     1  O   -2.026415   0.120024
     2  C   -1.484584  -0.246955
     3  C   -0.632423   1.129460
     4  H    1.438709  -0.030358
     5  H    1.378343   0.002320
     6  H    1.326370   0.025509
 Sum of Mulliken charges =  -0.00000   1.00000

 Dipole moment (field-independent basis, Debye):
    X=             -0.3952    Y=             -0.0801    Z=              0.6241  Tot=              0.7430
                          Isotropic Fermi Contact Couplings
        Atom                 a.u.       MegaHertz       Gauss      10(-4) cm-1
     1  O(17)              0.05241     -31.76783     -11.33555     -10.59661
     2  C(13)             -0.00650      -7.30565      -2.60684      -2.43690
     3  C(13)              0.24748     278.20991      99.27221      92.80084
     4  H(1)               0.00221       9.87744       3.52452       3.29476
     5  H(1)               0.00125       5.58383       1.99245       1.86257
     6  H(1)               0.00717      32.06618      11.44201      10.69613
 --------------------------------------------------------
       Center         ----  Spin Dipole Couplings  ----

 Normal termination of Gaussian 16 at Tue Apr  8 22:37:24 2025.
