 Gaussian 16, Revision C.01,

 ----------------------------------------------------------------------
 #t hf aug-cc-pvdz symm=none int=(grid=ultrafine) guess=(read,tcheck) s
 table=(opt,rrhf)
 ----------------------------------------------------------------------
 -----
 title
 -----
 Symbolic Z-matrix:
 Charge =  0 Multiplicity = 1

 SCF Done:  E(RHF) =  -878.330273878     A.U. after   16 cycles
 Normal termination of Gaussian 16 at Tue Apr  8 23:21:24 2025.
 Gaussian 16:  ES64L-G16RevC.01  3-Jul-2019

 ----------------------------------------------------------------------
 #t hf aug-cc-pvdz iop(5/13=1,5/36=2,99/5=2) pseudo=read geom=check gue
 ss=(read,tcheck) scf=(maxcycle=1)
 ----------------------------------------------------------------------
 -----
 title
 -----
 Structure from the checkpoint file:  "BDE49_nonexpt_1087_mol1.chk"
 Charge =  0 Multiplicity = 1

                         Standard orientation:
 ---------------------------------------------------------------------
 Center     Atomic      Atomic             Coordinates (Angstroms)
 Number     Number       Type             X           Y           Z
 ---------------------------------------------------------------------
      1         17           0       -3.440728   -0.204595   -0.616017
      2          8           0       -2.271655   -0.047408    0.833534
      3          6           0       -0.975631    0.052203    0.469369
      4          6           0       -0.178234   -1.095688    0.411734
      5          6           0        1.187565   -0.993499    0.183730
      6          6           0        1.762097    0.270189   -0.018339
      7          6           0       -0.398973    1.314713    0.244662
      8          1           0       -1.034866    2.191185    0.272065
      9          6           0        0.956661    1.423085    0.014515
     10          1           0        1.430519    2.383608   -0.144829
     11          1           0       -0.644769   -2.061085    0.565936
     12          8           0        3.077403    0.485853   -0.252963
     13          6           0        3.961483   -0.629949   -0.311668
     14          1           0        3.980679   -1.172629    0.638961
     15          1           0        4.946995   -0.213599   -0.510037
     16          1           0        3.685808   -1.313676   -1.120934
     17          1           0        1.792212   -1.889571    0.162539
 ---------------------------------------------------------------------

 SCF Done:  E(RHF) =  -880.480223851     A.U. after    2 cycles

 The electronic state is 1-A.
 Alpha  occ. eigenvalues --  -99.92722 -21.13476 -21.08813 -11.54763 -11.47810
 Alpha  occ. eigenvalues --  -11.45040 -11.44093 -11.42649 -11.41532 -11.38294
 Alpha  occ. eigenvalues --  -10.49240  -9.69039  -9.68465  -9.68362  -1.80506
 Alpha  occ. eigenvalues --   -1.76690  -1.31431  -1.24549  -1.11846  -1.07548
 Alpha  occ. eigenvalues --   -0.98822  -0.89620  -0.83388  -0.71014  -0.67199
 Alpha  occ. eigenvalues --   -0.65433  -0.63629  -0.61723  -0.59886  -0.59581
 Alpha  occ. eigenvalues --   -0.57280  -0.54627  -0.52883  -0.51771  -0.48251
 Alpha  occ. eigenvalues --   -0.45449  -0.41020  -0.40435  -0.35279  -0.34763
 Alpha  occ. eigenvalues --   -0.27935
 Alpha virt. eigenvalues --    0.02241   0.03107   0.04649   0.05335   0.05833
 Alpha virt. eigenvalues --    0.06440   0.06665   0.07738   0.08725   0.10300
 Alpha virt. eigenvalues --    0.10550   0.11200   0.12236   0.12712   0.13333

 Mulliken charges:
               1
     1  Cl  -0.099566
     2  O   -3.483526
     3  C    4.623533
     4  C   -2.669287
     5  C   -0.886530
     6  C    4.303476
     7  C   -3.029373
     8  H    1.658560
     9  C   -1.479070
    10  H    1.847009
    11  H    1.646978
    12  O   -4.725889
    13  C   -3.735159
    14  H    1.376724
    15  H    1.401364
    16  H    1.384597
    17  H    1.866160
 Sum of Mulliken charges =   0.00000

 Dipole moment (field-independent basis, Debye):
    X=              6.0807    Y=             -0.0680    Z=              1.2077  Tot=              6.1998

 Test job not archived.
 1\1\GINC-SE043\SP\RHF\Aug-CC-pVDZ\C7H7Cl1O2\OHZDE\08-Apr-2025\0\\#t hf
  aug-cc-pvdz iop(5/13=1,5/36=2,99/5=2) pseudo=read geom=check guess=(r
 ead,tcheck) scf=(maxcycle=1)\\title\\0,1\Cl,0,3.440728,-0.204595,0.616
 017\O,0,2.271655,-0.047408,-0.833534\C,0,0.975631,0.052203,-0.469369\C
 ,0,0.178234,-1.095688,-0.411734\C,0,-1.187565,-0.993499,-0.18373\C,0,-
 1.762097,0.270189,0.018339\C,0,0.398973,1.314713,-0.244662\H,0,1.03486
 6,2.191185,-0.272065\C,0,-0.956661,1.423085,-0.014515\H,0,-1.430519,2.
 383608,0.144829\H,0,0.644769,-2.061085,-0.565936\O,0,-3.077403,0.48585

 Normal termination of Gaussian 16 at Tue Apr  8 23:21:34 2025.
