 Gaussian 16, Revision C.01,

 ----------------------------------------------------------------------
 #t hf aug-cc-pvdz symm=none int=(grid=ultrafine) guess=(read,tcheck) s
 table=(opt,rrhf)
 ----------------------------------------------------------------------
 -----
 title
 -----
 Symbolic Z-matrix:
 Charge =  0 Multiplicity = 1

 SCF Done:  E(RHF) =  -350.103767141     A.U. after   15 cycles
 Normal termination of Gaussian 16 at Wed Apr  9 00:39:17 2025.
 Gaussian 16:  ES64L-G16RevC.01  3-Jul-2019

 ----------------------------------------------------------------------
 #t hf aug-cc-pvdz iop(5/13=1,5/36=2,99/5=2) pseudo=read geom=check gue
 ss=(read,tcheck) scf=(maxcycle=1)
 ----------------------------------------------------------------------
 -----
 title
 -----
 Structure from the checkpoint file:  "BDE49_nonexpt_574_mol1.chk"
 Charge =  0 Multiplicity = 1

                         Standard orientation:
 ---------------------------------------------------------------------
 Center     Atomic      Atomic             Coordinates (Angstroms)
 Number     Number       Type             X           Y           Z
 ---------------------------------------------------------------------
      1          6           0        0.008398   -0.352155    0.175376
      2          6           0       -0.310817    1.009762    0.199394
      3          6           0       -1.628707    1.431940    0.052866
      4          6           0       -2.649988    0.498168   -0.120576
      5          6           0       -2.343039   -0.859259   -0.148601
      6          6           0       -1.021351   -1.278567   -0.004014
      7          5           0        3.538588    0.576304   -0.033180
      8          1           0       -1.860382    2.491115    0.074684
      9          1           0       -3.676299    0.827975   -0.235968
     10          1           0       -3.129500   -1.592623   -0.288158
     11          1           0       -0.787661   -2.338448   -0.031085
     12          1           0        0.480287    1.740060    0.328118
     13          6           0        1.439764   -0.822399    0.367600
     14          7           0        2.409813   -0.109586   -0.460466
     15          1           0        3.777445    0.629180    1.135246
     16          1           0        4.237608    1.097425   -0.846949
     17          1           0        1.488921   -1.897703    0.161576
     18          1           0        1.745616   -0.684275    1.408316
     19          1           0        2.196774   -0.152062   -1.448885
 ---------------------------------------------------------------------

 SCF Done:  E(RHF) =  -351.798429778     A.U. after    2 cycles

 The electronic state is 1-A.
 Alpha  occ. eigenvalues --  -15.71493 -11.51519 -11.44730 -11.43186 -11.42467
 Alpha  occ. eigenvalues --  -11.40852 -11.40551 -11.36114  -7.59502  -1.40831
 Alpha  occ. eigenvalues --   -1.31917  -1.12145  -1.09123  -0.98540  -0.86467
 Alpha  occ. eigenvalues --   -0.83857  -0.80953  -0.71213  -0.65536  -0.64423
 Alpha  occ. eigenvalues --   -0.58808  -0.57841  -0.57232  -0.54786  -0.50237
 Alpha  occ. eigenvalues --   -0.49266  -0.45645  -0.44675  -0.43076  -0.37807
 Alpha  occ. eigenvalues --   -0.33036  -0.32070
 Alpha virt. eigenvalues --    0.03212   0.03631   0.03790   0.04398   0.05484
 Alpha virt. eigenvalues --    0.05719   0.06314   0.06964   0.07970   0.08904
 Alpha virt. eigenvalues --    0.09878   0.10390   0.11070   0.11575   0.12242

 Mulliken charges:
               1
     1  C    4.469880
     2  C   -1.650957
     3  C   -1.860551
     4  C   -2.940245
     5  C   -1.531759
     6  C   -2.054670
     7  B    7.412337
     8  H    1.497159
     9  H    1.553043
    10  H    1.477836
    11  H    1.728349
    12  H    1.824613
    13  C   -4.109441
    14  N   -2.385581
    15  H   -3.283048
    16  H   -3.829419
    17  H    1.171339
    18  H    1.313132
    19  H    1.197983
 Sum of Mulliken charges =  -0.00000

 Dipole moment (field-independent basis, Debye):
    X=             -1.4049    Y=             -0.7469    Z=             -0.5325  Tot=              1.6778

 Test job not archived.
 1\1\GINC-SE083\SP\RHF\Aug-CC-pVDZ\C7H10B1N1\OHZDE\09-Apr-2025\0\\#t hf
  aug-cc-pvdz iop(5/13=1,5/36=2,99/5=2) pseudo=read geom=check guess=(r
 ead,tcheck) scf=(maxcycle=1)\\title\\0,1\C,0,0.008398,-0.352155,0.1753
 76\C,0,-0.310817,1.009762,0.199394\C,0,-1.628707,1.43194,0.052866\C,0,
 -2.649988,0.498168,-0.120576\C,0,-2.343039,-0.859259,-0.148601\C,0,-1.
 021351,-1.278567,-0.004014\B,0,3.538588,0.576304,-0.03318\H,0,-1.86038
 2,2.491115,0.074684\H,0,-3.676299,0.827975,-0.235968\H,0,-3.1295,-1.59
 2623,-0.288158\H,0,-0.787661,-2.338448,-0.031085\H,0,0.480287,1.74006,

 Normal termination of Gaussian 16 at Wed Apr  9 00:39:27 2025.
