 Gaussian 16, Revision C.01,

 ----------------------------------------------------------------------
 #t hf aug-cc-pvdz symm=none int=(grid=ultrafine) guess=(read,tcheck) s
 table=(opt,rrhf)
 ----------------------------------------------------------------------
 -----
 title
 -----
 Symbolic Z-matrix:
 Charge =  0 Multiplicity = 1

 SCF Done:  E(RHF) =  -758.503998746     A.U. after   16 cycles
 Normal termination of Gaussian 16 at Tue Apr  8 23:33:07 2025.
 Gaussian 16:  ES64L-G16RevC.01  3-Jul-2019

 ----------------------------------------------------------------------
 #t hf aug-cc-pvdz iop(5/13=1,5/36=2,99/5=2) pseudo=read geom=check gue
 ss=(read,tcheck) scf=(maxcycle=1)
 ----------------------------------------------------------------------
 -----
 title
 -----
 Structure from the checkpoint file:  "BDE49_nonexpt_1394_mol1.chk"
 Charge =  0 Multiplicity = 1

                         Standard orientation:
 ---------------------------------------------------------------------
 Center     Atomic      Atomic             Coordinates (Angstroms)
 Number     Number       Type             X           Y           Z
 ---------------------------------------------------------------------
      1          6           0       -1.478581   -1.473791   -0.005664
      2          6           0       -2.703900   -0.809896    0.007630
      3          6           0       -2.763329    0.584618    0.015881
      4          6           0       -1.589980    1.336979    0.007723
      5          6           0       -0.355039    0.690353    0.014335
      6          6           0       -0.322129   -0.708084   -0.002314
      7          1           0       -1.412387   -2.554253   -0.016600
      8          1           0       -1.638899    2.419982    0.000566
      9          1           0       -3.620328   -1.388411    0.007276
     10          1           0       -3.724326    1.084815    0.021414
     11          8           0        0.917695   -1.313324   -0.014025
     12         15           0        1.336908    1.361664   -0.108984
     13          6           0        1.975315   -0.415224   -0.005698
     14          8           0        3.104092   -0.788619    0.034508
     15          1           0        1.593880    1.598717    1.266883
 ---------------------------------------------------------------------

 SCF Done:  E(RHF) =  -760.536722702     A.U. after    2 cycles

 The electronic state is 1-A.
 Alpha  occ. eigenvalues -- -105.21720 -21.12219 -21.07586 -11.54458 -11.52395
 Alpha  occ. eigenvalues --  -11.48131 -11.45407 -11.43449 -11.43052 -11.39075
 Alpha  occ. eigenvalues --   -2.79642  -1.87100  -1.69904  -1.55070  -1.49427
 Alpha  occ. eigenvalues --   -1.47627  -1.33582  -1.11495  -1.09013  -0.91845
 Alpha  occ. eigenvalues --   -0.88947  -0.79789  -0.75939  -0.66576  -0.64457
 Alpha  occ. eigenvalues --   -0.62317  -0.60170  -0.58277  -0.52439  -0.52190
 Alpha  occ. eigenvalues --   -0.51036  -0.47471  -0.41735  -0.41356  -0.36580
 Alpha  occ. eigenvalues --   -0.29280  -0.26308  -0.18970  -0.04768
 Alpha virt. eigenvalues --    0.03051   0.04710   0.04892   0.06347   0.06579
 Alpha virt. eigenvalues --    0.07358   0.07995   0.09376   0.10627   0.11098
 Alpha virt. eigenvalues --    0.11412   0.12144   0.12556   0.13119   0.13268

 Mulliken charges:
               1
     1  C   -3.766200
     2  C   -1.342542
     3  C   -1.113595
     4  C   -2.010781
     5  C    0.441508
     6  C    4.211426
     7  H    1.750464
     8  H    1.620787
     9  H    1.463352
    10  H    1.537073
    11  O   -4.687695
    12  P    1.894274
    13  C    3.333800
    14  O   -3.158758
    15  H   -0.173113
 Sum of Mulliken charges =  -0.00000

 Dipole moment (field-independent basis, Debye):
    X=             -1.8134    Y=              2.6820    Z=             -2.2615  Tot=              3.9492

 Test job not archived.
 1\1\GINC-SE329\SP\RHF\Aug-CC-pVDZ\C7H5O2P1\OHZDE\08-Apr-2025\0\\#t hf
 aug-cc-pvdz iop(5/13=1,5/36=2,99/5=2) pseudo=read geom=check guess=(re
 ad,tcheck) scf=(maxcycle=1)\\title\\0,1\C,0,-1.478581,-1.473791,-0.005
 664\C,0,-2.7039,-0.809895,0.00763\C,0,-2.763329,0.584619,0.015881\C,0,
 -1.58998,1.336979,0.007723\C,0,-0.355039,0.690353,0.014335\C,0,-0.3221
 29,-0.708084,-0.002314\H,0,-1.412388,-2.554253,-0.0166\H,0,-1.638899,2
 .419982,0.000566\H,0,-3.620328,-1.38841,0.007276\H,0,-3.724326,1.08481
 6,0.021414\O,0,0.917695,-1.313324,-0.014025\P,0,1.336908,1.361664,-0.1

 Normal termination of Gaussian 16 at Tue Apr  8 23:33:15 2025.
