 Gaussian 16, Revision C.01,

 ----------------------------------------------------------------------
 #t hf aug-cc-pvdz symm=none int=(grid=ultrafine) guess=(read,tcheck) s
 table=(opt,rrhf)
 ----------------------------------------------------------------------
 -----
 title
 -----
 Symbolic Z-matrix:
 Charge =  0 Multiplicity = 1

 SCF Done:  E(RHF) =  -1205.05004472     A.U. after   17 cycles
 Normal termination of Gaussian 16 at Wed Apr  9 00:52:39 2025.
 Gaussian 16:  ES64L-G16RevC.01  3-Jul-2019

 ----------------------------------------------------------------------
 #t hf aug-cc-pvdz iop(5/13=1,5/36=2,99/5=2) pseudo=read geom=check gue
 ss=(read,tcheck) scf=(maxcycle=1)
 ----------------------------------------------------------------------
 -----
 title
 -----
 Structure from the checkpoint file:  "BDE49_nonexpt_906_mol1.chk"
 Charge =  0 Multiplicity = 1

                         Standard orientation:
 ---------------------------------------------------------------------
 Center     Atomic      Atomic             Coordinates (Angstroms)
 Number     Number       Type             X           Y           Z
 ---------------------------------------------------------------------
      1          9           0        2.784575    1.779818    0.448556
      2          7           0        3.919089   -0.603855   -0.173679
      3          1           0        4.314170   -1.523693   -0.060786
      4          1           0        4.445106    0.136927    0.263106
      5          5           0       -1.830224    0.023849   -0.015980
      6         16           0       -2.706711    1.589346   -0.340102
      7          6           0        1.947954    0.738820    0.176127
      8         16           0       -2.855357   -1.425182    0.414787
      9          6           0        2.546754   -0.498294   -0.107311
     10          6           0        1.677988   -1.570147   -0.362782
     11          1           0        2.097879   -2.543199   -0.595336
     12          6           0        0.302322   -1.395691   -0.326210
     13          1           0       -0.330211   -2.250200   -0.537596
     14          6           0       -0.291302   -0.147699   -0.052059
     15          6           0        0.587590    0.926528    0.201328
     16          1           0        0.220704    1.914747    0.452271
     17          1           0       -1.660981    2.307861   -0.783797
     18          1           0       -4.065093   -0.900799    0.151272
 ---------------------------------------------------------------------

 SCF Done:  E(RHF) =  -1207.29203703     A.U. after    2 cycles

 The electronic state is 1-A.
 Alpha  occ. eigenvalues --  -75.69195 -75.68913 -29.28800 -15.77895 -13.17108
 Alpha  occ. eigenvalues --  -13.16308 -13.10862 -13.09112 -13.05137 -13.03535
 Alpha  occ. eigenvalues --  -11.54255 -11.47670 -11.46552 -11.43779 -11.41990
 Alpha  occ. eigenvalues --  -11.37563  -8.03284  -8.02717  -7.68447  -1.44621
 Alpha  occ. eigenvalues --   -1.30848  -1.20495  -1.15122  -1.09333  -1.08059
 Alpha  occ. eigenvalues --   -0.92871  -0.89743  -0.78094  -0.70971  -0.70656
 Alpha  occ. eigenvalues --   -0.66820  -0.61168  -0.59439  -0.58257  -0.57392
 Alpha  occ. eigenvalues --   -0.52152  -0.48203  -0.47819  -0.45579  -0.42541
 Alpha  occ. eigenvalues --   -0.39556  -0.37051  -0.34512  -0.33558  -0.29243
 Alpha  occ. eigenvalues --   -0.28220  -0.24923  -0.22493
 Alpha virt. eigenvalues --    0.02697   0.03332   0.03790   0.04250   0.04756
 Alpha virt. eigenvalues --    0.05905   0.07001   0.08145   0.08689   0.08882
 Alpha virt. eigenvalues --    0.09542   0.10512   0.11232   0.11774   0.12828

 Mulliken charges:
               1
     1  F    0.736900
     2  N   -3.729858
     3  H    0.637537
     4  H    0.653866
     5  B    2.962195
     6  S   -3.022628
     7  C    5.727543
     8  S   -2.971592
     9  C   -2.300978
    10  C   -0.517037
    11  H    1.752222
    12  C   -1.680595
    13  H    1.850702
    14  C   -0.531234
    15  C   -3.416272
    16  H    2.098992
    17  H    0.912304
    18  H    0.837933
 Sum of Mulliken charges =   0.00000

 Dipole moment (field-independent basis, Debye):
    X=              2.7424    Y=             -0.2298    Z=              1.4668  Tot=              3.1185

 Test job not archived.
 1\1\GINC-SE177\SP\RHF\Aug-CC-pVDZ\C6H7B1F1N1S2\OHZDE\09-Apr-2025\0\\#t
  hf aug-cc-pvdz iop(5/13=1,5/36=2,99/5=2) pseudo=read geom=check guess
 =(read,tcheck) scf=(maxcycle=1)\\title\\0,1\F,0,2.784575,1.779818,0.44
 8556\N,0,3.919089,-0.603855,-0.173679\H,0,4.31417,-1.523693,-0.060786\
 H,0,4.445106,0.136927,0.263106\B,0,-1.830224,0.023849,-0.01598\S,0,-2.
 706711,1.589346,-0.340102\C,0,1.947954,0.73882,0.176127\S,0,-2.855357,
 -1.425182,0.414787\C,0,2.546754,-0.498294,-0.107311\C,0,1.677988,-1.57
 0147,-0.362782\H,0,2.097879,-2.543199,-0.595336\C,0,0.302322,-1.395691

 Normal termination of Gaussian 16 at Wed Apr  9 00:52:51 2025.
