 Gaussian 16, Revision C.01,

 ----------------------------------------------------------------------
 #t hf aug-cc-pvdz symm=none int=(grid=ultrafine) guess=(read,tcheck) s
 table=(opt,rrhf)
 ----------------------------------------------------------------------
 -----
 title
 -----
 Symbolic Z-matrix:
 Charge =  0 Multiplicity = 1

 SCF Done:  E(RHF) =  -993.727026067     A.U. after   13 cycles
 Normal termination of Gaussian 16 at Tue Apr  8 22:58:38 2025.
 Gaussian 16:  ES64L-G16RevC.01  3-Jul-2019

 ----------------------------------------------------------------------
 #t hf aug-cc-pvdz iop(5/13=1,5/36=2,99/5=2) pseudo=read geom=check gue
 ss=(read,tcheck) scf=(maxcycle=1)
 ----------------------------------------------------------------------
 -----
 title
 -----
 Structure from the checkpoint file:  "BDE49_expt_1922_mol1.chk"
 Charge =  0 Multiplicity = 1

                         Standard orientation:
 ---------------------------------------------------------------------
 Center     Atomic      Atomic             Coordinates (Angstroms)
 Number     Number       Type             X           Y           Z
 ---------------------------------------------------------------------
      1          8           0        0.000000   -0.000000    0.782964
      2         17           0        0.000000    1.443627   -0.184227
      3         17           0       -0.000000   -1.443627   -0.184227
 ---------------------------------------------------------------------

 SCF Done:  E(RHF) =  -994.518918857     A.U. after    2 cycles

 The electronic state is 1-A1.
 Alpha  occ. eigenvalues --  -99.96655 -99.96646 -21.17843 -10.53422 -10.53308
 Alpha  occ. eigenvalues --   -9.73318  -9.72913  -9.72386  -9.72251  -9.72234
 Alpha  occ. eigenvalues --   -9.72204  -1.81305  -1.33047  -1.20562  -0.67827
 Alpha  occ. eigenvalues --   -0.66088  -0.64334  -0.56883  -0.53930  -0.49618
 Alpha  occ. eigenvalues --   -0.39285
 Alpha virt. eigenvalues --   -0.02775   0.04365   0.09899   0.11150   0.11627
 Alpha virt. eigenvalues --    0.11716   0.15237   0.15495   0.16273   0.22074
 Alpha virt. eigenvalues --    0.22551   0.24038   0.26313   0.27402   0.27558

 Mulliken charges:
               1
     1  O   -1.121603
     2  Cl   0.560802
     3  Cl   0.560802
 Sum of Mulliken charges =  -0.00000

 Dipole moment (field-independent basis, Debye):
    X=             -0.0000    Y=             -0.0000    Z=              1.1508  Tot=              1.1508

 Test job not archived.
 1\1\GINC-SE094\SP\RHF\Aug-CC-pVDZ\Cl2O1\OHZDE\08-Apr-2025\0\\#t hf aug
 -cc-pvdz iop(5/13=1,5/36=2,99/5=2) pseudo=read geom=check guess=(read,
 tcheck) scf=(maxcycle=1)\\title\\0,1\O,0,0.,0.,0.782964\Cl,0,0.,1.4436
 27,-0.184227\Cl,0,0.,-1.443627,-0.184227\\Version=ES64L-G16RevC.01\Sta
 te=1-A1\HF=-994.5189189\RMSD=2.115e-02\Dipole=0.,0.,0.4527521\Quadrupo
 le=-1.5973344,0.9926174,0.604717,0.,0.,0.\PG=C02V [C2(O1),SGV(Cl2)]\\@

 Normal termination of Gaussian 16 at Tue Apr  8 22:58:39 2025.
