 Gaussian 16, Revision C.01,

 ----------------------------------------------------------------------
 #t hf aug-cc-pvdz symm=none int=(grid=ultrafine) guess=(read,tcheck) s
 table=(opt,rrhf)
 ----------------------------------------------------------------------
 -----
 title
 -----
 Symbolic Z-matrix:
 Charge =  0 Multiplicity = 1

 SCF Done:  E(RHF) =  -637.030879609     A.U. after   12 cycles
 Normal termination of Gaussian 16 at Tue Apr  8 22:30:18 2025.
 Gaussian 16:  ES64L-G16RevC.01  3-Jul-2019

 ----------------------------------------------------------------------
 #t hf aug-cc-pvdz iop(5/13=1,5/36=2,99/5=2) pseudo=read geom=check gue
 ss=(read,tcheck) scf=(maxcycle=1)
 ----------------------------------------------------------------------
 -----
 title
 -----
 Structure from the checkpoint file:  "BDE49_expt_1010_mol1.chk"
 Charge =  0 Multiplicity = 1

                         Standard orientation:
 ---------------------------------------------------------------------
 Center     Atomic      Atomic             Coordinates (Angstroms)
 Number     Number       Type             X           Y           Z
 ---------------------------------------------------------------------
      1          6           0        0.417705    0.102187    0.388530
      2          6           0        1.264087   -1.039484   -0.111884
      3         17           0       -1.328053   -0.128867   -0.055286
      4          9           0        0.847222    1.282583   -0.165425
      5          1           0        0.424856    0.217008    1.471291
      6          1           0        1.190288   -1.110732   -1.197757
      7          1           0        0.940474   -1.981506    0.332053
      8          1           0        2.305530   -0.853501    0.163219
 ---------------------------------------------------------------------

 SCF Done:  E(RHF) =  -638.010656721     A.U. after    2 cycles

 The electronic state is 1-A.
 Alpha  occ. eigenvalues --  -99.88827 -29.28185 -11.51817 -11.39763 -10.46180
 Alpha  occ. eigenvalues --   -9.66009  -9.65266  -9.65219  -1.37310  -1.17926
 Alpha  occ. eigenvalues --   -0.98045  -0.74982  -0.69301  -0.62746  -0.56116
 Alpha  occ. eigenvalues --   -0.55361  -0.50083  -0.49424  -0.39168  -0.29060
 Alpha  occ. eigenvalues --   -0.27435
 Alpha virt. eigenvalues --    0.03779   0.05273   0.06015   0.06844   0.07909
 Alpha virt. eigenvalues --    0.11175   0.11757   0.12875   0.13431   0.14325
 Alpha virt. eigenvalues --    0.16243   0.17131   0.18194   0.18379   0.20375

 Mulliken charges:
               1
     1  C   -2.517846
     2  C   -3.251243
     3  Cl  -0.171501
     4  F    0.555272
     5  H    1.704821
     6  H    1.263462
     7  H    1.236265
     8  H    1.180770
 Sum of Mulliken charges =  -0.00000

 Dipole moment (field-independent basis, Debye):
    X=              3.2281    Y=              1.5474    Z=             -0.0495  Tot=              3.5802

 Test job not archived.
 1\1\GINC-SE073\SP\RHF\Aug-CC-pVDZ\C2H4Cl1F1\OHZDE\08-Apr-2025\0\\#t hf
  aug-cc-pvdz iop(5/13=1,5/36=2,99/5=2) pseudo=read geom=check guess=(r
 ead,tcheck) scf=(maxcycle=1)\\title\\0,1\C,0,0.417705,0.102187,0.38853
 \C,0,1.264087,-1.039484,-0.111884\Cl,0,-1.328053,-0.128867,-0.055286\F
 ,0,0.847222,1.282583,-0.165425\H,0,0.424856,0.217008,1.471291\H,0,1.19
 0288,-1.110732,-1.197757\H,0,0.940474,-1.981506,0.332053\H,0,2.30553,-
 0.853501,0.163219\\Version=ES64L-G16RevC.01\State=1-A\HF=-638.0106567\
 RMSD=1.707e-01\Dipole=1.2700321,0.6087879,-0.0194929\Quadrupole=-0.397

 Normal termination of Gaussian 16 at Tue Apr  8 22:30:21 2025.
