 Gaussian 16, Revision C.01,

 ----------------------------------------------------------------------
 #t hf aug-cc-pvdz symm=none int=(grid=ultrafine) guess=(read,tcheck) s
 table=(opt,rrhf)
 ----------------------------------------------------------------------
 -----
 title
 -----
 Symbolic Z-matrix:
 Charge =  0 Multiplicity = 1

 SCF Done:  E(RHF) =  -576.063014661     A.U. after   14 cycles
 Normal termination of Gaussian 16 at Wed Apr  9 00:02:13 2025.
 Gaussian 16:  ES64L-G16RevC.01  3-Jul-2019

 ----------------------------------------------------------------------
 #t hf aug-cc-pvdz iop(5/13=1,5/36=2,99/5=2) pseudo=read geom=check gue
 ss=(read,tcheck) scf=(maxcycle=1)
 ----------------------------------------------------------------------
 -----
 title
 -----
 Structure from the checkpoint file:  "BDE49_nonexpt_2116_mol1.chk"
 Charge =  0 Multiplicity = 1

                         Standard orientation:
 ---------------------------------------------------------------------
 Center     Atomic      Atomic             Coordinates (Angstroms)
 Number     Number       Type             X           Y           Z
 ---------------------------------------------------------------------
      1          6           0       -0.939851   -0.127232    0.000012
      2          7           0        2.245411    0.288666   -0.000021
      3          8           0        2.309882   -0.924164   -0.000017
      4          6           0       -2.229962    0.721867    0.000020
      5          1           0       -2.300703    1.361650   -0.885177
      6          1           0       -2.300679    1.361671    0.885203
      7          6           0       -0.900126   -1.013616    1.263329
      8          1           0       -0.927252   -0.417511    2.180780
      9          1           0       -0.003804   -1.637806    1.287885
     10          1           0       -1.771459   -1.679377    1.279624
     11          1           0       -3.108169    0.064518    0.000039
     12          6           0       -0.900161   -1.013648   -1.263284
     13          1           0       -1.771494   -1.679409   -1.279538
     14          1           0       -0.003839   -1.637837   -1.287850
     15          1           0       -0.927314   -0.417565   -2.180749
     16         14           0        0.539814    1.058689   -0.000022
     17          1           0        0.590500    1.914247    1.210057
     18          1           0        0.590484    1.914197   -1.210138
 ---------------------------------------------------------------------

 SCF Done:  E(RHF) =  -577.580026092     A.U. after    2 cycles

 The electronic state is 1-A.
 Alpha  occ. eigenvalues --  -76.23444 -21.12470 -15.82854 -11.41841 -11.40127
 Alpha  occ. eigenvalues --  -11.39611 -11.35550  -5.57285  -2.22242  -2.20478
 Alpha  occ. eigenvalues --   -2.19716  -1.83181  -1.26483  -1.01536  -1.01325
 Alpha  occ. eigenvalues --   -1.00764  -0.81616  -0.72280  -0.62073  -0.61718
 Alpha  occ. eigenvalues --   -0.61310  -0.57387  -0.55527  -0.54726  -0.52675
 Alpha  occ. eigenvalues --   -0.52344  -0.51803  -0.47032  -0.44903  -0.44534
 Alpha  occ. eigenvalues --   -0.37764  -0.23968
 Alpha virt. eigenvalues --    0.03640   0.05200   0.05412   0.05439   0.05786
 Alpha virt. eigenvalues --    0.05821   0.06395   0.06708   0.07284   0.08455
 Alpha virt. eigenvalues --    0.09319   0.09371   0.09641   0.10961   0.12218

 Mulliken charges:
               1
     1  C   -0.037476
     2  N    0.306916
     3  O   -1.475186
     4  C   -4.293367
     5  H    1.310622
     6  H    1.310627
     7  C   -4.096576
     8  H    1.313345
     9  H    1.327133
    10  H    1.238302
    11  H    1.264036
    12  C   -4.096579
    13  H    1.238303
    14  H    1.327130
    15  H    1.313346
    16  Si   6.110449
    17  H   -2.030509
    18  H   -2.030516
 Sum of Mulliken charges =   0.00000

 Dipole moment (field-independent basis, Debye):
    X=             -2.3299    Y=             -0.8861    Z=              0.0000  Tot=              2.4927

 Test job not archived.
 1\1\GINC-SE247\SP\RHF\Aug-CC-pVDZ\C4H11N1O1Si1\OHZDE\09-Apr-2025\0\\#t
  hf aug-cc-pvdz iop(5/13=1,5/36=2,99/5=2) pseudo=read geom=check guess
 =(read,tcheck) scf=(maxcycle=1)\\title\\0,1\C,0,-0.939851,-0.127232,0.
 000012\N,0,2.245411,0.288666,-0.000021\O,0,2.309882,-0.924164,-0.00001
 7\C,0,-2.229962,0.721867,0.00002\H,0,-2.300703,1.36165,-0.885177\H,0,-
 2.300679,1.361671,0.885203\C,0,-0.900126,-1.013616,1.263329\H,0,-0.927
 252,-0.417511,2.18078\H,0,-0.003804,-1.637806,1.287885\H,0,-1.771459,-
 1.679377,1.279624\H,0,-3.108169,0.064518,0.000039\C,0,-0.900161,-1.013

 Normal termination of Gaussian 16 at Wed Apr  9 00:02:21 2025.
