 Gaussian 16, Revision C.01,

 ----------------------------------------------------------------------
 #t hf aug-cc-pvdz symm=none int=(grid=ultrafine) guess=(read,tcheck) s
 table=(opt,rrhf)
 ----------------------------------------------------------------------
 -----
 title
 -----
 Symbolic Z-matrix:
 Charge =  0 Multiplicity = 1

 SCF Done:  E(RHF) =  -1030.96155551     A.U. after   16 cycles
 Normal termination of Gaussian 16 at Tue Apr  8 23:33:41 2025.
 Gaussian 16:  ES64L-G16RevC.01  3-Jul-2019

 ----------------------------------------------------------------------
 #t hf aug-cc-pvdz iop(5/13=1,5/36=2,99/5=2) pseudo=read geom=check gue
 ss=(read,tcheck) scf=(maxcycle=1)
 ----------------------------------------------------------------------
 -----
 title
 -----
 Structure from the checkpoint file:  "BDE49_nonexpt_1420_mol1.chk"
 Charge =  0 Multiplicity = 1

                         Standard orientation:
 ---------------------------------------------------------------------
 Center     Atomic      Atomic             Coordinates (Angstroms)
 Number     Number       Type             X           Y           Z
 ---------------------------------------------------------------------
      1          6           0       -0.739975   -1.212985    0.000009
      2          6           0        0.654239   -1.206981    0.000002
      3          6           0        1.375377   -0.008494    0.000009
      4          6           0       -1.417602   -0.000894    0.000007
      5          6           0       -0.728663    1.209873    0.000010
      6          6           0        0.661471    1.197835    0.000013
      7          1           0       -1.290935   -2.144551    0.000007
      8          1           0        1.184202   -2.153096   -0.000009
      9         15           0        3.223785   -0.111634   -0.000044
     10          1           0        1.192857    2.142651    0.000028
     11         17           0       -3.172787    0.008777   -0.000008
     12          1           0       -1.275551    2.144026    0.000009
     13          1           0        3.470496    0.832767    1.030752
     14          1           0        3.470445    0.833378   -1.030287
 ---------------------------------------------------------------------

 SCF Done:  E(RHF) =  -1032.50211710     A.U. after    2 cycles

 The electronic state is 1-A.
 Alpha  occ. eigenvalues -- -105.19104 -99.89903 -11.52578 -11.46470 -11.45161
 Alpha  occ. eigenvalues --  -11.43475 -11.42639 -11.38470 -10.47251  -9.67273
 Alpha  occ. eigenvalues --   -9.66381  -9.66212  -2.75926  -1.50615  -1.45589
 Alpha  occ. eigenvalues --   -1.44332  -1.40003  -1.27666  -1.11450  -1.07518
 Alpha  occ. eigenvalues --   -0.89246  -0.86020  -0.75989  -0.69870  -0.64546
 Alpha  occ. eigenvalues --   -0.61994  -0.59996  -0.57783  -0.53294  -0.51023
 Alpha  occ. eigenvalues --   -0.50046  -0.46090  -0.35229  -0.34992  -0.25857
 Alpha  occ. eigenvalues --   -0.24375  -0.03544
 Alpha virt. eigenvalues --    0.03173   0.05430   0.05985   0.06492   0.06898
 Alpha virt. eigenvalues --    0.07880   0.08149   0.08587   0.08607   0.09753
 Alpha virt. eigenvalues --    0.11493   0.11730   0.11731   0.12828   0.13490

 Mulliken charges:
               1
     1  C   -1.409064
     2  C   -3.017646
     3  C    2.411218
     4  C   -1.478700
     5  C   -1.264855
     6  C   -1.439301
     7  H    1.831070
     8  H    1.865237
     9  P    1.007461
    10  H    1.871135
    11  Cl  -0.773990
    12  H    1.742328
    13  H   -0.672322
    14  H   -0.672570
 Sum of Mulliken charges =   0.00000

 Dipole moment (field-independent basis, Debye):
    X=              1.6515    Y=             -2.1746    Z=             -0.0008  Tot=              2.7306

 Test job not archived.
 1\1\GINC-SE341\SP\RHF\Aug-CC-pVDZ\C6H6Cl1P1\OHZDE\08-Apr-2025\0\\#t hf
  aug-cc-pvdz iop(5/13=1,5/36=2,99/5=2) pseudo=read geom=check guess=(r
 ead,tcheck) scf=(maxcycle=1)\\title\\0,1\C,0,-0.739975,-1.212985,0.000
 009\C,0,0.654239,-1.206981,0.000002\C,0,1.375377,-0.008494,0.000009\C,
 0,-1.417602,-0.000894,0.000007\C,0,-0.728663,1.209873,0.00001\C,0,0.66
 1471,1.197835,0.000013\H,0,-1.290935,-2.144551,0.000007\H,0,1.184202,-
 2.153096,-0.000009\P,0,3.223785,-0.111634,-0.000044\H,0,1.192857,2.142
 651,0.000028\Cl,0,-3.172787,0.008777,-0.000008\H,0,-1.275551,2.144026,

 Normal termination of Gaussian 16 at Tue Apr  8 23:33:46 2025.
