 Gaussian 16, Revision C.01,

 ----------------------------------------------------------------------
 #t hf aug-cc-pvdz symm=none int=(grid=ultrafine) guess=(read,tcheck) s
 table=(opt,rrhf)
 ----------------------------------------------------------------------
 -----
 title
 -----
 Symbolic Z-matrix:
 Charge =  0 Multiplicity = 1

 SCF Done:  E(RHF) =  -431.061525583     A.U. after   14 cycles
 Normal termination of Gaussian 16 at Wed Apr  9 00:33:55 2025.
 Gaussian 16:  ES64L-G16RevC.01  3-Jul-2019

 ----------------------------------------------------------------------
 #t hf aug-cc-pvdz iop(5/13=1,5/36=2,99/5=2) pseudo=read geom=check gue
 ss=(read,tcheck) scf=(maxcycle=1)
 ----------------------------------------------------------------------
 -----
 title
 -----
 Structure from the checkpoint file:  "BDE49_nonexpt_412_mol1.chk"
 Charge =  0 Multiplicity = 1

                         Standard orientation:
 ---------------------------------------------------------------------
 Center     Atomic      Atomic             Coordinates (Angstroms)
 Number     Number       Type             X           Y           Z
 ---------------------------------------------------------------------
      1          9           0        1.655401   -1.389171   -0.000017
      2          5           0        1.194634   -0.150806    0.000039
      3          9           0        2.097901    0.826140   -0.000030
      4          6           0       -0.320508    0.198575    0.000018
      5          7           0       -1.092104   -0.832290    0.000012
      6          8           0       -2.434827   -0.480715   -0.000004
      7          1           0       -2.880023   -1.335243   -0.000006
      8          6           0       -0.822318    1.618427    0.000009
      9          1           0        0.006873    2.324416    0.000018
     10          1           0       -1.449729    1.800937    0.877098
     11          1           0       -1.449706    1.800934   -0.877097
 ---------------------------------------------------------------------

 SCF Done:  E(RHF) =  -432.760916630     A.U. after    2 cycles

 The electronic state is 1-A.
 Alpha  occ. eigenvalues --  -29.26249 -29.25565 -21.11868 -15.80957 -11.43711
 Alpha  occ. eigenvalues --  -11.37913  -7.71445  -1.81566  -1.32147  -1.12519
 Alpha  occ. eigenvalues --   -1.07143  -0.79739  -0.75096  -0.68478  -0.61181
 Alpha  occ. eigenvalues --   -0.60598  -0.55576  -0.53970  -0.52393  -0.48547
 Alpha  occ. eigenvalues --   -0.45938  -0.44860  -0.36984  -0.34289  -0.32986
 Alpha  occ. eigenvalues --   -0.31704  -0.26779
 Alpha virt. eigenvalues --    0.03355   0.04412   0.04967   0.05643   0.06924
 Alpha virt. eigenvalues --    0.07252   0.07945   0.08630   0.10382   0.11664
 Alpha virt. eigenvalues --    0.14069   0.14391   0.14991   0.15859   0.17381

 Mulliken charges:
               1
     1  F    0.280008
     2  B    1.609799
     3  F   -0.767141
     4  C    0.127155
     5  N   -0.097485
     6  O   -2.311811
     7  H    0.880632
     8  C   -3.727648
     9  H    1.627451
    10  H    1.189522
    11  H    1.189518
 Sum of Mulliken charges =  -0.00000

 Dipole moment (field-independent basis, Debye):
    X=              0.9985    Y=             -0.0163    Z=             -0.0002  Tot=              0.9987

 Test job not archived.
 1\1\GINC-SE109\SP\RHF\Aug-CC-pVDZ\C2H4B1F2N1O1\OHZDE\09-Apr-2025\0\\#t
  hf aug-cc-pvdz iop(5/13=1,5/36=2,99/5=2) pseudo=read geom=check guess
 =(read,tcheck) scf=(maxcycle=1)\\title\\0,1\F,0,1.655401,-1.389171,-0.
 000017\B,0,1.194634,-0.150806,0.000039\F,0,2.097901,0.82614,-0.00003\C
 ,0,-0.320508,0.198575,0.000018\N,0,-1.092104,-0.83229,0.000012\O,0,-2.
 434827,-0.480715,-0.000004\H,0,-2.880023,-1.335243,-0.000006\C,0,-0.82
 2318,1.618427,0.000009\H,0,0.006873,2.324416,0.000018\H,0,-1.449729,1.
 800937,0.877098\H,0,-1.449706,1.800934,-0.877097\\Version=ES64L-G16Rev

 Normal termination of Gaussian 16 at Wed Apr  9 00:34:00 2025.
