 Gaussian 16, Revision C.01,

 ----------------------------------------------------------------------
 #t hf aug-cc-pvdz symm=none int=(grid=ultrafine) guess=(read,tcheck) s
 table=(opt,rrhf)
 ----------------------------------------------------------------------
 -----
 title
 -----
 Symbolic Z-matrix:
 Charge =  0 Multiplicity = 1

 SCF Done:  E(RHF) =  -594.146814450     A.U. after   16 cycles
 Normal termination of Gaussian 16 at Tue Apr  8 23:20:55 2025.
 Gaussian 16:  ES64L-G16RevC.01  3-Jul-2019

 ----------------------------------------------------------------------
 #t hf aug-cc-pvdz iop(5/13=1,5/36=2,99/5=2) pseudo=read geom=check gue
 ss=(read,tcheck) scf=(maxcycle=1)
 ----------------------------------------------------------------------
 -----
 title
 -----
 Structure from the checkpoint file:  "BDE49_nonexpt_1115_mol1.chk"
 Charge =  0 Multiplicity = 1

                         Standard orientation:
 ---------------------------------------------------------------------
 Center     Atomic      Atomic             Coordinates (Angstroms)
 Number     Number       Type             X           Y           Z
 ---------------------------------------------------------------------
      1          9           0       -1.536467   -1.221721   -0.000000
      2          8           0        0.119322   -1.306867   -0.000000
      3         15           0        0.765689    0.121245    0.000000
      4          6           0        0.119322    1.032143    1.448717
      5          6           0        0.119322    1.032143   -1.448717
      6          1           0        0.423136    0.513265    2.358547
      7          1           0       -0.970428    1.063766    1.395936
      8          1           0        0.525506    2.045989    1.462167
      9          1           0        0.423136    0.513265   -2.358547
     10          1           0        0.525506    2.045989   -1.462167
     11          1           0       -0.970428    1.063766   -1.395936
 ---------------------------------------------------------------------

 SCF Done:  E(RHF) =  -595.413966679     A.U. after    2 cycles

 The electronic state is 1-A'.
 Alpha  occ. eigenvalues -- -105.22136 -29.23435 -21.18167 -11.39485 -11.39341
 Alpha  occ. eigenvalues --   -2.82805  -1.87642  -1.54639  -1.50882  -1.37208
 Alpha  occ. eigenvalues --   -1.05096  -0.99146  -0.69293  -0.60674  -0.59957
 Alpha  occ. eigenvalues --   -0.59030  -0.57756  -0.57679  -0.46794  -0.35254
 Alpha  occ. eigenvalues --   -0.29789  -0.23509  -0.20533  -0.19352  -0.02158
 Alpha virt. eigenvalues --    0.04412   0.05246   0.05958   0.06880   0.06911
 Alpha virt. eigenvalues --    0.07530   0.09306   0.10064   0.11198   0.13574
 Alpha virt. eigenvalues --    0.15942   0.16232   0.16768   0.16802   0.18913

 Mulliken charges:
               1
     1  F   -0.322710
     2  O   -1.345922
     3  P    7.294298
     4  C   -5.875368
     5  C   -5.875368
     6  H    1.030694
     7  H    1.038122
     8  H    0.993720
     9  H    1.030694
    10  H    0.993720
    11  H    1.038122
 Sum of Mulliken charges =   0.00000

 Dipole moment (field-independent basis, Debye):
    X=             -2.6486    Y=             -1.6329    Z=             -0.0000  Tot=              3.1115

 Test job not archived.
 1\1\GINC-SE116\SP\RHF\Aug-CC-pVDZ\C2H6F1O1P1\OHZDE\08-Apr-2025\0\\#t h
 f aug-cc-pvdz iop(5/13=1,5/36=2,99/5=2) pseudo=read geom=check guess=(
 read,tcheck) scf=(maxcycle=1)\\title\\0,1\F,0,-1.536467,-1.221721,0.\O
 ,0,0.119322,-1.306867,0.\P,0,0.765689,0.121245,0.\C,0,0.119322,1.03214
 3,1.448717\C,0,0.119322,1.032143,-1.448717\H,0,0.423136,0.513265,2.358
 547\H,0,-0.970428,1.063766,1.395936\H,0,0.525506,2.045989,1.462167\H,0
 ,0.423136,0.513265,-2.358547\H,0,0.525506,2.045989,-1.462167\H,0,-0.97
 0428,1.063766,-1.395936\\Version=ES64L-G16RevC.01\State=1-A'\HF=-595.4

 Normal termination of Gaussian 16 at Tue Apr  8 23:20:59 2025.
