 Gaussian 16, Revision C.01,

 ----------------------------------------------------------------------
 #t hf aug-cc-pvdz symm=none int=(grid=ultrafine) guess=(read,tcheck) s
 table=(opt,rrhf)
 ----------------------------------------------------------------------
 -----
 title
 -----
 Symbolic Z-matrix:
 Charge =  0 Multiplicity = 1

 SCF Done:  E(RHF) =  -709.445320254     A.U. after   12 cycles
 Normal termination of Gaussian 16 at Tue Apr  8 23:42:17 2025.
 Gaussian 16:  ES64L-G16RevC.01  3-Jul-2019

 ----------------------------------------------------------------------
 #t hf aug-cc-pvdz iop(5/13=1,5/36=2,99/5=2) pseudo=read geom=check gue
 ss=(read,tcheck) scf=(maxcycle=1)
 ----------------------------------------------------------------------
 -----
 title
 -----
 Structure from the checkpoint file:  "BDE49_nonexpt_1658_mol1.chk"
 Charge =  0 Multiplicity = 1

                         Standard orientation:
 ---------------------------------------------------------------------
 Center     Atomic      Atomic             Coordinates (Angstroms)
 Number     Number       Type             X           Y           Z
 ---------------------------------------------------------------------
      1         15           0        1.869962   -0.184301   -0.051986
      2         14           0       -0.259652    0.583183   -0.131686
      3          6           0       -1.674709   -0.139051    0.831156
      4          6           0       -1.635968   -0.543255   -0.669258
      5          1           0       -1.424614   -1.588006   -0.877002
      6          1           0       -2.429892   -0.149792   -1.296774
      7          1           0       -2.491234    0.509740    1.134858
      8          1           0       -1.485136   -0.932854    1.547240
      9          1           0        1.480906   -1.464367    0.422290
     10          1           0        2.145631    0.316565    1.248478
     11          1           0       -0.345909    2.002495   -0.527087
 ---------------------------------------------------------------------

 SCF Done:  E(RHF) =  -710.199533809     A.U. after    2 cycles

 The electronic state is 1-A.
 Alpha  occ. eigenvalues -- -105.18104 -76.21417 -11.38690 -11.34945  -5.55470
 Alpha  occ. eigenvalues --   -2.74892  -2.20864  -2.17202  -2.16507  -1.44254
 Alpha  occ. eigenvalues --   -1.43947  -1.42207  -1.15967  -0.85219  -0.76213
 Alpha  occ. eigenvalues --   -0.65991  -0.62337  -0.54567  -0.50226  -0.40864
 Alpha  occ. eigenvalues --   -0.31984  -0.26250  -0.17004  -0.04629
 Alpha virt. eigenvalues --    0.04042   0.05625   0.05957   0.06242   0.06762
 Alpha virt. eigenvalues --    0.06939   0.08027   0.08150   0.09543   0.10766
 Alpha virt. eigenvalues --    0.11413   0.11843   0.13322   0.13802   0.14560

 Mulliken charges:
               1
     1  P    1.099742
     2  Si   4.340176
     3  C   -3.266540
     4  C   -3.228674
     5  H    1.105162
     6  H    1.114918
     7  H    1.120203
     8  H    1.118935
     9  H   -0.760718
    10  H   -0.720379
    11  H   -1.922826
 Sum of Mulliken charges =   0.00000

 Dipole moment (field-independent basis, Debye):
    X=              6.0585    Y=             -0.2650    Z=             -3.5235  Tot=              7.0136

 Test job not archived.
 1\1\GINC-SE108\SP\RHF\Aug-CC-pVDZ\C2H7P1Si1\OHZDE\08-Apr-2025\0\\#t hf
  aug-cc-pvdz iop(5/13=1,5/36=2,99/5=2) pseudo=read geom=check guess=(r
 ead,tcheck) scf=(maxcycle=1)\\title\\0,1\P,0,1.869962,-0.184301,-0.051
 986\Si,0,-0.259652,0.583183,-0.131686\C,0,-1.674709,-0.139051,0.831156
 \C,0,-1.635968,-0.543255,-0.669258\H,0,-1.424614,-1.588006,-0.877002\H
 ,0,-2.429892,-0.149792,-1.296774\H,0,-2.491234,0.50974,1.134858\H,0,-1
 .485136,-0.932854,1.54724\H,0,1.480906,-1.464367,0.42229\H,0,2.145631,
 0.316565,1.248478\H,0,-0.345909,2.002495,-0.527087\\Version=ES64L-G16R

 Normal termination of Gaussian 16 at Tue Apr  8 23:42:20 2025.
