 Gaussian 16, Revision C.01,

 ----------------------------------------------------------------------
 #t hf aug-cc-pvdz symm=none int=(grid=ultrafine) guess=(read,tcheck) s
 table=(opt,rrhf)
 ----------------------------------------------------------------------
 -----
 title
 -----
 Symbolic Z-matrix:
 Charge =  0 Multiplicity = 1

 SCF Done:  E(RHF) =  -1998.53586177     A.U. after   13 cycles
 Normal termination of Gaussian 16 at Tue Apr  8 23:54:26 2025.
 Gaussian 16:  ES64L-G16RevC.01  3-Jul-2019

 ----------------------------------------------------------------------
 #t hf aug-cc-pvdz iop(5/13=1,5/36=2,99/5=2) pseudo=read geom=check gue
 ss=(read,tcheck) scf=(maxcycle=1)
 ----------------------------------------------------------------------
 -----
 title
 -----
 Structure from the checkpoint file:  "BDE49_nonexpt_1929_mol1.chk"
 Charge =  0 Multiplicity = 1

                         Standard orientation:
 ---------------------------------------------------------------------
 Center     Atomic      Atomic             Coordinates (Angstroms)
 Number     Number       Type             X           Y           Z
 ---------------------------------------------------------------------
      1          6           0        0.724863   -0.995179   -0.798180
      2         14           0       -0.548889   -1.210292    0.571242
      3         16           0       -2.589315   -1.034326   -0.166942
      4          1           0       -0.325715   -0.223877    1.645930
      5          1           0       -0.463466   -2.590434    1.100217
      6         16           0       -2.584921    1.009747   -0.687879
      7         16           0        2.445399   -1.098459   -0.124507
      8         16           0        2.785610    0.774461    0.707873
      9          6           0       -3.174467    1.804294    0.847112
     10          1           0       -3.240468    2.870866    0.617694
     11          1           0       -2.469834    1.652824    1.663807
     12          1           0       -4.160938    1.429542    1.116533
     13          6           0        3.389610    1.753431   -0.715718
     14          1           0        3.652735    2.733309   -0.309526
     15          1           0        2.611937    1.875670   -1.468977
     16          1           0        4.274283    1.290128   -1.149727
     17          1           0        0.604253   -0.068333   -1.359202
     18          1           0        0.653271   -1.823654   -1.510144
 ---------------------------------------------------------------------

 SCF Done:  E(RHF) =  -2000.22739416     A.U. after    2 cycles

 The electronic state is 1-A.
 Alpha  occ. eigenvalues --  -76.24263 -75.71017 -75.70981 -75.70541 -75.69696
 Alpha  occ. eigenvalues --  -13.14801 -13.13228 -13.12019 -13.11199 -13.09860
 Alpha  occ. eigenvalues --  -13.09222 -13.08425 -13.07562 -13.06609 -13.05790
 Alpha  occ. eigenvalues --  -13.05357 -13.04525 -11.40374 -11.40302 -11.39081
 Alpha  occ. eigenvalues --   -8.04773  -8.04754  -8.04426  -8.03630  -5.57718
 Alpha  occ. eigenvalues --   -2.21110  -2.19811  -2.19569  -1.26252  -1.23520
 Alpha  occ. eigenvalues --   -1.12835  -1.06711  -0.98398  -0.90816  -0.87382
 Alpha  occ. eigenvalues --   -0.73235  -0.61549  -0.59808  -0.59641  -0.59517
 Alpha  occ. eigenvalues --   -0.59268  -0.50614  -0.48649  -0.47710  -0.45952
 Alpha  occ. eigenvalues --   -0.43701  -0.38241  -0.35657  -0.34209  -0.27733
 Alpha  occ. eigenvalues --   -0.25560  -0.23596  -0.21969
 Alpha virt. eigenvalues --    0.02309   0.02565   0.03700   0.04116   0.05176
 Alpha virt. eigenvalues --    0.05601   0.07008   0.07141   0.07687   0.07839
 Alpha virt. eigenvalues --    0.08754   0.08943   0.10038   0.10481   0.11198

 Mulliken charges:
               1
     1  C   -4.205180
     2  Si   7.418371
     3  S   -1.624016
     4  H   -2.000878
     5  H   -2.256409
     6  S   -0.025225
     7  S   -0.025021
     8  S    0.232456
     9  C   -4.723072
    10  H    1.414355
    11  H    1.555731
    12  H    1.516773
    13  C   -4.694923
    14  H    1.378156
    15  H    1.552193
    16  H    1.521708
    17  H    1.541992
    18  H    1.422988
 Sum of Mulliken charges =   0.00000

 Dipole moment (field-independent basis, Debye):
    X=             -0.2844    Y=              0.5623    Z=             -0.9895  Tot=              1.1731

 Test job not archived.
 1\1\GINC-SE345\SP\RHF\Aug-CC-pVDZ\C3H10S4Si1\OHZDE\08-Apr-2025\0\\#t h
 f aug-cc-pvdz iop(5/13=1,5/36=2,99/5=2) pseudo=read geom=check guess=(
 read,tcheck) scf=(maxcycle=1)\\title\\0,1\C,0,0.724863,-0.995179,-0.79
 818\Si,0,-0.548889,-1.210292,0.571242\S,0,-2.589315,-1.034326,-0.16694
 2\H,0,-0.325715,-0.223877,1.64593\H,0,-0.463466,-2.590434,1.100217\S,0
 ,-2.584921,1.009747,-0.687879\S,0,2.445399,-1.098459,-0.124507\S,0,2.7
 8561,0.774461,0.707873\C,0,-3.174467,1.804294,0.847112\H,0,-3.240468,2
 .870866,0.617694\H,0,-2.469834,1.652824,1.663807\H,0,-4.160938,1.42954

 Normal termination of Gaussian 16 at Tue Apr  8 23:54:35 2025.
