 Gaussian 16, Revision C.01,

 ----------------------------------------------------------------------
 #t hf aug-cc-pvdz symm=none int=(grid=ultrafine) guess=(read,tcheck) s
 table=(opt,rrhf)
 ----------------------------------------------------------------------
 -----
 title
 -----
 Symbolic Z-matrix:
 Charge =  0 Multiplicity = 1

 SCF Done:  E(RHF) =  -484.840796026     A.U. after   14 cycles
 Normal termination of Gaussian 16 at Wed Apr  9 00:44:14 2025.
 Gaussian 16:  ES64L-G16RevC.01  3-Jul-2019

 ----------------------------------------------------------------------
 #t hf aug-cc-pvdz iop(5/13=1,5/36=2,99/5=2) pseudo=read geom=check gue
 ss=(read,tcheck) scf=(maxcycle=1)
 ----------------------------------------------------------------------
 -----
 title
 -----
 Structure from the checkpoint file:  "BDE49_nonexpt_730_mol1.chk"
 Charge =  0 Multiplicity = 1

                         Standard orientation:
 ---------------------------------------------------------------------
 Center     Atomic      Atomic             Coordinates (Angstroms)
 Number     Number       Type             X           Y           Z
 ---------------------------------------------------------------------
      1          5           0        2.371515    0.380718   -0.332506
      2         15           0        0.912457   -0.600778    0.212981
      3          6           0       -0.717109    0.109805   -0.367294
      4          6           0       -1.857563   -0.895916   -0.145978
      5          1           0       -2.010242   -1.091466    0.920194
      6          1           0       -1.655387   -1.850906   -0.635558
      7          6           0       -1.041949    1.477174    0.250193
      8          1           0       -2.796771   -0.499841   -0.544786
      9          1           0       -0.568046    0.235426   -1.445928
     10          1           0       -1.997330    1.852109   -0.133634
     11          1           0       -1.128119    1.406306    1.338789
     12          1           0       -0.269594    2.214366    0.022981
     13          1           0        3.367660    0.337539    0.315890
     14          1           0        2.369506    0.885985   -1.410816
     15          1           0        0.843613   -0.527813    1.619151
 ---------------------------------------------------------------------

 SCF Done:  E(RHF) =  -485.787713116     A.U. after    2 cycles

 The electronic state is 1-A.
 Alpha  occ. eigenvalues -- -105.15245 -11.41997 -11.38772 -11.35858  -7.61251
 Alpha  occ. eigenvalues --   -2.73538  -1.52936  -1.46127  -1.40809  -1.19249
 Alpha  occ. eigenvalues --   -1.00622  -0.86544  -0.79239  -0.65462  -0.62169
 Alpha  occ. eigenvalues --   -0.56197  -0.55622  -0.53925  -0.49150  -0.47366
 Alpha  occ. eigenvalues --   -0.46087  -0.22303  -0.12538  -0.04207
 Alpha virt. eigenvalues --    0.03500   0.04083   0.04524   0.06055   0.06197
 Alpha virt. eigenvalues --    0.06489   0.06996   0.07124   0.07463   0.09256
 Alpha virt. eigenvalues --    0.09782   0.09961   0.10404   0.12449   0.12960

 Mulliken charges:
               1
     1  B    4.642675
     2  P    2.526407
     3  C   -2.004717
     4  C   -4.010957
     5  H    1.335551
     6  H    1.294218
     7  C   -4.449030
     8  H    1.174954
     9  H    1.736683
    10  H    1.211547
    11  H    1.350078
    12  H    1.321666
    13  H   -2.856704
    14  H   -2.102863
    15  H   -1.169508
 Sum of Mulliken charges =   0.00000

 Dipole moment (field-independent basis, Debye):
    X=             -5.8071    Y=             -6.1861    Z=              0.3024  Tot=              8.4901

 Test job not archived.
 1\1\GINC-SE099\SP\RHF\Aug-CC-pVDZ\C3H10B1P1\OHZDE\09-Apr-2025\0\\#t hf
  aug-cc-pvdz iop(5/13=1,5/36=2,99/5=2) pseudo=read geom=check guess=(r
 ead,tcheck) scf=(maxcycle=1)\\title\\0,1\B,0,2.371515,0.380718,-0.3325
 06\P,0,0.912457,-0.600778,0.212981\C,0,-0.717109,0.109805,-0.367294\C,
 0,-1.857563,-0.895916,-0.145978\H,0,-2.010242,-1.091466,0.920194\H,0,-
 1.655387,-1.850906,-0.635558\C,0,-1.041949,1.477174,0.250193\H,0,-2.79
 6771,-0.499841,-0.544786\H,0,-0.568046,0.235426,-1.445928\H,0,-1.99733
 ,1.852109,-0.133634\H,0,-1.128119,1.406306,1.338789\H,0,-0.269594,2.21

 Normal termination of Gaussian 16 at Wed Apr  9 00:44:19 2025.
