 Gaussian 16, Revision C.01,

 ----------------------------------------------------------------------
 #t hf aug-cc-pvdz symm=none int=(grid=ultrafine) guess=(read,tcheck) s
 table=(opt,rrhf)
 ----------------------------------------------------------------------
 -----
 title
 -----
 Symbolic Z-matrix:
 Charge =  0 Multiplicity = 1

 SCF Done:  E(RHF) =  -332.459804661     A.U. after   12 cycles
 Normal termination of Gaussian 16 at Wed Apr  9 00:23:17 2025.
 Gaussian 16:  ES64L-G16RevC.01  3-Jul-2019

 ----------------------------------------------------------------------
 #t hf aug-cc-pvdz iop(5/13=1,5/36=2,99/5=2) pseudo=read geom=check gue
 ss=(read,tcheck) scf=(maxcycle=1)
 ----------------------------------------------------------------------
 -----
 title
 -----
 Structure from the checkpoint file:  "BDE49_nonexpt_265_mol1.chk"
 Charge =  0 Multiplicity = 1

                         Standard orientation:
 ---------------------------------------------------------------------
 Center     Atomic      Atomic             Coordinates (Angstroms)
 Number     Number       Type             X           Y           Z
 ---------------------------------------------------------------------
      1          6           0       -0.388193   -0.723417    0.000006
      2          5           0       -1.792794    0.001032    0.000010
      3          8           0       -2.924203   -0.763037   -0.000007
      4          8           0       -1.957246    1.364536   -0.000004
      5          6           0        0.850657    0.184709    0.000003
      6          1           0       -0.356273   -1.395700    0.868025
      7          6           0        2.182688   -0.575152    0.000001
      8          1           0        0.827420    0.845154    0.878726
      9          1           0        0.827416    0.845153   -0.878721
     10          6           0        3.407513    0.342942   -0.000002
     11          1           0        2.216218   -1.234349   -0.875806
     12          1           0        2.216221   -1.234348    0.875808
     13          1           0        3.418217    0.989973   -0.883137
     14          1           0        4.337744   -0.231590   -0.000003
     15          1           0        3.418220    0.989974    0.883132
     16          1           0       -0.356276   -1.395701   -0.868012
     17          1           0       -3.720426   -0.220974   -0.000015
     18          1           0       -1.128908    1.850762   -0.000005
 ---------------------------------------------------------------------

 SCF Done:  E(RHF) =  -334.007692127     A.U. after    2 cycles

 The electronic state is 1-A.
 Alpha  occ. eigenvalues --  -21.05647 -21.04551 -11.42323 -11.39598 -11.36215
 Alpha  occ. eigenvalues --  -11.33511  -7.62537  -1.81178  -1.64690  -1.23925
 Alpha  occ. eigenvalues --   -1.08126  -0.93279  -0.83554  -0.73276  -0.65130
 Alpha  occ. eigenvalues --   -0.63637  -0.59855  -0.57700  -0.56385  -0.51699
 Alpha  occ. eigenvalues --   -0.50445  -0.46335  -0.46246  -0.45076  -0.44816
 Alpha  occ. eigenvalues --   -0.40121  -0.35822  -0.35428
 Alpha virt. eigenvalues --    0.03727   0.04356   0.04875   0.05100   0.05524
 Alpha virt. eigenvalues --    0.06028   0.06198   0.06591   0.08020   0.08187
 Alpha virt. eigenvalues --    0.09111   0.09553   0.10403   0.10566   0.11516

 Mulliken charges:
               1
     1  C   -3.943620
     2  B    7.372394
     3  O   -4.513346
     4  O   -4.014810
     5  C   -3.043889
     6  H    1.559545
     7  C   -2.671015
     8  H    1.390655
     9  H    1.390654
    10  C   -4.172146
    11  H    1.363438
    12  H    1.363439
    13  H    1.306811
    14  H    1.096004
    15  H    1.306811
    16  H    1.559525
    17  H    1.017159
    18  H    1.632391
 Sum of Mulliken charges =   0.00000

 Dipole moment (field-independent basis, Debye):
    X=              0.7381    Y=              0.6472    Z=              0.0000  Tot=              0.9816

 Test job not archived.
 1\1\GINC-SE253\SP\RHF\Aug-CC-pVDZ\C4H11B1O2\OHZDE\09-Apr-2025\0\\#t hf
  aug-cc-pvdz iop(5/13=1,5/36=2,99/5=2) pseudo=read geom=check guess=(r
 ead,tcheck) scf=(maxcycle=1)\\title\\0,1\C,0,-0.388193,-0.723417,0.000
 006\B,0,-1.792794,0.001032,0.00001\O,0,-2.924203,-0.763037,-0.000007\O
 ,0,-1.957246,1.364536,-0.000004\C,0,0.850657,0.184709,0.000003\H,0,-0.
 356273,-1.3957,0.868025\C,0,2.182688,-0.575152,0.000001\H,0,0.82742,0.
 845154,0.878726\H,0,0.827416,0.845153,-0.878721\C,0,3.407513,0.342942,
 -0.000002\H,0,2.216218,-1.234349,-0.875806\H,0,2.216221,-1.234348,0.87

 Normal termination of Gaussian 16 at Wed Apr  9 00:23:23 2025.
