 Gaussian 16, Revision C.01,

 ----------------------------------------------------------------------
 #t hf aug-cc-pvdz symm=none int=(grid=ultrafine) guess=(read,tcheck) s
 table=(opt,rrhf)
 ----------------------------------------------------------------------
 -----
 title
 -----
 Symbolic Z-matrix:
 Charge =  0 Multiplicity = 1

 SCF Done:  E(RHF) =  -2249.62089200     A.U. after   13 cycles
 Normal termination of Gaussian 16 at Wed Apr  9 00:13:45 2025.
 Gaussian 16:  ES64L-G16RevC.01  3-Jul-2019

 ----------------------------------------------------------------------
 #t hf aug-cc-pvdz iop(5/13=1,5/36=2,99/5=2) pseudo=read geom=check gue
 ss=(read,tcheck) scf=(maxcycle=1)
 ----------------------------------------------------------------------
 -----
 title
 -----
 Structure from the checkpoint file:  "BDE49_nonexpt_2420_mol1.chk"
 Charge =  0 Multiplicity = 1

                         Standard orientation:
 ---------------------------------------------------------------------
 Center     Atomic      Atomic             Coordinates (Angstroms)
 Number     Number       Type             X           Y           Z
 ---------------------------------------------------------------------
      1         14           0       -0.833211   -1.096598    0.834417
      2         14           0        0.833208   -1.096610   -0.834404
      3         16           0        2.833541   -0.995907    0.029496
      4          1           0        0.655956    0.003192   -1.808757
      5          1           0        0.801918   -2.397121   -1.549408
      6         16           0        2.806017    0.981099    0.758879
      7         16           0       -2.833536   -0.995907   -0.029505
      8          1           0       -0.655972    0.003216    1.808759
      9          1           0       -0.801930   -2.397099    1.549442
     10         16           0       -2.806023    0.981100   -0.758886
     11          6           0        3.447370    1.928484   -0.664562
     12          1           0        3.504881    2.964994   -0.322607
     13          1           0        2.770886    1.866071   -1.516093
     14          1           0        4.442632    1.581320   -0.938305
     15          6           0       -3.447360    1.928482    0.664565
     16          1           0       -3.504888    2.964989    0.322607
     17          1           0       -2.770859    1.866079    1.516084
     18          1           0       -4.442613    1.581308    0.938327
 ---------------------------------------------------------------------

 SCF Done:  E(RHF) =  -2251.26017801     A.U. after    2 cycles

 The electronic state is 1-A.
 Alpha  occ. eigenvalues --  -76.24668 -76.24618 -75.71155 -75.71113 -75.70102
 Alpha  occ. eigenvalues --  -75.70022 -13.13089 -13.12672 -13.11937 -13.11770
 Alpha  occ. eigenvalues --  -13.09614 -13.09588 -13.07685 -13.07420 -13.05872
 Alpha  occ. eigenvalues --  -13.05606 -13.05152 -13.04584 -11.40473 -11.40453
 Alpha  occ. eigenvalues --   -8.04916  -8.04872  -8.04009  -8.03937  -5.57990
 Alpha  occ. eigenvalues --   -5.57981  -2.20078  -2.19930  -2.19867  -2.19830
 Alpha  occ. eigenvalues --   -2.19467  -2.18527  -1.23997  -1.23573  -1.06998
 Alpha  occ. eigenvalues --   -1.06813  -0.91271  -0.90827  -0.78887  -0.69658
 Alpha  occ. eigenvalues --   -0.59921  -0.59894  -0.59623  -0.59608  -0.50781
 Alpha  occ. eigenvalues --   -0.48185  -0.46382  -0.46139  -0.42135  -0.41925
 Alpha  occ. eigenvalues --   -0.36044  -0.35828  -0.35555  -0.28181  -0.25950
 Alpha  occ. eigenvalues --   -0.22863  -0.22206
 Alpha virt. eigenvalues --    0.02322   0.02403   0.03476   0.04414   0.04695
 Alpha virt. eigenvalues --    0.05414   0.06852   0.07171   0.07312   0.07371
 Alpha virt. eigenvalues --    0.08311   0.08494   0.09307   0.09679   0.09954

 Mulliken charges:
               1
     1  Si   5.477879
     2  Si   5.477875
     3  S   -1.541634
     4  H   -1.755874
     5  H   -2.060231
     6  S    0.135917
     7  S   -1.541623
     8  H   -1.755880
     9  H   -2.060245
    10  S    0.135913
    11  C   -4.722806
    12  H    1.413658
    13  H    1.544997
    14  H    1.508099
    15  C   -4.722809
    16  H    1.413657
    17  H    1.545004
    18  H    1.508103
 Sum of Mulliken charges =  -0.00000

 Dipole moment (field-independent basis, Debye):
    X=              0.0000    Y=              0.9730    Z=             -0.0000  Tot=              0.9730

 Test job not archived.
 1\1\GINC-SE345\SP\RHF\Aug-CC-pVDZ\C2H10S4Si2\OHZDE\09-Apr-2025\0\\#t h
 f aug-cc-pvdz iop(5/13=1,5/36=2,99/5=2) pseudo=read geom=check guess=(
 read,tcheck) scf=(maxcycle=1)\\title\\0,1\Si,0,0.833211,-1.096598,-0.8
 34417\Si,0,-0.833208,-1.09661,0.834404\S,0,-2.833541,-0.995907,-0.0294
 96\H,0,-0.655956,0.003192,1.808757\H,0,-0.801918,-2.397121,1.549408\S,
 0,-2.806017,0.981099,-0.758879\S,0,2.833536,-0.995907,0.029505\H,0,0.6
 55972,0.003216,-1.808759\H,0,0.80193,-2.397099,-1.549442\S,0,2.806023,
 0.9811,0.758886\C,0,-3.44737,1.928484,0.664562\H,0,-3.504881,2.964994,

 Normal termination of Gaussian 16 at Wed Apr  9 00:13:54 2025.
