 Gaussian 16, Revision C.01,

 ----------------------------------------------------------------------
 #t hf aug-cc-pvdz symm=none int=(grid=ultrafine) guess=(read,tcheck) s
 table=(opt,rrhf)
 ----------------------------------------------------------------------
 -----
 title
 -----
 Symbolic Z-matrix:
 Charge =  0 Multiplicity = 1

 SCF Done:  E(RHF) =  -369.885349884     A.U. after   15 cycles
 Normal termination of Gaussian 16 at Wed Apr  9 00:38:02 2025.
 Gaussian 16:  ES64L-G16RevC.01  3-Jul-2019

 ----------------------------------------------------------------------
 #t hf aug-cc-pvdz iop(5/13=1,5/36=2,99/5=2) pseudo=read geom=check gue
 ss=(read,tcheck) scf=(maxcycle=1)
 ----------------------------------------------------------------------
 -----
 title
 -----
 Structure from the checkpoint file:  "BDE49_nonexpt_529_mol1.chk"
 Charge =  0 Multiplicity = 1

                         Standard orientation:
 ---------------------------------------------------------------------
 Center     Atomic      Atomic             Coordinates (Angstroms)
 Number     Number       Type             X           Y           Z
 ---------------------------------------------------------------------
      1          1           0       -4.201128    0.582236   -0.000053
      2          1           0       -3.898114   -1.454974   -0.000054
      3          5           0       -3.450811   -0.347216    0.000012
      4          6           0       -1.940725   -0.124464    0.000005
      5          6           0       -1.375968    1.174890    0.000003
      6          6           0       -0.010968    1.379233    0.000000
      7          6           0        0.859887    0.276591   -0.000001
      8          6           0       -1.036529   -1.205972    0.000003
      9          1           0       -1.431061   -2.216712    0.000004
     10          6           0        0.340738   -1.025745    0.000000
     11          1           0        0.996792   -1.885766   -0.000001
     12          1           0       -2.039134    2.033464    0.000004
     13          8           0        2.180516    0.575281   -0.000004
     14          6           0        3.129249   -0.486183    0.000000
     15          1           0        3.030382   -1.109860    0.894479
     16          1           0        4.106688   -0.007500    0.000002
     17          1           0        3.030387   -1.109862   -0.894477
     18          1           0        0.421016    2.372708    0.000000
 ---------------------------------------------------------------------

 SCF Done:  E(RHF) =  -371.614797352     A.U. after    2 cycles

 The electronic state is 1-A.
 Alpha  occ. eigenvalues --  -21.08675 -11.53181 -11.46301 -11.43895 -11.42488
 Alpha  occ. eigenvalues --  -11.40624 -11.40176 -11.35704  -7.62402  -1.80147
 Alpha  occ. eigenvalues --   -1.32637  -1.10816  -1.09868  -1.00459  -0.88293
 Alpha  occ. eigenvalues --   -0.86828  -0.78961  -0.68638  -0.64400  -0.63290
 Alpha  occ. eigenvalues --   -0.63165  -0.58605  -0.57860  -0.52911  -0.52595
 Alpha  occ. eigenvalues --   -0.47689  -0.43134  -0.41749  -0.41257  -0.39596
 Alpha  occ. eigenvalues --   -0.33816  -0.27609
 Alpha virt. eigenvalues --    0.03134   0.04154   0.04588   0.04627   0.05029
 Alpha virt. eigenvalues --    0.06094   0.06275   0.07185   0.07514   0.08346
 Alpha virt. eigenvalues --    0.08638   0.09856   0.10555   0.11368   0.12563

 Mulliken charges:
               1
     1  H   -3.692026
     2  H   -3.659642
     3  B    6.054352
     4  C   -2.190827
     5  C    0.323869
     6  C   -3.909219
     7  C    6.024655
     8  C    0.867622
     9  H    1.768909
    10  C   -2.882988
    11  H    1.931540
    12  H    1.745472
    13  O   -4.698244
    14  C   -3.759905
    15  H    1.388478
    16  H    1.392606
    17  H    1.388480
    18  H    1.906870
 Sum of Mulliken charges =   0.00000

 Dipole moment (field-independent basis, Debye):
    X=              3.2867    Y=             -0.1677    Z=              0.0001  Tot=              3.2910

 Test job not archived.
 1\1\GINC-SE222\SP\RHF\Aug-CC-pVDZ\C7H9B1O1\OHZDE\09-Apr-2025\0\\#t hf
 aug-cc-pvdz iop(5/13=1,5/36=2,99/5=2) pseudo=read geom=check guess=(re
 ad,tcheck) scf=(maxcycle=1)\\title\\0,1\H,0,-4.201128,0.582236,-0.0000
 53\H,0,-3.898114,-1.454974,-0.000054\B,0,-3.450811,-0.347216,0.000012\
 C,0,-1.940725,-0.124464,0.000005\C,0,-1.375968,1.17489,0.000003\C,0,-0
 .010968,1.379233,0.\C,0,0.859887,0.276591,-0.000001\C,0,-1.036529,-1.2
 05972,0.000003\H,0,-1.431061,-2.216712,0.000004\C,0,0.340738,-1.025745
 ,0.\H,0,0.996792,-1.885766,-0.000001\H,0,-2.039134,2.033464,0.000004\O

 Normal termination of Gaussian 16 at Wed Apr  9 00:38:11 2025.
