 Gaussian 16, Revision C.01,

 ----------------------------------------------------------------------
 #t hf aug-cc-pvdz symm=none int=(grid=ultrafine) guess=(read,tcheck) s
 table=(opt,rrhf)
 ----------------------------------------------------------------------
 -----
 title
 -----
 Symbolic Z-matrix:
 Charge =  0 Multiplicity = 1

 SCF Done:  E(RHF) =  -1380.96617566     A.U. after   13 cycles
 Normal termination of Gaussian 16 at Tue Apr  8 23:40:11 2025.
 Gaussian 16:  ES64L-G16RevC.01  3-Jul-2019

 ----------------------------------------------------------------------
 #t hf aug-cc-pvdz iop(5/13=1,5/36=2,99/5=2) pseudo=read geom=check gue
 ss=(read,tcheck) scf=(maxcycle=1)
 ----------------------------------------------------------------------
 -----
 title
 -----
 Structure from the checkpoint file:  "BDE49_nonexpt_161_mol1.chk"
 Charge =  0 Multiplicity = 1

                         Standard orientation:
 ---------------------------------------------------------------------
 Center     Atomic      Atomic             Coordinates (Angstroms)
 Number     Number       Type             X           Y           Z
 ---------------------------------------------------------------------
      1         17           0        0.229807    1.759163   -0.000030
      2         17           0        1.989124   -0.730220   -0.000104
      3         16           0       -1.019752   -1.116811    0.000081
      4          5           0        0.378545   -0.002665    0.000179
      5          6           0       -2.489423   -0.021476    0.000015
      6          1           0       -3.355824   -0.682121   -0.000039
      7          1           0       -2.503037    0.600634   -0.892692
      8          1           0       -2.503129    0.600612    0.892737
 ---------------------------------------------------------------------

 SCF Done:  E(RHF) =  -1381.99468647     A.U. after    2 cycles

 The electronic state is 1-A.
 Alpha  occ. eigenvalues --  -99.90618 -99.90069 -75.70037 -13.14307 -13.09907
 Alpha  occ. eigenvalues --  -13.04233 -11.41411 -10.47927 -10.47331  -9.67868
 Alpha  occ. eigenvalues --   -9.67442  -9.67243  -9.67202  -9.66784  -9.66654
 Alpha  occ. eigenvalues --   -8.04205  -7.72887  -1.40665  -1.30010  -1.20816
 Alpha  occ. eigenvalues --   -0.98461  -0.78098  -0.64643  -0.63003  -0.60863
 Alpha  occ. eigenvalues --   -0.57729  -0.57428  -0.52822  -0.50623  -0.44670
 Alpha  occ. eigenvalues --   -0.37416  -0.29860
 Alpha virt. eigenvalues --    0.01750   0.03659   0.03734   0.03871   0.07010
 Alpha virt. eigenvalues --    0.07242   0.08495   0.08849   0.10889   0.11785
 Alpha virt. eigenvalues --    0.12664   0.13395   0.15302   0.15304   0.16601

 Mulliken charges:
               1
     1  Cl  -0.987421
     2  Cl  -1.099693
     3  S   -0.591621
     4  B    3.148548
     5  C   -4.563434
     6  H    1.438140
     7  H    1.327741
     8  H    1.327739
 Sum of Mulliken charges =  -0.00000

 Dipole moment (field-independent basis, Debye):
    X=             -3.3174    Y=             -2.0968    Z=             -0.0001  Tot=              3.9245

 Test job not archived.
 1\1\GINC-SE335\SP\RHF\Aug-CC-pVDZ\C1H3B1Cl2S1\OHZDE\08-Apr-2025\0\\#t
 hf aug-cc-pvdz iop(5/13=1,5/36=2,99/5=2) pseudo=read geom=check guess=
 (read,tcheck) scf=(maxcycle=1)\\title\\0,1\Cl,0,-0.229807,1.759163,0.0
 0003\Cl,0,-1.989124,-0.73022,0.000104\S,0,1.019752,-1.116811,-0.000081
 \B,0,-0.378545,-0.002665,-0.000179\C,0,2.489423,-0.021476,-0.000015\H,
 0,3.355824,-0.682121,0.000039\H,0,2.503037,0.600634,0.892692\H,0,2.503
 129,0.600612,-0.892737\\Version=ES64L-G16RevC.01\State=1-A\HF=-1381.99
 46865\RMSD=5.769e-02\Dipole=1.3051758,-0.8249371,0.0000464\Quadrupole=

 Normal termination of Gaussian 16 at Tue Apr  8 23:40:13 2025.
