 Gaussian 16, Revision C.01,

 ----------------------------------------------------------------------
 #t hf aug-cc-pvdz symm=none int=(grid=ultrafine) guess=(read,tcheck) s
 table=(opt,rrhf)
 ----------------------------------------------------------------------
 -----
 title
 -----
 Symbolic Z-matrix:
 Charge =  0 Multiplicity = 1

 SCF Done:  E(RHF) =  -551.332389207     A.U. after   14 cycles
 Normal termination of Gaussian 16 at Tue Apr  8 23:15:14 2025.
 Gaussian 16:  ES64L-G16RevC.01  3-Jul-2019

 ----------------------------------------------------------------------
 #t hf aug-cc-pvdz iop(5/13=1,5/36=2,99/5=2) pseudo=read geom=check gue
 ss=(read,tcheck) scf=(maxcycle=1)
 ----------------------------------------------------------------------
 -----
 title
 -----
 Structure from the checkpoint file:  "BDE49_expt_819_mol1.chk"
 Charge =  0 Multiplicity = 1

                         Standard orientation:
 ---------------------------------------------------------------------
 Center     Atomic      Atomic             Coordinates (Angstroms)
 Number     Number       Type             X           Y           Z
 ---------------------------------------------------------------------
      1         15           0        2.504628   -0.172565   -0.080014
      2          1           0        2.894163   -1.324945    0.650366
      3          6           0        0.707769   -0.151484    0.467869
      4          1           0        2.318125   -0.896010   -1.287733
      5          6           0       -0.111225    0.877235   -0.319356
      6          1           0        0.711851    0.114544    1.530488
      7          1           0        0.261407   -1.143785    0.381492
      8          6           0       -1.574401    0.994688    0.161018
      9          1           0       -0.110093    0.623665   -1.383944
     10          1           0        0.345827    1.867556   -0.230560
     11          6           0       -2.334742   -0.242176   -0.010251
     12          1           0       -2.087407    1.788965   -0.389651
     13          1           0       -1.604129    1.271821    1.219897
     14          7           0       -2.917653   -1.226132   -0.155118
 ---------------------------------------------------------------------

 SCF Done:  E(RHF) =  -552.540468226     A.U. after    2 cycles

 The electronic state is 1-A.
 Alpha  occ. eigenvalues -- -105.18465 -15.75888 -11.47670 -11.44150 -11.42194
 Alpha  occ. eigenvalues --  -11.38458  -2.75264  -1.48026  -1.44584  -1.43356
 Alpha  occ. eigenvalues --   -1.32878  -1.22014  -1.04282  -0.88951  -0.72167
 Alpha  occ. eigenvalues --   -0.71366  -0.64885  -0.61501  -0.57606  -0.52841
 Alpha  occ. eigenvalues --   -0.50641  -0.49507  -0.43165  -0.43019  -0.26064
 Alpha  occ. eigenvalues --   -0.22776  -0.03330
 Alpha virt. eigenvalues --    0.03631   0.05208   0.05679   0.05961   0.06135
 Alpha virt. eigenvalues --    0.06323   0.08010   0.08860   0.09660   0.09970
 Alpha virt. eigenvalues --    0.10910   0.12235   0.12638   0.13514   0.14199

 Mulliken charges:
               1
     1  P    2.523197
     2  H   -0.517205
     3  C   -3.563709
     4  H   -0.646862
     5  C   -2.516838
     6  H    1.250795
     7  H    1.447504
     8  C   -3.719120
     9  H    1.522176
    10  H    1.193266
    11  C    2.626864
    12  H    1.383172
    13  H    1.451507
    14  N   -2.434747
 Sum of Mulliken charges =   0.00000

 Dipole moment (field-independent basis, Debye):
    X=              3.2852    Y=              4.0340    Z=              0.8137  Tot=              5.2658

 Test job not archived.
 1\1\GINC-SE058\SP\RHF\Aug-CC-pVDZ\C4H8N1P1\OHZDE\08-Apr-2025\0\\#t hf
 aug-cc-pvdz iop(5/13=1,5/36=2,99/5=2) pseudo=read geom=check guess=(re
 ad,tcheck) scf=(maxcycle=1)\\title\\0,1\P,0,2.504628,-0.172565,-0.0800
 14\H,0,2.894163,-1.324945,0.650366\C,0,0.707769,-0.151484,0.467869\H,0
 ,2.318125,-0.89601,-1.287733\C,0,-0.111225,0.877235,-0.319356\H,0,0.71
 1851,0.114544,1.530488\H,0,0.261407,-1.143785,0.381492\C,0,-1.574401,0
 .994688,0.161018\H,0,-0.110093,0.623665,-1.383944\H,0,0.345827,1.86755
 6,-0.23056\C,0,-2.334742,-0.242176,-0.010251\H,0,-2.087407,1.788965,-0

 Normal termination of Gaussian 16 at Tue Apr  8 23:15:18 2025.
