 Gaussian 16, Revision C.01,

 ----------------------------------------------------------------------
 #t hf aug-cc-pvdz symm=none int=(grid=ultrafine) guess=(read,tcheck) s
 table=(opt,rrhf)
 ----------------------------------------------------------------------
 -----
 title
 -----
 Symbolic Z-matrix:
 Charge =  0 Multiplicity = 1

 SCF Done:  E(RHF) =  -647.708680042     A.U. after   15 cycles
 Normal termination of Gaussian 16 at Wed Apr  9 00:08:57 2025.
 Gaussian 16:  ES64L-G16RevC.01  3-Jul-2019

 ----------------------------------------------------------------------
 #t hf aug-cc-pvdz iop(5/13=1,5/36=2,99/5=2) pseudo=read geom=check gue
 ss=(read,tcheck) scf=(maxcycle=1)
 ----------------------------------------------------------------------
 -----
 title
 -----
 Structure from the checkpoint file:  "BDE49_nonexpt_2281_mol1.chk"
 Charge =  0 Multiplicity = 1

                         Standard orientation:
 ---------------------------------------------------------------------
 Center     Atomic      Atomic             Coordinates (Angstroms)
 Number     Number       Type             X           Y           Z
 ---------------------------------------------------------------------
      1          8           0        0.704698    0.397879   -0.795530
      2          7           0        1.623598   -0.225343    0.053749
      3          8           0        1.334587   -0.239287    1.235718
      4          8           0        2.589225   -0.672022   -0.490984
      5         14           0       -0.713804    1.098107   -0.091086
      6          6           0       -1.880399   -0.184016    0.603927
      7          6           0       -2.337114   -1.257969   -0.400893
      8          1           0       -2.748382    0.372046    0.983435
      9          1           0       -1.412150   -0.644140    1.478766
     10          1           0       -2.834423   -0.812935   -1.267073
     11          1           0       -3.041186   -1.953540    0.062799
     12          1           0       -1.493039   -1.844077   -0.772849
     13          1           0       -1.262574    1.739994   -1.301632
     14          1           0       -0.303180    2.105904    0.903675
 ---------------------------------------------------------------------

 SCF Done:  E(RHF) =  -649.422003484     A.U. after    2 cycles

 The electronic state is 1-A.
 Alpha  occ. eigenvalues --  -76.25985 -21.13011 -21.12827 -21.12004 -16.06382
 Alpha  occ. eigenvalues --  -11.41059 -11.36385  -5.59627  -2.25829  -2.22715
 Alpha  occ. eigenvalues --   -2.21733  -2.08100  -1.74125  -1.72509  -1.16704
 Alpha  occ. eigenvalues --   -0.94670  -0.90584  -0.76092  -0.73035  -0.70437
 Alpha  occ. eigenvalues --   -0.66653  -0.62640  -0.59296  -0.52474  -0.51290
 Alpha  occ. eigenvalues --   -0.49411  -0.47315  -0.43903  -0.39064  -0.37768
 Alpha  occ. eigenvalues --   -0.34609  -0.31751
 Alpha virt. eigenvalues --    0.03333   0.04766   0.04970   0.05846   0.06423
 Alpha virt. eigenvalues --    0.06854   0.07420   0.07655   0.09372   0.10602
 Alpha virt. eigenvalues --    0.12039   0.13427   0.13859   0.14036   0.15037

 Mulliken charges:
               1
     1  O   -2.863422
     2  N    6.775214
     3  O   -2.665449
     4  O   -2.733442
     5  Si   6.525769
     6  C   -4.307647
     7  C   -3.392535
     8  H    1.343998
     9  H    1.491398
    10  H    1.292290
    11  H    1.158786
    12  H    1.311476
    13  H   -1.921616
    14  H   -2.014819
 Sum of Mulliken charges =  -0.00000

 Dipole moment (field-independent basis, Debye):
    X=             -2.1756    Y=              0.0588    Z=             -0.0379  Tot=              2.1768

 Test job not archived.
 1\1\GINC-SE402\SP\RHF\Aug-CC-pVDZ\C2H7N1O3Si1\OHZDE\09-Apr-2025\0\\#t
 hf aug-cc-pvdz iop(5/13=1,5/36=2,99/5=2) pseudo=read geom=check guess=
 (read,tcheck) scf=(maxcycle=1)\\title\\0,1\O,0,0.704698,0.397879,-0.79
 553\N,0,1.623598,-0.225343,0.053749\O,0,1.334587,-0.239287,1.235718\O,
 0,2.589225,-0.672022,-0.490984\Si,0,-0.713804,1.098107,-0.091086\C,0,-
 1.880399,-0.184016,0.603927\C,0,-2.337114,-1.257969,-0.400893\H,0,-2.7
 48382,0.372046,0.983435\H,0,-1.41215,-0.64414,1.478766\H,0,-2.834423,-
 0.812935,-1.267073\H,0,-3.041186,-1.95354,0.062799\H,0,-1.493039,-1.84

 Normal termination of Gaussian 16 at Wed Apr  9 00:09:01 2025.
