 Gaussian 16, Revision C.01,

 ----------------------------------------------------------------------
 #t hf aug-cc-pvdz symm=none int=(grid=ultrafine) guess=(read,tcheck) s
 table=(opt,rrhf)
 ----------------------------------------------------------------------
 -----
 title
 -----
 Symbolic Z-matrix:
 Charge =  0 Multiplicity = 1

 SCF Done:  E(RHF) =  -716.843807647     A.U. after   14 cycles
 Normal termination of Gaussian 16 at Tue Apr  8 23:40:13 2025.
 Gaussian 16:  ES64L-G16RevC.01  3-Jul-2019

 ----------------------------------------------------------------------
 #t hf aug-cc-pvdz iop(5/13=1,5/36=2,99/5=2) pseudo=read geom=check gue
 ss=(read,tcheck) scf=(maxcycle=1)
 ----------------------------------------------------------------------
 -----
 title
 -----
 Structure from the checkpoint file:  "BDE49_nonexpt_1603_mol1.chk"
 Charge =  0 Multiplicity = 1

                         Standard orientation:
 ---------------------------------------------------------------------
 Center     Atomic      Atomic             Coordinates (Angstroms)
 Number     Number       Type             X           Y           Z
 ---------------------------------------------------------------------
      1          8           0        0.921110   -0.771256   -0.463597
      2         15           0       -0.363972    0.041487    0.121439
      3          8           0       -0.263949    0.380946    1.540306
      4          8           0       -1.499315   -0.963556   -0.347507
      5          8           0        2.112966    0.011325   -0.153292
      6          1           0        2.268886   -0.252122    0.768136
      7          8           0       -0.592856    1.247420   -0.879669
      8          1           0       -0.618832    2.094375   -0.419913
      9          1           0       -1.614122   -1.703592    0.260261
 ---------------------------------------------------------------------

 SCF Done:  E(RHF) =  -718.569504656     A.U. after    2 cycles

 The electronic state is 1-A.
 Alpha  occ. eigenvalues -- -105.34139 -21.15779 -21.13721 -21.13505 -21.13168
 Alpha  occ. eigenvalues --  -21.04431  -2.97633  -2.04173  -2.00301  -1.94283
 Alpha  occ. eigenvalues --   -1.81330  -1.62819  -1.42132  -1.33613  -1.24783
 Alpha  occ. eigenvalues --   -0.71807  -0.64902  -0.60980  -0.58207  -0.53384
 Alpha  occ. eigenvalues --   -0.46505  -0.45121  -0.43847  -0.38318  -0.36553
 Alpha  occ. eigenvalues --   -0.35786  -0.29892  -0.25876  -0.17628
 Alpha virt. eigenvalues --    0.03653   0.05423   0.05957   0.10539   0.10888
 Alpha virt. eigenvalues --    0.11403   0.13961   0.16537   0.18439   0.19238
 Alpha virt. eigenvalues --    0.19984   0.20848   0.22028   0.22552   0.23760

 Mulliken charges:
               1
     1  O   -1.818177
     2  P    8.277054
     3  O   -2.739073
     4  O   -2.649932
     5  O   -0.872699
     6  H    0.844610
     7  O   -2.741143
     8  H    0.840871
     9  H    0.858488
 Sum of Mulliken charges =  -0.00000

 Dipole moment (field-independent basis, Debye):
    X=             -0.1705    Y=             -0.4298    Z=             -1.5542  Tot=              1.6216

 Test job not archived.
 1\1\GINC-SE127\SP\RHF\Aug-CC-pVDZ\H3O5P1\OHZDE\08-Apr-2025\0\\#t hf au
 g-cc-pvdz iop(5/13=1,5/36=2,99/5=2) pseudo=read geom=check guess=(read
 ,tcheck) scf=(maxcycle=1)\\title\\0,1\O,0,0.92111,-0.771256,-0.463597\
 P,0,-0.363972,0.041487,0.121439\O,0,-0.263949,0.380946,1.540306\O,0,-1
 .499315,-0.963556,-0.347507\O,0,2.112966,0.011325,-0.153292\H,0,2.2688
 86,-0.252122,0.768136\O,0,-0.592856,1.24742,-0.879669\H,0,-0.618832,2.
 094375,-0.419913\H,0,-1.614122,-1.703592,0.260261\\Version=ES64L-G16Re
 vC.01\State=1-A\HF=-718.5695047\RMSD=9.076e-02\Dipole=-0.0670843,-0.16

 Normal termination of Gaussian 16 at Tue Apr  8 23:40:16 2025.
