 Gaussian 16, Revision C.01,

 ----------------------------------------------------------------------
 #t hf aug-cc-pvdz symm=none int=(grid=ultrafine) guess=(read,tcheck) s
 table=opt
 ----------------------------------------------------------------------
 -----
 title
 -----
 Symbolic Z-matrix:
 Charge =  0 Multiplicity = 2

 SCF Done:  E(UHF) =  -387.692464784     A.U. after   16 cycles

 1\1\GINC-SE403\Stability\UHF\Aug-CC-pVDZ\C8H17O1\OHZDE\08-Apr-2025\0\\
 #t hf aug-cc-pvdz symm=none int=(grid=ultrafine) guess=(read,tcheck) s
 table=opt\\title\\0,2\O,0,0.026369,-0.35335,-0.608326\C,0,1.316529,-0.
 055547,-0.006113\C,0,-1.269348,-0.022412,-0.050509\C,0,2.285907,-0.481
 61,-1.126997\H,0,2.125875,-1.532521,-1.373868\H,0,3.32417,-0.344738,-0
 .815824\H,0,2.097384,0.114547,-2.023546\C,0,1.557209,-0.903347,1.20479
 3\H,0,1.446381,-1.978205,1.125878\H,0,1.845426,-0.479272,2.158877\C,0,
 1.524644,1.435361,0.302477\H,0,1.316969,2.041753,-0.581076\H,0,2.56450

 Normal termination of Gaussian 16 at Tue Apr  8 23:00:13 2025.
 Gaussian 16:  ES64L-G16RevC.01  3-Jul-2019

 ----------------------------------------------------------------------
 #t hf aug-cc-pvdz iop(5/13=1,5/36=2,99/5=2) pseudo=read geom=check gue
 ss=(read,tcheck) scf=(maxcycle=1)
 ----------------------------------------------------------------------
 -----
 title
 -----
 Structure from the checkpoint file:  "BDE49_expt_180_mol2.chk"
 Charge =  0 Multiplicity = 2

                         Standard orientation:
 ---------------------------------------------------------------------
 Center     Atomic      Atomic             Coordinates (Angstroms)
 Number     Number       Type             X           Y           Z
 ---------------------------------------------------------------------
      1          8           0        0.026369   -0.353350   -0.608326
      2          6           0        1.316529   -0.055547   -0.006113
      3          6           0       -1.269348   -0.022412   -0.050509
      4          6           0        2.285907   -0.481610   -1.126997
      5          1           0        2.125875   -1.532521   -1.373868
      6          1           0        3.324170   -0.344738   -0.815824
      7          1           0        2.097384    0.114547   -2.023546
      8          6           0        1.557209   -0.903347    1.204793
      9          1           0        1.446381   -1.978205    1.125878
     10          1           0        1.845426   -0.479272    2.158877
     11          6           0        1.524644    1.435361    0.302477
     12          1           0        1.316969    2.041753   -0.581076
     13          1           0        2.564504    1.603568    0.596275
     14          1           0        0.891442    1.781949    1.120933
     15          6           0       -2.197882   -1.030209   -0.742797
     16          1           0       -2.105271   -0.938488   -1.827018
     17          1           0       -3.241039   -0.858192   -0.463938
     18          1           0       -1.921585   -2.049140   -0.463337
     19          6           0       -1.372538   -0.196984    1.471518
     20          1           0       -2.405198   -0.014518    1.783956
     21          1           0       -0.736655    0.503788    2.015052
     22          1           0       -1.101799   -1.211187    1.770563
     23          6           0       -1.672786    1.405411   -0.460608
     24          1           0       -1.535090    1.533500   -1.536592
     25          1           0       -1.081324    2.163299    0.054145
     26          1           0       -2.725547    1.586679   -0.224464
 ---------------------------------------------------------------------

 SCF Done:  E(UHF) =  -389.628421386     A.U. after    2 cycles

 The electronic state is 2-A.
 Alpha  occ. eigenvalues --  -21.01451 -11.45907 -11.44534 -11.39706 -11.39020
 Alpha  occ. eigenvalues --  -11.38978 -11.38501 -11.35196 -11.34559  -1.73142
 Alpha  occ. eigenvalues --   -1.24310  -1.16875  -1.01440  -1.00620  -0.99811
 Alpha  occ. eigenvalues --   -0.99447  -0.81505  -0.74275  -0.63817  -0.62657
 Alpha  occ. eigenvalues --   -0.62545  -0.60048  -0.59013  -0.57349  -0.54914
 Alpha  occ. eigenvalues --   -0.54515  -0.53291  -0.52131  -0.50681  -0.48944
 Alpha  occ. eigenvalues --   -0.47375  -0.45428  -0.44175  -0.42438  -0.34399
 Alpha  occ. eigenvalues --   -0.31126  -0.27232
 Alpha virt. eigenvalues --    0.03991   0.04593   0.04813   0.04918   0.05190
 Alpha virt. eigenvalues --    0.05444   0.06059   0.06704   0.06813   0.07803
 Alpha virt. eigenvalues --    0.08024   0.08470   0.08739   0.08971   0.09311

  Beta  occ. eigenvalues --  -21.01243 -11.46069 -11.44559 -11.39556 -11.38967
  Beta  occ. eigenvalues --  -11.38516 -11.37584 -11.34583 -11.34412  -1.72769
  Beta  occ. eigenvalues --   -1.23659  -1.15840  -1.00999  -1.00410  -0.99764
  Beta  occ. eigenvalues --   -0.93851  -0.80632  -0.73680  -0.63392  -0.62327
  Beta  occ. eigenvalues --   -0.62150  -0.59863  -0.58494  -0.56866  -0.54393
  Beta  occ. eigenvalues --   -0.54374  -0.53207  -0.51720  -0.50640  -0.47943
  Beta  occ. eigenvalues --   -0.47121  -0.45108  -0.43887  -0.40961  -0.33162
  Beta  occ. eigenvalues --   -0.27917
  Beta virt. eigenvalues --    0.04052   0.04595   0.04826   0.04922   0.05168
  Beta virt. eigenvalues --    0.05388   0.05842   0.06717   0.06798   0.07747
  Beta virt. eigenvalues --    0.08029   0.08441   0.08716   0.08971   0.09292

 Mulliken charges and spin densities:
               1          2
     1  O   -5.037152   0.009389
     2  C    4.827521  -0.416179
     3  C    4.815823  -0.106287
     4  C   -4.693696   0.079178
     5  H    1.398056  -0.011691
     6  H    1.256693   0.000051
     7  H    1.312025   0.002662
     8  C   -3.900430   1.576682
     9  H    1.528907  -0.067641
    10  H    1.347387  -0.078588
    11  C   -4.559282   0.017299
    12  H    1.363178  -0.001194
    13  H    1.071211  -0.000268
    14  H    1.569644  -0.012039
    15  C   -4.844993   0.012473
    16  H    1.393510   0.000779
    17  H    1.185459  -0.002619
    18  H    1.327739   0.003674
    19  C   -4.724362  -0.004646
    20  H    1.079471   0.017096
    21  H    1.469099  -0.002701
    22  H    1.489410  -0.045811
    23  C   -4.632902   0.024731
    24  H    1.307980   0.002893
    25  H    1.526395   0.004470
    26  H    1.123310  -0.001714
 Sum of Mulliken charges =  -0.00000   1.00000

 Dipole moment (field-independent basis, Debye):
    X=             -0.0269    Y=              0.1299    Z=              0.3126  Tot=              0.3396
                          Isotropic Fermi Contact Couplings
        Atom                 a.u.       MegaHertz       Gauss      10(-4) cm-1
     1  O(17)              0.02340     -14.18627      -5.06202      -4.73203
     2  C(13)             -0.03685     -41.42464     -14.78134     -13.81777
     3  C(13)             -0.00135      -1.51314      -0.53993      -0.50473
     4  C(13)              0.03122      35.09830      12.52395      11.70753
     5  H(1)              -0.00060      -2.69208      -0.96060      -0.89798
     6  H(1)               0.00006       0.24757       0.08834       0.08258
     7  H(1)               0.00281      12.57861       4.48836       4.19577
     8  C(13)              0.13222     148.64125      53.03889      49.58138

 Normal termination of Gaussian 16 at Tue Apr  8 23:00:30 2025.
