 Gaussian 16, Revision C.01,

 ----------------------------------------------------------------------
 #t hf aug-cc-pvdz symm=none int=(grid=ultrafine) guess=(read,tcheck) s
 table=(opt,rrhf)
 ----------------------------------------------------------------------
 -----
 title
 -----
 Symbolic Z-matrix:
 Charge =  0 Multiplicity = 1

 SCF Done:  E(RHF) =  -544.475317983     A.U. after   12 cycles
 Normal termination of Gaussian 16 at Wed Apr  9 00:46:16 2025.
 Gaussian 16:  ES64L-G16RevC.01  3-Jul-2019

 ----------------------------------------------------------------------
 #t hf aug-cc-pvdz iop(5/13=1,5/36=2,99/5=2) pseudo=read geom=check gue
 ss=(read,tcheck) scf=(maxcycle=1)
 ----------------------------------------------------------------------
 -----
 title
 -----
 Structure from the checkpoint file:  "BDE49_nonexpt_784_mol1.chk"
 Charge =  0 Multiplicity = 1

                         Standard orientation:
 ---------------------------------------------------------------------
 Center     Atomic      Atomic             Coordinates (Angstroms)
 Number     Number       Type             X           Y           Z
 ---------------------------------------------------------------------
      1         14           0        0.751101   -0.000002   -0.446623
      2          5           0       -1.234006   -0.000011    0.022176
      3          8           0       -2.257714   -0.000007   -0.892102
      4          8           0       -1.575603    0.000007    1.342901
      5          6           0        1.603872   -1.547970    0.219572
      6          1           0        1.166994   -2.456971   -0.203185
      7          1           0        1.499557   -1.603492    1.306945
      8          6           0        1.603858    1.547979    0.219559
      9          1           0        1.499543    1.603509    1.306932
     10          1           0        1.166972    2.456972   -0.203205
     11          1           0        2.671378    1.546012   -0.019448
     12          1           0        2.671391   -1.545995   -0.019435
     13          1           0       -1.951459   -0.000007   -1.802601
     14          1           0       -2.533643    0.000010    1.470674
     15          1           0        0.884041   -0.000008   -1.936011
 ---------------------------------------------------------------------

 SCF Done:  E(RHF) =  -545.780290797     A.U. after    2 cycles

 The electronic state is 1-A.
 Alpha  occ. eigenvalues --  -76.18433 -21.06423 -21.05469 -11.34211 -11.34160
 Alpha  occ. eigenvalues --   -7.62951  -5.52351  -2.16054  -2.15598  -2.14671
 Alpha  occ. eigenvalues --   -1.80697  -1.65054  -1.05634  -1.00106  -0.76978
 Alpha  occ. eigenvalues --   -0.68684  -0.62231  -0.56055  -0.55808  -0.54178
 Alpha  occ. eigenvalues --   -0.53950  -0.52691  -0.48043  -0.43181  -0.42100
 Alpha  occ. eigenvalues --   -0.39015  -0.36349  -0.32541
 Alpha virt. eigenvalues --    0.03392   0.04170   0.04391   0.04586   0.06965
 Alpha virt. eigenvalues --    0.07035   0.07231   0.07634   0.07857   0.09121
 Alpha virt. eigenvalues --    0.09219   0.09327   0.09480   0.10585   0.11292

 Mulliken charges:
               1
     1  Si   5.748729
     2  B    5.366337
     3  O   -4.027434
     4  O   -4.144812
     5  C   -5.315605
     6  H    1.226701
     7  H    1.313314
     8  C   -5.315605
     9  H    1.313315
    10  H    1.226700
    11  H    1.206338
    12  H    1.206335
    13  H    1.349975
    14  H    1.183229
    15  H   -2.337518
 Sum of Mulliken charges =  -0.00000

 Dipole moment (field-independent basis, Debye):
    X=             -0.0643    Y=              0.0000    Z=             -0.1860  Tot=              0.1968

 Test job not archived.
 1\1\GINC-SE054\SP\RHF\Aug-CC-pVDZ\C2H9B1O2Si1\OHZDE\09-Apr-2025\0\\#t
 hf aug-cc-pvdz iop(5/13=1,5/36=2,99/5=2) pseudo=read geom=check guess=
 (read,tcheck) scf=(maxcycle=1)\\title\\0,1\Si,0,0.751101,-0.000002,-0.
 446623\B,0,-1.234006,-0.000011,0.022176\O,0,-2.257714,-0.000007,-0.892
 102\O,0,-1.575603,0.000007,1.342901\C,0,1.603872,-1.54797,0.219572\H,0
 ,1.166994,-2.456971,-0.203185\H,0,1.499557,-1.603492,1.306945\C,0,1.60
 3858,1.547979,0.219559\H,0,1.499543,1.603509,1.306932\H,0,1.166972,2.4
 56972,-0.203205\H,0,2.671378,1.546012,-0.019448\H,0,2.671391,-1.545995

 Normal termination of Gaussian 16 at Wed Apr  9 00:46:21 2025.
