 Gaussian 16, Revision C.01,

 ----------------------------------------------------------------------
 #t hf aug-cc-pvdz symm=none int=(grid=ultrafine) guess=(read,tcheck) s
 table=(opt,rrhf)
 ----------------------------------------------------------------------
 -----
 title
 -----
 Symbolic Z-matrix:
 Charge =  0 Multiplicity = 1

 SCF Done:  E(RHF) =  -632.919475129     A.U. after   13 cycles

 1\1\GINC-SE084\Stability\RHF\Aug-CC-pVDZ\C6H14S1\OHZDE\08-Apr-2025\0\\
 #t hf aug-cc-pvdz symm=none int=(grid=ultrafine) guess=(read,tcheck) s
 table=(opt,rrhf)\\title\\0,1\C,0,3.146422,-0.035219,0.000013\C,0,1.738
 092,0.560648,0.000017\H,0,3.891859,0.765055,0.000033\H,0,3.314615,-0.6
 54705,-0.884217\H,0,3.314605,-0.654738,0.884222\S,0,0.50877,-0.800021,
 -0.000016\H,0,1.59349,1.182287,-0.886124\H,0,1.59348,1.182254,0.886178
 \C,0,-1.144063,0.069143,-0.000003\C,0,-2.168714,-1.076363,-0.000016\H,
 0,-2.058344,-1.70678,-0.885831\H,0,-3.182427,-0.663318,-0.00001\C,0,-1

 Normal termination of Gaussian 16 at Tue Apr  8 22:48:41 2025.
 Gaussian 16:  ES64L-G16RevC.01  3-Jul-2019

 ----------------------------------------------------------------------
 #t hf aug-cc-pvdz iop(5/13=1,5/36=2,99/5=2) pseudo=read geom=check gue
 ss=(read,tcheck) scf=(maxcycle=1)
 ----------------------------------------------------------------------
 -----
 title
 -----
 Structure from the checkpoint file:  "BDE49_expt_1576_mol1.chk"
 Charge =  0 Multiplicity = 1

                         Standard orientation:
 ---------------------------------------------------------------------
 Center     Atomic      Atomic             Coordinates (Angstroms)
 Number     Number       Type             X           Y           Z
 ---------------------------------------------------------------------
      1          6           0        3.146422   -0.035219    0.000013
      2          6           0        1.738092    0.560648    0.000017
      3          1           0        3.891859    0.765055    0.000033
      4          1           0        3.314615   -0.654705   -0.884217
      5          1           0        3.314605   -0.654738    0.884222
      6         16           0        0.508770   -0.800021   -0.000016
      7          1           0        1.593490    1.182287   -0.886124
      8          1           0        1.593480    1.182254    0.886178
      9          6           0       -1.144063    0.069143   -0.000003
     10          6           0       -2.168714   -1.076363   -0.000016
     11          1           0       -2.058344   -1.706780   -0.885831
     12          1           0       -3.182427   -0.663318   -0.000010
     13          6           0       -1.314713    0.923738    1.263122
     14          1           0       -1.190537    0.319875    2.164413
     15          1           0       -2.316758    1.367086    1.280412
     16          1           0       -0.594252    1.744379    1.298768
     17          6           0       -1.314715    0.923769   -1.263107
     18          1           0       -2.316761    1.367118   -1.280384
     19          1           0       -1.190543    0.319927   -2.164414
     20          1           0       -0.594255    1.744410   -1.298736
     21          1           0       -2.058343   -1.706802    0.885784
 ---------------------------------------------------------------------

 SCF Done:  E(RHF) =  -634.398668909     A.U. after    2 cycles

 The electronic state is 1-A.
 Alpha  occ. eigenvalues --  -75.65763 -13.12505 -13.08286 -13.02414 -11.42886
 Alpha  occ. eigenvalues --  -11.41186 -11.39007 -11.38975 -11.36615 -11.35423
 Alpha  occ. eigenvalues --   -7.99808  -1.30495  -1.18193  -1.02121  -1.00922
 Alpha  occ. eigenvalues --   -1.00246  -0.86740  -0.76390  -0.63275  -0.62711
 Alpha  occ. eigenvalues --   -0.60698  -0.60663  -0.56686  -0.54393  -0.54375
 Alpha  occ. eigenvalues --   -0.51558  -0.50516  -0.49209  -0.45140  -0.44644
 Alpha  occ. eigenvalues --   -0.37983  -0.33053  -0.21695
 Alpha virt. eigenvalues --    0.03777   0.04128   0.05592   0.05622   0.05814
 Alpha virt. eigenvalues --    0.05951   0.06157   0.06457   0.06704   0.07355
 Alpha virt. eigenvalues --    0.08377   0.09129   0.09210   0.10340   0.11868

 Mulliken charges:
               1
     1  C   -4.017055
     2  C   -3.804891
     3  H    1.063861
     4  H    1.374651
     5  H    1.374652
     6  S    0.665633
     7  H    1.616598
     8  H    1.616601
     9  C    2.155719
    10  C   -4.379801
    11  H    1.331448
    12  H    1.167047
    13  C   -4.711551
    14  H    1.352304
    15  H    1.141973
    16  H    1.469314
    17  C   -4.711543
    18  H    1.141975
    19  H    1.352306
    20  H    1.469309
    21  H    1.331448
 Sum of Mulliken charges =   0.00000

 Dipole moment (field-independent basis, Debye):
    X=             -0.0733    Y=              0.0075    Z=              0.0000  Tot=              0.0737

 Test job not archived.
 1\1\GINC-SE084\SP\RHF\Aug-CC-pVDZ\C6H14S1\OHZDE\08-Apr-2025\0\\#t hf a
 ug-cc-pvdz iop(5/13=1,5/36=2,99/5=2) pseudo=read geom=check guess=(rea
 d,tcheck) scf=(maxcycle=1)\\title\\0,1\C,0,3.146422,-0.035219,0.000013
 \C,0,1.738092,0.560648,0.000017\H,0,3.891859,0.765055,0.000033\H,0,3.3
 14615,-0.654705,-0.884217\H,0,3.314605,-0.654738,0.884222\S,0,0.50877,
 -0.800021,-0.000016\H,0,1.59349,1.182287,-0.886124\H,0,1.59348,1.18225
 4,0.886178\C,0,-1.144063,0.069143,-0.000003\C,0,-2.168714,-1.076363,-0
 .000016\H,0,-2.058344,-1.70678,-0.885831\H,0,-3.182427,-0.663318,-0.00

 Normal termination of Gaussian 16 at Tue Apr  8 22:48:53 2025.
