 Gaussian 16, Revision C.01,

 ----------------------------------------------------------------------
 #t hf aug-cc-pvdz symm=none int=(grid=ultrafine) guess=(read,tcheck) s
 table=opt
 ----------------------------------------------------------------------
 -----
 title
 -----
 Symbolic Z-matrix:
 Charge =  0 Multiplicity = 2

 SCF Done:  E(UHF) =  -380.914935495     A.U. after   15 cycles
 Normal termination of Gaussian 16 at Tue Apr  8 23:13:46 2025.
 Gaussian 16:  ES64L-G16RevC.01  3-Jul-2019

 ----------------------------------------------------------------------
 #t hf aug-cc-pvdz iop(5/13=1,5/36=2,99/5=2) pseudo=read geom=check gue
 ss=(read,tcheck) scf=(maxcycle=1)
 ----------------------------------------------------------------------
 -----
 title
 -----
 Structure from the checkpoint file:  "BDE49_expt_817_mol2.chk"
 Charge =  0 Multiplicity = 2

                         Standard orientation:
 ---------------------------------------------------------------------
 Center     Atomic      Atomic             Coordinates (Angstroms)
 Number     Number       Type             X           Y           Z
 ---------------------------------------------------------------------
      1         15           0       -0.705109   -0.098768   -0.000001
      2          6           0        1.150432    0.012650    0.000001
      3          1           0       -0.930282    1.308734    0.000003
      4          1           0        1.575866   -0.992435   -0.000002
      5          1           0        1.514233    0.544659    0.884252
      6          1           0        1.514234    0.544663   -0.884247
 ---------------------------------------------------------------------

 SCF Done:  E(UHF) =  -381.294752776     A.U. after    2 cycles

 The electronic state is 2-A.
 Alpha  occ. eigenvalues -- -105.17452 -11.37191  -2.75328  -1.46408  -1.44189
 Alpha  occ. eigenvalues --   -1.42594  -1.00708  -0.66994  -0.56600  -0.56559
 Alpha  occ. eigenvalues --   -0.22513  -0.07280   0.02380
 Alpha virt. eigenvalues --    0.04024   0.06201   0.06892   0.06949   0.10358
 Alpha virt. eigenvalues --    0.11679   0.13817   0.15431   0.16572   0.18218
 Alpha virt. eigenvalues --    0.20054   0.21987   0.24996   0.26298   0.27461

  Beta  occ. eigenvalues -- -105.16824 -11.37323  -2.73411  -1.44599  -1.40929
  Beta  occ. eigenvalues --   -1.20027  -1.00297  -0.62344  -0.56461  -0.55564
  Beta  occ. eigenvalues --   -0.23544  -0.04840
  Beta virt. eigenvalues --    0.04053   0.06230   0.06430   0.07041   0.09507
  Beta virt. eigenvalues --    0.10537   0.12169   0.14243   0.16331   0.16663
  Beta virt. eigenvalues --    0.18474   0.22513   0.25304   0.26918   0.28348

 Mulliken charges and spin densities:
               1          2
     1  P    2.438348   1.466903
     2  C   -4.832577  -0.418855
     3  H   -0.928951  -0.169736
     4  H    1.261913  -0.019009
     5  H    1.030634   0.070349
     6  H    1.030634   0.070349
 Sum of Mulliken charges =  -0.00000   1.00000

 Dipole moment (field-independent basis, Debye):
    X=             -0.6758    Y=             -2.2319    Z=             -0.0000  Tot=              2.3320
                          Isotropic Fermi Contact Couplings
        Atom                 a.u.       MegaHertz       Gauss      10(-4) cm-1
     1  P(31)              0.27936     505.94458     180.53361     168.76495
     2  C(13)             -0.00230      -2.58567      -0.92263      -0.86249
     3  H(1)              -0.00692     -30.92166     -11.03362     -10.31436
     4  H(1)               0.00003       0.13245       0.04726       0.04418
     5  H(1)               0.00684      30.57357      10.90941      10.19824
     6  H(1)               0.00684      30.57361      10.90942      10.19826
 --------------------------------------------------------
       Center         ----  Spin Dipole Couplings  ----

 Normal termination of Gaussian 16 at Tue Apr  8 23:13:48 2025.
