 Gaussian 16, Revision C.01,

 ----------------------------------------------------------------------
 #t hf aug-cc-pvdz symm=none int=(grid=ultrafine) guess=(read,tcheck) s
 table=(opt,rrhf)
 ----------------------------------------------------------------------
 -----
 title
 -----
 Symbolic Z-matrix:
 Charge =  0 Multiplicity = 1

 SCF Done:  E(RHF) =  -713.573501652     A.U. after   14 cycles
 Normal termination of Gaussian 16 at Wed Apr  9 00:32:49 2025.
 Gaussian 16:  ES64L-G16RevC.01  3-Jul-2019

 ----------------------------------------------------------------------
 #t hf aug-cc-pvdz iop(5/13=1,5/36=2,99/5=2) pseudo=read geom=check gue
 ss=(read,tcheck) scf=(maxcycle=1)
 ----------------------------------------------------------------------
 -----
 title
 -----
 Structure from the checkpoint file:  "BDE49_nonexpt_388_mol1.chk"
 Charge =  0 Multiplicity = 1

                         Standard orientation:
 ---------------------------------------------------------------------
 Center     Atomic      Atomic             Coordinates (Angstroms)
 Number     Number       Type             X           Y           Z
 ---------------------------------------------------------------------
      1          9           0        2.272680   -0.274794    0.000010
      2          9           0        0.832887    1.499822   -0.000012
      3          5           0        1.046548    0.206697   -0.000001
      4          6           0       -1.656621    0.003316   -0.000001
      5          7           0       -2.622773    0.638447    0.000010
      6         16           0       -0.305232   -1.034235   -0.000003
 ---------------------------------------------------------------------

 SCF Done:  E(RHF) =  -714.955863257     A.U. after    2 cycles

 The electronic state is 1-A.
 Alpha  occ. eigenvalues --  -75.77237 -29.30276 -29.30024 -15.79090 -13.25227
 Alpha  occ. eigenvalues --  -13.19519 -13.10176 -11.46428  -8.11523  -7.77498
 Alpha  occ. eigenvalues --   -1.36240  -1.26489  -1.08895  -0.82800  -0.70857
 Alpha  occ. eigenvalues --   -0.58609  -0.57564  -0.52474  -0.50883  -0.50843
 Alpha  occ. eigenvalues --   -0.48905  -0.45542  -0.38005  -0.37211  -0.31122
 Alpha  occ. eigenvalues --   -0.28129
 Alpha virt. eigenvalues --    0.01674   0.03149   0.04504   0.06426   0.07454
 Alpha virt. eigenvalues --    0.10726   0.11395   0.12613   0.12622   0.13432
 Alpha virt. eigenvalues --    0.13797   0.15571   0.15957   0.16632   0.19792

 Mulliken charges:
               1
     1  F    0.345200
     2  F   -0.191427
     3  B    1.540529
     4  C    0.725025
     5  N   -1.977261
     6  S   -0.442066
 Sum of Mulliken charges =  -0.00000

 Dipole moment (field-independent basis, Debye):
    X=              5.1098    Y=             -0.6158    Z=             -0.0000  Tot=              5.1468

 Test job not archived.
 1\1\GINC-SE212\SP\RHF\Aug-CC-pVDZ\C1B1F2N1S1\OHZDE\09-Apr-2025\0\\#t h
 f aug-cc-pvdz iop(5/13=1,5/36=2,99/5=2) pseudo=read geom=check guess=(
 read,tcheck) scf=(maxcycle=1)\\title\\0,1\F,0,2.27268,-0.274794,0.0000
 1\F,0,0.832887,1.499822,-0.000012\B,0,1.046548,0.206697,-0.000001\C,0,
 -1.656621,0.003316,-0.000001\N,0,-2.622773,0.638447,0.00001\S,0,-0.305
 232,-1.034235,-0.000003\\Version=ES64L-G16RevC.01\State=1-A\HF=-714.95
 58633\RMSD=1.884e-01\Dipole=2.0103394,-0.2422909,-0.0000053\Quadrupole
 =-1.7336829,4.1774445,-2.4437615,0.6813921,0.0000562,-0.0000483\PG=C01

 Normal termination of Gaussian 16 at Wed Apr  9 00:32:53 2025.
