 Gaussian 16, Revision C.01,

 ----------------------------------------------------------------------
 #t hf aug-cc-pvdz symm=none int=(grid=ultrafine) guess=(read,tcheck) s
 table=opt
 ----------------------------------------------------------------------
 -----
 title
 -----
 Symbolic Z-matrix:
 Charge =  0 Multiplicity = 2

 SCF Done:  E(UHF) =  -873.718535501     A.U. after   22 cycles
 Normal termination of Gaussian 16 at Tue Apr  8 23:00:44 2025.
 Gaussian 16:  ES64L-G16RevC.01  3-Jul-2019

 ----------------------------------------------------------------------
 #t hf aug-cc-pvdz iop(5/13=1,5/36=2,99/5=2) pseudo=read geom=check gue
 ss=(read,tcheck) scf=(maxcycle=1)
 ----------------------------------------------------------------------
 -----
 title
 -----
 Structure from the checkpoint file:  "BDE49_expt_1968_mol2.chk"
 Charge =  0 Multiplicity = 2

                         Standard orientation:
 ---------------------------------------------------------------------
 Center     Atomic      Atomic             Coordinates (Angstroms)
 Number     Number       Type             X           Y           Z
 ---------------------------------------------------------------------
      1         16           0        1.556596   -0.597645    0.083600
      2         16           0        0.279060    0.895651   -0.215620
      3          6           0       -1.336403    0.350168    0.493419
      4          6           0       -1.971784   -0.815859   -0.254045
      5          1           0       -1.956788    1.250280    0.444489
      6          1           0       -1.155581    0.112372    1.542795
      7          1           0       -2.165390   -0.560428   -1.298299
      8          1           0       -2.922760   -1.084438    0.214904
      9          1           0       -1.320859   -1.691727   -0.227821
 ---------------------------------------------------------------------

 SCF Done:  E(UHF) =  -874.554732415     A.U. after    2 cycles

 The electronic state is 2-A.
 Alpha  occ. eigenvalues --  -75.72478 -75.71338 -13.13928 -13.10151 -13.07771
 Alpha  occ. eigenvalues --  -13.06482 -13.04654 -13.03459 -11.42996 -11.37777
 Alpha  occ. eigenvalues --   -8.06527  -8.05098  -1.28350  -1.13765  -0.98218
 Alpha  occ. eigenvalues --   -0.85847  -0.64531  -0.59791  -0.53513  -0.51627
 Alpha  occ. eigenvalues --   -0.43723  -0.38178  -0.36042  -0.25401  -0.20405
 Alpha virt. eigenvalues --    0.02976   0.04318   0.05002   0.06217   0.07012
 Alpha virt. eigenvalues --    0.07405   0.08277   0.12494   0.12868   0.13514
 Alpha virt. eigenvalues --    0.14360   0.14904   0.16143   0.16878   0.17510

  Beta  occ. eigenvalues --  -75.72188 -75.70483 -13.13719 -13.10045 -13.07310
  Beta  occ. eigenvalues --  -13.04619 -13.03325 -12.99355 -11.43037 -11.37765
  Beta  occ. eigenvalues --   -8.06200  -8.04136  -1.26635  -1.11608  -0.94348
  Beta  occ. eigenvalues --   -0.83234  -0.64429  -0.59643  -0.53228  -0.51534
  Beta  occ. eigenvalues --   -0.43490  -0.34758  -0.30858  -0.24220
  Beta virt. eigenvalues --    0.02857   0.04423   0.04939   0.06161   0.06251
  Beta virt. eigenvalues --    0.07472   0.07650   0.08485   0.12700   0.13041
  Beta virt. eigenvalues --    0.13790   0.14458   0.14969   0.16371   0.17143

 Mulliken charges and spin densities:
               1          2
     1  S   -0.042589   0.844721
     2  S    0.310652   0.204933
     3  C   -3.717352  -0.051494
     4  C   -3.283563   0.010264
     5  H    1.503861  -0.001721
     6  H    1.470255   0.004601
     7  H    1.277281   0.000238
     8  H    1.219700  -0.001968
     9  H    1.261754  -0.009573
 Sum of Mulliken charges =  -0.00000   1.00000

 Dipole moment (field-independent basis, Debye):
    X=             -0.3425    Y=              0.5175    Z=             -0.1074  Tot=              0.6298
                          Isotropic Fermi Contact Couplings
        Atom                 a.u.       MegaHertz       Gauss      10(-4) cm-1
     1  S(33)              0.27850      95.65666      34.13267      31.90763
     2  S(33)              0.16714      57.40783      20.48454      19.14919
     3  C(13)             -0.00727      -8.17832      -2.91823      -2.72799
     4  C(13)              0.00718       8.07729       2.88218       2.69429
     5  H(1)              -0.00001      -0.02552      -0.00911      -0.00851
     6  H(1)               0.00212       9.49444       3.38785       3.16700
     7  H(1)              -0.00005      -0.23205      -0.08280      -0.07741
     8  H(1)              -0.00015      -0.65392      -0.23334      -0.21812

 Normal termination of Gaussian 16 at Tue Apr  8 23:00:47 2025.
