 Gaussian 16, Revision C.01,

 ----------------------------------------------------------------------
 #t hf aug-cc-pvdz symm=none int=(grid=ultrafine) guess=(read,tcheck) s
 table=(opt,rrhf)
 ----------------------------------------------------------------------
 -----
 title
 -----
 Symbolic Z-matrix:
 Charge =  0 Multiplicity = 1

 SCF Done:  E(RHF) =  -1138.87669834     A.U. after   15 cycles
 Normal termination of Gaussian 16 at Tue Apr  8 23:42:38 2025.
 Gaussian 16:  ES64L-G16RevC.01  3-Jul-2019

 ----------------------------------------------------------------------
 #t hf aug-cc-pvdz iop(5/13=1,5/36=2,99/5=2) pseudo=read geom=check gue
 ss=(read,tcheck) scf=(maxcycle=1)
 ----------------------------------------------------------------------
 -----
 title
 -----
 Structure from the checkpoint file:  "BDE49_nonexpt_1645_mol1.chk"
 Charge =  0 Multiplicity = 1

                         Standard orientation:
 ---------------------------------------------------------------------
 Center     Atomic      Atomic             Coordinates (Angstroms)
 Number     Number       Type             X           Y           Z
 ---------------------------------------------------------------------
      1         14           0        0.531500    0.167309   -0.857703
      2          7           0        1.477302   -1.240514   -0.003346
      3         15           0       -1.510398    0.063736    0.144513
      4          8           0        0.853263   -2.156317    0.547079
      5          8           0        2.696554   -1.193764   -0.061433
      6          8           0       -1.556537    0.813395    1.411635
      7          8           0       -1.871543   -1.489536    0.151893
      8          6           0        1.487195    1.741149   -0.572888
      9          6           0        1.716434    2.107716    0.906480
     10          1           0        0.930665    2.535851   -1.086120
     11          1           0        2.439090    1.641604   -1.104819
     12          1           0        0.774480    2.169548    1.454295
     13          1           0        2.223986    3.072037    0.983440
     14          1           0        2.347033    1.363764    1.398205
     15          8           0       -2.543486    0.591016   -0.971184
     16          1           0       -3.086273    1.312467   -0.628087
     17          1           0       -1.112755   -2.012572    0.475846
     18          1           0        0.509864   -0.309016   -2.254650
 ---------------------------------------------------------------------

 SCF Done:  E(RHF) =  -1141.41263465     A.U. after    2 cycles

 The electronic state is 1-A.
 Alpha  occ. eigenvalues -- -105.31660 -76.29274 -21.13032 -21.12099 -21.11568
 Alpha  occ. eigenvalues --  -21.11084 -21.03501 -15.98220 -11.42552 -11.37977
 Alpha  occ. eigenvalues --   -5.63145  -2.93668  -2.27559  -2.26173  -2.25168
 Alpha  occ. eigenvalues --   -1.99554  -1.98995  -1.90922  -1.79575  -1.70234
 Alpha  occ. eigenvalues --   -1.52007  -1.40709  -1.26662  -1.18118  -1.02172
 Alpha  occ. eigenvalues --   -0.92140  -0.76557  -0.71943  -0.67603  -0.64558
 Alpha  occ. eigenvalues --   -0.63690  -0.62298  -0.59871  -0.59067  -0.56721
 Alpha  occ. eigenvalues --   -0.52285  -0.51668  -0.45926  -0.45242  -0.42776
 Alpha  occ. eigenvalues --   -0.35843  -0.35192  -0.34936  -0.33739  -0.33260
 Alpha  occ. eigenvalues --   -0.29314  -0.23375  -0.16527
 Alpha virt. eigenvalues --    0.03061   0.04652   0.04938   0.05200   0.06172
 Alpha virt. eigenvalues --    0.07125   0.07306   0.07716   0.08283   0.09084
 Alpha virt. eigenvalues --    0.09582   0.09990   0.10367   0.11253   0.12624

 Mulliken charges:
               1
     1  Si   4.875877
     2  N    3.423666
     3  P    7.427342
     4  O   -2.294462
     5  O   -2.406214
     6  O   -3.206030
     7  O   -3.528112
     8  C   -4.391302
     9  C   -3.506438
    10  H    1.449530
    11  H    1.420089
    12  H    1.442225
    13  H    1.144611
    14  H    1.340991
    15  O   -2.814214
    16  H    0.825320
    17  H    1.380595
    18  H   -2.583475
 Sum of Mulliken charges =  -0.00000

 Dipole moment (field-independent basis, Debye):
    X=             -1.4193    Y=              1.4337    Z=             -2.0300  Tot=              2.8619

 Test job not archived.
 1\1\GINC-SE363\SP\RHF\Aug-CC-pVDZ\C2H8N1O5P1Si1\OHZDE\08-Apr-2025\0\\#
 t hf aug-cc-pvdz iop(5/13=1,5/36=2,99/5=2) pseudo=read geom=check gues
 s=(read,tcheck) scf=(maxcycle=1)\\title\\0,1\Si,0,0.5315,0.167309,-0.8
 57703\N,0,1.477302,-1.240514,-0.003346\P,0,-1.510398,0.063736,0.144513
 \O,0,0.853263,-2.156317,0.547079\O,0,2.696554,-1.193764,-0.061433\O,0,
 -1.556537,0.813395,1.411635\O,0,-1.871543,-1.489536,0.151893\C,0,1.487
 195,1.741149,-0.572888\C,0,1.716434,2.107716,0.90648\H,0,0.930665,2.53
 5851,-1.08612\H,0,2.43909,1.641604,-1.104819\H,0,0.77448,2.169548,1.45

 Normal termination of Gaussian 16 at Tue Apr  8 23:42:48 2025.
