 Gaussian 16, Revision C.01,

 ----------------------------------------------------------------------
 #t hf aug-cc-pvdz symm=none int=(grid=ultrafine) guess=(read,tcheck) s
 table=(opt,rrhf)
 ----------------------------------------------------------------------
 -----
 title
 -----
 Symbolic Z-matrix:
 Charge =  0 Multiplicity = 1

 SCF Done:  E(RHF) =  -585.020376594     A.U. after   15 cycles
 Normal termination of Gaussian 16 at Tue Apr  8 23:28:52 2025.
 Gaussian 16:  ES64L-G16RevC.01  3-Jul-2019

 ----------------------------------------------------------------------
 #t hf aug-cc-pvdz iop(5/13=1,5/36=2,99/5=2) pseudo=read geom=check gue
 ss=(read,tcheck) scf=(maxcycle=1)
 ----------------------------------------------------------------------
 -----
 title
 -----
 Structure from the checkpoint file:  "BDE49_nonexpt_1313_mol1.chk"
 Charge =  0 Multiplicity = 1

                         Standard orientation:
 ---------------------------------------------------------------------
 Center     Atomic      Atomic             Coordinates (Angstroms)
 Number     Number       Type             X           Y           Z
 ---------------------------------------------------------------------
      1         15           0        0.715736   -0.763541   -0.262466
      2          6           0        1.866621    0.583052    0.242821
      3          1           0        2.856973    0.132656    0.361658
      4          1           0        1.573238    1.070209    1.171743
      5          1           0        1.919674    1.324371   -0.554433
      6          7           0       -0.912493    0.124948   -0.004947
      7          8           0       -0.941842    1.333390   -0.175501
      8          8           0       -1.871482   -0.586069    0.244796
      9          1           0        0.608403   -1.425639    0.981360
 ---------------------------------------------------------------------

 SCF Done:  E(RHF) =  -586.268064669     A.U. after    2 cycles

 The electronic state is 1-A.
 Alpha  occ. eigenvalues -- -105.24725 -21.09669 -21.09527 -15.97947 -11.40516
 Alpha  occ. eigenvalues --   -2.82291  -1.98678  -1.69146  -1.53968  -1.50805
 Alpha  occ. eigenvalues --   -1.49976  -1.05249  -0.92536  -0.73797  -0.65293
 Alpha  occ. eigenvalues --   -0.60890  -0.59660  -0.59363  -0.55711  -0.33057
 Alpha  occ. eigenvalues --   -0.31741  -0.26443  -0.24282  -0.05394
 Alpha virt. eigenvalues --    0.03483   0.05467   0.06068   0.06503   0.08995
 Alpha virt. eigenvalues --    0.09562   0.10220   0.13419   0.14171   0.14506
 Alpha virt. eigenvalues --    0.16531   0.16772   0.17219   0.18091   0.20384

 Mulliken charges:
               1
     1  P    3.718573
     2  C   -5.387205
     3  H    1.216286
     4  H    1.130529
     5  H    1.288014
     6  N    4.070531
     7  O   -2.464359
     8  O   -2.656933
     9  H   -0.915436
 Sum of Mulliken charges =  -0.00000

 Dipole moment (field-independent basis, Debye):
    X=              2.0188    Y=             -1.4580    Z=             -1.4637  Tot=              2.8885

 Test job not archived.
 1\1\GINC-SE143\SP\RHF\Aug-CC-pVDZ\C1H4N1O2P1\OHZDE\08-Apr-2025\0\\#t h
 f aug-cc-pvdz iop(5/13=1,5/36=2,99/5=2) pseudo=read geom=check guess=(
 read,tcheck) scf=(maxcycle=1)\\title\\0,1\P,0,0.715736,-0.763541,-0.26
 2466\C,0,1.866621,0.583052,0.242821\H,0,2.856973,0.132656,0.361658\H,0
 ,1.573238,1.070209,1.171743\H,0,1.919674,1.324371,-0.554433\N,0,-0.912
 493,0.124948,-0.004947\O,0,-0.941842,1.33339,-0.175501\O,0,-1.871482,-
 0.586069,0.244796\H,0,0.608403,-1.425639,0.98136\\Version=ES64L-G16Rev
 C.01\State=1-A\HF=-586.2680647\RMSD=2.082e-01\Dipole=0.7942582,-0.5736

 Normal termination of Gaussian 16 at Tue Apr  8 23:28:55 2025.
