 Gaussian 16, Revision C.01,

 ----------------------------------------------------------------------
 #t hf aug-cc-pvdz symm=none int=(grid=ultrafine) guess=(read,tcheck) s
 table=(opt,rrhf)
 ----------------------------------------------------------------------
 -----
 title
 -----
 Symbolic Z-matrix:
 Charge =  0 Multiplicity = 1

 SCF Done:  E(RHF) =  -469.549926765     A.U. after   12 cycles
 Normal termination of Gaussian 16 at Tue Apr  8 23:55:32 2025.
 Gaussian 16:  ES64L-G16RevC.01  3-Jul-2019

 ----------------------------------------------------------------------
 #t hf aug-cc-pvdz iop(5/13=1,5/36=2,99/5=2) pseudo=read geom=check gue
 ss=(read,tcheck) scf=(maxcycle=1)
 ----------------------------------------------------------------------
 -----
 title
 -----
 Structure from the checkpoint file:  "BDE49_nonexpt_1961_mol1.chk"
 Charge =  0 Multiplicity = 1

                         Standard orientation:
 ---------------------------------------------------------------------
 Center     Atomic      Atomic             Coordinates (Angstroms)
 Number     Number       Type             X           Y           Z
 ---------------------------------------------------------------------
      1         14           0        1.849015    0.081708   -0.268332
      2          6           0        0.381288   -0.032888    0.912636
      3          5           0       -0.998792   -0.111676    0.166489
      4          1           0        1.940915   -1.126029   -1.121853
      5          1           0        3.118419    0.218815    0.487008
      6          8           0       -1.424884   -1.363769   -0.179124
      7          6           0       -1.849727    1.175471   -0.174904
      8          1           0        1.718083    1.264858   -1.155623
      9          1           0       -2.260415   -1.361095   -0.655850
     10          1           0       -1.227684    1.971851   -0.596679
     11          1           0       -2.275836    1.587423    0.748919
     12          1           0       -2.681682    0.997546   -0.865052
     13          1           0        0.439820    0.843809    1.567146
     14          1           0        0.545838   -0.928051    1.522782
 ---------------------------------------------------------------------

 SCF Done:  E(RHF) =  -470.565454384     A.U. after    2 cycles

 The electronic state is 1-A.
 Alpha  occ. eigenvalues --  -76.20859 -21.05627 -11.33648 -11.32022  -7.60634
 Alpha  occ. eigenvalues --   -5.54282  -2.18097  -2.16445  -2.16431  -1.73815
 Alpha  occ. eigenvalues --   -1.10454  -1.01635  -0.75031  -0.70509  -0.61168
 Alpha  occ. eigenvalues --   -0.57455  -0.55668  -0.53390  -0.48473  -0.45777
 Alpha  occ. eigenvalues --   -0.44545  -0.42084  -0.38855  -0.36119
 Alpha virt. eigenvalues --    0.02834   0.04239   0.04443   0.04912   0.06608
 Alpha virt. eigenvalues --    0.07186   0.07620   0.08250   0.08289   0.08864
 Alpha virt. eigenvalues --    0.09142   0.09869   0.10263   0.10791   0.11735

 Mulliken charges:
               1
     1  Si   5.951565
     2  C   -6.310767
     3  B    8.846511
     4  H   -1.811690
     5  H   -1.824894
     6  O   -3.878588
     7  C   -6.043884
     8  H   -1.748626
     9  H    1.186127
    10  H    1.229167
    11  H    1.070573
    12  H    1.000950
    13  H    1.133240
    14  H    1.200316
 Sum of Mulliken charges =  -0.00000

 Dipole moment (field-independent basis, Debye):
    X=             -1.3471    Y=              0.1505    Z=              0.3551  Tot=              1.4013

 Test job not archived.
 1\1\GINC-SE396\SP\RHF\Aug-CC-pVDZ\C2H9B1O1Si1\OHZDE\08-Apr-2025\0\\#t
 hf aug-cc-pvdz iop(5/13=1,5/36=2,99/5=2) pseudo=read geom=check guess=
 (read,tcheck) scf=(maxcycle=1)\\title\\0,1\Si,0,1.849015,0.081708,-0.2
 68332\C,0,0.381288,-0.032888,0.912636\B,0,-0.998792,-0.111676,0.166489
 \H,0,1.940915,-1.126029,-1.121853\H,0,3.118419,0.218815,0.487008\O,0,-
 1.424884,-1.363769,-0.179124\C,0,-1.849727,1.175471,-0.174904\H,0,1.71
 8083,1.264858,-1.155623\H,0,-2.260415,-1.361095,-0.65585\H,0,-1.227684
 ,1.971851,-0.596679\H,0,-2.275836,1.587423,0.748919\H,0,-2.681682,0.99

 Normal termination of Gaussian 16 at Tue Apr  8 23:55:35 2025.
