 Gaussian 16, Revision C.01,

 ----------------------------------------------------------------------
 #t hf aug-cc-pvdz symm=none int=(grid=ultrafine) guess=(read,tcheck) s
 table=(opt,rrhf)
 ----------------------------------------------------------------------
 -----
 title
 -----
 Symbolic Z-matrix:
 Charge =  0 Multiplicity = 1

 SCF Done:  E(RHF) =  -733.122370769     A.U. after   12 cycles
 Normal termination of Gaussian 16 at Wed Apr  9 00:10:35 2025.
 Gaussian 16:  ES64L-G16RevC.01  3-Jul-2019

 ----------------------------------------------------------------------
 #t hf aug-cc-pvdz iop(5/13=1,5/36=2,99/5=2) pseudo=read geom=check gue
 ss=(read,tcheck) scf=(maxcycle=1)
 ----------------------------------------------------------------------
 -----
 title
 -----
 Structure from the checkpoint file:  "BDE49_nonexpt_2341_mol1.chk"
 Charge =  0 Multiplicity = 1

                         Standard orientation:
 ---------------------------------------------------------------------
 Center     Atomic      Atomic             Coordinates (Angstroms)
 Number     Number       Type             X           Y           Z
 ---------------------------------------------------------------------
      1         14           0        2.187460    0.285328    0.000016
      2         14           0        0.194966   -0.966744   -0.000022
      3          6           0       -1.283632    0.303701   -0.000033
      4          1           0        0.072574   -1.843501    1.194539
      5          1           0        0.072602   -1.843467   -1.194611
      6          8           0       -1.021104    1.489892   -0.000002
      7          1           0        2.252274    1.135054   -1.210551
      8          1           0        2.252231    1.135046    1.210589
      9          6           0       -2.715664   -0.193378    0.000029
     10          1           0       -2.892853   -0.821700   -0.879332
     11          1           0       -3.406613    0.651406    0.000050
     12          1           0       -2.892785   -0.821688    0.879412
     13          1           0        3.353209   -0.632404    0.000034
 ---------------------------------------------------------------------

 SCF Done:  E(RHF) =  -734.129544890     A.U. after    2 cycles

 The electronic state is 1-A.
 Alpha  occ. eigenvalues --  -76.22546 -76.21857 -21.06582 -11.47206 -11.38840
 Alpha  occ. eigenvalues --   -5.56166  -5.55242  -2.19689  -2.18132  -2.17818
 Alpha  occ. eigenvalues --   -2.17318  -2.17280  -2.16412  -1.70836  -1.10966
 Alpha  occ. eigenvalues --   -0.84763  -0.76903  -0.69110  -0.60533  -0.59595
 Alpha  occ. eigenvalues --   -0.55167  -0.49545  -0.47817  -0.46595  -0.46151
 Alpha  occ. eigenvalues --   -0.42755  -0.35634  -0.26889
 Alpha virt. eigenvalues --    0.03506   0.04512   0.05314   0.06246   0.06476
 Alpha virt. eigenvalues --    0.06733   0.06754   0.08530   0.08681   0.08762
 Alpha virt. eigenvalues --    0.09565   0.09766   0.10005   0.10447   0.12672

 Mulliken charges:
               1
     1  Si   4.778374
     2  Si   4.549534
     3  C    1.427938
     4  H   -1.855918
     5  H   -1.855952
     6  O   -2.452336
     7  H   -1.499137
     8  H   -1.499146
     9  C   -3.925283
    10  H    1.328198
    11  H    1.282970
    12  H    1.328186
    13  H   -1.607427
 Sum of Mulliken charges =   0.00000

 Dipole moment (field-independent basis, Debye):
    X=             -0.4242    Y=             -0.3502    Z=              0.0001  Tot=              0.5501

 Test job not archived.
 1\1\GINC-SE096\SP\RHF\Aug-CC-pVDZ\C2H8O1Si2\OHZDE\09-Apr-2025\0\\#t hf
  aug-cc-pvdz iop(5/13=1,5/36=2,99/5=2) pseudo=read geom=check guess=(r
 ead,tcheck) scf=(maxcycle=1)\\title\\0,1\Si,0,2.18746,0.285328,0.00001
 6\Si,0,0.194966,-0.966744,-0.000022\C,0,-1.283632,0.303701,-0.000033\H
 ,0,0.072574,-1.843501,1.194539\H,0,0.072602,-1.843467,-1.194611\O,0,-1
 .021104,1.489892,-0.000002\H,0,2.252274,1.135054,-1.210551\H,0,2.25223
 1,1.135046,1.210589\C,0,-2.715664,-0.193378,0.000029\H,0,-2.892853,-0.
 8217,-0.879332\H,0,-3.406613,0.651406,0.00005\H,0,-2.892785,-0.821688,

 Normal termination of Gaussian 16 at Wed Apr  9 00:10:46 2025.
