 Gaussian 16, Revision C.01,

 ----------------------------------------------------------------------
 #t hf aug-cc-pvdz symm=none int=(grid=ultrafine) guess=(read,tcheck) s
 table=(opt,rrhf)
 ----------------------------------------------------------------------
 -----
 title
 -----
 Symbolic Z-matrix:
 Charge =  0 Multiplicity = 1

 SCF Done:  E(RHF) =  -1898.69685221     A.U. after   13 cycles
 Normal termination of Gaussian 16 at Tue Apr  8 23:26:38 2025.
 Gaussian 16:  ES64L-G16RevC.01  3-Jul-2019

 ----------------------------------------------------------------------
 #t hf aug-cc-pvdz iop(5/13=1,5/36=2,99/5=2) pseudo=read geom=check gue
 ss=(read,tcheck) scf=(maxcycle=1)
 ----------------------------------------------------------------------
 -----
 title
 -----
 Structure from the checkpoint file:  "BDE49_nonexpt_1233_mol1.chk"
 Charge =  0 Multiplicity = 1

                         Standard orientation:
 ---------------------------------------------------------------------
 Center     Atomic      Atomic             Coordinates (Angstroms)
 Number     Number       Type             X           Y           Z
 ---------------------------------------------------------------------
      1         17           0       -1.827680   -1.657849   -0.593227
      2          7           0       -0.344744    1.299394    0.513016
      3          7           0       -2.292647    1.590657   -1.074279
      4         15           0       -2.592167   -0.315407    0.842268
      5          6           0       -1.807620    1.295901    0.244960
      6         17           0        1.827690   -1.657845    0.593227
      7          7           0        0.344739    1.299398   -0.513015
      8          7           0        2.292641    1.590656    1.074282
      9         15           0        2.592165   -0.315400   -0.842272
     10          6           0        1.807615    1.295905   -0.244959
     11          1           0        2.003207    2.521960    1.357633
     12          1           0        1.891403    0.942856    1.745455
     13          1           0       -1.891409    0.942859   -1.745455
     14          1           0       -2.003214    2.521962   -1.357627
     15          1           0        1.604416   -0.579897   -1.824924
     16          1           0        2.214787    2.023755   -0.957777
     17          1           0       -1.604424   -0.579901    1.824926
     18          1           0       -2.214792    2.023748    0.957781
 ---------------------------------------------------------------------

 SCF Done:  E(RHF) =  -1900.94318342     A.U. after    2 cycles

 The electronic state is 1-A.
 Alpha  occ. eigenvalues -- -105.23434-105.23420 -99.88659 -99.88658 -15.80533
 Alpha  occ. eigenvalues --  -15.79872 -15.75315 -15.75302 -11.44240 -11.43891
 Alpha  occ. eigenvalues --  -10.45958 -10.45952  -9.65839  -9.65835  -9.65358
 Alpha  occ. eigenvalues --   -9.65281  -9.65143  -9.65122  -2.80742  -2.80692
 Alpha  occ. eigenvalues --   -1.58819  -1.53795  -1.51346  -1.50054  -1.49718
 Alpha  occ. eigenvalues --   -1.49050  -1.48645  -1.35703  -1.30972  -1.22335
 Alpha  occ. eigenvalues --   -1.22208  -1.09972  -0.94587  -0.80918  -0.75657
 Alpha  occ. eigenvalues --   -0.73345  -0.70623  -0.66405  -0.64721  -0.62821
 Alpha  occ. eigenvalues --   -0.57292  -0.55898  -0.53798  -0.52793  -0.52763
 Alpha  occ. eigenvalues --   -0.51417  -0.51239  -0.42381  -0.40765  -0.39049
 Alpha  occ. eigenvalues --   -0.37713  -0.34373  -0.26712  -0.22806  -0.07387
 Alpha  occ. eigenvalues --   -0.03513
 Alpha virt. eigenvalues --    0.03867   0.04944   0.05509   0.06068   0.06203
 Alpha virt. eigenvalues --    0.06621   0.07543   0.07875   0.08915   0.09407
 Alpha virt. eigenvalues --    0.10945   0.11131   0.11526   0.11823   0.12438

 Mulliken charges:
               1
     1  Cl  -1.308010
     2  N   -1.421306
     3  N   -3.045692
     4  P    3.369029
     5  C    0.363310
     6  Cl  -1.308011
     7  N   -1.421306
     8  N   -3.045688
     9  P    3.369033
    10  C    0.363310
    11  H    0.636983
    12  H    0.644171
    13  H    0.644169
    14  H    0.636984
    15  H   -0.922866
    16  H    1.684377
    17  H   -0.922862
    18  H    1.684376
 Sum of Mulliken charges =  -0.00000

 Dipole moment (field-independent basis, Debye):
    X=              0.0000    Y=              3.3721    Z=             -0.0000  Tot=              3.3721

 Test job not archived.
 1\1\GINC-SE096\SP\RHF\Aug-CC-pVDZ\C2H8Cl2N4P2\OHZDE\08-Apr-2025\0\\#t
 hf aug-cc-pvdz iop(5/13=1,5/36=2,99/5=2) pseudo=read geom=check guess=
 (read,tcheck) scf=(maxcycle=1)\\title\\0,1\Cl,0,1.82768,-1.657849,0.59
 3227\N,0,0.344744,1.299394,-0.513016\N,0,2.292647,1.590657,1.074279\P,
 0,2.592167,-0.315407,-0.842268\C,0,1.80762,1.295901,-0.24496\Cl,0,-1.8
 2769,-1.657845,-0.593227\N,0,-0.344739,1.299398,0.513015\N,0,-2.292641
 ,1.590656,-1.074282\P,0,-2.592165,-0.3154,0.842272\C,0,-1.807615,1.295
 905,0.244959\H,0,-2.003207,2.52196,-1.357633\H,0,-1.891403,0.942856,-1

 Normal termination of Gaussian 16 at Tue Apr  8 23:26:50 2025.
