 Gaussian 16, Revision C.01,

 ----------------------------------------------------------------------
 #t hf aug-cc-pvdz symm=none int=(grid=ultrafine) guess=(read,tcheck) s
 table=opt
 ----------------------------------------------------------------------
 -----
 title
 -----
 Symbolic Z-matrix:
 Charge =  0 Multiplicity = 2

 SCF Done:  E(UHF) =  -498.490517110     A.U. after   15 cycles

 1\1\GINC-SE083\Stability\UHF\Aug-CC-pVDZ\C1H2Cl1\OHZDE\08-Apr-2025\0\\
 #t hf aug-cc-pvdz symm=none int=(grid=ultrafine) guess=(read,tcheck) s
 table=opt\\title\\0,2\C,0,0.,0.,-1.122869\Cl,0,0.,0.,0.587038\H,0,0.,0
 .95559,-1.621219\H,0,0.,-0.95559,-1.621219\\Version=ES64L-G16RevC.01\H
 F=-498.4905171\S2=0.766722\S2-1=0.\S2A=0.750202\RMSD=2.969e-09\Dipole=
 0.,0.,-0.5957451\Quadrupole=-1.3926887,0.1750719,1.2176168,0.,0.,0.\PG
 =Unknown\\@
 The archive entry for this job was punched.

 Normal termination of Gaussian 16 at Tue Apr  8 22:31:19 2025.
 Gaussian 16:  ES64L-G16RevC.01  3-Jul-2019

 ----------------------------------------------------------------------
 #t hf aug-cc-pvdz iop(5/13=1,5/36=2,99/5=2) pseudo=read geom=check gue
 ss=(read,tcheck) scf=(maxcycle=1)
 ----------------------------------------------------------------------
 -----
 title
 -----
 Structure from the checkpoint file:  "BDE49_expt_1013_mol3.chk"
 Charge =  0 Multiplicity = 2

                         Standard orientation:
 ---------------------------------------------------------------------
 Center     Atomic      Atomic             Coordinates (Angstroms)
 Number     Number       Type             X           Y           Z
 ---------------------------------------------------------------------
      1          6           0        0.000000   -0.000000   -1.122869
      2         17           0        0.000000    0.000000    0.587038
      3          1           0        0.000000    0.955590   -1.621219
      4          1           0       -0.000000   -0.955590   -1.621219
 ---------------------------------------------------------------------

 SCF Done:  E(UHF) =  -498.911517813     A.U. after    2 cycles

 The electronic state is 2-B1.
 Alpha  occ. eigenvalues --  -99.90073 -11.42976 -10.47468  -9.67061  -9.66607
 Alpha  occ. eigenvalues --   -9.66432  -1.35363  -0.99162  -0.66608  -0.62110
 Alpha  occ. eigenvalues --   -0.58119  -0.49257  -0.36027
 Alpha virt. eigenvalues --    0.02690   0.05714   0.06867   0.11110   0.12613
 Alpha virt. eigenvalues --    0.15349   0.15501   0.16412   0.19836   0.19973
 Alpha virt. eigenvalues --    0.23673   0.26402   0.26675   0.28881   0.34982

  Beta  occ. eigenvalues --  -99.90027 -11.40531 -10.47421  -9.67358  -9.66402
  Beta  occ. eigenvalues --   -9.66100  -1.33842  -0.91529  -0.65378  -0.61052
  Beta  occ. eigenvalues --   -0.52938  -0.49006
  Beta virt. eigenvalues --    0.03055   0.05744   0.06953   0.07290   0.11660
  Beta virt. eigenvalues --    0.13842   0.15335   0.15687   0.18433   0.19954
  Beta virt. eigenvalues --    0.21532   0.24764   0.26469   0.26714   0.29805

 Mulliken charges and spin densities:
               1          2
     1  C   -3.066980   1.266626
     2  Cl  -0.021175  -0.039560
     3  H    1.544078  -0.113533
     4  H    1.544078  -0.113533
 Sum of Mulliken charges =   0.00000   1.00000

 Dipole moment (field-independent basis, Debye):
    X=             -0.0000    Y=             -0.0000    Z=             -1.5547  Tot=              1.5547
                          Isotropic Fermi Contact Couplings
        Atom                 a.u.       MegaHertz       Gauss      10(-4) cm-1
     1  C(13)              0.13664     153.61372      54.81320      51.24002
     2  Cl(35)             0.04097      17.96542       6.41051       5.99262
     3  H(1)              -0.02011     -89.86815     -32.06719     -29.97679
     4  H(1)              -0.02011     -89.86815     -32.06719     -29.97679
 --------------------------------------------------------
       Center         ----  Spin Dipole Couplings  ----
                      3XX-RR        3YY-RR        3ZZ-RR
 --------------------------------------------------------

 Normal termination of Gaussian 16 at Tue Apr  8 22:31:23 2025.
