 Gaussian 16, Revision C.01,

 ----------------------------------------------------------------------
 #t hf aug-cc-pvdz symm=none int=(grid=ultrafine) guess=(read,tcheck) s
 table=(opt,rrhf)
 ----------------------------------------------------------------------
 -----
 title
 -----
 Symbolic Z-matrix:
 Charge =  0 Multiplicity = 1

 SCF Done:  E(RHF) =  -459.468213691     A.U. after   14 cycles
 Normal termination of Gaussian 16 at Wed Apr  9 00:42:51 2025.
 Gaussian 16:  ES64L-G16RevC.01  3-Jul-2019

 ----------------------------------------------------------------------
 #t hf aug-cc-pvdz iop(5/13=1,5/36=2,99/5=2) pseudo=read geom=check gue
 ss=(read,tcheck) scf=(maxcycle=1)
 ----------------------------------------------------------------------
 -----
 title
 -----
 Structure from the checkpoint file:  "BDE49_nonexpt_710_mol1.chk"
 Charge =  0 Multiplicity = 1

                         Standard orientation:
 ---------------------------------------------------------------------
 Center     Atomic      Atomic             Coordinates (Angstroms)
 Number     Number       Type             X           Y           Z
 ---------------------------------------------------------------------
      1          5           0       -1.694403    0.897554    0.072914
      2          6           0        1.088555    0.033017    0.028142
      3          7           0        2.185067    0.399311    0.055876
      4         15           0       -0.567547   -0.589045   -0.142496
      5          1           0       -1.377644    1.951514   -0.365720
      6          1           0       -2.781236    0.692319    0.505083
      7          1           0       -0.682697   -1.289201    1.073533
 ---------------------------------------------------------------------

 SCF Done:  E(RHF) =  -460.179027008     A.U. after    2 cycles

 The electronic state is 1-A.
 Alpha  occ. eigenvalues -- -105.21956 -15.77343 -11.42682  -7.65915  -2.80243
 Alpha  occ. eigenvalues --   -1.56961  -1.52476  -1.47173  -1.29559  -0.90270
 Alpha  occ. eigenvalues --   -0.73618  -0.56366  -0.53136  -0.46880  -0.46672
 Alpha  occ. eigenvalues --   -0.33945  -0.19937  -0.06865
 Alpha virt. eigenvalues --    0.03266   0.03867   0.04265   0.05582   0.06992
 Alpha virt. eigenvalues --    0.09194   0.09544   0.10967   0.11567   0.12086
 Alpha virt. eigenvalues --    0.13252   0.14508   0.15460   0.16591   0.17049

 Mulliken charges:
               1
     1  B    4.112146
     2  C   -0.452178
     3  N   -1.697071
     4  P    2.987231
     5  H   -1.929158
     6  H   -2.332380
     7  H   -0.688591
 Sum of Mulliken charges =  -0.00000

 Dipole moment (field-independent basis, Debye):
    X=              0.3414    Y=             -6.6078    Z=             -4.2837  Tot=              7.8822

 Test job not archived.
 1\1\GINC-SE166\SP\RHF\Aug-CC-pVDZ\C1H3B1N1P1\OHZDE\09-Apr-2025\0\\#t h
 f aug-cc-pvdz iop(5/13=1,5/36=2,99/5=2) pseudo=read geom=check guess=(
 read,tcheck) scf=(maxcycle=1)\\title\\0,1\B,0,-1.694403,0.897554,0.072
 914\C,0,1.088555,0.033017,0.028142\N,0,2.185067,0.39931,0.055876\P,0,-
 0.567547,-0.589045,-0.142496\H,0,-1.377643,1.951514,-0.36572\H,0,-2.78
 1236,0.69232,0.505083\H,0,-0.682697,-1.289201,1.073533\\Version=ES64L-
 G16RevC.01\State=1-A\HF=-460.179027\RMSD=4.641e-01\Dipole=0.134299,-2.
 5997115,-1.6853414\Quadrupole=-5.6602419,4.5453183,1.1149236,3.4577864

 Normal termination of Gaussian 16 at Wed Apr  9 00:42:53 2025.
