 Gaussian 16, Revision C.01,

 ----------------------------------------------------------------------
 #t hf aug-cc-pvdz symm=none int=(grid=ultrafine) guess=(read,tcheck) s
 table=(opt,rrhf)
 ----------------------------------------------------------------------
 -----
 title
 -----
 Symbolic Z-matrix:
 Charge =  0 Multiplicity = 1

 SCF Done:  E(RHF) =  -207.919793394     A.U. after   13 cycles
 Normal termination of Gaussian 16 at Tue Apr  8 22:54:36 2025.
 Gaussian 16:  ES64L-G16RevC.01  3-Jul-2019

 ----------------------------------------------------------------------
 #t hf aug-cc-pvdz iop(5/13=1,5/36=2,99/5=2) pseudo=read geom=check gue
 ss=(read,tcheck) scf=(maxcycle=1)
 ----------------------------------------------------------------------
 -----
 title
 -----
 Structure from the checkpoint file:  "BDE49_expt_1801_mol1.chk"
 Charge =  0 Multiplicity = 1

                         Standard orientation:
 ---------------------------------------------------------------------
 Center     Atomic      Atomic             Coordinates (Angstroms)
 Number     Number       Type             X           Y           Z
 ---------------------------------------------------------------------
      1          8           0       -0.660040   -1.270862    0.000000
      2          7           0       -1.014978    0.091566    0.000000
      3          6           0        0.000000    0.861378    0.000000
      4          6           0        1.449941    0.486565    0.000000
      5          1           0       -0.267747    1.915738    0.000000
      6          1           0        1.579925   -0.592969    0.000000
      7          1           0        1.946965    0.907822    0.879788
      8          1           0        1.946965    0.907822   -0.879788
      9          1           0       -1.520587   -1.700136    0.000000
 ---------------------------------------------------------------------

 SCF Done:  E(RHF) =  -208.857248298     A.U. after    2 cycles

 The electronic state is 1-A'.
 Alpha  occ. eigenvalues --  -21.09142 -15.77651 -11.43454 -11.37820  -1.77923
 Alpha  occ. eigenvalues --   -1.26965  -1.06321  -0.79056  -0.66704  -0.58888
 Alpha  occ. eigenvalues --   -0.58429  -0.53178  -0.51719  -0.49580  -0.34681
 Alpha  occ. eigenvalues --   -0.29632
 Alpha virt. eigenvalues --    0.03539   0.05613   0.05975   0.06274   0.07382
 Alpha virt. eigenvalues --    0.11416   0.11981   0.12024   0.14761   0.15713
 Alpha virt. eigenvalues --    0.16492   0.16960   0.18848   0.19336   0.20628

 Mulliken charges:
               1
     1  O   -2.312922
     2  N   -0.894637
     3  C    0.698190
     4  C   -3.806242
     5  H    1.482824
     6  H    1.373936
     7  H    1.268140
     8  H    1.268140
     9  H    0.922571
 Sum of Mulliken charges =   0.00000

 Dipole moment (field-independent basis, Debye):
    X=              1.0934    Y=             -0.1222    Z=             -0.0000  Tot=              1.1003

 Test job not archived.
 1\1\GINC-SE016\SP\RHF\Aug-CC-pVDZ\C2H5N1O1\OHZDE\08-Apr-2025\0\\#t hf
 aug-cc-pvdz iop(5/13=1,5/36=2,99/5=2) pseudo=read geom=check guess=(re
 ad,tcheck) scf=(maxcycle=1)\\title\\0,1\O,0,-0.66004,-1.270862,0.\N,0,
 -1.014978,0.091566,0.\C,0,0.,0.861378,0.\C,0,1.449941,0.486565,0.\H,0,
 -0.267747,1.915738,0.\H,0,1.579925,-0.592969,0.\H,0,1.946965,0.907822,
 0.879788\H,0,1.946965,0.907822,-0.879788\H,0,-1.520587,-1.700136,0.\\V
 ersion=ES64L-G16RevC.01\State=1-A'\HF=-208.8572483\RMSD=1.720e-01\Dipo
 le=0.4301919,-0.0480956,0.\Quadrupole=-0.3532723,1.5975365,-1.2442641,

 Normal termination of Gaussian 16 at Tue Apr  8 22:54:38 2025.
