 Gaussian 16, Revision C.01,

 ----------------------------------------------------------------------
 #t hf aug-cc-pvdz symm=none int=(grid=ultrafine) guess=(read,tcheck) s
 table=(opt,rrhf)
 ----------------------------------------------------------------------
 -----
 title
 -----
 Symbolic Z-matrix:
 Charge =  0 Multiplicity = 1

 SCF Done:  E(RHF) =  -650.120933479     A.U. after   16 cycles

 1\1\GINC-SE069\Stability\RHF\Aug-CC-pVDZ\C8H11P1\OHZDE\08-Apr-2025\0\\
 #t hf aug-cc-pvdz symm=none int=(grid=ultrafine) guess=(read,tcheck) s
 table=(opt,rrhf)\\title\\0,1\C,0,1.070273,1.231218,0.00122\C,0,-0.3216
 54,1.203039,0.00183\C,0,-1.021048,-0.013131,-0.000469\C,0,1.764475,0.0
 12374,-0.000619\C,0,1.101115,-1.211066,-0.002258\C,0,-0.30155,-1.20728
 ,-0.003084\H,0,-0.870608,2.138893,0.003495\P,0,-2.868006,-0.127871,-0.
 001381\C,0,1.860539,-2.516395,0.001892\H,0,2.937842,-2.350674,-0.05946
 6\H,0,1.568431,-3.147155,-0.842987\H,0,1.66098,-3.086287,0.914852\H,0,

 Normal termination of Gaussian 16 at Tue Apr  8 23:34:35 2025.
 Gaussian 16:  ES64L-G16RevC.01  3-Jul-2019

 ----------------------------------------------------------------------
 #t hf aug-cc-pvdz iop(5/13=1,5/36=2,99/5=2) pseudo=read geom=check gue
 ss=(read,tcheck) scf=(maxcycle=1)
 ----------------------------------------------------------------------
 -----
 title
 -----
 Structure from the checkpoint file:  "BDE49_nonexpt_1434_mol1.chk"
 Charge =  0 Multiplicity = 1

                         Standard orientation:
 ---------------------------------------------------------------------
 Center     Atomic      Atomic             Coordinates (Angstroms)
 Number     Number       Type             X           Y           Z
 ---------------------------------------------------------------------
      1          6           0        1.070273    1.231218    0.001220
      2          6           0       -0.321654    1.203039    0.001830
      3          6           0       -1.021048   -0.013131   -0.000469
      4          6           0        1.764475    0.012373   -0.000619
      5          6           0        1.101114   -1.211066   -0.002258
      6          6           0       -0.301551   -1.207280   -0.003084
      7          1           0       -0.870607    2.138893    0.003495
      8         15           0       -2.868006   -0.127870   -0.001381
      9          6           0        1.860538   -2.516396    0.001892
     10          1           0        2.937841   -2.350675   -0.059466
     11          1           0        1.568430   -3.147156   -0.842987
     12          1           0        1.660979   -3.086288    0.914852
     13          1           0       -0.835823   -2.152581   -0.006113
     14          1           0        2.851015    0.024794   -0.001191
     15          6           0        1.826728    2.538365   -0.000332
     16          1           0        1.146547    3.391701    0.027153
     17          1           0        2.448491    2.634258   -0.896014
     18          1           0        2.492459    2.611619    0.865120
     19          1           0       -3.126593    0.831323   -1.016233
     20          1           0       -3.125901    0.799420    1.043022
 ---------------------------------------------------------------------

 SCF Done:  E(RHF) =  -651.839581253     A.U. after    2 cycles

 The electronic state is 1-A.
 Alpha  occ. eigenvalues -- -105.17914 -11.49858 -11.44637 -11.43284 -11.41870
 Alpha  occ. eigenvalues --  -11.41713 -11.39031 -11.38850 -11.35593  -2.74737
 Alpha  occ. eigenvalues --   -1.49794  -1.44565  -1.43115  -1.34798  -1.16595
 Alpha  occ. eigenvalues --   -1.10318  -1.00367  -0.98772  -0.83964  -0.81544
 Alpha  occ. eigenvalues --   -0.72257  -0.68292  -0.61785  -0.58249  -0.57134
 Alpha  occ. eigenvalues --   -0.56807  -0.55324  -0.54158  -0.49613  -0.48090
 Alpha  occ. eigenvalues --   -0.47907  -0.42488  -0.33272  -0.31368  -0.24822
 Alpha  occ. eigenvalues --   -0.22435  -0.02427
 Alpha virt. eigenvalues --    0.03340   0.04812   0.05360   0.05615   0.06365
 Alpha virt. eigenvalues --    0.06554   0.06696   0.07206   0.07892   0.08615
 Alpha virt. eigenvalues --    0.09213   0.09885   0.10484   0.10825   0.11008

 Mulliken charges:
               1
     1  C    3.309033
     2  C   -4.607342
     3  C    3.335572
     4  C   -1.280154
     5  C    2.998788
     6  C   -4.711151
     7  H    2.092780
     8  P    0.752332
     9  C   -5.595233
    10  H    1.325132
    11  H    1.044319
    12  H    1.046833
    13  H    2.070680
    14  H    1.967614
    15  C   -5.573303
    16  H    1.307576
    17  H    1.016328
    18  H    1.014465
    19  H   -0.761526
    20  H   -0.752741
 Sum of Mulliken charges =   0.00000

 Dipole moment (field-independent basis, Debye):
    X=              1.9043    Y=             -1.8589    Z=             -0.0375  Tot=              2.6615

 Test job not archived.
 1\1\GINC-SE069\SP\RHF\Aug-CC-pVDZ\C8H11P1\OHZDE\08-Apr-2025\0\\#t hf a
 ug-cc-pvdz iop(5/13=1,5/36=2,99/5=2) pseudo=read geom=check guess=(rea
 d,tcheck) scf=(maxcycle=1)\\title\\0,1\C,0,1.070273,1.231218,0.00122\C
 ,0,-0.321654,1.203039,0.00183\C,0,-1.021048,-0.013131,-0.000469\C,0,1.
 764475,0.012374,-0.000619\C,0,1.101115,-1.211066,-0.002258\C,0,-0.3015
 5,-1.20728,-0.003084\H,0,-0.870608,2.138893,0.003495\P,0,-2.868006,-0.
 127871,-0.001381\C,0,1.860539,-2.516395,0.001892\H,0,2.937842,-2.35067
 4,-0.059466\H,0,1.568431,-3.147155,-0.842987\H,0,1.66098,-3.086287,0.9

 Normal termination of Gaussian 16 at Tue Apr  8 23:34:45 2025.
