 Gaussian 16, Revision C.01,

 ----------------------------------------------------------------------
 #t hf aug-cc-pvdz symm=none int=(grid=ultrafine) guess=(read,tcheck) s
 table=(opt,rrhf)
 ----------------------------------------------------------------------
 -----
 title
 -----
 Symbolic Z-matrix:
 Charge =  0 Multiplicity = 1

 SCF Done:  E(RHF) =  -828.314783036     A.U. after   11 cycles
 Normal termination of Gaussian 16 at Tue Apr  8 23:45:16 2025.
 Gaussian 16:  ES64L-G16RevC.01  3-Jul-2019

 ----------------------------------------------------------------------
 #t hf aug-cc-pvdz iop(5/13=1,5/36=2,99/5=2) pseudo=read geom=check gue
 ss=(read,tcheck) scf=(maxcycle=1)
 ----------------------------------------------------------------------
 -----
 title
 -----
 Structure from the checkpoint file:  "BDE49_nonexpt_1734_mol1.chk"
 Charge =  0 Multiplicity = 1

                         Standard orientation:
 ---------------------------------------------------------------------
 Center     Atomic      Atomic             Coordinates (Angstroms)
 Number     Number       Type             X           Y           Z
 ---------------------------------------------------------------------
      1         14           0       -0.202122    0.901076    0.176192
      2          6           0        1.460510    0.340743   -0.477724
      3          6           0        2.067346   -0.883315    0.229236
      4          1           0        1.422617   -1.759742    0.129566
      5          1           0        2.211547   -0.698550    1.297450
      6          1           0        3.041762   -1.138844   -0.195488
      7         17           0       -1.626501   -0.611054   -0.078474
      8          1           0        2.132629    1.204871   -0.388978
      9          1           0        1.355319    0.150615   -1.551693
     10          1           0       -0.699822    2.082617   -0.557965
     11          1           0       -0.150957    1.187318    1.625400
 ---------------------------------------------------------------------

 SCF Done:  E(RHF) =  -829.139622901     A.U. after    2 cycles

 The electronic state is 1-A.
 Alpha  occ. eigenvalues --  -99.87558 -76.25186 -11.40255 -11.35724 -10.44948
 Alpha  occ. eigenvalues --   -9.64854  -9.64269  -9.64186  -5.58787  -2.22327
 Alpha  occ. eigenvalues --   -2.20920  -2.20661  -1.28055  -1.15845  -0.90816
 Alpha  occ. eigenvalues --   -0.75522  -0.62481  -0.58938  -0.54823  -0.54441
 Alpha  occ. eigenvalues --   -0.52363  -0.50554  -0.49568  -0.46158  -0.40282
 Alpha virt. eigenvalues --    0.03418   0.05170   0.05460   0.05768   0.06407
 Alpha virt. eigenvalues --    0.06778   0.07323   0.07625   0.09896   0.10448
 Alpha virt. eigenvalues --    0.12104   0.13561   0.13805   0.14036   0.14874

 Mulliken charges:
               1
     1  Si   5.553362
     2  C   -3.987405
     3  C   -3.341405
     4  H    1.202097
     5  H    1.268368
     6  H    1.192549
     7  Cl  -0.875920
     8  H    1.425890
     9  H    1.335410
    10  H   -1.869943
    11  H   -1.903003
 Sum of Mulliken charges =  -0.00000

 Dipole moment (field-independent basis, Debye):
    X=              2.1310    Y=              0.7477    Z=             -0.1998  Tot=              2.2672

 Test job not archived.
 1\1\GINC-SE044\SP\RHF\Aug-CC-pVDZ\C2H7Cl1Si1\OHZDE\08-Apr-2025\0\\#t h
 f aug-cc-pvdz iop(5/13=1,5/36=2,99/5=2) pseudo=read geom=check guess=(
 read,tcheck) scf=(maxcycle=1)\\title\\0,1\Si,0,-0.202122,0.901076,0.17
 6192\C,0,1.46051,0.340743,-0.477724\C,0,2.067346,-0.883315,0.229236\H,
 0,1.422617,-1.759742,0.129566\H,0,2.211547,-0.69855,1.29745\H,0,3.0417
 62,-1.138844,-0.195488\Cl,0,-1.626501,-0.611054,-0.078474\H,0,2.132629
 ,1.204871,-0.388978\H,0,1.355319,0.150615,-1.551693\H,0,-0.699822,2.08
 2617,-0.557965\H,0,-0.150957,1.187318,1.6254\\Version=ES64L-G16RevC.01

 Normal termination of Gaussian 16 at Tue Apr  8 23:45:19 2025.
