 Gaussian 16, Revision C.01,

 ----------------------------------------------------------------------
 #t hf aug-cc-pvdz symm=none int=(grid=ultrafine) guess=(read,tcheck) s
 table=(opt,rrhf)
 ----------------------------------------------------------------------
 -----
 title
 -----
 Symbolic Z-matrix:
 Charge =  0 Multiplicity = 1

 SCF Done:  E(RHF) =  -502.234733986     A.U. after   12 cycles

 1\1\GINC-SE338\Stability\RHF\Aug-CC-pVDZ\C9H20O2\OHZDE\08-Apr-2025\0\\
 #t hf aug-cc-pvdz symm=none int=(grid=ultrafine) guess=(read,tcheck) s
 table=(opt,rrhf)\\title\\0,1\C,0,0.,0.,1.910693\O,0,-0.766323,-0.89578
 5,1.149471\O,0,0.766323,0.895785,1.149471\H,0,0.722544,-0.538033,2.536
 277\H,0,-0.722544,0.538033,2.536277\C,0,0.,-1.878898,0.451843\C,0,0.,1
 .878898,0.451843\C,0,0.948751,2.866667,-0.222901\H,0,-0.650317,2.40554
 2,1.166381\H,0,-0.644865,1.396375,-0.294295\C,0,0.148408,4.002689,-0.8
 72873\H,0,-0.510915,3.620216,-1.659474\H,0,0.817118,4.735971,-1.331208

 Normal termination of Gaussian 16 at Tue Apr  8 23:04:28 2025.
 Gaussian 16:  ES64L-G16RevC.01  3-Jul-2019

 ----------------------------------------------------------------------
 #t hf aug-cc-pvdz iop(5/13=1,5/36=2,99/5=2) pseudo=read geom=check gue
 ss=(read,tcheck) scf=(maxcycle=1)
 ----------------------------------------------------------------------
 -----
 title
 -----
 Structure from the checkpoint file:  "BDE49_expt_193_mol1.chk"
 Charge =  0 Multiplicity = 1

                         Standard orientation:
 ---------------------------------------------------------------------
 Center     Atomic      Atomic             Coordinates (Angstroms)
 Number     Number       Type             X           Y           Z
 ---------------------------------------------------------------------
      1          6           0        0.000000    0.000000    1.910693
      2          8           0       -0.766323   -0.895785    1.149471
      3          8           0        0.766323    0.895785    1.149471
      4          1           0        0.722544   -0.538033    2.536277
      5          1           0       -0.722544    0.538033    2.536277
      6          6           0        0.000000   -1.878898    0.451843
      7          6           0        0.000000    1.878898    0.451843
      8          6           0        0.948751    2.866667   -0.222901
      9          1           0       -0.650317    2.405542    1.166381
     10          1           0       -0.644865    1.396375   -0.294295
     11          6           0        0.148408    4.002689   -0.872873
     12          1           0       -0.510915    3.620216   -1.659474
     13          1           0        0.817118    4.735971   -1.331208
     14          1           0       -0.472750    4.529265   -0.142096
     15          6           0        1.861774    2.166731   -1.236470
     16          1           0        1.577460    3.292856    0.568538
     17          1           0        1.274456    1.731674   -2.053009
     18          1           0        2.426663    1.363897   -0.760270
     19          1           0        2.571369    2.873345   -1.676283
     20          6           0       -0.948751   -2.866667   -0.222901
     21          1           0        0.650317   -2.405542    1.166381
     22          1           0        0.644865   -1.396375   -0.294295
     23          6           0       -0.148408   -4.002689   -0.872873
     24          1           0        0.510915   -3.620216   -1.659474
     25          1           0       -0.817118   -4.735971   -1.331208
     26          1           0        0.472750   -4.529265   -0.142096
     27          6           0       -1.861774   -2.166731   -1.236470
     28          1           0       -1.577460   -3.292856    0.568538
     29          1           0       -2.571369   -2.873345   -1.676283
     30          1           0       -1.274456   -1.731674   -2.053009
     31          1           0       -2.426663   -1.363897   -0.760270
 ---------------------------------------------------------------------

 SCF Done:  E(RHF) =  -504.677457359     A.U. after    2 cycles

 The electronic state is 1-A.
 Alpha  occ. eigenvalues --  -21.04098 -21.04057 -11.44701 -11.44568 -11.43484
 Alpha  occ. eigenvalues --  -11.40188 -11.40063 -11.37877 -11.37870 -11.34621
 Alpha  occ. eigenvalues --  -11.34502  -1.80884  -1.68935  -1.23471  -1.22861
 Alpha  occ. eigenvalues --   -1.01607  -0.99634  -0.99631  -0.96605  -0.87580
 Alpha  occ. eigenvalues --   -0.81088  -0.80155  -0.68322  -0.66489  -0.62696
 Alpha  occ. eigenvalues --   -0.62378  -0.61653  -0.58648  -0.58456  -0.57614
 Alpha  occ. eigenvalues --   -0.54818  -0.53232  -0.53145  -0.52130  -0.51972
 Alpha  occ. eigenvalues --   -0.46255  -0.45146  -0.44642  -0.44109  -0.43018
 Alpha  occ. eigenvalues --   -0.41619  -0.41592  -0.36258  -0.30898  -0.28817
 Alpha virt. eigenvalues --    0.04178   0.04220   0.04909   0.04946   0.05356
 Alpha virt. eigenvalues --    0.05443   0.05893   0.06298   0.06540   0.06590
 Alpha virt. eigenvalues --    0.06612   0.06953   0.07397   0.08074   0.09062

 Mulliken charges:
               1
     1  C   -0.675887
     2  O   -3.510169
     3  O   -3.510169
     4  H    1.779458
     5  H    1.779458
     6  C   -1.572642
     7  C   -1.572642
     8  C   -2.096928
     9  H    1.771365
    10  H    2.179809
    11  C   -3.893137
    12  H    1.322998
    13  H    1.256534
    14  H    1.274212
    15  C   -4.076195
    16  H    1.820855
    17  H    1.387343
    18  H    1.436470
    19  H    1.257970
    20  C   -2.096928
    21  H    1.771365
    22  H    2.179809
    23  C   -3.893137
    24  H    1.322998
    25  H    1.256534
    26  H    1.274212
    27  C   -4.076195
    28  H    1.820855
    29  H    1.257970
    30  H    1.387343
    31  H    1.436470
 Sum of Mulliken charges =   0.00000

 Dipole moment (field-independent basis, Debye):
    X=              0.0000    Y=              0.0000    Z=              0.1767  Tot=              0.1767

 Test job not archived.
 1\1\GINC-SE338\SP\RHF\Aug-CC-pVDZ\C9H20O2\OHZDE\08-Apr-2025\0\\#t hf a
 ug-cc-pvdz iop(5/13=1,5/36=2,99/5=2) pseudo=read geom=check guess=(rea
 d,tcheck) scf=(maxcycle=1)\\title\\0,1\C,0,0.,0.,1.910693\O,0,-0.76632
 3,-0.895785,1.149471\O,0,0.766323,0.895785,1.149471\H,0,0.722544,-0.53
 8033,2.536277\H,0,-0.722544,0.538033,2.536277\C,0,0.,-1.878898,0.45184
 3\C,0,0.,1.878898,0.451843\C,0,0.948751,2.866667,-0.222901\H,0,-0.6503
 17,2.405542,1.166381\H,0,-0.644865,1.396375,-0.294295\C,0,0.148408,4.0
 02689,-0.872873\H,0,-0.510915,3.620216,-1.659474\H,0,0.817118,4.735971

 Normal termination of Gaussian 16 at Tue Apr  8 23:04:41 2025.
