 Gaussian 16, Revision C.01,

 ----------------------------------------------------------------------
 #t hf aug-cc-pvdz symm=none int=(grid=ultrafine) guess=(read,tcheck) s
 table=(opt,rrhf)
 ----------------------------------------------------------------------
 -----
 title
 -----
 Symbolic Z-matrix:
 Charge =  0 Multiplicity = 1

 SCF Done:  E(RHF) =  -726.627271463     A.U. after   12 cycles
 Normal termination of Gaussian 16 at Tue Apr  8 23:58:20 2025.
 Gaussian 16:  ES64L-G16RevC.01  3-Jul-2019

 ----------------------------------------------------------------------
 #t hf aug-cc-pvdz iop(5/13=1,5/36=2,99/5=2) pseudo=read geom=check gue
 ss=(read,tcheck) scf=(maxcycle=1)
 ----------------------------------------------------------------------
 -----
 title
 -----
 Structure from the checkpoint file:  "BDE49_nonexpt_2055_mol1.chk"
 Charge =  0 Multiplicity = 1

                         Standard orientation:
 ---------------------------------------------------------------------
 Center     Atomic      Atomic             Coordinates (Angstroms)
 Number     Number       Type             X           Y           Z
 ---------------------------------------------------------------------
      1         14           0       -1.513943   -0.129028    0.000000
      2          6           0        0.206851    0.651255   -0.000013
      3         16           0        1.598659   -0.183421    0.000003
      4          1           0        0.261249    1.744995    0.000015
      5          1           0       -1.398154   -1.599132   -0.000029
      6          1           0       -2.243792    0.343891   -1.201320
      7          1           0       -2.243757    0.343846    1.201358
 ---------------------------------------------------------------------

 SCF Done:  E(RHF) =  -727.191971326     A.U. after    2 cycles

 The electronic state is 1-A.
 Alpha  occ. eigenvalues --  -76.23595 -75.69158 -13.14292 -13.02680 -12.99928
 Alpha  occ. eigenvalues --  -11.43905  -8.03199  -5.57110  -2.20673  -2.19393
 Alpha  occ. eigenvalues --   -2.19081  -1.19426  -0.87776  -0.75434  -0.56033
 Alpha  occ. eigenvalues --   -0.49263  -0.48470  -0.43443  -0.36570  -0.21815
 Alpha virt. eigenvalues --    0.03065   0.04482   0.05218   0.05514   0.06677
 Alpha virt. eigenvalues --    0.07569   0.07631   0.09391   0.09641   0.13243
 Alpha virt. eigenvalues --    0.14583   0.14870   0.16040   0.16541   0.18077

 Mulliken charges:
               1
     1  Si   6.174262
     2  C   -3.593490
     3  S    1.015512
     4  H    1.296263
     5  H   -1.649822
     6  H   -1.621361
     7  H   -1.621364
 Sum of Mulliken charges =   0.00000

 Dipole moment (field-independent basis, Debye):
    X=              1.4254    Y=             -0.5132    Z=              0.0001  Tot=              1.5150

 Test job not archived.
 1\1\GINC-SE368\SP\RHF\Aug-CC-pVDZ\C1H4S1Si1\OHZDE\08-Apr-2025\0\\#t hf
  aug-cc-pvdz iop(5/13=1,5/36=2,99/5=2) pseudo=read geom=check guess=(r
 ead,tcheck) scf=(maxcycle=1)\\title\\0,1\Si,0,-1.513943,-0.129028,0.\C
 ,0,0.206851,0.651255,-0.000013\S,0,1.598659,-0.183421,0.000003\H,0,0.2
 61249,1.744995,0.000015\H,0,-1.398154,-1.599132,-0.000029\H,0,-2.24379
 2,0.343891,-1.20132\H,0,-2.243757,0.343846,1.201358\\Version=ES64L-G16
 RevC.01\State=1-A\HF=-727.1919713\RMSD=1.345e-01\Dipole=0.5608011,-0.2
 019042,0.0000231\Quadrupole=1.397438,-1.0073713,-0.3900668,-1.3110145,

 Normal termination of Gaussian 16 at Tue Apr  8 23:58:22 2025.
