 Gaussian 16, Revision C.01,

 ----------------------------------------------------------------------
 #t hf aug-cc-pvdz symm=none int=(grid=ultrafine) guess=(read,tcheck) s
 table=(opt,rrhf)
 ----------------------------------------------------------------------
 -----
 title
 -----
 Symbolic Z-matrix:
 Charge =  0 Multiplicity = 1

 SCF Done:  E(RHF) =  -930.887250982     A.U. after   15 cycles
 Normal termination of Gaussian 16 at Tue Apr  8 23:26:03 2025.
 Gaussian 16:  ES64L-G16RevC.01  3-Jul-2019

 ----------------------------------------------------------------------
 #t hf aug-cc-pvdz iop(5/13=1,5/36=2,99/5=2) pseudo=read geom=check gue
 ss=(read,tcheck) scf=(maxcycle=1)
 ----------------------------------------------------------------------
 -----
 title
 -----
 Structure from the checkpoint file:  "BDE49_nonexpt_1191_mol1.chk"
 Charge =  0 Multiplicity = 1

                         Standard orientation:
 ---------------------------------------------------------------------
 Center     Atomic      Atomic             Coordinates (Angstroms)
 Number     Number       Type             X           Y           Z
 ---------------------------------------------------------------------
      1          8           0        0.863617    1.050315   -0.600611
      2         16           0       -0.633008    1.537622    0.016749
      3          6           0       -1.563448    0.007680   -0.226909
      4          6           0        1.681088    0.275421    0.210304
      5          8           0        1.411446   -0.033447    1.335000
      6          8           0       -1.051306   -0.992500   -0.655732
      7          6           0        2.909762   -0.079159   -0.536068
      8          6           0        4.191935   -0.220792    0.270221
      9          6           0        3.515749   -1.443966   -0.248333
     10          1           0        4.113071   -0.015341    1.330098
     11          1           0        5.103123    0.118454   -0.206264
     12          1           0        3.948229   -1.966988   -1.091842
     13          1           0        2.979128   -2.061524    0.460196
     14          1           0        2.972761    0.307099   -1.543427
     15          6           0       -2.983727    0.159200    0.173793
     16          6           0       -4.014743   -0.663859   -0.583366
     17          6           0       -3.655313   -1.048291    0.811816
     18          1           0       -3.279819    1.142200    0.524250
     19          1           0       -4.358181   -0.847913    1.610585
     20          1           0       -3.026842   -1.919263    0.947406
     21          1           0       -3.628939   -1.277188   -1.387814
     22          1           0       -4.972275   -0.193827   -0.769187
 ---------------------------------------------------------------------

 SCF Done:  E(RHF) =  -933.513787973     A.U. after    2 cycles

 The electronic state is 1-A.
 Alpha  occ. eigenvalues --  -75.74950 -21.10767 -21.06486 -21.05225 -13.24326
 Alpha  occ. eigenvalues --  -13.16350 -13.10504 -11.54701 -11.52349 -11.43667
 Alpha  occ. eigenvalues --  -11.43347 -11.42688 -11.42512 -11.38690 -11.37755
 Alpha  occ. eigenvalues --   -8.08747  -1.84231  -1.72691  -1.67306  -1.32842
 Alpha  occ. eigenvalues --   -1.31461  -1.14095  -0.97748  -0.92318  -0.88007
 Alpha  occ. eigenvalues --   -0.87192  -0.76726  -0.74496  -0.71316  -0.67663
 Alpha  occ. eigenvalues --   -0.64551  -0.63497  -0.59770  -0.57807  -0.54724
 Alpha  occ. eigenvalues --   -0.53893  -0.53228  -0.51573  -0.51222  -0.48816
 Alpha  occ. eigenvalues --   -0.44596  -0.43110  -0.39558  -0.38816  -0.38365
 Alpha  occ. eigenvalues --   -0.34559  -0.30431  -0.26945  -0.25497
 Alpha virt. eigenvalues --    0.03657   0.04675   0.05008   0.05289   0.05848
 Alpha virt. eigenvalues --    0.06122   0.06471   0.06779   0.07168   0.08248
 Alpha virt. eigenvalues --    0.08729   0.10007   0.10541   0.10616   0.12465

 Mulliken charges:
               1
     1  O   -2.904172
     2  S    1.359284
     3  C    2.743392
     4  C    5.864874
     5  O   -3.203110
     6  O   -3.463750
     7  C   -2.890330
     8  C   -2.273132
     9  C   -2.240718
    10  H    1.344854
    11  H    1.273051
    12  H    1.246740
    13  H    1.304760
    14  H    1.574862
    15  C   -2.275811
    16  C   -2.087128
    17  C   -2.280608
    18  H    1.690524
    19  H    1.257994
    20  H    1.338767
    21  H    1.374350
    22  H    1.245305
 Sum of Mulliken charges =   0.00000

 Dipole moment (field-independent basis, Debye):
    X=             -0.5699    Y=              0.6182    Z=             -0.0118  Tot=              0.8409

 Test job not archived.
 1\1\GINC-SE036\SP\RHF\Aug-CC-pVDZ\C8H10O3S1\OHZDE\08-Apr-2025\0\\#t hf
  aug-cc-pvdz iop(5/13=1,5/36=2,99/5=2) pseudo=read geom=check guess=(r
 ead,tcheck) scf=(maxcycle=1)\\title\\0,1\O,0,0.863617,1.050315,-0.6006
 11\S,0,-0.633008,1.537622,0.016749\C,0,-1.563448,0.00768,-0.226909\C,0
 ,1.681088,0.275421,0.210304\O,0,1.411446,-0.033447,1.335\O,0,-1.051306
 ,-0.9925,-0.655732\C,0,2.909762,-0.079159,-0.536068\C,0,4.191935,-0.22
 0792,0.270221\C,0,3.515749,-1.443966,-0.248333\H,0,4.113071,-0.015341,
 1.330098\H,0,5.103123,0.118454,-0.206264\H,0,3.948229,-1.966988,-1.091

 Normal termination of Gaussian 16 at Tue Apr  8 23:26:18 2025.
