 Gaussian 16, Revision C.01,

 ----------------------------------------------------------------------
 #t hf aug-cc-pvdz symm=none int=(grid=ultrafine) guess=(read,tcheck) s
 table=(opt,rrhf)
 ----------------------------------------------------------------------
 -----
 title
 -----
 Symbolic Z-matrix:
 Charge =  0 Multiplicity = 1

 SCF Done:  E(RHF) =  -1203.60727074     A.U. after   15 cycles
 Normal termination of Gaussian 16 at Tue Apr  8 22:53:26 2025.
 Gaussian 16:  ES64L-G16RevC.01  3-Jul-2019

 ----------------------------------------------------------------------
 #t hf aug-cc-pvdz iop(5/13=1,5/36=2,99/5=2) pseudo=read geom=check gue
 ss=(read,tcheck) scf=(maxcycle=1)
 ----------------------------------------------------------------------
 -----
 title
 -----
 Structure from the checkpoint file:  "BDE49_expt_1735_mol1.chk"
 Charge =  0 Multiplicity = 1

                         Standard orientation:
 ---------------------------------------------------------------------
 Center     Atomic      Atomic             Coordinates (Angstroms)
 Number     Number       Type             X           Y           Z
 ---------------------------------------------------------------------
      1          6           0       -2.237780   -0.000005    1.300051
      2          6           0       -0.863752   -0.000004    1.104786
      3          6           0       -3.076745   -0.000001    0.186919
      4          6           0       -2.498915    0.000004   -1.078043
      5          7           0       -1.176798    0.000004   -1.280251
      6          6           0       -0.385560    0.000000   -0.207012
      7          1           0       -2.649341   -0.000009    2.302690
      8          1           0       -0.174790   -0.000008    1.939963
      9          6           0        1.087716    0.000001   -0.530924
     10         17           0        1.910654    1.480365    0.098418
     11          1           0        1.220431    0.000004   -1.606114
     12         17           0        1.910655   -1.480365    0.098410
     13          1           0       -4.154481   -0.000001    0.295633
     14          1           0       -3.116275    0.000007   -1.971152
 ---------------------------------------------------------------------

 SCF Done:  E(RHF) =  -1205.43780264     A.U. after    2 cycles

 The electronic state is 1-A.
 Alpha  occ. eigenvalues --  -99.89906 -99.89902 -15.75686 -11.52840 -11.50814
 Alpha  occ. eigenvalues --  -11.47303 -11.45421 -11.42726 -11.39551 -10.47246
 Alpha  occ. eigenvalues --  -10.47104  -9.67119  -9.67114  -9.66423  -9.66346
 Alpha  occ. eigenvalues --   -9.66271  -9.66263  -1.48925  -1.37573  -1.28302
 Alpha  occ. eigenvalues --   -1.20806  -1.15056  -1.00493  -0.91116  -0.87451
 Alpha  occ. eigenvalues --   -0.74272  -0.69922  -0.67305  -0.65876  -0.62324
 Alpha  occ. eigenvalues --   -0.60365  -0.56838  -0.55261  -0.52911  -0.52336
 Alpha  occ. eigenvalues --   -0.49186  -0.49127  -0.46550  -0.38542  -0.38063
 Alpha  occ. eigenvalues --   -0.35341
 Alpha virt. eigenvalues --    0.03085   0.04250   0.04875   0.05153   0.06077
 Alpha virt. eigenvalues --    0.06669   0.06790   0.09246   0.09687   0.09762
 Alpha virt. eigenvalues --    0.10591   0.12010   0.12043   0.13266   0.13565

 Mulliken charges:
               1
     1  C    0.954965
     2  C   -2.409097
     3  C   -1.222089
     4  C   -1.065709
     5  N   -3.957970
     6  C    3.853383
     7  H    1.564984
     8  H    1.729916
     9  C   -4.644020
    10  Cl   0.236597
    11  H    1.654163
    12  Cl   0.236597
    13  H    1.430864
    14  H    1.637418
 Sum of Mulliken charges =   0.00000

 Dipole moment (field-independent basis, Debye):
    X=             -3.3334    Y=             -0.0000    Z=              0.7515  Tot=              3.4171

 Test job not archived.
 1\1\GINC-SE036\SP\RHF\Aug-CC-pVDZ\C6H5Cl2N1\OHZDE\08-Apr-2025\0\\#t hf
  aug-cc-pvdz iop(5/13=1,5/36=2,99/5=2) pseudo=read geom=check guess=(r
 ead,tcheck) scf=(maxcycle=1)\\title\\0,1\C,0,2.23778,0.000005,1.300051
 \C,0,0.863752,0.000004,1.104786\C,0,3.076745,0.000001,0.186919\C,0,2.4
 98915,-0.000004,-1.078043\N,0,1.176798,-0.000004,-1.280251\C,0,0.38556
 ,0.,-0.207012\H,0,2.649341,0.000009,2.30269\H,0,0.17479,0.000008,1.939
 963\C,0,-1.087716,-0.000001,-0.530924\Cl,0,-1.910654,-1.480365,0.09841
 8\H,0,-1.220431,-0.000004,-1.606114\Cl,0,-1.910655,1.480365,0.09841\H,

 Normal termination of Gaussian 16 at Tue Apr  8 22:53:33 2025.
