 Gaussian 16, Revision C.01,

 ----------------------------------------------------------------------
 #t hf aug-cc-pvdz symm=none int=(grid=ultrafine) guess=(read,tcheck) s
 table=(opt,rrhf)
 ----------------------------------------------------------------------
 -----
 title
 -----
 Symbolic Z-matrix:
 Charge =  0 Multiplicity = 1

 SCF Done:  E(RHF) =  -514.637634289     A.U. after   13 cycles
 Normal termination of Gaussian 16 at Tue Apr  8 23:38:23 2025.
 Gaussian 16:  ES64L-G16RevC.01  3-Jul-2019

 ----------------------------------------------------------------------
 #t hf aug-cc-pvdz iop(5/13=1,5/36=2,99/5=2) pseudo=read geom=check gue
 ss=(read,tcheck) scf=(maxcycle=1)
 ----------------------------------------------------------------------
 -----
 title
 -----
 Structure from the checkpoint file:  "BDE49_nonexpt_1544_mol1.chk"
 Charge =  0 Multiplicity = 1

                         Standard orientation:
 ---------------------------------------------------------------------
 Center     Atomic      Atomic             Coordinates (Angstroms)
 Number     Number       Type             X           Y           Z
 ---------------------------------------------------------------------
      1          7           0        2.019628    0.413959    0.310330
      2         15           0        0.823838   -0.595214   -0.393259
      3          6           0       -0.737194    0.109971    0.364558
      4          6           0       -1.021372    1.499483   -0.217619
      5          1           0       -1.214983    1.440055   -1.293680
      6          1           0       -0.172351    2.169206   -0.064615
      7          6           0       -1.901747   -0.861650    0.130233
      8          1           0       -1.900639    1.946944    0.257221
      9          1           0       -0.571964    0.208864    1.444443
     10          1           0       -2.826046   -0.465949    0.562271
     11          1           0       -2.077462   -1.015714   -0.939392
     12          1           0       -1.715804   -1.839857    0.583109
     13          1           0        0.862846   -1.752491    0.442002
     14          1           0        2.215267    0.347271    1.300584
     15          1           0        2.868051    0.505344   -0.228409
 ---------------------------------------------------------------------

 SCF Done:  E(RHF) =  -515.725699956     A.U. after    2 cycles

 The electronic state is 1-A.
 Alpha  occ. eigenvalues -- -105.17635 -15.73690 -11.40360 -11.37861 -11.34452
 Alpha  occ. eigenvalues --   -2.75484  -1.54398  -1.47143  -1.43548  -1.19818
 Alpha  occ. eigenvalues --   -1.14793  -0.99808  -0.82104  -0.69780  -0.64431
 Alpha  occ. eigenvalues --   -0.61247  -0.55619  -0.55382  -0.53051  -0.46503
 Alpha  occ. eigenvalues --   -0.45053  -0.40490  -0.27753  -0.20261  -0.01118
 Alpha virt. eigenvalues --    0.04639   0.05147   0.06133   0.06230   0.06612
 Alpha virt. eigenvalues --    0.06854   0.07179   0.07344   0.08106   0.09009
 Alpha virt. eigenvalues --    0.11329   0.12020   0.13414   0.14281   0.15194

 Mulliken charges:
               1
     1  N   -2.332615
     2  P    3.875516
     3  C   -2.025100
     4  C   -4.446317
     5  H    1.308153
     6  H    1.200665
     7  C   -3.872875
     8  H    1.103287
     9  H    1.321938
    10  H    1.092280
    11  H    1.168466
    12  H    1.433242
    13  H   -0.852626
    14  H    0.433654
    15  H    0.592332
 Sum of Mulliken charges =   0.00000

 Dipole moment (field-independent basis, Debye):
    X=              0.8739    Y=             -0.3095    Z=              1.3022  Tot=              1.5985

 Test job not archived.
 1\1\GINC-SE250\SP\RHF\Aug-CC-pVDZ\C3H10N1P1\OHZDE\08-Apr-2025\0\\#t hf
  aug-cc-pvdz iop(5/13=1,5/36=2,99/5=2) pseudo=read geom=check guess=(r
 ead,tcheck) scf=(maxcycle=1)\\title\\0,1\N,0,2.019628,0.413958,0.31033
 \P,0,0.823838,-0.595214,-0.393259\C,0,-0.737194,0.109971,0.364558\C,0,
 -1.021371,1.499483,-0.217619\H,0,-1.214982,1.440055,-1.29368\H,0,-0.17
 235,2.169206,-0.064615\C,0,-1.901747,-0.86165,0.130233\H,0,-1.900638,1
 .946944,0.257221\H,0,-0.571964,0.208864,1.444443\H,0,-2.826046,-0.4659
 49,0.562271\H,0,-2.077462,-1.015714,-0.939392\H,0,-1.715804,-1.839857,

 Normal termination of Gaussian 16 at Tue Apr  8 23:38:28 2025.
