 Gaussian 16, Revision C.01,

 ----------------------------------------------------------------------
 #t hf aug-cc-pvdz symm=none int=(grid=ultrafine) guess=(read,tcheck) s
 table=(opt,rrhf)
 ----------------------------------------------------------------------
 -----
 title
 -----
 Symbolic Z-matrix:
 Charge =  0 Multiplicity = 1

 SCF Done:  E(RHF) =  -228.874987602     A.U. after   13 cycles
 Normal termination of Gaussian 16 at Tue Apr  8 22:44:29 2025.
 Gaussian 16:  ES64L-G16RevC.01  3-Jul-2019

 ----------------------------------------------------------------------
 #t hf aug-cc-pvdz iop(5/13=1,5/36=2,99/5=2) pseudo=read geom=check gue
 ss=(read,tcheck) scf=(maxcycle=1)
 ----------------------------------------------------------------------
 -----
 title
 -----
 Structure from the checkpoint file:  "BDE49_expt_1463_mol1.chk"
 Charge =  0 Multiplicity = 1

                         Standard orientation:
 ---------------------------------------------------------------------
 Center     Atomic      Atomic             Coordinates (Angstroms)
 Number     Number       Type             X           Y           Z
 ---------------------------------------------------------------------
      1          6           0        0.458143    0.521444    0.021676
      2          8           0       -0.509330   -0.524880   -0.030106
      3          8           0       -1.815600    0.108386   -0.093707
      4          1           0       -2.193412   -0.194761    0.742964
      5          6           0        1.818772   -0.155474    0.004622
      6          1           0        0.315063    1.113894    0.934064
      7          1           0        0.328676    1.179810   -0.844074
      8          1           0        1.936122   -0.817011    0.865714
      9          1           0        2.607655    0.599853    0.039406
     10          1           0        1.943845   -0.745660   -0.905360
 ---------------------------------------------------------------------

 SCF Done:  E(RHF) =  -229.886714019     A.U. after    2 cycles

 The electronic state is 1-A.
 Alpha  occ. eigenvalues --  -21.11249 -21.08925 -11.43080 -11.36827  -1.92975
 Alpha  occ. eigenvalues --   -1.44183  -1.10368  -0.87419  -0.66275  -0.62724
 Alpha  occ. eigenvalues --   -0.58269  -0.54268  -0.50395  -0.49807  -0.41475
 Alpha  occ. eigenvalues --   -0.34074  -0.29089
 Alpha virt. eigenvalues --    0.03932   0.05359   0.05977   0.06255   0.06592
 Alpha virt. eigenvalues --    0.06838   0.12027   0.13293   0.14330   0.15063
 Alpha virt. eigenvalues --    0.16499   0.16553   0.17915   0.18783   0.20225

 Mulliken charges:
               1
     1  C   -1.455192
     2  O   -1.528044
     3  O   -0.927202
     4  H    0.884662
     5  C   -3.523799
     6  H    1.434230
     7  H    1.460683
     8  H    1.236137
     9  H    1.187861
    10  H    1.230664
 Sum of Mulliken charges =  -0.00000

 Dipole moment (field-independent basis, Debye):
    X=              0.3905    Y=              0.2916    Z=              0.6820  Tot=              0.8382

 Test job not archived.
 1\1\GINC-SE043\SP\RHF\Aug-CC-pVDZ\C2H6O2\OHZDE\08-Apr-2025\0\\#t hf au
 g-cc-pvdz iop(5/13=1,5/36=2,99/5=2) pseudo=read geom=check guess=(read
 ,tcheck) scf=(maxcycle=1)\\title\\0,1\C,0,0.458143,0.521444,0.021676\O
 ,0,-0.50933,-0.52488,-0.030106\O,0,-1.8156,0.108386,-0.093707\H,0,-2.1
 93412,-0.194761,0.742964\C,0,1.818772,-0.155474,0.004622\H,0,0.315063,
 1.113894,0.934064\H,0,0.328676,1.17981,-0.844074\H,0,1.936122,-0.81701
 1,0.865714\H,0,2.607655,0.599853,0.039406\H,0,1.943845,-0.74566,-0.905
 36\\Version=ES64L-G16RevC.01\State=1-A\HF=-229.886714\RMSD=1.666e-01\D

 Normal termination of Gaussian 16 at Tue Apr  8 22:44:32 2025.
