 Gaussian 16, Revision C.01,

 ----------------------------------------------------------------------
 #t hf aug-cc-pvdz symm=none int=(grid=ultrafine) guess=(read,tcheck) s
 table=opt
 ----------------------------------------------------------------------
 -----
 title
 -----
 Symbolic Z-matrix:
 Charge =  0 Multiplicity = 2

 SCF Done:  E(UHF) =  -817.515873245     A.U. after   18 cycles
 Normal termination of Gaussian 16 at Wed Apr  9 00:16:41 2025.
 Gaussian 16:  ES64L-G16RevC.01  3-Jul-2019

 ----------------------------------------------------------------------
 #t hf aug-cc-pvdz iop(5/13=1,5/36=2,99/5=2) pseudo=read geom=check gue
 ss=(read,tcheck) scf=(maxcycle=1)
 ----------------------------------------------------------------------
 -----
 title
 -----
 Structure from the checkpoint file:  "BDE49_nonexpt_2536_mol2.chk"
 Charge =  0 Multiplicity = 2

                         Standard orientation:
 ---------------------------------------------------------------------
 Center     Atomic      Atomic             Coordinates (Angstroms)
 Number     Number       Type             X           Y           Z
 ---------------------------------------------------------------------
      1         16           0       -0.169679   -1.646501   -0.000000
      2         15           0        0.430411    0.242808    0.000000
      3          6           0       -0.169679    1.198665    1.456034
      4          6           0       -0.169679    1.198665   -1.456034
      5          1           0        0.141082    0.683864    2.365157
      6          1           0       -1.259907    1.274450    1.442453
      7          1           0        0.266251    2.200644    1.441883
      8          1           0        0.141082    0.683864   -2.365157
      9          1           0        0.266251    2.200644   -1.441883
     10          1           0       -1.259907    1.274450   -1.442453
 ---------------------------------------------------------------------

 SCF Done:  E(UHF) =  -818.340581113     A.U. after    2 cycles

 The electronic state is 2-A'.
 Alpha  occ. eigenvalues -- -105.21102 -75.66978 -13.05132 -13.00753 -13.00486
 Alpha  occ. eigenvalues --  -11.39279 -11.39259  -8.00836  -2.80878  -1.55941
 Alpha  occ. eigenvalues --   -1.53253  -1.49464  -1.10394  -0.98763  -0.96782
 Alpha  occ. eigenvalues --   -0.64281  -0.59374  -0.58980  -0.58085  -0.57343
 Alpha  occ. eigenvalues --   -0.27844  -0.26016  -0.22352  -0.14105  -0.01764
 Alpha virt. eigenvalues --    0.04644   0.05144   0.05824   0.06887   0.06901
 Alpha virt. eigenvalues --    0.07544   0.08387   0.10171   0.12227   0.13112
 Alpha virt. eigenvalues --    0.13722   0.16005   0.16150   0.16591   0.17329

  Beta  occ. eigenvalues -- -105.20751 -75.66391 -13.04700 -13.00097 -12.97379
  Beta  occ. eigenvalues --  -11.39162 -11.39141  -8.00182  -2.79938  -1.55675
  Beta  occ. eigenvalues --   -1.52668  -1.39015  -1.08090  -0.98448  -0.92575
  Beta  occ. eigenvalues --   -0.60868  -0.59254  -0.58502  -0.57831  -0.57171
  Beta  occ. eigenvalues --   -0.25297  -0.21002  -0.16588  -0.11747
  Beta virt. eigenvalues --    0.01805   0.05179   0.05836   0.06788   0.06902
  Beta virt. eigenvalues --    0.07558   0.08318   0.08537   0.12083   0.12415
  Beta virt. eigenvalues --    0.13489   0.14098   0.16111   0.16151   0.16689

 Mulliken charges and spin densities:
               1          2
     1  S   -2.341428   0.495463
     2  P    7.489693  -0.088984
     3  C   -5.866861  -0.075466
     4  C   -5.866861  -0.075466
     5  H    1.170956   0.075515
     6  H    1.017389   0.176667
     7  H    1.104383   0.120045
     8  H    1.170956   0.075515
     9  H    1.104383   0.120045
    10  H    1.017389   0.176667
 Sum of Mulliken charges =   0.00000   1.00000

 Dipole moment (field-independent basis, Debye):
    X=              2.9789    Y=              3.4489    Z=              0.0000  Tot=              4.5573
                          Isotropic Fermi Contact Couplings
        Atom                 a.u.       MegaHertz       Gauss      10(-4) cm-1
     1  S(33)              0.41551     142.71737      50.92511      47.60539
     2  P(31)              0.21396     387.50698     138.27212     129.25841
     3  C(13)              0.07130      80.15574      28.60156      26.73708
     4  C(13)              0.07130      80.15574      28.60156      26.73708
     5  H(1)              -0.00057      -2.55780      -0.91269      -0.85319
     6  H(1)               0.00258      11.53834       4.11716       3.84877
     7  H(1)              -0.00036      -1.59623      -0.56958      -0.53245
     8  H(1)              -0.00057      -2.55780      -0.91269      -0.85319

 Normal termination of Gaussian 16 at Wed Apr  9 00:16:43 2025.
