 Gaussian 16, Revision C.01,

 ----------------------------------------------------------------------
 #t hf aug-cc-pvdz symm=none int=(grid=ultrafine) guess=(read,tcheck) s
 table=opt
 ----------------------------------------------------------------------
 -----
 title
 -----
 Symbolic Z-matrix:
 Charge =  0 Multiplicity = 2

 SCF Done:  E(UHF) =  -908.370336834     A.U. after   24 cycles
 Normal termination of Gaussian 16 at Tue Apr  8 23:18:52 2025.
 Gaussian 16:  ES64L-G16RevC.01  3-Jul-2019

 ----------------------------------------------------------------------
 #t hf aug-cc-pvdz iop(5/13=1,5/36=2,99/5=2) pseudo=read geom=check gue
 ss=(read,tcheck) scf=(maxcycle=1)
 ----------------------------------------------------------------------
 -----
 title
 -----
 Structure from the checkpoint file:  "BDE49_nonexpt_1060_mol2.chk"
 Charge =  0 Multiplicity = 2

                         Standard orientation:
 ---------------------------------------------------------------------
 Center     Atomic      Atomic             Coordinates (Angstroms)
 Number     Number       Type             X           Y           Z
 ---------------------------------------------------------------------
      1          8           0        0.133158    1.626403   -0.000181
      2          6           0        0.043336    0.424737    0.000774
      3         16           0        1.541420   -0.505388   -0.000321
      4         16           0       -1.483094   -0.504373    0.000138
      5          1           0       -2.258489    0.596536   -0.000276
 ---------------------------------------------------------------------

 SCF Done:  E(UHF) =  -909.243787332     A.U. after    2 cycles

 The electronic state is 2-A.
 Alpha  occ. eigenvalues --  -75.75119 -75.73681 -21.08906 -13.18043 -13.15819
 Alpha  occ. eigenvalues --  -13.14168 -13.09040 -13.05935 -13.05022 -11.53268
 Alpha  occ. eigenvalues --   -8.08944  -8.07779  -1.75099  -1.22957  -1.13895
 Alpha  occ. eigenvalues --   -0.77426  -0.59588  -0.57380  -0.53980  -0.46650
 Alpha  occ. eigenvalues --   -0.33459  -0.28713  -0.27737  -0.26935
 Alpha virt. eigenvalues --    0.02496   0.06241   0.07439   0.08818   0.09631
 Alpha virt. eigenvalues --    0.11863   0.13186   0.14204   0.15136   0.15489
 Alpha virt. eigenvalues --    0.15605   0.16781   0.17120   0.21518   0.22483

  Beta  occ. eigenvalues --  -75.74137 -75.73647 -21.08739 -13.17754 -13.15458
  Beta  occ. eigenvalues --  -13.14152 -13.05419 -13.04911 -13.03071 -11.53373
  Beta  occ. eigenvalues --   -8.07824  -8.07757  -1.74735  -1.20755  -1.08038
  Beta  occ. eigenvalues --   -0.75435  -0.57859  -0.56929  -0.53957  -0.46176
  Beta  occ. eigenvalues --   -0.28443  -0.27017  -0.26388
  Beta virt. eigenvalues --    0.01170   0.03313   0.06450   0.07651   0.09475
  Beta virt. eigenvalues --    0.09592   0.12935   0.13429   0.14970   0.15211
  Beta virt. eigenvalues --    0.15657   0.15752   0.16963   0.19082   0.22072

 Mulliken charges and spin densities:
               1          2
     1  O   -2.396551  -0.015804
     2  C    0.533717  -0.074162
     3  S    1.161123   1.099391
     4  S   -0.345343  -0.016503
     5  H    1.047055   0.007078
 Sum of Mulliken charges =  -0.00000   1.00000

 Dipole moment (field-independent basis, Debye):
    X=              0.5003    Y=             -2.4181    Z=             -0.0039  Tot=              2.4693
                          Isotropic Fermi Contact Couplings
        Atom                 a.u.       MegaHertz       Gauss      10(-4) cm-1
     1  O(17)              0.02442     -14.80324      -5.28216      -4.93783
     2  C(13)             -0.01051     -11.81412      -4.21557      -3.94077
     3  S(33)              0.31700     108.88177      38.85172      36.31905
     4  S(33)              0.03593      12.33935       4.40299       4.11596
     5  H(1)               0.00366      16.34676       5.83293       5.45269
 --------------------------------------------------------
       Center         ----  Spin Dipole Couplings  ----
                      3XX-RR        3YY-RR        3ZZ-RR

 Normal termination of Gaussian 16 at Tue Apr  8 23:18:54 2025.
