 Gaussian 16, Revision C.01,

 ----------------------------------------------------------------------
 #t hf aug-cc-pvdz symm=none int=(grid=ultrafine) guess=(read,tcheck) s
 table=(opt,rrhf)
 ----------------------------------------------------------------------
 -----
 title
 -----
 Symbolic Z-matrix:
 Charge =  0 Multiplicity = 1

 SCF Done:  E(RHF) =  -1147.72351143     A.U. after   12 cycles
 Normal termination of Gaussian 16 at Wed Apr  9 00:16:33 2025.
 Gaussian 16:  ES64L-G16RevC.01  3-Jul-2019

 ----------------------------------------------------------------------
 #t hf aug-cc-pvdz iop(5/13=1,5/36=2,99/5=2) pseudo=read geom=check gue
 ss=(read,tcheck) scf=(maxcycle=1)
 ----------------------------------------------------------------------
 -----
 title
 -----
 Structure from the checkpoint file:  "BDE49_nonexpt_2534_mol1.chk"
 Charge =  0 Multiplicity = 1

                         Standard orientation:
 ---------------------------------------------------------------------
 Center     Atomic      Atomic             Coordinates (Angstroms)
 Number     Number       Type             X           Y           Z
 ---------------------------------------------------------------------
      1         17           0        1.610920   -0.462362    0.000026
      2         16           0        0.077712    0.958956   -0.000016
      3         14           0       -1.617278   -0.396246   -0.000011
      4          1           0       -1.611408   -1.237214    1.213002
      5          1           0       -2.764337    0.538786   -0.000040
      6          1           0       -1.611381   -1.237257   -1.212994
 ---------------------------------------------------------------------

 SCF Done:  E(RHF) =  -1148.35185498     A.U. after    2 cycles

 The electronic state is 1-A.
 Alpha  occ. eigenvalues --  -99.91389 -76.26282 -75.73525 -13.12290 -13.08873
 Alpha  occ. eigenvalues --  -13.06288 -10.48440  -9.68182  -9.67588  -9.67460
 Alpha  occ. eigenvalues --   -8.07354  -5.59614  -2.21680  -2.21464  -2.21329
 Alpha  occ. eigenvalues --   -1.33699  -1.07053  -0.78269  -0.57117  -0.56123
 Alpha  occ. eigenvalues --   -0.55755  -0.49871  -0.49465  -0.36008  -0.28503
 Alpha virt. eigenvalues --    0.02456   0.03456   0.04966   0.05746   0.06370
 Alpha virt. eigenvalues --    0.09410   0.09947   0.10605   0.12843   0.12985
 Alpha virt. eigenvalues --    0.14218   0.14980   0.16586   0.16916   0.17578

 Mulliken charges:
               1
     1  Cl  -0.430333
     2  S   -1.019675
     3  Si   6.245349
     4  H   -1.616591
     5  H   -1.562158
     6  H   -1.616591
 Sum of Mulliken charges =  -0.00000

 Dipole moment (field-independent basis, Debye):
    X=             -1.9893    Y=              2.4886    Z=             -0.0001  Tot=              3.1860

 Test job not archived.
 1\1\GINC-SE404\SP\RHF\Aug-CC-pVDZ\Cl1H3S1Si1\OHZDE\09-Apr-2025\0\\#t h
 f aug-cc-pvdz iop(5/13=1,5/36=2,99/5=2) pseudo=read geom=check guess=(
 read,tcheck) scf=(maxcycle=1)\\title\\0,1\Cl,0,1.61092,-0.462362,0.000
 026\S,0,0.077712,0.958956,-0.000016\Si,0,-1.617278,-0.396246,-0.000011
 \H,0,-1.611408,-1.237214,1.213002\H,0,-2.764337,0.538786,-0.00004\H,0,
 -1.611381,-1.237257,-1.212994\\Version=ES64L-G16RevC.01\State=1-A\HF=-
 1148.351855\RMSD=9.350e-02\Dipole=-0.7826565,0.9790781,-0.0000261\Quad
 rupole=-0.0757424,2.5062424,-2.4305001,-0.0532866,0.0000283,-0.0000869

 Normal termination of Gaussian 16 at Wed Apr  9 00:16:35 2025.
