 Gaussian 16, Revision C.01,

 ----------------------------------------------------------------------
 #t hf aug-cc-pvdz symm=none int=(grid=ultrafine) guess=(read,tcheck) s
 table=(opt,rrhf)
 ----------------------------------------------------------------------
 -----
 title
 -----
 Symbolic Z-matrix:
 Charge =  0 Multiplicity = 1

 SCF Done:  E(RHF) =  -844.974784097     A.U. after   12 cycles
 Normal termination of Gaussian 16 at Wed Apr  9 00:16:06 2025.
 Gaussian 16:  ES64L-G16RevC.01  3-Jul-2019

 ----------------------------------------------------------------------
 #t hf aug-cc-pvdz iop(5/13=1,5/36=2,99/5=2) pseudo=read geom=check gue
 ss=(read,tcheck) scf=(maxcycle=1)
 ----------------------------------------------------------------------
 -----
 title
 -----
 Structure from the checkpoint file:  "BDE49_nonexpt_2500_mol1.chk"
 Charge =  0 Multiplicity = 1

                         Standard orientation:
 ---------------------------------------------------------------------
 Center     Atomic      Atomic             Coordinates (Angstroms)
 Number     Number       Type             X           Y           Z
 ---------------------------------------------------------------------
      1          6           0       -0.994737    0.545829   -0.842306
      2          6           0       -1.976572    0.912627    0.273402
      3          6           0       -3.094833   -0.109773    0.485611
      4          1           0       -2.415574    1.884893    0.014980
      5          1           0       -1.427103    1.062464    1.208046
      6          1           0       -2.689763   -1.084690    0.765561
      7          1           0       -3.686613   -0.240842   -0.426043
      8         16           0       -0.000323   -0.992903   -0.535088
      9          1           0       -0.308540    1.369221   -1.047385
     10          1           0       -1.530940    0.339362   -1.771899
     11         14           0        1.640434   -0.254516    0.655957
     12          6           0        2.783457    0.904542   -0.279063
     13          1           0        3.204041    0.410440   -1.158013
     14          1           0        3.608086    1.218368    0.369131
     15          1           0        2.261120    1.805644   -0.611265
     16          1           0       -3.773262    0.213923    1.279013
     17          1           0        2.357635   -1.484526    1.061152
     18          1           0        1.136111    0.436067    1.868867
 ---------------------------------------------------------------------

 SCF Done:  E(RHF) =  -846.200481168     A.U. after    2 cycles

 The electronic state is 1-A.
 Alpha  occ. eigenvalues --  -76.22798 -75.66013 -13.10646 -13.06540 -13.02997
 Alpha  occ. eigenvalues --  -11.43054 -11.39324 -11.35470 -11.35393  -8.00134
 Alpha  occ. eigenvalues --   -5.56315  -2.19694  -2.18387  -2.18324  -1.24412
 Alpha  occ. eigenvalues --   -1.09415  -1.04075  -0.95334  -0.83300  -0.71564
 Alpha  occ. eigenvalues --   -0.63263  -0.62030  -0.56876  -0.56592  -0.55822
 Alpha  occ. eigenvalues --   -0.50519  -0.47824  -0.47198  -0.46576  -0.43168
 Alpha  occ. eigenvalues --   -0.39339  -0.31491  -0.24919
 Alpha virt. eigenvalues --    0.03179   0.04272   0.04683   0.05301   0.06075
 Alpha virt. eigenvalues --    0.06148   0.06640   0.06910   0.07488   0.07633
 Alpha virt. eigenvalues --    0.08710   0.08845   0.10335   0.10864   0.11397

 Mulliken charges:
               1
     1  C   -3.568657
     2  C   -2.958199
     3  C   -3.730834
     4  H    1.280635
     5  H    1.682353
     6  H    1.471588
     7  H    1.276624
     8  S   -1.051993
     9  H    1.476827
    10  H    1.592598
    11  Si   6.351784
    12  C   -4.978474
    13  H    1.203063
    14  H    1.261744
    15  H    1.386790
    16  H    1.167284
    17  H   -2.069483
    18  H   -1.793649
 Sum of Mulliken charges =   0.00000

 Dipole moment (field-independent basis, Debye):
    X=             -0.7268    Y=              0.0894    Z=             -1.2493  Tot=              1.4480

 Test job not archived.
 1\1\GINC-SE453\SP\RHF\Aug-CC-pVDZ\C4H12S1Si1\OHZDE\09-Apr-2025\0\\#t h
 f aug-cc-pvdz iop(5/13=1,5/36=2,99/5=2) pseudo=read geom=check guess=(
 read,tcheck) scf=(maxcycle=1)\\title\\0,1\C,0,0.994737,0.545829,0.8423
 06\C,0,1.976572,0.912627,-0.273402\C,0,3.094833,-0.109773,-0.485611\H,
 0,2.415574,1.884893,-0.01498\H,0,1.427103,1.062464,-1.208046\H,0,2.689
 763,-1.08469,-0.765561\H,0,3.686613,-0.240842,0.426043\S,0,0.000323,-0
 .992903,0.535088\H,0,0.30854,1.369221,1.047385\H,0,1.53094,0.339362,1.
 771899\Si,0,-1.640434,-0.254516,-0.655957\C,0,-2.783457,0.904542,0.279

 Normal termination of Gaussian 16 at Wed Apr  9 00:16:11 2025.
