 Gaussian 16, Revision C.01,

 ----------------------------------------------------------------------
 #t hf aug-cc-pvdz symm=none int=(grid=ultrafine) guess=(read,tcheck) s
 table=(opt,rrhf)
 ----------------------------------------------------------------------
 -----
 title
 -----
 Symbolic Z-matrix:
 Charge =  0 Multiplicity = 1

 SCF Done:  E(RHF) =  -882.864395689     A.U. after   12 cycles
 Normal termination of Gaussian 16 at Wed Apr  9 00:15:51 2025.
 Gaussian 16:  ES64L-G16RevC.01  3-Jul-2019

 ----------------------------------------------------------------------
 #t hf aug-cc-pvdz iop(5/13=1,5/36=2,99/5=2) pseudo=read geom=check gue
 ss=(read,tcheck) scf=(maxcycle=1)
 ----------------------------------------------------------------------
 -----
 title
 -----
 Structure from the checkpoint file:  "BDE49_nonexpt_2484_mol1.chk"
 Charge =  0 Multiplicity = 1

                         Standard orientation:
 ---------------------------------------------------------------------
 Center     Atomic      Atomic             Coordinates (Angstroms)
 Number     Number       Type             X           Y           Z
 ---------------------------------------------------------------------
      1          6           0        1.418583   -1.320478   -0.478235
      2          6           0        0.400922   -1.465265    0.677776
      3          6           0        2.260269   -0.033270   -0.411489
      4          1           0        0.889568   -1.347884   -1.438198
      5          1           0        2.089948   -2.186129   -0.477889
      6         14           0       -0.697504    0.053780    0.835831
      7          1           0        0.940504   -1.571522    1.628285
      8          1           0       -0.193179   -2.376856    0.561595
      9          6           0        1.452801    1.267691   -0.570283
     10          1           0        3.021765   -0.071970   -1.197444
     11          1           0        2.806636   -0.006876    0.541129
     12          6           0        0.450096    1.523390    0.577442
     13          1           0        0.912792    1.236476   -1.523900
     14          1           0        2.146924    2.112307   -0.640661
     15          1           0        0.996884    1.673657    1.518896
     16          1           0       -0.113478    2.445174    0.401498
     17         16           0       -2.213338   -0.104276   -0.724120
     18          1           0       -2.837618    1.045558   -0.411923
     19          1           0       -1.378314    0.131150    2.151639
 ---------------------------------------------------------------------

 SCF Done:  E(RHF) =  -884.264345677     A.U. after    2 cycles

 The electronic state is 1-A.
 Alpha  occ. eigenvalues --  -76.21836 -75.67442 -13.14420 -13.06852 -13.03691
 Alpha  occ. eigenvalues --  -11.42935 -11.41468 -11.37952 -11.35440 -11.34183
 Alpha  occ. eigenvalues --   -8.01373  -5.55696  -2.19684  -2.19161  -2.17779
 Alpha  occ. eigenvalues --   -1.26525  -1.11126  -1.09380  -1.00382  -0.87545
 Alpha  occ. eigenvalues --   -0.81437  -0.69638  -0.63986  -0.60821  -0.60543
 Alpha  occ. eigenvalues --   -0.56129  -0.53993  -0.50312  -0.48088  -0.46994
 Alpha  occ. eigenvalues --   -0.45106  -0.44767  -0.40327  -0.35931  -0.32679
 Alpha  occ. eigenvalues --   -0.26194
 Alpha virt. eigenvalues --    0.03283   0.04703   0.05091   0.05425   0.05700
 Alpha virt. eigenvalues --    0.05738   0.06026   0.06117   0.06529   0.08247
 Alpha virt. eigenvalues --    0.08777   0.08794   0.09122   0.09953   0.11545

 Mulliken charges:
               1
     1  C   -2.575688
     2  C   -3.426760
     3  C   -3.318285
     4  H    1.367522
     5  H    1.274641
     6  Si   5.983122
     7  H    1.317189
     8  H    1.250295
     9  C   -2.508128
    10  H    1.290365
    11  H    1.471604
    12  C   -3.371694
    13  H    1.322178
    14  H    1.280488
    15  H    1.350595
    16  H    1.257289
    17  S   -2.705434
    18  H    0.979887
    19  H   -2.239187
 Sum of Mulliken charges =  -0.00000

 Dipole moment (field-independent basis, Debye):
    X=              0.8888    Y=             -0.8964    Z=             -1.1078  Tot=              1.6795

 Test job not archived.
 1\1\GINC-SE249\SP\RHF\Aug-CC-pVDZ\C5H12S1Si1\OHZDE\09-Apr-2025\0\\#t h
 f aug-cc-pvdz iop(5/13=1,5/36=2,99/5=2) pseudo=read geom=check guess=(
 read,tcheck) scf=(maxcycle=1)\\title\\0,1\C,0,1.418583,-1.320478,-0.47
 8235\C,0,0.400922,-1.465265,0.677776\C,0,2.260269,-0.03327,-0.411489\H
 ,0,0.889568,-1.347884,-1.438198\H,0,2.089948,-2.186129,-0.477889\Si,0,
 -0.697504,0.05378,0.835831\H,0,0.940504,-1.571522,1.628285\H,0,-0.1931
 79,-2.376856,0.561595\C,0,1.452801,1.267691,-0.570283\H,0,3.021765,-0.
 07197,-1.197444\H,0,2.806636,-0.006876,0.541129\C,0,0.450096,1.52339,0

 Normal termination of Gaussian 16 at Wed Apr  9 00:16:00 2025.
