 Gaussian 16, Revision C.01,

 ----------------------------------------------------------------------
 #t hf aug-cc-pvdz symm=none int=(grid=ultrafine) guess=(read,tcheck) s
 table=(opt,rrhf)
 ----------------------------------------------------------------------
 -----
 title
 -----
 Symbolic Z-matrix:
 Charge =  0 Multiplicity = 1

 SCF Done:  E(RHF) =  -1156.93734411     A.U. after   15 cycles
 Normal termination of Gaussian 16 at Tue Apr  8 23:17:51 2025.
 Gaussian 16:  ES64L-G16RevC.01  3-Jul-2019

 ----------------------------------------------------------------------
 #t hf aug-cc-pvdz iop(5/13=1,5/36=2,99/5=2) pseudo=read geom=check gue
 ss=(read,tcheck) scf=(maxcycle=1)
 ----------------------------------------------------------------------
 -----
 title
 -----
 Structure from the checkpoint file:  "BDE49_nonexpt_1041_mol1.chk"
 Charge =  0 Multiplicity = 1

                         Standard orientation:
 ---------------------------------------------------------------------
 Center     Atomic      Atomic             Coordinates (Angstroms)
 Number     Number       Type             X           Y           Z
 ---------------------------------------------------------------------
      1         17           0       -2.070740    0.023641   -0.014598
      2          8           0       -0.582799   -0.807954   -0.363448
      3         16           0        0.794474   -0.039497    0.134693
      4          8           0        0.636247    0.481035    1.444165
      5          8           0        1.785059   -0.986974   -0.260805
      6          8           0        0.832667    1.226072   -0.843095
      7          1           0        1.121602    0.932619   -1.721457
 ---------------------------------------------------------------------

 SCF Done:  E(RHF) =  -1158.67858749     A.U. after    2 cycles

 The electronic state is 1-A.
 Alpha  occ. eigenvalues --  -99.98526 -75.98254 -21.17390 -21.17123 -21.10528
 Alpha  occ. eigenvalues --  -21.10395 -13.62441 -13.51457 -13.45109 -10.55167
 Alpha  occ. eigenvalues --   -9.74994  -9.74195  -9.74065  -8.33563  -1.98520
 Alpha  occ. eigenvalues --   -1.80985  -1.75957  -1.71288  -1.29589  -0.96430
 Alpha  occ. eigenvalues --   -0.74431  -0.68480  -0.66073  -0.64196  -0.60367
 Alpha  occ. eigenvalues --   -0.55919  -0.50004  -0.47416  -0.45861  -0.42634
 Alpha  occ. eigenvalues --   -0.41970  -0.41142  -0.39797
 Alpha virt. eigenvalues --   -0.00177   0.03104   0.07803   0.09478   0.09990
 Alpha virt. eigenvalues --    0.11904   0.12910   0.13822   0.13973   0.17426
 Alpha virt. eigenvalues --    0.18305   0.19236   0.20443   0.20655   0.22921

 Mulliken charges:
               1
     1  Cl   0.545485
     2  O   -2.099068
     3  S    8.198511
     4  O   -2.474509
     5  O   -2.437196
     6  O   -2.509582
     7  H    0.776358
 Sum of Mulliken charges =  -0.00000

 Dipole moment (field-independent basis, Debye):
    X=              1.1117    Y=              0.1767    Z=             -1.8724  Tot=              2.1847

 Test job not archived.
 1\1\GINC-SE341\SP\RHF\Aug-CC-pVDZ\Cl1H1O4S1\OHZDE\08-Apr-2025\0\\#t hf
  aug-cc-pvdz iop(5/13=1,5/36=2,99/5=2) pseudo=read geom=check guess=(r
 ead,tcheck) scf=(maxcycle=1)\\title\\0,1\Cl,0,-2.07074,0.023641,-0.014
 598\O,0,-0.582799,-0.807954,-0.363448\S,0,0.794474,-0.039497,0.134693\
 O,0,0.636247,0.481035,1.444165\O,0,1.785059,-0.986974,-0.260805\O,0,0.
 832667,1.226072,-0.843095\H,0,1.121602,0.932619,-1.721457\\Version=ES6
 4L-G16RevC.01\State=1-A\HF=-1158.6785875\RMSD=4.200e-02\Dipole=0.43736
 5,0.0695244,-0.7366503\Quadrupole=-0.1572314,-0.8553816,1.012613,0.434

 Normal termination of Gaussian 16 at Tue Apr  8 23:17:54 2025.
