 Gaussian 16, Revision C.01,

 ----------------------------------------------------------------------
 #t hf aug-cc-pvdz symm=none int=(grid=ultrafine) guess=(read,tcheck) s
 table=(opt,rrhf)
 ----------------------------------------------------------------------
 -----
 title
 -----
 Symbolic Z-matrix:
 Charge =  0 Multiplicity = 1

 SCF Done:  E(RHF) =  -588.035570498     A.U. after   15 cycles
 Normal termination of Gaussian 16 at Tue Apr  8 23:27:23 2025.
 Gaussian 16:  ES64L-G16RevC.01  3-Jul-2019

 ----------------------------------------------------------------------
 #t hf aug-cc-pvdz iop(5/13=1,5/36=2,99/5=2) pseudo=read geom=check gue
 ss=(read,tcheck) scf=(maxcycle=1)
 ----------------------------------------------------------------------
 -----
 title
 -----
 Structure from the checkpoint file:  "BDE49_nonexpt_1278_mol1.chk"
 Charge =  0 Multiplicity = 1

                         Standard orientation:
 ---------------------------------------------------------------------
 Center     Atomic      Atomic             Coordinates (Angstroms)
 Number     Number       Type             X           Y           Z
 ---------------------------------------------------------------------
      1          6           0       -1.660241    1.160282    0.003899
      2          6           0       -2.279500   -0.085711    0.004831
      3          6           0       -1.471956   -1.220692    0.000850
      4          7           0       -0.138055   -1.176680   -0.009644
      5          6           0        0.455694    0.025578    0.004582
      6          6           0       -0.270511    1.221837    0.007026
      7          1           0       -3.358650   -0.180242    0.006010
      8          1           0       -1.914345   -2.213098   -0.000244
      9          1           0        0.240522    2.176869    0.020295
     10          1           0       -2.248982    2.071014    0.007414
     11         15           0        2.301438   -0.052767   -0.108321
     12          1           0        2.513843   -0.682853    1.142856
     13          1           0        2.571513    1.248802    0.388849
 ---------------------------------------------------------------------

 SCF Done:  E(RHF) =  -589.387792530     A.U. after    2 cycles

 The electronic state is 1-A.
 Alpha  occ. eigenvalues -- -105.18360 -15.74075 -11.48848 -11.45422 -11.44071
 Alpha  occ. eigenvalues --  -11.41538 -11.38302  -2.75382  -1.51503  -1.45032
 Alpha  occ. eigenvalues --   -1.43356  -1.42338  -1.19229  -1.10401  -0.89428
 Alpha  occ. eigenvalues --   -0.87871  -0.75980  -0.68879  -0.63390  -0.60593
 Alpha  occ. eigenvalues --   -0.56508  -0.54743  -0.50968  -0.38104  -0.37563
 Alpha  occ. eigenvalues --   -0.35139  -0.25652  -0.22943  -0.02574
 Alpha virt. eigenvalues --    0.03305   0.05093   0.05270   0.06173   0.06688
 Alpha virt. eigenvalues --    0.08266   0.09514   0.09653   0.10121   0.10951
 Alpha virt. eigenvalues --    0.11859   0.13042   0.13441   0.14052   0.14241

 Mulliken charges:
               1
     1  C    0.561789
     2  C   -0.984219
     3  C   -0.768414
     4  N   -3.011861
     5  C   -0.543615
     6  C   -2.246716
     7  H    1.388811
     8  H    1.605252
     9  H    1.769630
    10  H    1.499265
    11  P    2.031915
    12  H   -0.474051
    13  H   -0.827787
 Sum of Mulliken charges =   0.00000

 Dipole moment (field-independent basis, Debye):
    X=             -0.8275    Y=              0.1050    Z=             -2.6437  Tot=              2.7721

 Test job not archived.
 1\1\GINC-SE454\SP\RHF\Aug-CC-pVDZ\C5H6N1P1\OHZDE\08-Apr-2025\0\\#t hf
 aug-cc-pvdz iop(5/13=1,5/36=2,99/5=2) pseudo=read geom=check guess=(re
 ad,tcheck) scf=(maxcycle=1)\\title\\0,1\C,0,-1.660241,1.160282,0.00389
 9\C,0,-2.2795,-0.085711,0.004831\C,0,-1.471956,-1.220692,0.00085\N,0,-
 0.138055,-1.17668,-0.009644\C,0,0.455694,0.025578,0.004582\C,0,-0.2705
 11,1.221837,0.007026\H,0,-3.35865,-0.180242,0.00601\H,0,-1.914345,-2.2
 13098,-0.000244\H,0,0.240522,2.176869,0.020295\H,0,-2.248982,2.071014,
 0.007414\P,0,2.301438,-0.052767,-0.108321\H,0,2.513843,-0.682853,1.142

 Normal termination of Gaussian 16 at Tue Apr  8 23:27:28 2025.
