 Gaussian 16, Revision C.01,

 ----------------------------------------------------------------------
 #t hf aug-cc-pvdz symm=none int=(grid=ultrafine) guess=(read,tcheck) s
 table=(opt,rrhf)
 ----------------------------------------------------------------------
 -----
 title
 -----
 Symbolic Z-matrix:
 Charge =  0 Multiplicity = 1

 SCF Done:  E(RHF) =  -742.155341144     A.U. after   16 cycles
 Normal termination of Gaussian 16 at Tue Apr  8 23:16:44 2025.
 Gaussian 16:  ES64L-G16RevC.01  3-Jul-2019

 ----------------------------------------------------------------------
 #t hf aug-cc-pvdz iop(5/13=1,5/36=2,99/5=2) pseudo=read geom=check gue
 ss=(read,tcheck) scf=(maxcycle=1)
 ----------------------------------------------------------------------
 -----
 title
 -----
 Structure from the checkpoint file:  "BDE49_expt_856_mol1.chk"
 Charge =  0 Multiplicity = 1

                         Standard orientation:
 ---------------------------------------------------------------------
 Center     Atomic      Atomic             Coordinates (Angstroms)
 Number     Number       Type             X           Y           Z
 ---------------------------------------------------------------------
      1          6           0        1.380485    0.277019    0.002457
      2          6           0        0.549356    1.405417   -0.002865
      3          6           0       -0.828038    1.258336   -0.012480
      4          6           0        0.810289   -0.998996   -0.003617
      5          6           0       -0.578212   -1.135382   -0.009130
      6          6           0       -1.408258   -0.016836   -0.004762
      7          8           0        2.717557    0.528397    0.008966
      8          1           0        1.010573    2.385494   -0.005302
      9          1           0       -1.464690    2.134484   -0.027181
     10          1           0        1.427279   -1.887267   -0.005472
     11          1           0       -1.017564   -2.125423   -0.016292
     12         16           0       -3.194944   -0.210519   -0.072075
     13          1           0       -3.432893   -0.143985    1.251587
     14          6           0        3.617109   -0.572508    0.007476
     15          1           0        3.489121   -1.196338    0.898898
     16          1           0        4.615589   -0.138969    0.012450
     17          1           0        3.494850   -1.189164   -0.889684
 ---------------------------------------------------------------------

 SCF Done:  E(RHF) =  -743.988630535     A.U. after    2 cycles

 The electronic state is 1-A.
 Alpha  occ. eigenvalues --  -75.68913 -21.08126 -13.17169 -13.11694 -13.05841
 Alpha  occ. eigenvalues --  -11.53180 -11.46606 -11.43921 -11.43196 -11.41983
 Alpha  occ. eigenvalues --  -11.40980 -11.37343  -8.02777  -1.79527  -1.34194
 Alpha  occ. eigenvalues --   -1.15417  -1.10522  -1.04672  -0.97627  -0.88212
 Alpha  occ. eigenvalues --   -0.82357  -0.69851  -0.65105  -0.63633  -0.63015
 Alpha  occ. eigenvalues --   -0.59562  -0.58345  -0.54421  -0.53164  -0.49401
 Alpha  occ. eigenvalues --   -0.46719  -0.42229  -0.39932  -0.37795  -0.34056
 Alpha  occ. eigenvalues --   -0.26970  -0.24297
 Alpha virt. eigenvalues --    0.03005   0.04662   0.04914   0.05305   0.06009
 Alpha virt. eigenvalues --    0.06230   0.06949   0.07974   0.08331   0.09184
 Alpha virt. eigenvalues --    0.10718   0.10858   0.12520   0.13257   0.13511

 Mulliken charges:
               1
     1  C    5.155242
     2  C   -3.867966
     3  C   -2.317085
     4  C   -3.085864
     5  C   -1.875804
     6  C    2.328998
     7  O   -4.727743
     8  H    1.916885
     9  H    1.855671
    10  H    1.899666
    11  H    1.849728
    12  S   -0.722639
    13  H    1.128769
    14  C   -3.699413
    15  H    1.372204
    16  H    1.417165
    17  H    1.372184
 Sum of Mulliken charges =  -0.00000

 Dipole moment (field-independent basis, Debye):
    X=              1.8644    Y=             -0.4223    Z=             -0.8497  Tot=              2.0920

 Test job not archived.
 1\1\GINC-SE343\SP\RHF\Aug-CC-pVDZ\C7H8O1S1\OHZDE\08-Apr-2025\0\\#t hf
 aug-cc-pvdz iop(5/13=1,5/36=2,99/5=2) pseudo=read geom=check guess=(re
 ad,tcheck) scf=(maxcycle=1)\\title\\0,1\C,0,1.380485,0.277019,0.002457
 \C,0,0.549356,1.405417,-0.002865\C,0,-0.828038,1.258336,-0.01248\C,0,0
 .810289,-0.998996,-0.003617\C,0,-0.578212,-1.135382,-0.00913\C,0,-1.40
 8258,-0.016836,-0.004762\O,0,2.717557,0.528397,0.008966\H,0,1.010573,2
 .385494,-0.005302\H,0,-1.46469,2.134484,-0.027181\H,0,1.427279,-1.8872
 67,-0.005472\H,0,-1.017564,-2.125423,-0.016292\S,0,-3.194944,-0.210519

 Normal termination of Gaussian 16 at Tue Apr  8 23:16:51 2025.
