 Gaussian 16, Revision C.01,

 ----------------------------------------------------------------------
 #t hf aug-cc-pvdz symm=none int=(grid=ultrafine) guess=(read,tcheck) s
 table=opt
 ----------------------------------------------------------------------
 -----
 title
 -----
 Symbolic Z-matrix:
 Charge =  0 Multiplicity = 2

 SCF Done:  E(UHF) =  -434.754640108     A.U. after   19 cycles
 Normal termination of Gaussian 16 at Tue Apr  8 23:32:01 2025.
 Gaussian 16:  ES64L-G16RevC.01  3-Jul-2019

 ----------------------------------------------------------------------
 #t hf aug-cc-pvdz iop(5/13=1,5/36=2,99/5=2) pseudo=read geom=check gue
 ss=(read,tcheck) scf=(maxcycle=1)
 ----------------------------------------------------------------------
 -----
 title
 -----
 Structure from the checkpoint file:  "BDE49_nonexpt_1398_mol2.chk"
 Charge =  0 Multiplicity = 2

                         Standard orientation:
 ---------------------------------------------------------------------
 Center     Atomic      Atomic             Coordinates (Angstroms)
 Number     Number       Type             X           Y           Z
 ---------------------------------------------------------------------
      1         15           0       -0.873542   -0.099328    0.011435
      2          7           0        0.596457    0.812225   -0.142233
      3          6           0        0.903545   -0.601229    0.017531
      4          1           0        1.332392   -1.073348   -0.860541
      5          1           0        1.309845   -0.948445    0.965128
      6          1           0        0.864427    1.433505    0.614340
 ---------------------------------------------------------------------

 SCF Done:  E(UHF) =  -435.352599736     A.U. after    2 cycles

 The electronic state is 2-A.
 Alpha  occ. eigenvalues -- -105.18589 -15.75085 -11.40572  -2.77730  -1.61052
 Alpha  occ. eigenvalues --   -1.46336  -1.42934  -1.21907  -0.90339  -0.69134
 Alpha  occ. eigenvalues --   -0.63199  -0.55653  -0.42418  -0.17489  -0.12668
 Alpha  occ. eigenvalues --    0.02908
 Alpha virt. eigenvalues --    0.04419   0.05795   0.06706   0.07779   0.09341
 Alpha virt. eigenvalues --    0.11806   0.13295   0.16729   0.17282   0.17601
 Alpha virt. eigenvalues --    0.19459   0.21683   0.22699   0.23853   0.26875

  Beta  occ. eigenvalues -- -105.17954 -15.74848 -11.40752  -2.75812  -1.60286
  Beta  occ. eigenvalues --   -1.40002  -1.22983  -1.21283  -0.90317  -0.67147
  Beta  occ. eigenvalues --   -0.61397  -0.54219  -0.39934  -0.17639  -0.10707
  Beta virt. eigenvalues --    0.04339   0.05720   0.06310   0.08178   0.09405
  Beta virt. eigenvalues --    0.09663   0.11885   0.13471   0.17297   0.17448
  Beta virt. eigenvalues --    0.18956   0.19684   0.22783   0.24503   0.27540

 Mulliken charges and spin densities:
               1          2
     1  P    3.026154   1.292494
     2  N   -2.125047  -0.135512
     3  C   -3.439874  -0.587890
     4  H    1.145450   0.031715
     5  H    0.866688   0.288251
     6  H    0.526630   0.110942
 Sum of Mulliken charges =  -0.00000   1.00000

 Dipole moment (field-independent basis, Debye):
    X=             -5.3430    Y=             -0.6138    Z=             -1.2030  Tot=              5.5110
                          Isotropic Fermi Contact Couplings
        Atom                 a.u.       MegaHertz       Gauss      10(-4) cm-1
     1  P(31)              0.27379     495.85574     176.93366     165.39967
     2  N(14)              0.02261       7.30474       2.60651       2.43660
     3  C(13)             -0.01204     -13.53324      -4.82900      -4.51420
     4  H(1)               0.00078       3.46745       1.23727       1.15662
     5  H(1)               0.00167       7.44896       2.65797       2.48470
     6  H(1)               0.00400      17.88204       6.38076       5.96481
 --------------------------------------------------------
       Center         ----  Spin Dipole Couplings  ----

 Normal termination of Gaussian 16 at Tue Apr  8 23:32:03 2025.
