 Gaussian 16, Revision C.01,

 ----------------------------------------------------------------------
 #t hf aug-cc-pvdz symm=none int=(grid=ultrafine) guess=(read,tcheck) s
 table=(opt,rrhf)
 ----------------------------------------------------------------------
 -----
 title
 -----
 Symbolic Z-matrix:
 Charge =  0 Multiplicity = 1

 SCF Done:  E(RHF) =  -841.437818285     A.U. after   17 cycles
 Normal termination of Gaussian 16 at Tue Apr  8 22:51:53 2025.
 Gaussian 16:  ES64L-G16RevC.01  3-Jul-2019

 ----------------------------------------------------------------------
 #t hf aug-cc-pvdz iop(5/13=1,5/36=2,99/5=2) pseudo=read geom=check gue
 ss=(read,tcheck) scf=(maxcycle=1)
 ----------------------------------------------------------------------
 -----
 title
 -----
 Structure from the checkpoint file:  "BDE49_expt_1714_mol1.chk"
 Charge =  0 Multiplicity = 1

                         Standard orientation:
 ---------------------------------------------------------------------
 Center     Atomic      Atomic             Coordinates (Angstroms)
 Number     Number       Type             X           Y           Z
 ---------------------------------------------------------------------
      1          6           0       -3.049814   -0.723317   -0.104235
      2          6           0       -1.995453   -1.525882    0.325899
      3          6           0       -0.716445   -0.991037    0.447162
      4          6           0       -2.825186    0.618962   -0.414043
      5          6           0       -1.550961    1.154927   -0.291169
      6          6           0       -0.482636    0.356057    0.141269
      7          1           0       -4.045059   -1.142786   -0.199725
      8          1           0       -2.167805   -2.569248    0.563025
      9          1           0        0.094506   -1.633043    0.766787
     10          1           0       -3.644945    1.243418   -0.750051
     11          1           0       -1.353781    2.194281   -0.522190
     12          6           0        0.856364    1.002180    0.277401
     13          6           0        2.059242    0.172342    0.734318
     14         17           0        2.614579   -0.963728   -0.567111
     15          1           0        1.842088   -0.433798    1.612561
     16          1           0        2.881736    0.853130    0.931404
     17          8           0        1.021844    2.185753    0.067432
 ---------------------------------------------------------------------

 SCF Done:  E(RHF) =  -843.448938829     A.U. after    2 cycles

 The electronic state is 1-A.
 Alpha  occ. eigenvalues --  -99.89508 -21.06604 -11.53944 -11.51828 -11.46245
 Alpha  occ. eigenvalues --  -11.44978 -11.44296 -11.42780 -11.42153 -11.38161
 Alpha  occ. eigenvalues --  -10.46705  -9.66638  -9.65986  -9.65877  -1.72620
 Alpha  occ. eigenvalues --   -1.36518  -1.32894  -1.13967  -1.10927  -1.05771
 Alpha  occ. eigenvalues --   -0.91512  -0.87843  -0.79295  -0.72897  -0.67719
 Alpha  occ. eigenvalues --   -0.65836  -0.62892  -0.61579  -0.59698  -0.56826
 Alpha  occ. eigenvalues --   -0.53742  -0.53206  -0.49754  -0.49092  -0.46176
 Alpha  occ. eigenvalues --   -0.45446  -0.45318  -0.34505  -0.33135  -0.30351
 Alpha virt. eigenvalues --    0.02863   0.04577   0.04900   0.05194   0.06322
 Alpha virt. eigenvalues --    0.06680   0.07302   0.07781   0.08658   0.09047
 Alpha virt. eigenvalues --    0.10960   0.11133   0.11375   0.12421   0.13066

 Mulliken charges:
               1
     1  C   -3.217822
     2  C   -1.988481
     3  C    0.892876
     4  C   -1.437107
     5  C   -3.682201
     6  C    3.067818
     7  H    1.523632
     8  H    1.489699
     9  H    1.996677
    10  H    1.462007
    11  H    1.754288
    12  C    4.020068
    13  C   -4.920447
    14  Cl   0.126784
    15  H    1.540436
    16  H    1.260320
    17  O   -3.888548
 Sum of Mulliken charges =  -0.00000

 Dipole moment (field-independent basis, Debye):
    X=             -1.9274    Y=              0.0812    Z=              1.3608  Tot=              2.3608

 Test job not archived.
 1\1\GINC-SE458\SP\RHF\Aug-CC-pVDZ\C8H7Cl1O1\OHZDE\08-Apr-2025\0\\#t hf
  aug-cc-pvdz iop(5/13=1,5/36=2,99/5=2) pseudo=read geom=check guess=(r
 ead,tcheck) scf=(maxcycle=1)\\title\\0,1\C,0,-3.049814,-0.723317,-0.10
 4235\C,0,-1.995453,-1.525882,0.325899\C,0,-0.716445,-0.991037,0.447162
 \C,0,-2.825186,0.618962,-0.414043\C,0,-1.550961,1.154927,-0.291169\C,0
 ,-0.482636,0.356057,0.141269\H,0,-4.045059,-1.142786,-0.199725\H,0,-2.
 167805,-2.569248,0.563025\H,0,0.094506,-1.633043,0.766787\H,0,-3.64494
 5,1.243418,-0.750051\H,0,-1.353781,2.194281,-0.52219\C,0,0.856364,1.00

 Normal termination of Gaussian 16 at Tue Apr  8 22:52:02 2025.
