 Gaussian 16, Revision C.01,

 ----------------------------------------------------------------------
 #t hf aug-cc-pvdz symm=none int=(grid=ultrafine) guess=(read,tcheck) s
 table=(opt,rrhf)
 ----------------------------------------------------------------------
 -----
 title
 -----
 Symbolic Z-matrix:
 Charge =  0 Multiplicity = 1

 SCF Done:  E(RHF) =  -2215.58630622     A.U. after   15 cycles
 Normal termination of Gaussian 16 at Wed Apr  9 00:55:10 2025.
 Gaussian 16:  ES64L-G16RevC.01  3-Jul-2019

 ----------------------------------------------------------------------
 #t hf aug-cc-pvdz iop(5/13=1,5/36=2,99/5=2) pseudo=read geom=check gue
 ss=(read,tcheck) scf=(maxcycle=1)
 ----------------------------------------------------------------------
 -----
 title
 -----
 Structure from the checkpoint file:  "BDE49_nonexpt_927_mol1.chk"
 Charge =  0 Multiplicity = 1

                         Standard orientation:
 ---------------------------------------------------------------------
 Center     Atomic      Atomic             Coordinates (Angstroms)
 Number     Number       Type             X           Y           Z
 ---------------------------------------------------------------------
      1         17           0        2.349314   -1.867854    1.191561
      2         17           0        2.778681   -0.134547   -1.077816
      3          8           0        0.000306    3.378857    0.000085
      4          6           0       -0.623646    2.377598    0.827927
      5          1           0       -1.712453    2.443365    0.795547
      6          1           0       -0.287146    2.437069    1.868687
      7          6           0        0.000018    1.215999   -0.000050
      8          7           0        1.536905   -0.758345    0.054992
      9          6           0        0.962675    0.363249    0.836701
     10          1           0        0.397533   -0.129443    1.630267
     11          1           0        1.736801    0.986908    1.294928
     12          6           0        0.623805    2.377535   -0.828022
     13          1           0        1.712633    2.443038   -0.795915
     14          1           0        0.287048    2.437195   -1.868691
     15          6           0       -0.962684    0.363264   -0.836758
     16          7           0       -1.536978   -0.758256   -0.054988
     17         17           0       -2.349478   -1.867762   -1.191494
     18         17           0       -2.778695   -0.134314    1.077807
     19          1           0       -0.397571   -0.129504   -1.630297
     20          1           0       -1.736776    0.986940   -1.295018
 ---------------------------------------------------------------------

 SCF Done:  E(RHF) =  -2218.33032844     A.U. after    2 cycles

 The electronic state is 1-A.
 Alpha  occ. eigenvalues --  -99.93041 -99.93038 -99.92953 -99.92950 -21.05023
 Alpha  occ. eigenvalues --  -15.85114 -15.84997 -11.50708 -11.48634 -11.47741
 Alpha  occ. eigenvalues --  -11.45231 -11.40440 -10.50152 -10.50149 -10.50015
 Alpha  occ. eigenvalues --  -10.50010  -9.70153  -9.70140  -9.69841  -9.69833
 Alpha  occ. eigenvalues --   -9.69456  -9.69441  -9.69178  -9.69166  -9.69109
 Alpha  occ. eigenvalues --   -9.69109  -9.69046  -9.68950  -1.78059  -1.52919
 Alpha  occ. eigenvalues --   -1.50844  -1.30999  -1.30933  -1.27306  -1.18615
 Alpha  occ. eigenvalues --   -1.12023  -1.02074  -0.97467  -0.93401  -0.81056
 Alpha  occ. eigenvalues --   -0.73779  -0.73449  -0.70201  -0.69940  -0.66434
 Alpha  occ. eigenvalues --   -0.65373  -0.64480  -0.61129  -0.59436  -0.58982
 Alpha  occ. eigenvalues --   -0.56943  -0.55304  -0.54376  -0.54143  -0.52673
 Alpha  occ. eigenvalues --   -0.52204  -0.51043  -0.50684  -0.47148  -0.43250
 Alpha  occ. eigenvalues --   -0.42282  -0.40195  -0.36255  -0.30662
 Alpha virt. eigenvalues --   -0.00434   0.00612   0.03626   0.04843   0.05065
 Alpha virt. eigenvalues --    0.05509   0.05763   0.06481   0.06630   0.07140
 Alpha virt. eigenvalues --    0.07159   0.07613   0.09966   0.10109   0.10836

 Mulliken charges:
               1
     1  Cl   0.292171
     2  Cl   0.184473
     3  O   -2.911377
     4  C   -1.610143
     5  H    1.448289
     6  H    1.536428
     7  C    2.192793
     8  N   -1.415159
     9  C   -3.050156
    10  H    1.420582
    11  H    1.553132
    12  C   -1.610167
    13  H    1.448316
    14  H    1.536393
    15  C   -3.050925
    16  N   -1.415041
    17  Cl   0.292173
    18  Cl   0.184480
    19  H    1.420590
    20  H    1.553147
 Sum of Mulliken charges =   0.00000

 Dipole moment (field-independent basis, Debye):
    X=             -0.0000    Y=              1.9619    Z=             -0.0001  Tot=              1.9619

 Test job not archived.
 1\1\GINC-SE126\SP\RHF\Aug-CC-pVDZ\C5H8Cl4N2O1\OHZDE\09-Apr-2025\0\\#t
 hf aug-cc-pvdz iop(5/13=1,5/36=2,99/5=2) pseudo=read geom=check guess=
 (read,tcheck) scf=(maxcycle=1)\\title\\0,1\Cl,0,2.349314,-1.867854,1.1
 91561\Cl,0,2.778681,-0.134547,-1.077816\O,0,0.000306,3.378857,0.000085
 \C,0,-0.623646,2.377598,0.827927\H,0,-1.712453,2.443365,0.795547\H,0,-
 0.287146,2.437069,1.868687\C,0,0.000018,1.215999,-0.00005\N,0,1.536905
 ,-0.758345,0.054992\C,0,0.962675,0.363249,0.836701\H,0,0.397533,-0.129
 443,1.630267\H,0,1.736801,0.986908,1.294928\C,0,0.623805,2.377535,-0.8

 Normal termination of Gaussian 16 at Wed Apr  9 00:55:27 2025.
