 Gaussian 16, Revision C.01,

 ----------------------------------------------------------------------
 #t hf aug-cc-pvdz symm=none int=(grid=ultrafine) guess=(read,tcheck) s
 table=(opt,rrhf)
 ----------------------------------------------------------------------
 -----
 title
 -----
 Symbolic Z-matrix:
 Charge =  0 Multiplicity = 1

 SCF Done:  E(RHF) =  -306.739523471     A.U. after   14 cycles
 Normal termination of Gaussian 16 at Tue Apr  8 22:36:54 2025.
 Gaussian 16:  ES64L-G16RevC.01  3-Jul-2019

 ----------------------------------------------------------------------
 #t hf aug-cc-pvdz iop(5/13=1,5/36=2,99/5=2) pseudo=read geom=check gue
 ss=(read,tcheck) scf=(maxcycle=1)
 ----------------------------------------------------------------------
 -----
 title
 -----
 Structure from the checkpoint file:  "BDE49_expt_1075_mol1.chk"
 Charge =  0 Multiplicity = 1

                         Standard orientation:
 ---------------------------------------------------------------------
 Center     Atomic      Atomic             Coordinates (Angstroms)
 Number     Number       Type             X           Y           Z
 ---------------------------------------------------------------------
      1          8           0        0.849442   -1.101238   -0.000004
      2          6           0        2.039696   -0.432703   -0.000000
      3          6           0        1.826999    0.906271    0.000004
      4          6           0        0.401897    1.083391   -0.000000
      5          6           0       -0.146454   -0.163519   -0.000001
      6          1           0        2.923896   -1.047133   -0.000000
      7          1           0        2.582182    1.676146    0.000007
      8          1           0       -0.135217    2.018047   -0.000000
      9          6           0       -1.544651   -0.686160   -0.000004
     10          6           0       -2.605392    0.416526    0.000005
     11          1           0       -1.679812   -1.334431    0.874351
     12          1           0       -1.679814   -1.334418   -0.874367
     13          1           0       -2.515869    1.053093    0.884168
     14          1           0       -3.607607   -0.017339    0.000003
     15          1           0       -2.515871    1.053105   -0.884149
 ---------------------------------------------------------------------

 SCF Done:  E(RHF) =  -308.189411358     A.U. after    2 cycles

 The electronic state is 1-A.
 Alpha  occ. eigenvalues --  -21.10220 -11.47506 -11.45284 -11.42293 -11.41006
 Alpha  occ. eigenvalues --  -11.38085 -11.35972  -1.83638  -1.21461  -1.16896
 Alpha  occ. eigenvalues --   -1.03054  -0.90957  -0.79819  -0.75663  -0.70897
 Alpha  occ. eigenvalues --   -0.63303  -0.58999  -0.55631  -0.53911  -0.51239
 Alpha  occ. eigenvalues --   -0.48920  -0.47588  -0.46443  -0.41977  -0.32580
 Alpha  occ. eigenvalues --   -0.30181
 Alpha virt. eigenvalues --    0.03547   0.04873   0.05193   0.05971   0.06470
 Alpha virt. eigenvalues --    0.06471   0.06691   0.07425   0.10256   0.11641
 Alpha virt. eigenvalues --    0.12236   0.12905   0.14256   0.14281   0.14462

 Mulliken charges:
               1
     1  O   -4.285118
     2  C    0.015791
     3  C   -1.413465
     4  C   -2.833353
     5  C    6.237564
     6  H    1.437657
     7  H    1.287982
     8  H    1.403349
     9  C   -4.068834
    10  C   -4.030112
    11  H    1.254035
    12  H    1.254033
    13  H    1.349586
    14  H    1.041298
    15  H    1.349587
 Sum of Mulliken charges =   0.00000

 Dipole moment (field-independent basis, Debye):
    X=             -0.4462    Y=             -0.1744    Z=             -0.0000  Tot=              0.4791

 Test job not archived.
 1\1\GINC-SE092\SP\RHF\Aug-CC-pVDZ\C6H8O1\OHZDE\08-Apr-2025\0\\#t hf au
 g-cc-pvdz iop(5/13=1,5/36=2,99/5=2) pseudo=read geom=check guess=(read
 ,tcheck) scf=(maxcycle=1)\\title\\0,1\O,0,0.849442,-1.101238,-0.000004
 \C,0,2.039696,-0.432703,0.\C,0,1.826999,0.906271,0.000004\C,0,0.401897
 ,1.083391,0.\C,0,-0.146454,-0.163519,-0.000001\H,0,2.923896,-1.047132,
 0.\H,0,2.582182,1.676146,0.000007\H,0,-0.135217,2.018047,0.\C,0,-1.544
 651,-0.68616,-0.000004\C,0,-2.605392,0.416526,0.000005\H,0,-1.679812,-
 1.334431,0.874351\H,0,-1.679814,-1.334418,-0.874367\H,0,-2.515869,1.05

 Normal termination of Gaussian 16 at Tue Apr  8 22:36:59 2025.
