 Gaussian 16, Revision C.01,

 ----------------------------------------------------------------------
 #t hf aug-cc-pvdz symm=none int=(grid=ultrafine) guess=(read,tcheck) s
 table=(opt,rrhf)
 ----------------------------------------------------------------------
 -----
 title
 -----
 Symbolic Z-matrix:
 Charge =  0 Multiplicity = 1

 SCF Done:  E(RHF) =  -404.459937219     A.U. after   15 cycles
 Normal termination of Gaussian 16 at Tue Apr  8 23:12:12 2025.
 Gaussian 16:  ES64L-G16RevC.01  3-Jul-2019

 ----------------------------------------------------------------------
 #t hf aug-cc-pvdz iop(5/13=1,5/36=2,99/5=2) pseudo=read geom=check gue
 ss=(read,tcheck) scf=(maxcycle=1)
 ----------------------------------------------------------------------
 -----
 title
 -----
 Structure from the checkpoint file:  "BDE49_expt_723_mol1.chk"
 Charge =  0 Multiplicity = 1

                         Standard orientation:
 ---------------------------------------------------------------------
 Center     Atomic      Atomic             Coordinates (Angstroms)
 Number     Number       Type             X           Y           Z
 ---------------------------------------------------------------------
      1          6           0       -1.914514   -0.610023    0.000001
      2          6           0       -0.741552   -1.366253    0.000000
      3          6           0        0.484881   -0.728596    0.000000
      4          6           0       -1.835937    0.778577    0.000000
      5          6           0       -0.593617    1.412347    0.000000
      6          6           0        0.585187    0.667161    0.000000
      7          1           0       -2.738870    1.377398    0.000000
      8          1           0       -0.532757    2.496837    0.000000
      9          8           0        1.832962    1.211323   -0.000001
     10          1           0        1.755980    2.170799   -0.000001
     11          1           0       -2.876417   -1.107456    0.000001
     12          9           0        1.620257   -1.455348    0.000000
     13          1           0       -0.760631   -2.449308    0.000001
 ---------------------------------------------------------------------

 SCF Done:  E(RHF) =  -406.189895444     A.U. after    2 cycles

 The electronic state is 1-A.
 Alpha  occ. eigenvalues --  -29.28030 -21.11386 -11.54493 -11.46768 -11.46192
 Alpha  occ. eigenvalues --  -11.42752 -11.41688 -11.37939  -1.77027  -1.34998
 Alpha  occ. eigenvalues --   -1.15510  -1.09149  -0.92357  -0.88853  -0.76062
 Alpha  occ. eigenvalues --   -0.70354  -0.64378  -0.62333  -0.59301  -0.57904
 Alpha  occ. eigenvalues --   -0.52773  -0.48195  -0.44383  -0.44371  -0.41809
 Alpha  occ. eigenvalues --   -0.37458  -0.30085  -0.26884  -0.21821
 Alpha virt. eigenvalues --    0.03283   0.04877   0.05053   0.05966   0.07151
 Alpha virt. eigenvalues --    0.10864   0.11313   0.11605   0.12705   0.13203
 Alpha virt. eigenvalues --    0.13715   0.13718   0.14209   0.14401   0.14613

 Mulliken charges:
               1
     1  C   -0.781734
     2  C   -4.199821
     3  C    2.785961
     4  C   -1.356554
     5  C   -2.665325
     6  C    2.360693
     7  H    1.450162
     8  H    1.617755
     9  O   -4.254864
    10  H    0.978131
    11  H    1.502885
    12  F    0.856681
    13  H    1.706028
 Sum of Mulliken charges =  -0.00000

 Dipole moment (field-independent basis, Debye):
    X=              1.7201    Y=             -0.1681    Z=              0.0000  Tot=              1.7283

 Test job not archived.
 1\1\GINC-SE361\SP\RHF\Aug-CC-pVDZ\C6H5F1O1\OHZDE\08-Apr-2025\0\\#t hf
 aug-cc-pvdz iop(5/13=1,5/36=2,99/5=2) pseudo=read geom=check guess=(re
 ad,tcheck) scf=(maxcycle=1)\\title\\0,1\C,0,-1.914514,-0.610024,0.0000
 01\C,0,-0.741551,-1.366253,0.\C,0,0.484881,-0.728596,0.\C,0,-1.835937,
 0.778576,0.\C,0,-0.593618,1.412347,0.\C,0,0.585187,0.667161,0.\H,0,-2.
 738871,1.377397,0.\H,0,-0.532758,2.496837,0.\O,0,1.832961,1.211324,-0.
 000001\H,0,1.755979,2.1708,-0.000001\H,0,-2.876416,-1.107457,0.000001\
 F,0,1.620258,-1.455347,0.\H,0,-0.76063,-2.449308,0.000001\\Version=ES6

 Normal termination of Gaussian 16 at Tue Apr  8 23:12:17 2025.
