 Gaussian 16, Revision C.01,

 ----------------------------------------------------------------------
 #t hf aug-cc-pvdz symm=none int=(grid=ultrafine) guess=(read,tcheck) s
 table=(opt,rrhf)
 ----------------------------------------------------------------------
 -----
 title
 -----
 Symbolic Z-matrix:
 Charge =  0 Multiplicity = 1

 SCF Done:  E(RHF) =  -590.646832612     A.U. after   13 cycles
 Normal termination of Gaussian 16 at Tue Apr  8 23:24:08 2025.
 Gaussian 16:  ES64L-G16RevC.01  3-Jul-2019

 ----------------------------------------------------------------------
 #t hf aug-cc-pvdz iop(5/13=1,5/36=2,99/5=2) pseudo=read geom=check gue
 ss=(read,tcheck) scf=(maxcycle=1)
 ----------------------------------------------------------------------
 -----
 title
 -----
 Structure from the checkpoint file:  "BDE49_nonexpt_1221_mol1.chk"
 Charge =  0 Multiplicity = 1

                         Standard orientation:
 ---------------------------------------------------------------------
 Center     Atomic      Atomic             Coordinates (Angstroms)
 Number     Number       Type             X           Y           Z
 ---------------------------------------------------------------------
      1         16           0       -1.845271   -0.119100   -0.112121
      2          8           0       -0.310255   -0.539531    0.427089
      3          6           0        0.815065    0.002786   -0.322434
      4          6           0        1.981643   -0.919219    0.001491
      5          1           0        2.195007   -0.900865    1.073314
      6          1           0        2.878482   -0.600344   -0.536107
      7          1           0        1.747996   -1.946042   -0.285261
      8          6           0        1.070619    1.453384    0.065998
      9          1           0        0.571471   -0.058349   -1.389269
     10          1           0        1.271502    1.529772    1.138133
     11          1           0        0.211950    2.084462   -0.175068
     12          1           0        1.933513    1.847863   -0.477647
     13          1           0       -2.007511    1.043643    0.558799
 ---------------------------------------------------------------------

 SCF Done:  E(RHF) =  -591.802557172     A.U. after    2 cycles

 The electronic state is 1-A.
 Alpha  occ. eigenvalues --  -75.72806 -21.06444 -13.20764 -13.12761 -13.07515
 Alpha  occ. eigenvalues --  -11.44859 -11.39289 -11.36032  -8.06293  -1.75606
 Alpha  occ. eigenvalues --   -1.18904  -1.04421  -1.00990  -0.82809  -0.65872
 Alpha  occ. eigenvalues --   -0.61014  -0.58803  -0.54370  -0.53666  -0.48835
 Alpha  occ. eigenvalues --   -0.48669  -0.45934  -0.38658  -0.32499  -0.23943
 Alpha virt. eigenvalues --    0.03637   0.04629   0.05631   0.05968   0.06047
 Alpha virt. eigenvalues --    0.06631   0.06877   0.07350   0.09698   0.11194
 Alpha virt. eigenvalues --    0.13367   0.14065   0.14838   0.15419   0.15619

 Mulliken charges:
               1
     1  S   -0.325729
     2  O   -2.710861
     3  C   -0.030020
     4  C   -3.718632
     5  H    1.210168
     6  H    1.202870
     7  H    1.253909
     8  C   -3.529862
     9  H    1.835780
    10  H    1.285892
    11  H    1.220888
    12  H    1.279847
    13  H    1.025752
 Sum of Mulliken charges =  -0.00000

 Dipole moment (field-independent basis, Debye):
    X=              0.4598    Y=             -0.6039    Z=             -0.7667  Tot=              1.0788

 Test job not archived.
 1\1\GINC-SE220\SP\RHF\Aug-CC-pVDZ\C3H8O1S1\OHZDE\08-Apr-2025\0\\#t hf
 aug-cc-pvdz iop(5/13=1,5/36=2,99/5=2) pseudo=read geom=check guess=(re
 ad,tcheck) scf=(maxcycle=1)\\title\\0,1\S,0,-1.845271,-0.1191,-0.11212
 1\O,0,-0.310255,-0.539531,0.427089\C,0,0.815065,0.002786,-0.322434\C,0
 ,1.981643,-0.919219,0.001491\H,0,2.195007,-0.900865,1.073314\H,0,2.878
 482,-0.600344,-0.536107\H,0,1.747996,-1.946042,-0.285261\C,0,1.070619,
 1.453384,0.065998\H,0,0.571471,-0.058349,-1.389269\H,0,1.271502,1.5297
 72,1.138133\H,0,0.21195,2.084462,-0.175068\H,0,1.933513,1.847863,-0.47

 Normal termination of Gaussian 16 at Tue Apr  8 23:24:12 2025.
