 Gaussian 16, Revision C.01,

 ----------------------------------------------------------------------
 #t hf aug-cc-pvdz symm=none int=(grid=ultrafine) guess=(read,tcheck) s
 table=(opt,rrhf)
 ----------------------------------------------------------------------
 -----
 title
 -----
 Symbolic Z-matrix:
 Charge =  0 Multiplicity = 1

 SCF Done:  E(RHF) =  -551.795658372     A.U. after   12 cycles

 1\1\GINC-SE090\Stability\RHF\Aug-CC-pVDZ\C1Cl1N1\OHZDE\08-Apr-2025\0\\
 #t hf aug-cc-pvdz symm=none int=(grid=ultrafine) guess=(read,tcheck) s
 table=(opt,rrhf)\\title\\0,1\C,0,0.,0.,-0.660046\N,0,0.,0.,-1.815665\C
 l,0,0.,0.,0.980584\\Version=ES64L-G16RevC.01\HF=-551.7956584\RMSD=1.30
 4e-09\Dipole=0.,0.,1.1996232\Quadrupole=0.9895092,0.9895092,-1.9790184
 ,0.,0.,0.\PG=Unknown\\@
 The archive entry for this job was punched.

 Normal termination of Gaussian 16 at Tue Apr  8 22:48:27 2025.
 Gaussian 16:  ES64L-G16RevC.01  3-Jul-2019

 ----------------------------------------------------------------------
 #t hf aug-cc-pvdz iop(5/13=1,5/36=2,99/5=2) pseudo=read geom=check gue
 ss=(read,tcheck) scf=(maxcycle=1)
 ----------------------------------------------------------------------
 -----
 title
 -----
 Structure from the checkpoint file:  "BDE49_expt_1610_mol1.chk"
 Charge =  0 Multiplicity = 1

                         Standard orientation:
 ---------------------------------------------------------------------
 Center     Atomic      Atomic             Coordinates (Angstroms)
 Number     Number       Type             X           Y           Z
 ---------------------------------------------------------------------
      1          6           0        0.000000    0.000000   -0.660046
      2          7           0        0.000000    0.000000   -1.815665
      3         17           0        0.000000    0.000000    0.980584
 ---------------------------------------------------------------------

 SCF Done:  E(RHF) =  -552.431191298     A.U. after    2 cycles

 The electronic state is 1-SG.
 Alpha  occ. eigenvalues --  -99.98965 -15.79429 -11.48554 -10.56379  -9.76417
 Alpha  occ. eigenvalues --   -9.75153  -9.75153  -1.44678  -1.29807  -0.83336
 Alpha  occ. eigenvalues --   -0.64405  -0.64405  -0.55738  -0.45884  -0.45884
 Alpha virt. eigenvalues --    0.03074   0.06283   0.09476   0.11079   0.11079
 Alpha virt. eigenvalues --    0.12206   0.12206   0.14864   0.16085   0.16085
 Alpha virt. eigenvalues --    0.22138   0.24170   0.25575   0.25575   0.26067

 Mulliken charges:
               1
     1  C    1.311536
     2  N   -1.738159
     3  Cl   0.426624
 Sum of Mulliken charges =  -0.00000

 Dipole moment (field-independent basis, Debye):
    X=             -0.0000    Y=             -0.0000    Z=              2.0950  Tot=              2.0950

 Test job not archived.
 1\1\GINC-SE090\SP\RHF\Aug-CC-pVDZ\C1Cl1N1\OHZDE\08-Apr-2025\0\\#t hf a
 ug-cc-pvdz iop(5/13=1,5/36=2,99/5=2) pseudo=read geom=check guess=(rea
 d,tcheck) scf=(maxcycle=1)\\title\\0,1\C,0,0.,0.,-0.660046\N,0,0.,0.,-
 1.815665\Cl,0,0.,0.,0.980584\\Version=ES64L-G16RevC.01\State=1-SG\HF=-
 552.4311913\RMSD=4.737e-02\Dipole=0.,0.,0.824239\Quadrupole=0.1864368,
 0.1864368,-0.3728737,0.,0.,0.\PG=C*V [C*(N1C1Cl1)]\\@

 Normal termination of Gaussian 16 at Tue Apr  8 22:48:28 2025.
