 Gaussian 16, Revision C.01,

 ----------------------------------------------------------------------
 #t hf aug-cc-pvdz symm=none int=(grid=ultrafine) guess=(read,tcheck) s
 table=(opt,rrhf)
 ----------------------------------------------------------------------
 -----
 title
 -----
 Symbolic Z-matrix:
 Charge =  0 Multiplicity = 1

 SCF Done:  E(RHF) =  -528.013087922     A.U. after   11 cycles
 Normal termination of Gaussian 16 at Tue Apr  8 23:57:21 2025.
 Gaussian 16:  ES64L-G16RevC.01  3-Jul-2019

 ----------------------------------------------------------------------
 #t hf aug-cc-pvdz iop(5/13=1,5/36=2,99/5=2) pseudo=read geom=check gue
 ss=(read,tcheck) scf=(maxcycle=1)
 ----------------------------------------------------------------------
 -----
 title
 -----
 Structure from the checkpoint file:  "BDE49_nonexpt_2017_mol1.chk"
 Charge =  0 Multiplicity = 1

                         Standard orientation:
 ---------------------------------------------------------------------
 Center     Atomic      Atomic             Coordinates (Angstroms)
 Number     Number       Type             X           Y           Z
 ---------------------------------------------------------------------
      1         14           0       -1.340883   -0.000000   -0.039642
      2          6           0        0.525174   -0.000000    0.396939
      3          9           0        1.123900   -1.112703   -0.158873
      4          9           0        1.123900    1.112703   -0.158873
      5          1           0        0.771397    0.000000    1.463457
      6          1           0       -1.461087   -0.000000   -1.510936
      7          1           0       -1.959596    1.211425    0.540272
      8          1           0       -1.959597   -1.211424    0.540272
 ---------------------------------------------------------------------

 SCF Done:  E(RHF) =  -529.039227712     A.U. after    2 cycles

 The electronic state is 1-A.
 Alpha  occ. eigenvalues --  -76.23651 -29.27991 -29.27956 -11.48354  -5.57305
 Alpha  occ. eigenvalues --   -2.20956  -2.19533  -2.19508  -1.25446  -0.80785
 Alpha  occ. eigenvalues --   -0.78191  -0.72494  -0.58323  -0.49301  -0.49204
 Alpha  occ. eigenvalues --   -0.43847  -0.37864  -0.30184  -0.29877  -0.22814
 Alpha  occ. eigenvalues --   -0.22078
 Alpha virt. eigenvalues --    0.03783   0.04856   0.06572   0.06775   0.07362
 Alpha virt. eigenvalues --    0.09339   0.09401   0.11866   0.14196   0.14392
 Alpha virt. eigenvalues --    0.15780   0.17915   0.18254   0.18979   0.22142

 Mulliken charges:
               1
     1  Si   5.790758
     2  C   -2.737950
     3  F    0.203214
     4  F    0.203214
     5  H    1.444141
     6  H   -1.716501
     7  H   -1.593438
     8  H   -1.593438
 Sum of Mulliken charges =  -0.00000

 Dipole moment (field-independent basis, Debye):
    X=              1.4149    Y=             -0.0000    Z=             -0.9077  Tot=              1.6810

 Test job not archived.
 1\1\GINC-SE329\SP\RHF\Aug-CC-pVDZ\C1H4F2Si1\OHZDE\08-Apr-2025\0\\#t hf
  aug-cc-pvdz iop(5/13=1,5/36=2,99/5=2) pseudo=read geom=check guess=(r
 ead,tcheck) scf=(maxcycle=1)\\title\\0,1\Si,0,1.340883,0.,-0.039642\C,
 0,-0.525174,0.,0.396939\F,0,-1.1239,1.112703,-0.158873\F,0,-1.1239,-1.
 112703,-0.158873\H,0,-0.771397,0.,1.463457\H,0,1.461087,0.,-1.510936\H
 ,0,1.959596,-1.211425,0.540272\H,0,1.959597,1.211424,0.540272\\Version
 =ES64L-G16RevC.01\State=1-A\HF=-529.0392277\RMSD=8.276e-02\Dipole=-0.5
 566533,0.0000007,-0.3571139\Quadrupole=0.6001056,-0.1677879,-0.4323177

 Normal termination of Gaussian 16 at Tue Apr  8 23:57:23 2025.
