 Gaussian 16, Revision C.01,

 ----------------------------------------------------------------------
 #t hf aug-cc-pvdz symm=none int=(grid=ultrafine) guess=(read,tcheck) s
 table=opt
 ----------------------------------------------------------------------
 -----
 title
 -----
 Symbolic Z-matrix:
 Charge =  0 Multiplicity = 2

 SCF Done:  E(UHF) =  -488.492668443     A.U. after   13 cycles

 1\1\GINC-SE461\Stability\UHF\Aug-CC-pVDZ\F2H1Si1\OHZDE\08-Apr-2025\0\\
 #t hf aug-cc-pvdz symm=none int=(grid=ultrafine) guess=(read,tcheck) s
 table=opt\\title\\0,2\Si,0,0.039091,0.496206,0.\F,0,0.039091,-0.455022
 ,1.291329\F,0,0.039091,-0.455022,-1.291329\H,0,-1.250912,1.243513,0.\\
 Version=ES64L-G16RevC.01\HF=-488.4926684\S2=0.754339\S2-1=0.\S2A=0.750
 006\RMSD=9.313e-09\Dipole=-0.0068173,0.7124495,0.\Quadrupole=1.0843761
 ,0.8044572,-1.8888332,-0.0581643,0.,0.\PG=Unknown\\@
 The archive entry for this job was punched.

 Normal termination of Gaussian 16 at Tue Apr  8 23:47:14 2025.
 Gaussian 16:  ES64L-G16RevC.01  3-Jul-2019

 ----------------------------------------------------------------------
 #t hf aug-cc-pvdz iop(5/13=1,5/36=2,99/5=2) pseudo=read geom=check gue
 ss=(read,tcheck) scf=(maxcycle=1)
 ----------------------------------------------------------------------
 -----
 title
 -----
 Structure from the checkpoint file:  "BDE49_nonexpt_1787_mol2.chk"
 Charge =  0 Multiplicity = 2

                         Standard orientation:
 ---------------------------------------------------------------------
 Center     Atomic      Atomic             Coordinates (Angstroms)
 Number     Number       Type             X           Y           Z
 ---------------------------------------------------------------------
      1         14           0        0.039091    0.496206    0.000000
      2          9           0        0.039091   -0.455022    1.291329
      3          9           0        0.039091   -0.455022   -1.291329
      4          1           0       -1.250912    1.243513   -0.000000
 ---------------------------------------------------------------------

 SCF Done:  E(UHF) =  -489.305567970     A.U. after    2 cycles

 The electronic state is 2-A'.
 Alpha  occ. eigenvalues --  -76.31230 -29.28950 -29.28948  -5.66276  -2.30810
 Alpha  occ. eigenvalues --   -2.27874  -2.25012  -0.95559  -0.70129  -0.59172
 Alpha  occ. eigenvalues --   -0.47020  -0.41550  -0.36070  -0.35049  -0.34999
 Alpha  occ. eigenvalues --   -0.29437  -0.23110
 Alpha virt. eigenvalues --    0.05235   0.06157   0.07335   0.07380   0.14818
 Alpha virt. eigenvalues --    0.15949   0.17964   0.24242   0.25106   0.25115
 Alpha virt. eigenvalues --    0.26176   0.28085   0.29769   0.29855   0.31435

  Beta  occ. eigenvalues --  -76.30653 -29.28659 -29.28658  -5.65305  -2.30150
  Beta  occ. eigenvalues --   -2.27248  -2.21764  -0.92191  -0.69711  -0.56276
  Beta  occ. eigenvalues --   -0.41496  -0.40509  -0.35384  -0.34157  -0.34009
  Beta  occ. eigenvalues --   -0.29228
  Beta virt. eigenvalues --    0.03805   0.05889   0.06841   0.07478   0.10689
  Beta virt. eigenvalues --    0.16891   0.18001   0.19041   0.25029   0.26003
  Beta virt. eigenvalues --    0.26712   0.27525   0.28743   0.30116   0.30192

 Mulliken charges and spin densities:
               1          2
     1  Si   3.621913   0.922928
     2  F   -0.929985  -0.003697
     3  F   -0.929985  -0.003697
     4  H   -1.761943   0.084466
 Sum of Mulliken charges =  -0.00000   1.00000

 Dipole moment (field-independent basis, Debye):
    X=              0.5446    Y=             -2.3385    Z=              0.0000  Tot=              2.4011
                          Isotropic Fermi Contact Couplings
        Atom                 a.u.       MegaHertz       Gauss      10(-4) cm-1
     1  Si(29)             0.51875    -461.02761    -164.50612    -153.78226
     2  F(19)              0.04634     194.95344      69.56424      65.02947
     3  F(19)              0.04634     194.95344      69.56424      65.02947
     4  H(1)               0.03335     149.08310      53.19656      49.72877
 --------------------------------------------------------
       Center         ----  Spin Dipole Couplings  ----
                      3XX-RR        3YY-RR        3ZZ-RR
 --------------------------------------------------------

 Normal termination of Gaussian 16 at Tue Apr  8 23:47:16 2025.
