 Gaussian 16, Revision C.01,

 ----------------------------------------------------------------------
 #t hf aug-cc-pvdz symm=none int=(grid=ultrafine) guess=(read,tcheck) s
 table=(opt,rrhf)
 ----------------------------------------------------------------------
 -----
 title
 -----
 Symbolic Z-matrix:
 Charge =  0 Multiplicity = 1

 SCF Done:  E(RHF) =  -383.000528183     A.U. after   11 cycles
 Normal termination of Gaussian 16 at Tue Apr  8 23:58:20 2025.
 Gaussian 16:  ES64L-G16RevC.01  3-Jul-2019

 ----------------------------------------------------------------------
 #t hf aug-cc-pvdz iop(5/13=1,5/36=2,99/5=2) pseudo=read geom=check gue
 ss=(read,tcheck) scf=(maxcycle=1)
 ----------------------------------------------------------------------
 -----
 title
 -----
 Structure from the checkpoint file:  "BDE49_nonexpt_2046_mol1.chk"
 Charge =  0 Multiplicity = 1

                         Standard orientation:
 ---------------------------------------------------------------------
 Center     Atomic      Atomic             Coordinates (Angstroms)
 Number     Number       Type             X           Y           Z
 ---------------------------------------------------------------------
      1         14           0       -1.028253    0.000001   -0.000003
      2          6           0        0.825377   -0.000004    0.000015
      3          7           0        1.980680    0.000001   -0.000005
      4          1           0       -1.473814   -0.975561   -1.011052
      5          1           0       -1.473812    1.363383   -0.339331
      6          1           0       -1.473860   -0.387823    1.350368
 ---------------------------------------------------------------------

 SCF Done:  E(RHF) =  -383.566386855     A.U. after    2 cycles

 The electronic state is 1-A.
 Alpha  occ. eigenvalues --  -76.27035 -15.77736 -11.40456  -5.60472  -2.24205
 Alpha  occ. eigenvalues --   -2.22540  -2.22540  -1.30403  -0.87001  -0.64055
 Alpha  occ. eigenvalues --   -0.52205  -0.52205  -0.50638  -0.45357  -0.45357
 Alpha virt. eigenvalues --    0.03247   0.04938   0.05494   0.05494   0.08363
 Alpha virt. eigenvalues --    0.08363   0.10524   0.12186   0.12186   0.14238
 Alpha virt. eigenvalues --    0.14777   0.14777   0.14885   0.18391   0.18391

 Mulliken charges:
               1
     1  Si   6.012769
     2  C    0.457790
     3  N   -1.871426
     4  H   -1.533045
     5  H   -1.533037
     6  H   -1.533051
 Sum of Mulliken charges =  -0.00000

 Dipole moment (field-independent basis, Debye):
    X=             -2.7107    Y=              0.0000    Z=             -0.0000  Tot=              2.7107

 Test job not archived.
 1\1\GINC-SE250\SP\RHF\Aug-CC-pVDZ\C1H3N1Si1\OHZDE\08-Apr-2025\0\\#t hf
  aug-cc-pvdz iop(5/13=1,5/36=2,99/5=2) pseudo=read geom=check guess=(r
 ead,tcheck) scf=(maxcycle=1)\\title\\0,1\Si,0,1.028253,-0.000001,-0.00
 0003\C,0,-0.825377,0.000004,0.000015\N,0,-1.98068,-0.000001,-0.000005\
 H,0,1.473814,0.977351,-1.009322\H,0,1.473812,-1.362779,-0.341747\H,0,1
 .47386,0.38543,1.351053\\Version=ES64L-G16RevC.01\State=1-A\HF=-383.56
 63869\RMSD=1.045e-01\Dipole=1.0664541,-0.000006,-0.0000056\Quadrupole=
 -1.5505374,0.7752613,0.775276,-0.0000256,-0.0000466,-0.0000009\PG=C01

 Normal termination of Gaussian 16 at Tue Apr  8 23:58:21 2025.
