 Gaussian 16, Revision C.01,

 ----------------------------------------------------------------------
 #t hf aug-cc-pvdz symm=none int=(grid=ultrafine) guess=(read,tcheck) s
 table=(opt,rrhf)
 ----------------------------------------------------------------------
 -----
 title
 -----
 Symbolic Z-matrix:
 Charge =  0 Multiplicity = 1

 SCF Done:  E(RHF) =  -685.185878797     A.U. after   14 cycles
 Normal termination of Gaussian 16 at Wed Apr  9 00:55:02 2025.
 Gaussian 16:  ES64L-G16RevC.01  3-Jul-2019

 ----------------------------------------------------------------------
 #t hf aug-cc-pvdz iop(5/13=1,5/36=2,99/5=2) pseudo=read geom=check gue
 ss=(read,tcheck) scf=(maxcycle=1)
 ----------------------------------------------------------------------
 -----
 title
 -----
 Structure from the checkpoint file:  "BDE49_nonexpt_962_mol1.chk"
 Charge =  0 Multiplicity = 1

                         Standard orientation:
 ---------------------------------------------------------------------
 Center     Atomic      Atomic             Coordinates (Angstroms)
 Number     Number       Type             X           Y           Z
 ---------------------------------------------------------------------
      1          9           0        1.917407   -1.584632   -0.848592
      2          7           0        0.516920   -1.815966   -0.628122
      3          6           0        0.328534   -1.996355    0.811891
      4          6           0        0.010754   -0.672525    0.212149
      5          6           0        0.986900    0.460950    0.466948
      6          8           0        1.621109    0.591444    1.480224
      7          8           0        1.049792    1.270036   -0.592495
      8          6           0        1.958739    2.382297   -0.474835
      9          6           0       -1.440279   -0.363189   -0.052552
     10          8           0       -2.247691   -1.199621   -0.362361
     11          8           0       -1.717203    0.930430    0.160529
     12          6           0       -3.096417    1.311869   -0.022742
     13          1           0        1.224822   -2.041124    1.417649
     14          1           0       -0.485546   -2.669406    1.052142
     15          1           0        2.976599    2.020913   -0.324523
     16          1           0        1.672276    3.017549    0.364233
     17          1           0        1.875953    2.922381   -1.414542
     18          1           0       -3.739150    0.742566    0.649589
     19          1           0       -3.134779    2.372806    0.210789
     20          1           0       -3.402725    1.131174   -1.053488
 ---------------------------------------------------------------------

 SCF Done:  E(RHF) =  -688.049318862     A.U. after    2 cycles

 The electronic state is 1-A.
 Alpha  occ. eigenvalues --  -29.27338 -21.11414 -21.10597 -21.07079 -21.07004
 Alpha  occ. eigenvalues --  -15.83847 -11.57965 -11.55916 -11.51367 -11.44802
 Alpha  occ. eigenvalues --  -11.43372 -11.42658  -1.87739  -1.85046  -1.68889
 Alpha  occ. eigenvalues --   -1.68299  -1.53585  -1.12099  -1.04406  -1.02555
 Alpha  occ. eigenvalues --   -0.96350  -0.86618  -0.77832  -0.73261  -0.70898
 Alpha  occ. eigenvalues --   -0.65859  -0.65357  -0.64408  -0.60665  -0.60110
 Alpha  occ. eigenvalues --   -0.59064  -0.56176  -0.55887  -0.54088  -0.51078
 Alpha  occ. eigenvalues --   -0.50211  -0.45725  -0.44671  -0.42197  -0.37340
 Alpha  occ. eigenvalues --   -0.34656  -0.34023  -0.33022  -0.29571  -0.24584
 Alpha  occ. eigenvalues --   -0.23948
 Alpha virt. eigenvalues --    0.03275   0.04343   0.04986   0.05366   0.06133
 Alpha virt. eigenvalues --    0.06264   0.06999   0.07429   0.08594   0.10526
 Alpha virt. eigenvalues --    0.11154   0.11350   0.12468   0.12822   0.13759

 Mulliken charges:
               1
     1  F   -0.297679
     2  N   -0.643798
     3  C   -2.844477
     4  C   -3.199353
     5  C    8.778126
     6  O   -3.497875
     7  O   -3.619942
     8  C   -3.077455
     9  C    7.410429
    10  O   -3.575021
    11  O   -3.398645
    12  C   -3.203840
    13  H    1.519843
    14  H    1.419856
    15  H    1.307212
    16  H    1.376954
    17  H    1.435404
    18  H    1.343191
    19  H    1.414628
    20  H    1.352442
 Sum of Mulliken charges =  -0.00000

 Dipole moment (field-independent basis, Debye):
    X=              1.1740    Y=              2.1904    Z=             -0.5473  Tot=              2.5447

 Test job not archived.
 1\1\GINC-SE329\SP\RHF\Aug-CC-pVDZ\C6H8F1N1O4\OHZDE\09-Apr-2025\0\\#t h
 f aug-cc-pvdz iop(5/13=1,5/36=2,99/5=2) pseudo=read geom=check guess=(
 read,tcheck) scf=(maxcycle=1)\\title\\0,1\F,0,1.917407,-1.584632,-0.84
 8592\N,0,0.51692,-1.815966,-0.628122\C,0,0.328534,-1.996355,0.811891\C
 ,0,0.010754,-0.672525,0.212149\C,0,0.9869,0.46095,0.466948\O,0,1.62110
 9,0.591444,1.480224\O,0,1.049792,1.270036,-0.592495\C,0,1.958739,2.382
 297,-0.474835\C,0,-1.440279,-0.363189,-0.052552\O,0,-2.247691,-1.19962
 1,-0.362361\O,0,-1.717203,0.93043,0.160529\C,0,-3.096417,1.311869,-0.0

 Normal termination of Gaussian 16 at Wed Apr  9 00:55:15 2025.
