 Gaussian 16, Revision C.01,

 ----------------------------------------------------------------------
 #t hf aug-cc-pvdz symm=none int=(grid=ultrafine) guess=(read,tcheck) s
 table=(opt,rrhf)
 ----------------------------------------------------------------------
 -----
 title
 -----
 Symbolic Z-matrix:
 Charge =  0 Multiplicity = 1

 SCF Done:  E(RHF) =  -1679.94535630     A.U. after   14 cycles
 Normal termination of Gaussian 16 at Wed Apr  9 00:15:23 2025.
 Gaussian 16:  ES64L-G16RevC.01  3-Jul-2019

 ----------------------------------------------------------------------
 #t hf aug-cc-pvdz iop(5/13=1,5/36=2,99/5=2) pseudo=read geom=check gue
 ss=(read,tcheck) scf=(maxcycle=1)
 ----------------------------------------------------------------------
 -----
 title
 -----
 Structure from the checkpoint file:  "BDE49_nonexpt_2438_mol1.chk"
 Charge =  0 Multiplicity = 1

                         Standard orientation:
 ---------------------------------------------------------------------
 Center     Atomic      Atomic             Coordinates (Angstroms)
 Number     Number       Type             X           Y           Z
 ---------------------------------------------------------------------
      1         14           0       -1.125746    1.740984    0.347723
      2         14           0        1.125785    1.740985   -0.347740
      3          6           0        1.913520    0.065787    0.117607
      4          1           0        1.868525    2.782286    0.402754
      5          1           0        1.267297    2.000324   -1.798098
      6         16           0        1.702059   -0.580896    1.615091
      7          8           0        2.625522   -0.466701   -0.871945
      8          6           0        3.286368   -1.735612   -0.675530
      9          1           0        3.779749   -1.943501   -1.621763
     10          1           0        2.551877   -2.505970   -0.437154
     11          1           0        4.009197   -1.660383    0.137938
     12          6           0       -1.913467    0.065769   -0.117587
     13          1           0       -1.868493    2.782267   -0.402792
     14          1           0       -1.267260    2.000352    1.798076
     15         16           0       -1.702082   -0.580898   -1.615089
     16          8           0       -2.625521   -0.466670    0.871953
     17          6           0       -3.286427   -1.735549    0.675537
     18          1           0       -3.779845   -1.943399    1.621759
     19          1           0       -2.551969   -2.505948    0.437193
     20          1           0       -4.009229   -1.660294   -0.137952
 ---------------------------------------------------------------------

 SCF Done:  E(RHF) =  -1682.06781622     A.U. after    2 cycles

 The electronic state is 1-A.
 Alpha  occ. eigenvalues --  -76.23237 -76.23222 -75.66231 -75.66203 -21.11886
 Alpha  occ. eigenvalues --  -21.11879 -13.13637 -13.13403 -13.04501 -13.04393
 Alpha  occ. eigenvalues --  -13.00785 -12.98444 -11.48341 -11.48000 -11.42493
 Alpha  occ. eigenvalues --  -11.42462  -8.00410  -8.00387  -5.56810  -5.56793
 Alpha  occ. eigenvalues --   -2.20734  -2.20690  -2.19054  -2.19044  -2.18812
 Alpha  occ. eigenvalues --   -2.17777  -1.82090  -1.81969  -1.15641  -1.15362
 Alpha  occ. eigenvalues --   -1.02926  -1.02889  -0.86091  -0.81173  -0.73381
 Alpha  occ. eigenvalues --   -0.70353  -0.64207  -0.63378  -0.63323  -0.62516
 Alpha  occ. eigenvalues --   -0.56524  -0.56464  -0.51817  -0.50754  -0.49385
 Alpha  occ. eigenvalues --   -0.49364  -0.46343  -0.46053  -0.38021  -0.36775
 Alpha  occ. eigenvalues --   -0.35288  -0.27521  -0.27112  -0.23139  -0.22672
 Alpha virt. eigenvalues --    0.03030   0.03757   0.04757   0.05760   0.05793
 Alpha virt. eigenvalues --    0.06188   0.06232   0.06697   0.07191   0.07593
 Alpha virt. eigenvalues --    0.07744   0.07833   0.08322   0.08837   0.09110

 Mulliken charges:
               1
     1  Si   4.794317
     2  Si   4.794365
     3  C    0.787316
     4  H   -1.972680
     5  H   -1.789693
     6  S    0.593609
     7  O   -3.502923
     8  C   -3.157433
     9  H    1.376615
    10  H    1.453014
    11  H    1.417800
    12  C    0.787399
    13  H   -1.972678
    14  H   -1.789709
    15  S    0.593596
    16  O   -3.502920
    17  C   -3.157424
    18  H    1.376617
    19  H    1.452997
    20  H    1.417814
 Sum of Mulliken charges =  -0.00000

 Dipole moment (field-independent basis, Debye):
    X=             -0.0002    Y=             -3.3378    Z=             -0.0001  Tot=              3.3378

 Test job not archived.
 1\1\GINC-SE396\SP\RHF\Aug-CC-pVDZ\C4H10O2S2Si2\OHZDE\09-Apr-2025\0\\#t
  hf aug-cc-pvdz iop(5/13=1,5/36=2,99/5=2) pseudo=read geom=check guess
 =(read,tcheck) scf=(maxcycle=1)\\title\\0,1\Si,0,1.125746,1.740984,-0.
 347723\Si,0,-1.125785,1.740985,0.34774\C,0,-1.91352,0.065787,-0.117607
 \H,0,-1.868525,2.782286,-0.402754\H,0,-1.267297,2.000324,1.798098\S,0,
 -1.702059,-0.580896,-1.615091\O,0,-2.625522,-0.466701,0.871945\C,0,-3.
 286368,-1.735612,0.67553\H,0,-3.779749,-1.943501,1.621763\H,0,-2.55187
 7,-2.50597,0.437154\H,0,-4.009197,-1.660383,-0.137938\C,0,1.913467,0.0

 Normal termination of Gaussian 16 at Wed Apr  9 00:15:35 2025.
