 Gaussian 16, Revision C.01,

 ----------------------------------------------------------------------
 #t hf aug-cc-pvdz symm=none int=(grid=ultrafine) guess=(read,tcheck) s
 table=(opt,rrhf)
 ----------------------------------------------------------------------
 -----
 title
 -----
 Symbolic Z-matrix:
 Charge =  0 Multiplicity = 1

 SCF Done:  E(RHF) =  -986.196027312     A.U. after   15 cycles
 Normal termination of Gaussian 16 at Tue Apr  8 23:33:44 2025.
 Gaussian 16:  ES64L-G16RevC.01  3-Jul-2019

 ----------------------------------------------------------------------
 #t hf aug-cc-pvdz iop(5/13=1,5/36=2,99/5=2) pseudo=read geom=check gue
 ss=(read,tcheck) scf=(maxcycle=1)
 ----------------------------------------------------------------------
 -----
 title
 -----
 Structure from the checkpoint file:  "BDE49_nonexpt_1407_mol1.chk"
 Charge =  0 Multiplicity = 1

                         Standard orientation:
 ---------------------------------------------------------------------
 Center     Atomic      Atomic             Coordinates (Angstroms)
 Number     Number       Type             X           Y           Z
 ---------------------------------------------------------------------
      1         15           0        1.083645   -1.340148    0.275384
      2         15           0       -1.083647   -1.340146   -0.275383
      3          6           0        1.608964    0.471743    0.083322
      4          6           0        0.622206    1.564499    0.459494
      5          6           0       -0.622201    1.564495   -0.459489
      6          6           0       -1.608958    0.471744   -0.083304
      7          1           0        1.149550    2.517658    0.386065
      8          1           0        0.311314    1.425947    1.501575
      9          8           0       -2.730097    0.706556    0.289998
     10          8           0        2.730091    0.706552   -0.290017
     11          1           0       -0.311309    1.425932   -1.501568
     12          1           0       -1.149543    2.517655   -0.386071
     13          1           0        1.590117   -1.711262   -0.989380
     14          1           0       -1.590119   -1.711268    0.989378
 ---------------------------------------------------------------------

 SCF Done:  E(RHF) =  -987.897823966     A.U. after    2 cycles

 The electronic state is 1-A.
 Alpha  occ. eigenvalues -- -105.20982-105.20734 -21.08375 -21.08366 -11.51680
 Alpha  occ. eigenvalues --  -11.50799 -11.46042 -11.41186  -2.78809  -2.77909
 Alpha  occ. eigenvalues --   -1.74397  -1.73304  -1.54831  -1.50499  -1.48561
 Alpha  occ. eigenvalues --   -1.47998  -1.46360  -1.34386  -1.23544  -1.01392
 Alpha  occ. eigenvalues --   -0.85786  -0.76845  -0.71752  -0.69503  -0.63143
 Alpha  occ. eigenvalues --   -0.58080  -0.57220  -0.53556  -0.53250  -0.47039
 Alpha  occ. eigenvalues --   -0.44531  -0.40133  -0.39754  -0.22878  -0.21369
 Alpha  occ. eigenvalues --   -0.08575  -0.07336   0.03067
 Alpha virt. eigenvalues --    0.04709   0.05132   0.06089   0.06938   0.07179
 Alpha virt. eigenvalues --    0.07634   0.08173   0.08934   0.09917   0.10685
 Alpha virt. eigenvalues --    0.11392   0.11592   0.11881   0.12795   0.12927

 Mulliken charges:
               1
     1  P    3.913197
     2  P    3.913187
     3  C    2.724682
     4  C   -3.569522
     5  C   -3.569529
     6  C    2.724673
     7  H    0.354593
     8  H    0.810023
     9  O   -3.083832
    10  O   -3.083833
    11  H    0.810031
    12  H    0.354571
    13  H   -1.149132
    14  H   -1.149109
 Sum of Mulliken charges =  -0.00000

 Dipole moment (field-independent basis, Debye):
    X=             -0.0001    Y=            -10.9358    Z=             -0.0001  Tot=             10.9358

 Test job not archived.
 1\1\GINC-SE184\SP\RHF\Aug-CC-pVDZ\C4H6O2P2\OHZDE\08-Apr-2025\0\\#t hf
 aug-cc-pvdz iop(5/13=1,5/36=2,99/5=2) pseudo=read geom=check guess=(re
 ad,tcheck) scf=(maxcycle=1)\\title\\0,1\P,0,-1.083645,-1.340148,-0.275
 384\P,0,1.083647,-1.340146,0.275383\C,0,-1.608964,0.471743,-0.083322\C
 ,0,-0.622206,1.564499,-0.459494\C,0,0.622201,1.564495,0.459489\C,0,1.6
 08958,0.471744,0.083304\H,0,-1.149549,2.517658,-0.386065\H,0,-0.311314
 ,1.425947,-1.501575\O,0,2.730097,0.706556,-0.289998\O,0,-2.730091,0.70
 6553,0.290017\H,0,0.311309,1.425932,1.501568\H,0,1.149544,2.517655,0.3

 Normal termination of Gaussian 16 at Tue Apr  8 23:33:51 2025.
