 Gaussian 16, Revision C.01,

 ----------------------------------------------------------------------
 #t hf aug-cc-pvdz symm=none int=(grid=ultrafine) guess=(read,tcheck) s
 table=(opt,rrhf)
 ----------------------------------------------------------------------
 -----
 title
 -----
 Symbolic Z-matrix:
 Charge =  0 Multiplicity = 1

 SCF Done:  E(RHF) =  -714.239055358     A.U. after   13 cycles
 Normal termination of Gaussian 16 at Tue Apr  8 23:02:04 2025.
 Gaussian 16:  ES64L-G16RevC.01  3-Jul-2019

 ----------------------------------------------------------------------
 #t hf aug-cc-pvdz iop(5/13=1,5/36=2,99/5=2) pseudo=read geom=check gue
 ss=(read,tcheck) scf=(maxcycle=1)
 ----------------------------------------------------------------------
 -----
 title
 -----
 Structure from the checkpoint file:  "BDE49_expt_1869_mol1.chk"
 Charge =  0 Multiplicity = 1

                         Standard orientation:
 ---------------------------------------------------------------------
 Center     Atomic      Atomic             Coordinates (Angstroms)
 Number     Number       Type             X           Y           Z
 ---------------------------------------------------------------------
      1          6           0        2.348467    0.867412   -1.265111
      2          6           0        2.111813    0.038257    0.000041
      3          1           0        3.381791    1.223321   -1.299388
      4          1           0        1.682610    1.730399   -1.285054
      5          1           0        2.159622    0.262819   -2.155402
      6          6           0        2.346309    0.857923    1.271740
      7          1           0        3.379597    1.213490    1.310463
      8          1           0        2.155902    0.246743    2.157192
      9          1           0        1.680485    1.720793    1.296945
     10          6           0        2.958334   -1.238741   -0.004045
     11          1           0        4.019223   -0.977620   -0.002321
     12          1           0        2.749435   -1.837148   -0.893384
     13          1           0        2.748164   -1.843706    0.880547
     14          8           0        0.769839   -0.502777   -0.003185
     15          8           0       -0.183124    0.620060    0.000173
     16         14           0       -1.752104   -0.024581   -0.000018
     17          6           0       -2.796214    1.529928    0.003953
     18          1           0       -2.597601    2.139434    0.889414
     19          1           0       -3.860190    1.272002    0.005238
     20          1           0       -2.600352    2.142005   -0.880350
     21          6           0       -2.030938   -1.048058   -1.542963
     22          1           0       -1.872129   -0.449376   -2.444286
     23          1           0       -3.051670   -1.442662   -1.574564
     24          1           0       -1.340804   -1.894888   -1.575957
     25          6           0       -2.028348   -1.054764    1.538924
     26          1           0       -1.871584   -0.459213    2.442677
     27          1           0       -1.335492   -1.899497    1.568597
     28          1           0       -3.047805   -1.452769    1.568743
 ---------------------------------------------------------------------

 SCF Done:  E(RHF) =  -716.464168071     A.U. after    2 cycles

 The electronic state is 1-A.
 Alpha  occ. eigenvalues --  -76.20115 -21.07500 -21.05483 -11.44738 -11.39226
 Alpha  occ. eigenvalues --  -11.38853 -11.34786 -11.34271 -11.33954 -11.33867
 Alpha  occ. eigenvalues --   -5.54436  -2.20931  -2.17959  -2.17751  -1.89962
 Alpha  occ. eigenvalues --   -1.43948  -1.17846  -1.06357  -1.01052  -1.00998
 Alpha  occ. eigenvalues --   -1.00605  -1.00478  -0.77654  -0.66282  -0.62440
 Alpha  occ. eigenvalues --   -0.61795  -0.60004  -0.56626  -0.56498  -0.55894
 Alpha  occ. eigenvalues --   -0.55382  -0.54586  -0.54345  -0.53958  -0.52855
 Alpha  occ. eigenvalues --   -0.51214  -0.47736  -0.47635  -0.46761  -0.43565
 Alpha  occ. eigenvalues --   -0.40702  -0.38337  -0.37768  -0.32769  -0.25626
 Alpha virt. eigenvalues --    0.03313   0.04796   0.04890   0.05102   0.05204
 Alpha virt. eigenvalues --    0.05262   0.05610   0.06305   0.06355   0.07166
 Alpha virt. eigenvalues --    0.07565   0.07614   0.08587   0.08804   0.09204

 Mulliken charges:
               1
     1  C   -4.538710
     2  C    4.294187
     3  H    1.189736
     4  H    1.393526
     5  H    1.320135
     6  C   -4.540057
     7  H    1.189258
     8  H    1.320805
     9  H    1.393179
    10  C   -3.992031
    11  H    1.170831
    12  H    1.348671
    13  H    1.348071
    14  O   -3.655551
    15  O   -2.978804
    16  Si  12.193489
    17  C   -6.077659
    18  H    1.148488
    19  H    1.153815
    20  H    1.148909
    21  C   -6.332964
    22  H    1.155230
    23  H    1.119900
    24  H    1.143019
    25  C   -6.333307
    26  H    1.155734
    27  H    1.142185
    28  H    1.119917
 Sum of Mulliken charges =   0.00000

 Dipole moment (field-independent basis, Debye):
    X=              0.2056    Y=             -0.1134    Z=              0.0007  Tot=              0.2349

 Test job not archived.
 1\1\GINC-SE232\SP\RHF\Aug-CC-pVDZ\C7H18O2Si1\OHZDE\08-Apr-2025\0\\#t h
 f aug-cc-pvdz iop(5/13=1,5/36=2,99/5=2) pseudo=read geom=check guess=(
 read,tcheck) scf=(maxcycle=1)\\title\\0,1\C,0,2.348467,-0.867412,1.265
 111\C,0,2.111813,-0.038257,-0.000041\H,0,3.381791,-1.223321,1.299388\H
 ,0,1.68261,-1.730399,1.285054\H,0,2.159622,-0.262819,2.155402\C,0,2.34
 6309,-0.857923,-1.27174\H,0,3.379597,-1.21349,-1.310463\H,0,2.155902,-
 0.246743,-2.157192\H,0,1.680485,-1.720793,-1.296945\C,0,2.958334,1.238
 741,0.004045\H,0,4.019223,0.97762,0.002321\H,0,2.749435,1.837148,0.893

 Normal termination of Gaussian 16 at Tue Apr  8 23:02:26 2025.
