 Gaussian 16, Revision C.01,

 ----------------------------------------------------------------------
 #t hf aug-cc-pvdz symm=none int=(grid=ultrafine) guess=(read,tcheck) s
 table=(opt,rrhf)
 ----------------------------------------------------------------------
 -----
 title
 -----
 Symbolic Z-matrix:
 Charge =  0 Multiplicity = 1

 SCF Done:  E(RHF) =  -657.378161181     A.U. after   16 cycles
 Normal termination of Gaussian 16 at Wed Apr  9 00:35:56 2025.
 Gaussian 16:  ES64L-G16RevC.01  3-Jul-2019

 ----------------------------------------------------------------------
 #t hf aug-cc-pvdz iop(5/13=1,5/36=2,99/5=2) pseudo=read geom=check gue
 ss=(read,tcheck) scf=(maxcycle=1)
 ----------------------------------------------------------------------
 -----
 title
 -----
 Structure from the checkpoint file:  "BDE49_nonexpt_436_mol1.chk"
 Charge =  0 Multiplicity = 1

                         Standard orientation:
 ---------------------------------------------------------------------
 Center     Atomic      Atomic             Coordinates (Angstroms)
 Number     Number       Type             X           Y           Z
 ---------------------------------------------------------------------
      1          9           0        3.579818    1.130746   -0.000238
      2          9           0        3.579818   -1.130746   -0.000240
      3          5           0        2.885811    0.000000    0.000310
      4          6           0        1.336119    0.000000    0.000173
      5          6           0        0.622508   -1.209344    0.000115
      6          6           0       -0.766857   -1.219009    0.000007
      7          6           0       -1.435217    0.000000   -0.000045
      8          6           0        0.622508    1.209344    0.000118
      9          1           0        1.162088    2.149043    0.000164
     10          6           0       -0.766857    1.219009    0.000010
     11          1           0       -1.335467    2.138175   -0.000033
     12          7           0       -2.921193    0.000000   -0.000166
     13          8           0       -3.483994   -1.084603    0.000086
     14          8           0       -3.483994    1.084603    0.000088
     15          1           0        1.162088   -2.149043    0.000159
     16          1           0       -1.335467   -2.138175   -0.000038
 ---------------------------------------------------------------------

 SCF Done:  E(RHF) =  -660.079993774     A.U. after    2 cycles

 The electronic state is 1-A.
 Alpha  occ. eigenvalues --  -29.27332 -29.27226 -21.10682 -21.10564 -16.01188
 Alpha  occ. eigenvalues --  -11.56315 -11.49350 -11.48012 -11.46364 -11.45377
 Alpha  occ. eigenvalues --  -11.40891  -7.74444  -2.01031  -1.70324  -1.40242
 Alpha  occ. eigenvalues --   -1.23398  -1.14074  -1.12924  -0.99435  -0.92351
 Alpha  occ. eigenvalues --   -0.84524  -0.76423  -0.76241  -0.70309  -0.68757
 Alpha  occ. eigenvalues --   -0.66011  -0.64831  -0.62753  -0.58557  -0.56241
 Alpha  occ. eigenvalues --   -0.53721  -0.50428  -0.49753  -0.46860  -0.45747
 Alpha  occ. eigenvalues --   -0.37312  -0.37292  -0.36774  -0.35528  -0.34497
 Alpha  occ. eigenvalues --   -0.32343  -0.32342  -0.28171
 Alpha virt. eigenvalues --    0.02485   0.03923   0.04077   0.04459   0.05437
 Alpha virt. eigenvalues --    0.06657   0.07003   0.07268   0.07871   0.09030
 Alpha virt. eigenvalues --    0.09079   0.11552   0.12029   0.12504   0.13031

 Mulliken charges:
               1
     1  F   -0.721026
     2  F   -0.721026
     3  B    0.101760
     4  C   -3.619149
     5  C    0.851204
     6  C   -2.628352
     7  C    3.371448
     8  C    0.851204
     9  H    1.987273
    10  C   -2.628352
    11  H    1.911165
    12  N    3.338459
    13  O   -2.996523
    14  O   -2.996523
    15  H    1.987273
    16  H    1.911165
 Sum of Mulliken charges =  -0.00000

 Dipole moment (field-independent basis, Debye):
    X=              4.7812    Y=              0.0000    Z=             -0.0011  Tot=              4.7812

 Test job not archived.
 1\1\GINC-SE096\SP\RHF\Aug-CC-pVDZ\C6H4B1F2N1O2\OHZDE\09-Apr-2025\0\\#t
  hf aug-cc-pvdz iop(5/13=1,5/36=2,99/5=2) pseudo=read geom=check guess
 =(read,tcheck) scf=(maxcycle=1)\\title\\0,1\F,0,3.579818,1.130746,-0.0
 00238\F,0,3.579818,-1.130746,-0.00024\B,0,2.885811,0.,0.00031\C,0,1.33
 6119,0.,0.000173\C,0,0.622508,-1.209344,0.000115\C,0,-0.766857,-1.2190
 09,0.000007\C,0,-1.435217,0.,-0.000045\C,0,0.622508,1.209344,0.000118\
 H,0,1.162088,2.149043,0.000164\C,0,-0.766857,1.219009,0.00001\H,0,-1.3
 35467,2.138175,-0.000033\N,0,-2.921193,0.,-0.000166\O,0,-3.483994,-1.0

 Normal termination of Gaussian 16 at Wed Apr  9 00:36:05 2025.
