 Gaussian 16, Revision C.01,

 ----------------------------------------------------------------------
 #t hf aug-cc-pvdz symm=none int=(grid=ultrafine) guess=(read,tcheck) s
 table=(opt,rrhf)
 ----------------------------------------------------------------------
 -----
 title
 -----
 Symbolic Z-matrix:
 Charge =  0 Multiplicity = 1

 SCF Done:  E(RHF) =  -767.126420471     A.U. after   14 cycles
 Normal termination of Gaussian 16 at Wed Apr  9 00:11:55 2025.
 Gaussian 16:  ES64L-G16RevC.01  3-Jul-2019

 ----------------------------------------------------------------------
 #t hf aug-cc-pvdz iop(5/13=1,5/36=2,99/5=2) pseudo=read geom=check gue
 ss=(read,tcheck) scf=(maxcycle=1)
 ----------------------------------------------------------------------
 -----
 title
 -----
 Structure from the checkpoint file:  "BDE49_nonexpt_2384_mol1.chk"
 Charge =  0 Multiplicity = 1

                         Standard orientation:
 ---------------------------------------------------------------------
 Center     Atomic      Atomic             Coordinates (Angstroms)
 Number     Number       Type             X           Y           Z
 ---------------------------------------------------------------------
      1         14           0       -1.092499   -0.839583   -0.489581
      2         14           0        1.102972   -0.854404    0.394873
      3          6           0        1.914701    0.860235    0.261092
      4          1           0        1.959538   -1.804577   -0.359520
      5          1           0        1.040495   -1.270601    1.818974
      6          7           0        2.919147    1.171386   -0.460512
      7          1           0        1.480074    1.679820    0.848398
      8          1           0        3.270193    0.357793   -0.976922
      9          6           0       -2.210553    0.352341    0.484213
     10          1           0       -1.648943   -2.214481   -0.419407
     11          1           0       -1.080931   -0.378842   -1.900653
     12          7           0       -2.704813    1.450544    0.064829
     13          1           0       -2.454748    0.088289    1.521975
     14          1           0       -2.437523    1.629454   -0.908976
 ---------------------------------------------------------------------

 SCF Done:  E(RHF) =  -768.295477500     A.U. after    2 cycles

 The electronic state is 1-A.
 Alpha  occ. eigenvalues --  -76.23492 -76.23459 -15.76288 -15.76169 -11.41095
 Alpha  occ. eigenvalues --  -11.40895  -5.57142  -5.57132  -2.21002  -2.20751
 Alpha  occ. eigenvalues --   -2.19424  -2.19333  -2.18937  -2.17921  -1.33476
 Alpha  occ. eigenvalues --   -1.33247  -0.90261  -0.87989  -0.79553  -0.73726
 Alpha  occ. eigenvalues --   -0.59137  -0.58896  -0.57132  -0.55996  -0.49888
 Alpha  occ. eigenvalues --   -0.48932  -0.45961  -0.44222  -0.39015  -0.36088
 Alpha  occ. eigenvalues --   -0.33043
 Alpha virt. eigenvalues --    0.03513   0.04406   0.04836   0.05212   0.06296
 Alpha virt. eigenvalues --    0.06423   0.07104   0.07252   0.07782   0.08127
 Alpha virt. eigenvalues --    0.08486   0.08918   0.09070   0.09452   0.10692

 Mulliken charges:
               1
     1  Si   4.356436
     2  Si   4.445510
     3  C   -0.698518
     4  H   -1.737755
     5  H   -1.765147
     6  N   -2.479425
     7  H    1.459039
     8  H    0.756761
     9  C   -0.724491
    10  H   -1.797915
    11  H   -1.646359
    12  N   -2.415706
    13  H    1.498584
    14  H    0.748986
 Sum of Mulliken charges =  -0.00000

 Dipole moment (field-independent basis, Debye):
    X=              0.0125    Y=             -1.7894    Z=             -0.1676  Tot=              1.7972

 Test job not archived.
 1\1\GINC-SE333\SP\RHF\Aug-CC-pVDZ\C2H8N2Si2\OHZDE\09-Apr-2025\0\\#t hf
  aug-cc-pvdz iop(5/13=1,5/36=2,99/5=2) pseudo=read geom=check guess=(r
 ead,tcheck) scf=(maxcycle=1)\\title\\0,1\Si,0,-1.092499,-0.839583,-0.4
 89581\Si,0,1.102972,-0.854404,0.394873\C,0,1.914701,0.860235,0.261092\
 H,0,1.959538,-1.804577,-0.35952\H,0,1.040495,-1.270601,1.818974\N,0,2.
 919147,1.171386,-0.460512\H,0,1.480074,1.67982,0.848398\H,0,3.270193,0
 .357793,-0.976922\C,0,-2.210553,0.352341,0.484213\H,0,-1.648943,-2.214
 481,-0.419407\H,0,-1.080931,-0.378842,-1.900653\N,0,-2.704813,1.450544

 Normal termination of Gaussian 16 at Wed Apr  9 00:11:59 2025.
