 Gaussian 16, Revision C.01,

 ----------------------------------------------------------------------
 #t hf aug-cc-pvdz symm=none int=(grid=ultrafine) guess=(read,tcheck) s
 table=(opt,rrhf)
 ----------------------------------------------------------------------
 -----
 title
 -----
 Symbolic Z-matrix:
 Charge =  0 Multiplicity = 1

 SCF Done:  E(RHF) =  -500.786351741     A.U. after   14 cycles
 Normal termination of Gaussian 16 at Tue Apr  8 22:47:23 2025.
 Gaussian 16:  ES64L-G16RevC.01  3-Jul-2019

 ----------------------------------------------------------------------
 #t hf aug-cc-pvdz iop(5/13=1,5/36=2,99/5=2) pseudo=read geom=check gue
 ss=(read,tcheck) scf=(maxcycle=1)
 ----------------------------------------------------------------------
 -----
 title
 -----
 Structure from the checkpoint file:  "BDE49_expt_1433_mol1.chk"
 Charge =  0 Multiplicity = 1

                         Standard orientation:
 ---------------------------------------------------------------------
 Center     Atomic      Atomic             Coordinates (Angstroms)
 Number     Number       Type             X           Y           Z
 ---------------------------------------------------------------------
      1          6           0       -2.070615   -0.650982    0.378028
      2          8           0       -1.553652    0.280363   -0.586582
      3          6           0        0.819016    0.409115    0.007264
      4          6           0        1.207344   -0.537815   -0.945809
      5          6           0        1.691752    0.702361    1.057446
      6          6           0        2.931937    0.072734    1.152079
      7          6           0        3.311029   -0.866536    0.196382
      8          6           0        2.443282   -1.171451   -0.851808
      9          1           0        0.527003   -0.779452   -1.754173
     10          1           0        2.730641   -1.905393   -1.596918
     11          1           0        1.398249    1.427936    1.810424
     12          1           0        3.597038    0.310338    1.975093
     13          1           0        4.272944   -1.361472    0.269747
     14          6           0       -0.512568    1.138637   -0.124375
     15          6           0       -0.434191    2.294036   -1.122245
     16          1           0       -0.775896    1.547019    0.861501
     17          1           0        0.346263    3.001746   -0.833594
     18          1           0       -1.392788    2.815859   -1.164530
     19          1           0       -0.202937    1.912353   -2.119444
     20          6           0       -2.648901   -1.817460   -0.413108
     21          6           0       -3.118446    0.020506    1.267858
     22          1           0       -1.242418   -1.015592    1.000337
     23          1           0       -3.954922    0.375954    0.659975
     24          1           0       -2.701274    0.874708    1.806916
     25          1           0       -3.503432   -0.683918    2.010935
     26          1           0       -3.422728   -1.458419   -1.097151
     27          1           0       -3.094224   -2.558479    0.256080
     28          1           0       -1.870133   -2.304968   -1.002803
 ---------------------------------------------------------------------

 SCF Done:  E(RHF) =  -503.225857800     A.U. after    2 cycles

 The electronic state is 1-A.
 Alpha  occ. eigenvalues --  -21.02921 -11.52340 -11.47077 -11.44365 -11.43208
 Alpha  occ. eigenvalues --  -11.42825 -11.40568 -11.40347 -11.38951 -11.38021
 Alpha  occ. eigenvalues --  -11.35716 -11.35233  -1.74810  -1.34097  -1.19021
 Alpha  occ. eigenvalues --   -1.12736  -1.08708  -1.05305  -1.00397  -0.90372
 Alpha  occ. eigenvalues --   -0.86140  -0.83513  -0.79900  -0.70619  -0.66107
 Alpha  occ. eigenvalues --   -0.65013  -0.62503  -0.60076  -0.57604  -0.57103
 Alpha  occ. eigenvalues --   -0.55870  -0.55090  -0.54487  -0.53375  -0.50790
 Alpha  occ. eigenvalues --   -0.48913  -0.48590  -0.47265  -0.44200  -0.43262
 Alpha  occ. eigenvalues --   -0.42604  -0.35917  -0.32708  -0.31880  -0.28642
 Alpha virt. eigenvalues --    0.03664   0.04400   0.04846   0.05032   0.05082
 Alpha virt. eigenvalues --    0.05724   0.06199   0.06285   0.06853   0.06996
 Alpha virt. eigenvalues --    0.07585   0.08119   0.08595   0.09035   0.09386

 Mulliken charges:
               1
     1  C   -0.403858
     2  O   -4.195901
     3  C    5.344217
     4  C   -2.448527
     5  C   -2.754577
     6  C   -1.949988
     7  C   -3.339385
     8  C   -1.722132
     9  H    1.982068
    10  H    1.534990
    11  H    1.821416
    12  H    1.547001
    13  H    1.607376
    14  C   -0.038021
    15  C   -4.999021
    16  H    1.870281
    17  H    1.271536
    18  H    1.400059
    19  H    1.343721
    20  C   -4.103350
    21  C   -4.060571
    22  H    2.370321
    23  H    1.362779
    24  H    1.468948
    25  H    1.199139
    26  H    1.345393
    27  H    1.198276
    28  H    1.347810
 Sum of Mulliken charges =   0.00000

 Dipole moment (field-independent basis, Debye):
    X=              0.0541    Y=             -0.1434    Z=              0.3092  Tot=              0.3451

 Test job not archived.
 1\1\GINC-SE398\SP\RHF\Aug-CC-pVDZ\C11H16O1\OHZDE\08-Apr-2025\0\\#t hf
 aug-cc-pvdz iop(5/13=1,5/36=2,99/5=2) pseudo=read geom=check guess=(re
 ad,tcheck) scf=(maxcycle=1)\\title\\0,1\C,0,-2.070615,-0.650982,0.3780
 28\O,0,-1.553652,0.280363,-0.586582\C,0,0.819016,0.409115,0.007264\C,0
 ,1.207344,-0.537815,-0.945809\C,0,1.691752,0.702361,1.057446\C,0,2.931
 937,0.072734,1.152079\C,0,3.311029,-0.866536,0.196382\C,0,2.443282,-1.
 171451,-0.851808\H,0,0.527003,-0.779452,-1.754173\H,0,2.730641,-1.9053
 93,-1.596918\H,0,1.398249,1.427936,1.810424\H,0,3.597038,0.310338,1.97

 Normal termination of Gaussian 16 at Tue Apr  8 22:47:46 2025.
