 Gaussian 16, Revision C.01,

 ----------------------------------------------------------------------
 #t hf aug-cc-pvdz symm=none int=(grid=ultrafine) guess=(read,tcheck) s
 table=(opt,rrhf)
 ----------------------------------------------------------------------
 -----
 title
 -----
 Symbolic Z-matrix:
 Charge =  0 Multiplicity = 1

 SCF Done:  E(RHF) =  -305.601646251     A.U. after   14 cycles
 Normal termination of Gaussian 16 at Tue Apr  8 22:41:47 2025.
 Gaussian 16:  ES64L-G16RevC.01  3-Jul-2019

 ----------------------------------------------------------------------
 #t hf aug-cc-pvdz iop(5/13=1,5/36=2,99/5=2) pseudo=read geom=check gue
 ss=(read,tcheck) scf=(maxcycle=1)
 ----------------------------------------------------------------------
 -----
 title
 -----
 Structure from the checkpoint file:  "BDE49_expt_1340_mol1.chk"
 Charge =  0 Multiplicity = 1

                         Standard orientation:
 ---------------------------------------------------------------------
 Center     Atomic      Atomic             Coordinates (Angstroms)
 Number     Number       Type             X           Y           Z
 ---------------------------------------------------------------------
      1          6           0        1.854544    0.027319   -0.000001
      2          6           0        1.169393   -1.188282    0.000000
      3          6           0       -0.220292   -1.221064    0.000000
      4          6           0        1.130698    1.216584    0.000000
      5          6           0       -0.262526    1.196860    0.000000
      6          6           0       -0.940299   -0.024158    0.000000
      7          1           0        2.937752    0.045722   -0.000001
      8          1           0        1.721690   -2.121452   -0.000001
      9          1           0       -0.764844   -2.157488    0.000000
     10          1           0        1.648305    2.169358    0.000000
     11          1           0       -0.822797    2.127754    0.000000
     12          8           0       -2.304034   -0.110540    0.000000
     13          1           0       -2.676939    0.776871    0.000002
 ---------------------------------------------------------------------

 SCF Done:  E(RHF) =  -307.012343498     A.U. after    2 cycles

 The electronic state is 1-A.
 Alpha  occ. eigenvalues --  -21.10406 -11.52146 -11.45260 -11.42657 -11.40356
 Alpha  occ. eigenvalues --  -11.39996 -11.36350  -1.75776  -1.31677  -1.09536
 Alpha  occ. eigenvalues --   -1.06672  -0.87575  -0.84616  -0.71319  -0.67041
 Alpha  occ. eigenvalues --   -0.61851  -0.58335  -0.56815  -0.53773  -0.49399
 Alpha  occ. eigenvalues --   -0.45462  -0.42699  -0.41804  -0.33397  -0.27028
 Alpha virt. eigenvalues --    0.03350   0.04838   0.05217   0.05958   0.06594
 Alpha virt. eigenvalues --    0.07426   0.11089   0.11168   0.12686   0.13560
 Alpha virt. eigenvalues --    0.14050   0.14051   0.14066   0.14655   0.14701

 Mulliken charges:
               1
     1  C   -2.554407
     2  C    0.155134
     3  C   -3.389049
     4  C    0.029294
     5  C   -4.585877
     6  C    5.948887
     7  H    1.515670
     8  H    1.475689
     9  H    1.685111
    10  H    1.465438
    11  H    1.639225
    12  O   -4.411273
    13  H    1.026158
 Sum of Mulliken charges =   0.00000

 Dipole moment (field-independent basis, Debye):
    X=             -0.3692    Y=              0.5895    Z=              0.0000  Tot=              0.6956

 Test job not archived.
 1\1\GINC-SE329\SP\RHF\Aug-CC-pVDZ\C6H6O1\OHZDE\08-Apr-2025\0\\#t hf au
 g-cc-pvdz iop(5/13=1,5/36=2,99/5=2) pseudo=read geom=check guess=(read
 ,tcheck) scf=(maxcycle=1)\\title\\0,1\C,0,-1.854544,0.027319,0.000001\
 C,0,-1.169393,-1.188282,0.\C,0,0.220292,-1.221064,0.\C,0,-1.130698,1.2
 16584,0.\C,0,0.262526,1.19686,0.\C,0,0.940299,-0.024158,0.\H,0,-2.9377
 52,0.045722,0.000001\H,0,-1.72169,-2.121452,0.000001\H,0,0.764844,-2.1
 57488,0.\H,0,-1.648305,2.169358,0.\H,0,0.822797,2.127754,0.\O,0,2.3040
 34,-0.11054,0.\H,0,2.676939,0.776871,-0.000002\\Version=ES64L-G16RevC.

 Normal termination of Gaussian 16 at Tue Apr  8 22:41:51 2025.
