 Gaussian 16, Revision C.01,

 ----------------------------------------------------------------------
 #t hf aug-cc-pvdz symm=none int=(grid=ultrafine) guess=(read,tcheck) s
 table=(opt,rrhf)
 ----------------------------------------------------------------------
 -----
 title
 -----
 Symbolic Z-matrix:
 Charge =  0 Multiplicity = 1

 SCF Done:  E(RHF) =  -835.796256574     A.U. after   16 cycles
 Normal termination of Gaussian 16 at Tue Apr  8 23:31:00 2025.
 Gaussian 16:  ES64L-G16RevC.01  3-Jul-2019

 ----------------------------------------------------------------------
 #t hf aug-cc-pvdz iop(5/13=1,5/36=2,99/5=2) pseudo=read geom=check gue
 ss=(read,tcheck) scf=(maxcycle=1)
 ----------------------------------------------------------------------
 -----
 title
 -----
 Structure from the checkpoint file:  "BDE49_nonexpt_1327_mol1.chk"
 Charge =  0 Multiplicity = 1

                         Standard orientation:
 ---------------------------------------------------------------------
 Center     Atomic      Atomic             Coordinates (Angstroms)
 Number     Number       Type             X           Y           Z
 ---------------------------------------------------------------------
      1          6           0       -2.358800   -1.531942   -0.011774
      2          6           0       -0.969370   -1.466022   -0.026916
      3          6           0       -3.095172   -0.352723    0.014898
      4          6           0       -2.443756    0.878897    0.025848
      5          6           0       -1.049937    0.974576    0.010974
      6          6           0       -0.311884   -0.229395   -0.016795
      7          1           0       -2.857022   -2.494212   -0.020999
      8          1           0       -0.372328   -2.369453   -0.048402
      9         15           0        1.484006   -0.321028   -0.015239
     10          8           0        2.032670   -1.683995    0.031725
     11          8           0        2.019936    0.603911    1.203439
     12          1           0       -3.029682    1.791680    0.046807
     13          1           0       -4.179071   -0.386516    0.027472
     14          6           0       -0.395146    2.334507    0.017953
     15          1           0       -1.146775    3.121748    0.092569
     16          1           0        0.183606    2.494111   -0.894882
     17          1           0        0.297986    2.435364    0.856049
     18          1           0        2.294199    0.051896    1.945785
     19          8           0        1.880794    0.577541   -1.283185
     20          1           0        2.826196    0.543768   -1.476787
 ---------------------------------------------------------------------

 SCF Done:  E(RHF) =  -838.239952102     A.U. after    2 cycles

 The electronic state is 1-A.
 Alpha  occ. eigenvalues -- -105.30194 -21.11252 -21.10832 -21.01523 -11.52777
 Alpha  occ. eigenvalues --  -11.46077 -11.44257 -11.42417 -11.41704 -11.38997
 Alpha  occ. eigenvalues --  -11.37219  -2.92416  -1.97155  -1.88754  -1.81449
 Alpha  occ. eigenvalues --   -1.56115  -1.39720  -1.34565  -1.25568  -1.15257
 Alpha  occ. eigenvalues --   -1.08543  -0.99968  -0.86406  -0.83612  -0.71733
 Alpha  occ. eigenvalues --   -0.68234  -0.62850  -0.61572  -0.61302  -0.57533
 Alpha  occ. eigenvalues --   -0.56748  -0.54623  -0.52925  -0.49990  -0.48117
 Alpha  occ. eigenvalues --   -0.45121  -0.44258  -0.40832  -0.35054  -0.34499
 Alpha  occ. eigenvalues --   -0.33426  -0.32676  -0.29231  -0.24926  -0.15309
 Alpha virt. eigenvalues --    0.03263   0.04801   0.05293   0.05711   0.05940
 Alpha virt. eigenvalues --    0.06510   0.07045   0.07687   0.08254   0.09565
 Alpha virt. eigenvalues --    0.10321   0.11201   0.11559   0.11769   0.12513

 Mulliken charges:
               1
     1  C   -2.684716
     2  C   -4.475510
     3  C   -2.250199
     4  C   -0.415908
     5  C    2.371509
     6  C    1.222188
     7  H    1.582809
     8  H    1.930998
     9  P    9.162224
    10  O   -2.865032
    11  O   -2.878422
    12  H    1.782969
    13  H    1.515396
    14  C   -5.992371
    15  H    1.229150
    16  H    1.159581
    17  H    1.033320
    18  H    0.750426
    19  O   -3.127933
    20  H    0.949520
 Sum of Mulliken charges =  -0.00000

 Dipole moment (field-independent basis, Debye):
    X=             -1.6782    Y=              2.8692    Z=              0.1141  Tot=              3.3259

 Test job not archived.
 1\1\GINC-SE339\SP\RHF\Aug-CC-pVDZ\C7H9O3P1\OHZDE\08-Apr-2025\0\\#t hf
 aug-cc-pvdz iop(5/13=1,5/36=2,99/5=2) pseudo=read geom=check guess=(re
 ad,tcheck) scf=(maxcycle=1)\\title\\0,1\C,0,-2.3588,-1.531942,-0.01177
 4\C,0,-0.96937,-1.466022,-0.026916\C,0,-3.095172,-0.352723,0.014898\C,
 0,-2.443756,0.878897,0.025848\C,0,-1.049937,0.974576,0.010974\C,0,-0.3
 11884,-0.229395,-0.016795\H,0,-2.857022,-2.494212,-0.020999\H,0,-0.372
 328,-2.369453,-0.048402\P,0,1.484006,-0.321028,-0.015239\O,0,2.03267,-
 1.683995,0.031725\O,0,2.019936,0.603911,1.203439\H,0,-3.029682,1.79168

 Normal termination of Gaussian 16 at Tue Apr  8 23:31:13 2025.
