 Gaussian 16, Revision C.01,

 ----------------------------------------------------------------------
 #t hf aug-cc-pvdz symm=none int=(grid=ultrafine) guess=(read,tcheck) s
 table=(opt,rrhf)
 ----------------------------------------------------------------------
 -----
 title
 -----
 Symbolic Z-matrix:
 Charge =  0 Multiplicity = 1

 SCF Done:  E(RHF) =  -650.118102071     A.U. after   15 cycles

 1\1\GINC-SE036\Stability\RHF\Aug-CC-pVDZ\C8H11P1\OHZDE\08-Apr-2025\0\\
 #t hf aug-cc-pvdz symm=none int=(grid=ultrafine) guess=(read,tcheck) s
 table=(opt,rrhf)\\title\\0,1\C,0,-2.50185,-0.171329,0.590353\P,0,-1.49
 8808,-0.737715,-0.888998\C,0,0.217556,-0.280092,-0.394418\C,0,0.851873
 ,0.898348,-0.810883\C,0,0.943229,-1.181667,0.398082\C,0,2.251369,-0.90
 3009,0.784093\C,0,2.868667,0.273667,0.363386\C,0,2.167495,1.169923,-0.
 439857\H,0,3.89095,0.48712,0.654592\H,0,2.642359,2.085643,-0.774893\H,
 0,0.314971,1.609311,-1.428883\H,0,0.483501,-2.115039,0.708056\H,0,2.79

 Normal termination of Gaussian 16 at Tue Apr  8 23:31:23 2025.
 Gaussian 16:  ES64L-G16RevC.01  3-Jul-2019

 ----------------------------------------------------------------------
 #t hf aug-cc-pvdz iop(5/13=1,5/36=2,99/5=2) pseudo=read geom=check gue
 ss=(read,tcheck) scf=(maxcycle=1)
 ----------------------------------------------------------------------
 -----
 title
 -----
 Structure from the checkpoint file:  "BDE49_nonexpt_1336_mol1.chk"
 Charge =  0 Multiplicity = 1

                         Standard orientation:
 ---------------------------------------------------------------------
 Center     Atomic      Atomic             Coordinates (Angstroms)
 Number     Number       Type             X           Y           Z
 ---------------------------------------------------------------------
      1          6           0       -2.501850   -0.171329    0.590353
      2         15           0       -1.498808   -0.737715   -0.888998
      3          6           0        0.217556   -0.280092   -0.394418
      4          6           0        0.851873    0.898348   -0.810883
      5          6           0        0.943229   -1.181667    0.398082
      6          6           0        2.251369   -0.903009    0.784093
      7          6           0        2.868667    0.273667    0.363386
      8          6           0        2.167495    1.169923   -0.439857
      9          1           0        3.890950    0.487120    0.654592
     10          1           0        2.642359    2.085643   -0.774893
     11          1           0        0.314971    1.609311   -1.428883
     12          1           0        0.483501   -2.115039    0.708056
     13          1           0        2.793299   -1.610502    1.402014
     14          6           0       -2.334148    1.277653    1.050522
     15          1           0       -2.259776   -0.865734    1.401817
     16          1           0       -3.544964   -0.374711    0.323854
     17          1           0       -1.298148    1.491266    1.322253
     18          1           0       -2.959585    1.484506    1.924940
     19          1           0       -2.623199    1.978099    0.261876
     20          1           0       -1.742434    0.394804   -1.708329
 ---------------------------------------------------------------------

 SCF Done:  E(RHF) =  -651.842870074     A.U. after    2 cycles

 The electronic state is 1-A.
 Alpha  occ. eigenvalues -- -105.17106 -11.51487 -11.43183 -11.42932 -11.40864
 Alpha  occ. eigenvalues --  -11.40562 -11.39978 -11.36288 -11.35685  -2.74672
 Alpha  occ. eigenvalues --   -1.50539  -1.46066  -1.44648  -1.32552  -1.12861
 Alpha  occ. eigenvalues --   -1.09161  -1.07430  -0.88615  -0.86257  -0.83786
 Alpha  occ. eigenvalues --   -0.72804  -0.67523  -0.62377  -0.61204  -0.58299
 Alpha  occ. eigenvalues --   -0.56566  -0.55702  -0.50479  -0.49861  -0.49037
 Alpha  occ. eigenvalues --   -0.48879  -0.44713  -0.33865  -0.33118  -0.24748
 Alpha  occ. eigenvalues --   -0.19638  -0.00919
 Alpha virt. eigenvalues --    0.03602   0.04951   0.05266   0.05462   0.06195
 Alpha virt. eigenvalues --    0.06592   0.06847   0.06934   0.07407   0.08549
 Alpha virt. eigenvalues --    0.08828   0.10029   0.11083   0.11452   0.11560

 Mulliken charges:
               1
     1  C   -3.995442
     2  P    3.356809
     3  C    3.457405
     4  C   -3.700234
     5  C   -4.660606
     6  C   -0.962722
     7  C   -2.408758
     8  C   -0.501943
     9  H    1.435279
    10  H    1.446216
    11  H    1.990331
    12  H    1.844469
    13  H    1.573707
    14  C   -4.373271
    15  H    1.435138
    16  H    1.274785
    17  H    1.499673
    18  H    1.096615
    19  H    1.309991
    20  H   -1.117443
 Sum of Mulliken charges =   0.00000

 Dipole moment (field-independent basis, Debye):
    X=              0.5450    Y=              0.1892    Z=              0.6189  Tot=              0.8461

 Test job not archived.
 1\1\GINC-SE036\SP\RHF\Aug-CC-pVDZ\C8H11P1\OHZDE\08-Apr-2025\0\\#t hf a
 ug-cc-pvdz iop(5/13=1,5/36=2,99/5=2) pseudo=read geom=check guess=(rea
 d,tcheck) scf=(maxcycle=1)\\title\\0,1\C,0,-2.50185,-0.171329,0.590353
 \P,0,-1.498808,-0.737715,-0.888998\C,0,0.217556,-0.280092,-0.394418\C,
 0,0.851873,0.898348,-0.810883\C,0,0.943229,-1.181667,0.398082\C,0,2.25
 1369,-0.903009,0.784093\C,0,2.868667,0.273667,0.363386\C,0,2.167495,1.
 169923,-0.439857\H,0,3.89095,0.48712,0.654592\H,0,2.642359,2.085643,-0
 .774893\H,0,0.314971,1.609311,-1.428883\H,0,0.483501,-2.115039,0.70805

 Normal termination of Gaussian 16 at Tue Apr  8 23:31:33 2025.
