 Gaussian 16, Revision C.01,

 ----------------------------------------------------------------------
 #t hf aug-cc-pvdz symm=none int=(grid=ultrafine) guess=(read,tcheck) s
 table=(opt,rrhf)
 ----------------------------------------------------------------------
 -----
 title
 -----
 Symbolic Z-matrix:
 Charge =  0 Multiplicity = 1

 SCF Done:  E(RHF) =  -561.387603794     A.U. after   11 cycles
 Normal termination of Gaussian 16 at Tue Apr  8 22:45:23 2025.
 Gaussian 16:  ES64L-G16RevC.01  3-Jul-2019

 ----------------------------------------------------------------------
 #t hf aug-cc-pvdz iop(5/13=1,5/36=2,99/5=2) pseudo=read geom=check gue
 ss=(read,tcheck) scf=(maxcycle=1)
 ----------------------------------------------------------------------
 -----
 title
 -----
 Structure from the checkpoint file:  "BDE49_expt_1491_mol1.chk"
 Charge =  0 Multiplicity = 1

                         Standard orientation:
 ---------------------------------------------------------------------
 Center     Atomic      Atomic             Coordinates (Angstroms)
 Number     Number       Type             X           Y           Z
 ---------------------------------------------------------------------
      1          6           0       -1.892230   -0.462249    0.000013
      2          8           0       -0.785545    0.432383   -0.000022
      3         14           0        0.828054    0.032649    0.000001
      4          6           0        1.730183    1.670588   -0.000062
      5          1           0        1.469660    2.259774   -0.883726
      6          1           0        2.814970    1.524715   -0.000051
      7          1           0        1.469652    2.259847    0.883552
      8          6           0        1.258131   -0.966873    1.533471
      9          1           0        1.011889   -0.417210    2.446830
     10          1           0        2.329395   -1.192094    1.559214
     11          1           0        0.724552   -1.922031    1.562781
     12          6           0        1.258145   -0.967000   -1.533382
     13          1           0        1.011913   -0.417411   -2.446788
     14          1           0        0.724565   -1.922159   -1.562619
     15          1           0        2.329409   -1.192223   -1.559096
     16          6           0       -3.182545    0.340820   -0.000026
     17          1           0       -1.853830   -1.111433    0.885382
     18          1           0       -1.853824   -1.111509   -0.885300
     19          1           0       -3.233099    0.979505    0.884803
     20          1           0       -4.050659   -0.325069    0.000000
     21          1           0       -3.233093    0.979429   -0.884911
 ---------------------------------------------------------------------

 SCF Done:  E(RHF) =  -562.902274500     A.U. after    2 cycles

 The electronic state is 1-A.
 Alpha  occ. eigenvalues --  -76.19611 -21.02046 -11.43067 -11.35868 -11.33915
 Alpha  occ. eigenvalues --  -11.33757 -11.33622  -5.53979  -2.20944  -2.17339
 Alpha  occ. eigenvalues --   -2.17067  -1.68227  -1.11254  -1.06013  -1.00587
 Alpha  occ. eigenvalues --   -1.00348  -0.86663  -0.66478  -0.63793  -0.58147
 Alpha  occ. eigenvalues --   -0.56260  -0.55851  -0.54868  -0.54413  -0.54117
 Alpha  occ. eigenvalues --   -0.52734  -0.51845  -0.50027  -0.46465  -0.40822
 Alpha  occ. eigenvalues --   -0.39454  -0.33594  -0.32140
 Alpha virt. eigenvalues --    0.03180   0.05085   0.05537   0.05554   0.05854
 Alpha virt. eigenvalues --    0.05936   0.06138   0.06386   0.06462   0.07904
 Alpha virt. eigenvalues --    0.08305   0.08616   0.08890   0.09648   0.10499

 Mulliken charges:
               1
     1  C   -1.850422
     2  O   -4.501618
     3  Si  11.174464
     4  C   -6.018119
     5  H    1.183717
     6  H    1.199952
     7  H    1.183715
     8  C   -6.060324
     9  H    1.137025
    10  H    1.116586
    11  H    1.092530
    12  C   -6.060325
    13  H    1.137025
    14  H    1.092529
    15  H    1.116586
    16  C   -3.933033
    17  H    1.620948
    18  H    1.620947
    19  H    1.293314
    20  H    1.161188
    21  H    1.293314
 Sum of Mulliken charges =  -0.00000

 Dipole moment (field-independent basis, Debye):
    X=             -0.0819    Y=             -0.2179    Z=              0.0000  Tot=              0.2328

 Test job not archived.
 1\1\GINC-SE455\SP\RHF\Aug-CC-pVDZ\C5H14O1Si1\OHZDE\08-Apr-2025\0\\#t h
 f aug-cc-pvdz iop(5/13=1,5/36=2,99/5=2) pseudo=read geom=check guess=(
 read,tcheck) scf=(maxcycle=1)\\title\\0,1\C,0,-1.89223,-0.462249,0.000
 013\O,0,-0.785545,0.432383,-0.000022\Si,0,0.828054,0.032649,0.000001\C
 ,0,1.730183,1.670588,-0.000062\H,0,1.46966,2.259774,-0.883726\H,0,2.81
 497,1.524715,-0.000051\H,0,1.469652,2.259847,0.883552\C,0,1.258131,-0.
 966873,1.533471\H,0,1.011889,-0.41721,2.44683\H,0,2.329395,-1.192094,1
 .559214\H,0,0.724552,-1.922031,1.562781\C,0,1.258145,-0.967,-1.533382\

 Normal termination of Gaussian 16 at Tue Apr  8 22:45:32 2025.
