 Gaussian 16, Revision C.01,

 ----------------------------------------------------------------------
 #t hf aug-cc-pvdz symm=none int=(grid=ultrafine) guess=(read,tcheck) s
 table=(opt,rrhf)
 ----------------------------------------------------------------------
 -----
 title
 -----
 Symbolic Z-matrix:
 Charge =  0 Multiplicity = 1

 SCF Done:  E(RHF) =  -1103.16856193     A.U. after   16 cycles
 Normal termination of Gaussian 16 at Wed Apr  9 00:20:28 2025.
 Gaussian 16:  ES64L-G16RevC.01  3-Jul-2019

 ----------------------------------------------------------------------
 #t hf aug-cc-pvdz iop(5/13=1,5/36=2,99/5=2) pseudo=read geom=check gue
 ss=(read,tcheck) scf=(maxcycle=1)
 ----------------------------------------------------------------------
 -----
 title
 -----
 Structure from the checkpoint file:  "BDE49_nonexpt_2597_mol1.chk"
 Charge =  0 Multiplicity = 1

                         Standard orientation:
 ---------------------------------------------------------------------
 Center     Atomic      Atomic             Coordinates (Angstroms)
 Number     Number       Type             X           Y           Z
 ---------------------------------------------------------------------
      1         17           0        2.528235    0.129545   -0.826696
      2         16           0        1.436163   -0.156916    0.949663
      3          6           0       -0.235778   -0.042710    0.374849
      4          6           0       -0.895736    1.187627    0.295108
      5          6           0       -0.947603   -1.206652    0.053186
      6          7           0       -2.226211   -1.202276   -0.322427
      7          6           0       -2.226570    1.198201   -0.100657
      8          6           0       -2.842331   -0.017937   -0.396608
      9          1           0       -0.369492    2.102600    0.538526
     10          1           0       -2.780992    2.125699   -0.177621
     11          1           0       -0.453854   -2.171845    0.108125
     12          1           0       -3.882676   -0.043309   -0.708083
 ---------------------------------------------------------------------

 SCF Done:  E(RHF) =  -1104.78074207     A.U. after    2 cycles

 The electronic state is 1-A.
 Alpha  occ. eigenvalues --  -99.90482 -75.75282 -15.75764 -13.23347 -13.11738
 Alpha  occ. eigenvalues --  -13.10568 -11.50339 -11.47436 -11.46233 -11.44184
 Alpha  occ. eigenvalues --  -11.40474 -10.47550  -9.67326  -9.66715  -9.66598
 Alpha  occ. eigenvalues --   -8.08971  -1.47437  -1.33457  -1.22433  -1.15862
 Alpha  occ. eigenvalues --   -1.04828  -0.91695  -0.87959  -0.74734  -0.65268
 Alpha  occ. eigenvalues --   -0.63441  -0.60008  -0.58044  -0.57640  -0.54694
 Alpha  occ. eigenvalues --   -0.54304  -0.52346  -0.43218  -0.39387  -0.37162
 Alpha  occ. eigenvalues --   -0.36472  -0.26314
 Alpha virt. eigenvalues --    0.02424   0.03727   0.05020   0.05255   0.05812
 Alpha virt. eigenvalues --    0.06937   0.08004   0.09212   0.09532   0.11358
 Alpha virt. eigenvalues --    0.12094   0.12505   0.12868   0.13406   0.13533

 Mulliken charges:
               1
     1  Cl  -0.317666
     2  S    0.724953
     3  C    1.298040
     4  C   -0.960193
     5  C   -1.645382
     6  N   -3.569223
     7  C   -0.837387
     8  C   -1.067912
     9  H    1.816332
    10  H    1.410826
    11  H    1.604498
    12  H    1.543115
 Sum of Mulliken charges =  -0.00000

 Dipole moment (field-independent basis, Debye):
    X=             -2.2919    Y=              1.1892    Z=              2.8711  Tot=              3.8614

 Test job not archived.
 1\1\GINC-SE150\SP\RHF\Aug-CC-pVDZ\C5H4Cl1N1S1\OHZDE\09-Apr-2025\0\\#t
 hf aug-cc-pvdz iop(5/13=1,5/36=2,99/5=2) pseudo=read geom=check guess=
 (read,tcheck) scf=(maxcycle=1)\\title\\0,1\Cl,0,2.528235,0.129545,-0.8
 26696\S,0,1.436163,-0.156916,0.949663\C,0,-0.235778,-0.04271,0.374849\
 C,0,-0.895736,1.187627,0.295108\C,0,-0.947603,-1.206652,0.053186\N,0,-
 2.226211,-1.202276,-0.322427\C,0,-2.22657,1.198201,-0.100657\C,0,-2.84
 2331,-0.017937,-0.396608\H,0,-0.369492,2.1026,0.538526\H,0,-2.780992,2
 .125699,-0.177621\H,0,-0.453854,-2.171845,0.108125\H,0,-3.882676,-0.04

 Normal termination of Gaussian 16 at Wed Apr  9 00:20:34 2025.
