 Gaussian 16, Revision C.01,

 ----------------------------------------------------------------------
 #t hf aug-cc-pvdz symm=none int=(grid=ultrafine) guess=(read,tcheck) s
 table=(opt,rrhf)
 ----------------------------------------------------------------------
 -----
 title
 -----
 Symbolic Z-matrix:
 Charge =  0 Multiplicity = 1

 SCF Done:  E(RHF) =  -1075.16874798     A.U. after   12 cycles

 1\1\GINC-SE090\Stability\RHF\Aug-CC-pVDZ\C4H8Cl2\OHZDE\08-Apr-2025\0\\
 #t hf aug-cc-pvdz symm=none int=(grid=ultrafine) guess=(read,tcheck) s
 table=(opt,rrhf)\\title\\0,1\C,0,0.21467,1.556059,-0.197546\Cl,0,2.029
 181,1.624583,-0.388554\H,0,-0.106322,2.591473,-0.103385\H,0,-0.165631,
 1.154802,-1.135416\C,0,-0.21467,0.736338,1.009526\C,0,0.21467,-0.73633
 8,1.009526\H,0,-1.308148,0.796634,1.054232\H,0,0.165046,1.211733,1.918
 111\C,0,-0.21467,-1.556059,-0.197546\H,0,-0.165046,-1.211733,1.918111\
 H,0,1.308148,-0.796634,1.054232\Cl,0,-2.029181,-1.624583,-0.388554\H,0

 Normal termination of Gaussian 16 at Tue Apr  8 22:33:06 2025.
 Gaussian 16:  ES64L-G16RevC.01  3-Jul-2019

 ----------------------------------------------------------------------
 #t hf aug-cc-pvdz iop(5/13=1,5/36=2,99/5=2) pseudo=read geom=check gue
 ss=(read,tcheck) scf=(maxcycle=1)
 ----------------------------------------------------------------------
 -----
 title
 -----
 Structure from the checkpoint file:  "BDE49_expt_1032_mol1.chk"
 Charge =  0 Multiplicity = 1

                         Standard orientation:
 ---------------------------------------------------------------------
 Center     Atomic      Atomic             Coordinates (Angstroms)
 Number     Number       Type             X           Y           Z
 ---------------------------------------------------------------------
      1          6           0        0.214670    1.556059   -0.197546
      2         17           0        2.029181    1.624583   -0.388554
      3          1           0       -0.106322    2.591473   -0.103385
      4          1           0       -0.165631    1.154802   -1.135416
      5          6           0       -0.214670    0.736338    1.009526
      6          6           0        0.214670   -0.736338    1.009526
      7          1           0       -1.308148    0.796634    1.054232
      8          1           0        0.165046    1.211733    1.918111
      9          6           0       -0.214670   -1.556059   -0.197546
     10          1           0       -0.165046   -1.211733    1.918111
     11          1           0        1.308148   -0.796634    1.054232
     12         17           0       -2.029181   -1.624583   -0.388554
     13          1           0        0.106322   -2.591473   -0.103385
     14          1           0        0.165631   -1.154802   -1.135416
 ---------------------------------------------------------------------

 SCF Done:  E(RHF) =  -1076.46553911     A.U. after    2 cycles

 The electronic state is 1-A.
 Alpha  occ. eigenvalues --  -99.87788 -99.87787 -11.46408 -11.46239 -11.42592
 Alpha  occ. eigenvalues --  -11.38365 -10.45031 -10.45026  -9.64967  -9.64901
 Alpha  occ. eigenvalues --   -9.64331  -9.64295  -9.64214  -9.64172  -1.35888
 Alpha  occ. eigenvalues --   -1.31604  -1.19645  -1.06397  -0.94664  -0.84084
 Alpha  occ. eigenvalues --   -0.69118  -0.68045  -0.63085  -0.61710  -0.60133
 Alpha  occ. eigenvalues --   -0.55283  -0.52581  -0.51846  -0.49139  -0.47812
 Alpha  occ. eigenvalues --   -0.47388  -0.44980  -0.44697
 Alpha virt. eigenvalues --    0.03350   0.04893   0.05509   0.06190   0.06324
 Alpha virt. eigenvalues --    0.06457   0.06886   0.07242   0.07733   0.09297
 Alpha virt. eigenvalues --    0.11366   0.12373   0.13787   0.14258   0.14596

 Mulliken charges:
               1
     1  C   -3.802259
     2  Cl   0.082805
     3  H    1.410707
     4  H    1.829163
     5  C   -2.097249
     6  C   -2.097249
     7  H    1.291480
     8  H    1.285353
     9  C   -3.802259
    10  H    1.285353
    11  H    1.291480
    12  Cl   0.082805
    13  H    1.410707
    14  H    1.829163
 Sum of Mulliken charges =   0.00000

 Dipole moment (field-independent basis, Debye):
    X=              0.0000    Y=             -0.0000    Z=              1.0058  Tot=              1.0058

 Test job not archived.
 1\1\GINC-SE090\SP\RHF\Aug-CC-pVDZ\C4H8Cl2\OHZDE\08-Apr-2025\0\\#t hf a
 ug-cc-pvdz iop(5/13=1,5/36=2,99/5=2) pseudo=read geom=check guess=(rea
 d,tcheck) scf=(maxcycle=1)\\title\\0,1\C,0,0.21467,1.556059,-0.197546\
 Cl,0,2.029181,1.624583,-0.388554\H,0,-0.106322,2.591473,-0.103385\H,0,
 -0.165631,1.154802,-1.135416\C,0,-0.21467,0.736338,1.009526\C,0,0.2146
 7,-0.736338,1.009526\H,0,-1.308148,0.796634,1.054232\H,0,0.165046,1.21
 1733,1.918111\C,0,-0.21467,-1.556059,-0.197546\H,0,-0.165046,-1.211733
 ,1.918111\H,0,1.308148,-0.796634,1.054232\Cl,0,-2.029181,-1.624583,-0.

 Normal termination of Gaussian 16 at Tue Apr  8 22:33:10 2025.
