 Gaussian 16, Revision C.01,

 ----------------------------------------------------------------------
 #t hf aug-cc-pvdz symm=none int=(grid=ultrafine) guess=(read,tcheck) s
 table=(opt,rrhf)
 ----------------------------------------------------------------------
 -----
 title
 -----
 Symbolic Z-matrix:
 Charge =  0 Multiplicity = 1

 SCF Done:  E(RHF) =  -713.262884693     A.U. after   14 cycles
 Normal termination of Gaussian 16 at Wed Apr  9 00:11:49 2025.
 Gaussian 16:  ES64L-G16RevC.01  3-Jul-2019

 ----------------------------------------------------------------------
 #t hf aug-cc-pvdz iop(5/13=1,5/36=2,99/5=2) pseudo=read geom=check gue
 ss=(read,tcheck) scf=(maxcycle=1)
 ----------------------------------------------------------------------
 -----
 title
 -----
 Structure from the checkpoint file:  "BDE49_nonexpt_2383_mol1.chk"
 Charge =  0 Multiplicity = 1

                         Standard orientation:
 ---------------------------------------------------------------------
 Center     Atomic      Atomic             Coordinates (Angstroms)
 Number     Number       Type             X           Y           Z
 ---------------------------------------------------------------------
      1         14           0       -2.081862   -0.617321   -0.194349
      2         14           0       -0.408009    0.919549    0.448856
      3          6           0        1.159522    0.767055   -0.644714
      4          1           0       -0.111403    0.761326    1.893775
      5          1           0       -0.912181    2.297661    0.230082
      6          1           0       -2.389643   -0.461340   -1.636429
      7          1           0       -3.323272   -0.385126    0.583729
      8          7           0        2.147961   -0.029929   -0.585781
      9          1           0       -1.627203   -2.008743    0.043336
     10          6           0        2.209226   -1.051973    0.441471
     11          1           0        2.298020   -2.027498   -0.045733
     12          1           0        1.351238   -1.075314    1.128123
     13          1           0        3.123387   -0.907720    1.025103
     14          1           0        1.201039    1.494563   -1.465166
 ---------------------------------------------------------------------

 SCF Done:  E(RHF) =  -714.227210050     A.U. after    2 cycles

 The electronic state is 1-A.
 Alpha  occ. eigenvalues --  -76.22342 -76.22227 -15.74391 -11.39700 -11.38751
 Alpha  occ. eigenvalues --   -5.55957  -5.55638  -2.19658  -2.18312  -2.17723
 Alpha  occ. eigenvalues --   -2.17674  -2.17525  -2.16421  -1.37478  -1.02846
 Alpha  occ. eigenvalues --   -0.85475  -0.77905  -0.70369  -0.63872  -0.59258
 Alpha  occ. eigenvalues --   -0.54870  -0.50785  -0.48984  -0.47758  -0.46697
 Alpha  occ. eigenvalues --   -0.41914  -0.35894  -0.32128
 Alpha virt. eigenvalues --    0.03711   0.04399   0.05246   0.05670   0.06545
 Alpha virt. eigenvalues --    0.06777   0.07210   0.08029   0.08345   0.08675
 Alpha virt. eigenvalues --    0.08741   0.09336   0.09619   0.10082   0.10883

 Mulliken charges:
               1
     1  Si   5.034855
     2  Si   4.071128
     3  C   -0.903757
     4  H   -1.623405
     5  H   -1.902083
     6  H   -1.542046
     7  H   -1.593990
     8  N   -2.501738
     9  H   -1.569597
    10  C   -3.124256
    11  H    1.375203
    12  H    1.418696
    13  H    1.364022
    14  H    1.496966
 Sum of Mulliken charges =  -0.00000

 Dipole moment (field-independent basis, Debye):
    X=             -0.3101    Y=             -0.2768    Z=              0.5587  Tot=              0.6963

 Test job not archived.
 1\1\GINC-SE331\SP\RHF\Aug-CC-pVDZ\C2H9N1Si2\OHZDE\09-Apr-2025\0\\#t hf
  aug-cc-pvdz iop(5/13=1,5/36=2,99/5=2) pseudo=read geom=check guess=(r
 ead,tcheck) scf=(maxcycle=1)\\title\\0,1\Si,0,-2.081862,-0.617321,-0.1
 94349\Si,0,-0.408009,0.919549,0.448856\C,0,1.159522,0.767055,-0.644714
 \H,0,-0.111403,0.761326,1.893775\H,0,-0.912181,2.297661,0.230082\H,0,-
 2.389643,-0.46134,-1.636429\H,0,-3.323272,-0.385126,0.583729\N,0,2.147
 961,-0.029929,-0.585781\H,0,-1.627203,-2.008743,0.043336\C,0,2.209226,
 -1.051973,0.441471\H,0,2.29802,-2.027498,-0.045733\H,0,1.351238,-1.075

 Normal termination of Gaussian 16 at Wed Apr  9 00:11:53 2025.
