 Gaussian 16, Revision C.01,

 ----------------------------------------------------------------------
 #t hf aug-cc-pvdz symm=none int=(grid=ultrafine) guess=(read,tcheck) s
 table=(opt,rrhf)
 ----------------------------------------------------------------------
 -----
 title
 -----
 Symbolic Z-matrix:
 Charge =  0 Multiplicity = 1

 SCF Done:  E(RHF) =  -392.973616686     A.U. after   13 cycles
 Normal termination of Gaussian 16 at Tue Apr  8 23:28:58 2025.
 Gaussian 16:  ES64L-G16RevC.01  3-Jul-2019

 ----------------------------------------------------------------------
 #t hf aug-cc-pvdz iop(5/13=1,5/36=2,99/5=2) pseudo=read geom=check gue
 ss=(read,tcheck) scf=(maxcycle=1)
 ----------------------------------------------------------------------
 -----
 title
 -----
 Structure from the checkpoint file:  "BDE49_nonexpt_132_mol1.chk"
 Charge =  0 Multiplicity = 1

                         Standard orientation:
 ---------------------------------------------------------------------
 Center     Atomic      Atomic             Coordinates (Angstroms)
 Number     Number       Type             X           Y           Z
 ---------------------------------------------------------------------
      1          5           0       -2.034244   -0.240713    0.014884
      2          5           0       -0.642477    0.616286    0.004301
      3         15           0        1.090695   -0.128466   -0.105377
      4          1           0        1.013957   -1.302198    0.676134
      5          1           0        1.817096    0.677661    0.797380
      6          1           0       -0.657872    1.810810   -0.059581
      7          1           0       -2.524088   -0.713000   -0.968043
      8          1           0       -2.625915   -0.424145    1.038836
 ---------------------------------------------------------------------

 SCF Done:  E(RHF) =  -393.408328790     A.U. after    2 cycles

 The electronic state is 1-A.
 Alpha  occ. eigenvalues -- -105.17116  -7.60489  -7.59729  -2.74424  -1.49796
 Alpha  occ. eigenvalues --   -1.44481  -1.41262  -0.92437  -0.76926  -0.62718
 Alpha  occ. eigenvalues --   -0.48488  -0.42097  -0.25905  -0.16170  -0.04990
 Alpha virt. eigenvalues --    0.02633   0.02953   0.03781   0.04571   0.07418
 Alpha virt. eigenvalues --    0.08549   0.08815   0.09554   0.10347   0.10956
 Alpha virt. eigenvalues --    0.11222   0.12401   0.12974   0.13922   0.14548

 Mulliken charges:
               1
     1  B    5.303097
     2  B    0.460303
     3  P    1.935251
     4  H   -0.574465
     5  H   -0.685481
     6  H   -1.491370
     7  H   -2.612624
     8  H   -2.334712
 Sum of Mulliken charges =  -0.00000

 Dipole moment (field-independent basis, Debye):
    X=              7.8951    Y=             -1.8187    Z=             -4.4643  Tot=              9.2504

 Test job not archived.
 1\1\GINC-SE424\SP\RHF\Aug-CC-pVDZ\B2H5P1\OHZDE\08-Apr-2025\0\\#t hf au
 g-cc-pvdz iop(5/13=1,5/36=2,99/5=2) pseudo=read geom=check guess=(read
 ,tcheck) scf=(maxcycle=1)\\title\\0,1\B,0,-2.034244,-0.240713,0.014884
 \B,0,-0.642477,0.616286,0.004301\P,0,1.090695,-0.128466,-0.105377\H,0,
 1.013957,-1.302198,0.676134\H,0,1.817096,0.677661,0.79738\H,0,-0.65787
 2,1.81081,-0.059581\H,0,-2.524088,-0.713,-0.968043\H,0,-2.625915,-0.42
 4145,1.038836\\Version=ES64L-G16RevC.01\State=1-A\HF=-393.4083288\RMSD
 =3.347e-01\Dipole=3.1061687,-0.7155375,-1.7563776\Quadrupole=2.228651,

 Normal termination of Gaussian 16 at Tue Apr  8 23:29:00 2025.
