 Gaussian 16, Revision C.01,

 ----------------------------------------------------------------------
 #t hf aug-cc-pvdz symm=none int=(grid=ultrafine) guess=(read,tcheck) s
 table=(opt,rrhf)
 ----------------------------------------------------------------------
 -----
 title
 -----
 Symbolic Z-matrix:
 Charge =  0 Multiplicity = 1

 SCF Done:  E(RHF) =  -746.509736464     A.U. after   15 cycles
 Normal termination of Gaussian 16 at Tue Apr  8 23:18:48 2025.
 Gaussian 16:  ES64L-G16RevC.01  3-Jul-2019

 ----------------------------------------------------------------------
 #t hf aug-cc-pvdz iop(5/13=1,5/36=2,99/5=2) pseudo=read geom=check gue
 ss=(read,tcheck) scf=(maxcycle=1)
 ----------------------------------------------------------------------
 -----
 title
 -----
 Structure from the checkpoint file:  "BDE49_nonexpt_1046_mol1.chk"
 Charge =  0 Multiplicity = 1

                         Standard orientation:
 ---------------------------------------------------------------------
 Center     Atomic      Atomic             Coordinates (Angstroms)
 Number     Number       Type             X           Y           Z
 ---------------------------------------------------------------------
      1         17           0       -1.671340    0.315250    0.000000
      2          8           0        0.000000    0.756543    0.000000
      3          6           0        0.839469   -0.308139    0.000000
      4          8           0        0.610772   -1.461392    0.000000
      5          9           0        2.054421    0.236486    0.000000
 ---------------------------------------------------------------------

 SCF Done:  E(RHF) =  -747.837573910     A.U. after    2 cycles

 The electronic state is 1-A'.
 Alpha  occ. eigenvalues --  -99.98776 -29.34688 -21.18657 -21.11348 -11.60743
 Alpha  occ. eigenvalues --  -10.55460  -9.75295  -9.74437  -9.74296  -1.91665
 Alpha  occ. eigenvalues --   -1.75301  -1.31305  -1.05767  -0.77687  -0.68516
 Alpha  occ. eigenvalues --   -0.67097  -0.60417  -0.59195  -0.52103  -0.46054
 Alpha  occ. eigenvalues --   -0.40265  -0.37056  -0.33546  -0.31117
 Alpha virt. eigenvalues --    0.01949   0.07222   0.10011   0.10793   0.12897
 Alpha virt. eigenvalues --    0.13103   0.13231   0.13951   0.17743   0.18393
 Alpha virt. eigenvalues --    0.20889   0.21643   0.22807   0.24827   0.26515

 Mulliken charges:
               1
     1  Cl   0.536546
     2  O   -1.944967
     3  C    2.830586
     4  O   -2.356580
     5  F    0.934414
 Sum of Mulliken charges =  -0.00000

 Dipole moment (field-independent basis, Debye):
    X=              4.2375    Y=              2.1600    Z=              0.0000  Tot=              4.7563

 Test job not archived.
 1\1\GINC-SE029\SP\RHF\Aug-CC-pVDZ\C1Cl1F1O2\OHZDE\08-Apr-2025\0\\#t hf
  aug-cc-pvdz iop(5/13=1,5/36=2,99/5=2) pseudo=read geom=check guess=(r
 ead,tcheck) scf=(maxcycle=1)\\title\\0,1\Cl,0,-1.67134,0.31525,0.\O,0,
 0.,0.756543,0.\C,0,0.839469,-0.308139,0.\O,0,0.610772,-1.461392,0.\F,0
 ,2.054421,0.236486,0.\\Version=ES64L-G16RevC.01\State=1-A'\HF=-747.837
 5739\RMSD=3.443e-02\Dipole=1.667169,0.8497902,0.\Quadrupole=4.9767824,
 -3.7888959,-1.1878865,2.1836451,0.,0.\PG=CS [SG(C1Cl1F1O2)]\\@

 Normal termination of Gaussian 16 at Tue Apr  8 23:18:50 2025.
