 Gaussian 16, Revision C.01,

 ----------------------------------------------------------------------
 #t hf aug-cc-pvdz symm=none int=(grid=ultrafine) guess=(read,tcheck) s
 table=(opt,rrhf)
 ----------------------------------------------------------------------
 -----
 title
 -----
 Symbolic Z-matrix:
 Charge =  0 Multiplicity = 1

 SCF Done:  E(RHF) =  -433.601383899     A.U. after   13 cycles
 Normal termination of Gaussian 16 at Wed Apr  9 00:45:14 2025.
 Gaussian 16:  ES64L-G16RevC.01  3-Jul-2019

 ----------------------------------------------------------------------
 #t hf aug-cc-pvdz iop(5/13=1,5/36=2,99/5=2) pseudo=read geom=check gue
 ss=(read,tcheck) scf=(maxcycle=1)
 ----------------------------------------------------------------------
 -----
 title
 -----
 Structure from the checkpoint file:  "BDE49_nonexpt_771_mol1.chk"
 Charge =  0 Multiplicity = 1

                         Standard orientation:
 ---------------------------------------------------------------------
 Center     Atomic      Atomic             Coordinates (Angstroms)
 Number     Number       Type             X           Y           Z
 ---------------------------------------------------------------------
      1          5           0       -1.315978    1.604646    0.133219
      2         14           0       -1.342629   -0.389726   -0.147848
      3          6           0        1.770262    0.953099    0.012937
      4          6           0        0.318168   -1.128786    0.428201
      5          6           0        1.561671   -0.538090   -0.261562
      6          1           0        0.275444   -2.210657    0.261060
      7          1           0        0.393317   -0.989041    1.513443
      8          1           0        1.498991   -0.704530   -1.342998
      9          1           0        2.451784   -1.082374    0.075396
     10          1           0        1.852177    1.154779    1.084569
     11          1           0        0.939399    1.560939   -0.378327
     12          1           0        2.675766    1.328982   -0.470864
     13          1           0       -1.376025    2.395987   -0.757081
     14          1           0       -1.228245    2.040118    1.241102
     15          1           0       -1.572767   -0.782028   -1.564031
     16          1           0       -2.433756   -0.996580    0.664044
 ---------------------------------------------------------------------

 SCF Done:  E(RHF) =  -434.518893790     A.U. after    2 cycles

 The electronic state is 1-A.
 Alpha  occ. eigenvalues --  -76.18814 -11.42049 -11.37947 -11.34581  -7.61556
 Alpha  occ. eigenvalues --   -5.52553  -2.16284  -2.15326  -2.14753  -1.21016
 Alpha  occ. eigenvalues --   -1.00073  -0.87741  -0.82706  -0.69259  -0.62526
 Alpha  occ. eigenvalues --   -0.61220  -0.55570  -0.50468  -0.49654  -0.46554
 Alpha  occ. eigenvalues --   -0.46269  -0.43835  -0.39689  -0.34571
 Alpha virt. eigenvalues --    0.02714   0.03953   0.04107   0.04272   0.05956
 Alpha virt. eigenvalues --    0.06261   0.06685   0.07094   0.07160   0.07902
 Alpha virt. eigenvalues --    0.09145   0.09687   0.10090   0.10474   0.10898

 Mulliken charges:
               1
     1  B    2.454113
     2  Si   6.140230
     3  C   -3.920088
     4  C   -3.509186
     5  C   -2.894489
     6  H    1.287101
     7  H    1.494263
     8  H    1.338039
     9  H    1.318453
    10  H    1.371083
    11  H    1.823721
    12  H    1.082794
    13  H   -2.104166
    14  H   -2.009742
    15  H   -1.988820
    16  H   -1.883306
 Sum of Mulliken charges =   0.00000

 Dipole moment (field-independent basis, Debye):
    X=              1.2262    Y=             -0.0184    Z=              0.2561  Tot=              1.2528

 Test job not archived.
 1\1\GINC-SE460\SP\RHF\Aug-CC-pVDZ\C3H11B1Si1\OHZDE\09-Apr-2025\0\\#t h
 f aug-cc-pvdz iop(5/13=1,5/36=2,99/5=2) pseudo=read geom=check guess=(
 read,tcheck) scf=(maxcycle=1)\\title\\0,1\B,0,-1.315978,1.604646,0.133
 219\Si,0,-1.342629,-0.389726,-0.147848\C,0,1.770262,0.953099,0.012937\
 C,0,0.318168,-1.128786,0.428201\C,0,1.561671,-0.53809,-0.261562\H,0,0.
 275444,-2.210657,0.26106\H,0,0.393317,-0.989041,1.513443\H,0,1.498991,
 -0.70453,-1.342998\H,0,2.451784,-1.082374,0.075396\H,0,1.852177,1.1547
 79,1.084569\H,0,0.939399,1.560939,-0.378327\H,0,2.675766,1.328982,-0.4

 Normal termination of Gaussian 16 at Wed Apr  9 00:45:18 2025.
