 Gaussian 16, Revision C.01,

 ----------------------------------------------------------------------
 #t hf aug-cc-pvdz symm=none int=(grid=ultrafine) guess=(read,tcheck) s
 table=opt
 ----------------------------------------------------------------------
 -----
 title
 -----
 Symbolic Z-matrix:
 Charge =  0 Multiplicity = 2

 SCF Done:  E(UHF) =  -1131.27831322     A.U. after   19 cycles
 Normal termination of Gaussian 16 at Wed Apr  9 00:51:02 2025.
 Gaussian 16:  ES64L-G16RevC.01  3-Jul-2019

 ----------------------------------------------------------------------
 #t hf aug-cc-pvdz iop(5/13=1,5/36=2,99/5=2) pseudo=read geom=check gue
 ss=(read,tcheck) scf=(maxcycle=1)
 ----------------------------------------------------------------------
 -----
 title
 -----
 Structure from the checkpoint file:  "BDE49_nonexpt_916_mol2.chk"
 Charge =  0 Multiplicity = 2

                         Standard orientation:
 ---------------------------------------------------------------------
 Center     Atomic      Atomic             Coordinates (Angstroms)
 Number     Number       Type             X           Y           Z
 ---------------------------------------------------------------------
      1         16           0        2.072394   -0.362433    0.000001
      2         16           0        0.585755    0.944353   -0.000001
      3          6           0       -0.961861   -0.093913    0.000000
      4          9           0       -1.993606    0.763880   -0.000002
      5          9           0       -1.045376   -0.867895    1.082056
      6          9           0       -1.045375   -0.867899   -1.082054
 ---------------------------------------------------------------------

 SCF Done:  E(UHF) =  -1132.86679756     A.U. after    2 cycles

 The electronic state is 2-A.
 Alpha  occ. eigenvalues --  -75.76529 -75.75209 -29.33665 -29.33462 -29.33414
 Alpha  occ. eigenvalues --  -13.18072 -13.13793 -13.10914 -13.09457 -13.07673
 Alpha  occ. eigenvalues --  -13.06893 -11.60711  -8.10775  -8.08998  -1.45361
 Alpha  occ. eigenvalues --   -1.25154  -1.01646  -0.91184  -0.91179  -0.70530
 Alpha  occ. eigenvalues --   -0.50474  -0.45768  -0.45506  -0.44416  -0.43310
 Alpha  occ. eigenvalues --   -0.37189  -0.36941  -0.33895  -0.29015  -0.27735
 Alpha  occ. eigenvalues --   -0.24765  -0.23707  -0.21973
 Alpha virt. eigenvalues --    0.04640   0.06535   0.09845   0.11035   0.13253
 Alpha virt. eigenvalues --    0.13666   0.14063   0.14358   0.14885   0.16275
 Alpha virt. eigenvalues --    0.18746   0.20094   0.22391   0.23355   0.23383

  Beta  occ. eigenvalues --  -75.76312 -75.74297 -29.33671 -29.33453 -29.33406
  Beta  occ. eigenvalues --  -13.17949 -13.13729 -13.10501 -13.07931 -13.06356
  Beta  occ. eigenvalues --  -13.02375 -11.60757  -8.10531  -8.07971  -1.45134
  Beta  occ. eigenvalues --   -1.22020  -0.95854  -0.91061  -0.90627  -0.69797
  Beta  occ. eigenvalues --   -0.50467  -0.45738  -0.45420  -0.42554  -0.41163
  Beta  occ. eigenvalues --   -0.36474  -0.34031  -0.32955  -0.27653  -0.26449
  Beta  occ. eigenvalues --   -0.24112  -0.23569
  Beta virt. eigenvalues --    0.04233   0.04880   0.06574   0.09955   0.11509
  Beta virt. eigenvalues --    0.13481   0.13705   0.14242   0.14435   0.14992
  Beta virt. eigenvalues --    0.18797   0.19140   0.20311   0.22545   0.23519

 Mulliken charges and spin densities:
               1          2
     1  S    0.032616   0.887579
     2  S   -0.342630   0.134617
     3  C   -1.545631  -0.019320
     4  F    0.665999  -0.002185
     5  F    0.594824  -0.000346
     6  F    0.594823  -0.000346
 Sum of Mulliken charges =  -0.00000   1.00000

 Dipole moment (field-independent basis, Debye):
    X=             -1.6346    Y=             -0.9187    Z=              0.0000  Tot=              1.8751
                          Isotropic Fermi Contact Couplings
        Atom                 a.u.       MegaHertz       Gauss      10(-4) cm-1
     1  S(33)              0.29067      99.83580      35.62390      33.30164
     2  S(33)              0.11961      41.08392      14.65977      13.70412
     3  C(13)             -0.00403      -4.53501      -1.61820      -1.51272
     4  F(19)             -0.00124      -5.21131      -1.85953      -1.73831
     5  F(19)              0.00081       3.40259       1.21413       1.13498
     6  F(19)              0.00081       3.40256       1.21412       1.13497
 --------------------------------------------------------
       Center         ----  Spin Dipole Couplings  ----

 Normal termination of Gaussian 16 at Wed Apr  9 00:51:04 2025.
