 Gaussian 16, Revision C.01,

 ----------------------------------------------------------------------
 #t hf aug-cc-pvdz symm=none int=(grid=ultrafine) guess=(read,tcheck) s
 table=(opt,rrhf)
 ----------------------------------------------------------------------
 -----
 title
 -----
 Symbolic Z-matrix:
 Charge =  0 Multiplicity = 1

 SCF Done:  E(RHF) =  -518.194570208     A.U. after   19 cycles
 Normal termination of Gaussian 16 at Tue Apr  8 23:23:24 2025.
 Gaussian 16:  ES64L-G16RevC.01  3-Jul-2019

 ----------------------------------------------------------------------
 #t hf aug-cc-pvdz iop(5/13=1,5/36=2,99/5=2) pseudo=read geom=check gue
 ss=(read,tcheck) scf=(maxcycle=1)
 ----------------------------------------------------------------------
 -----
 title
 -----
 Structure from the checkpoint file:  "BDE49_nonexpt_1177_mol1.chk"
 Charge =  0 Multiplicity = 1

                         Standard orientation:
 ---------------------------------------------------------------------
 Center     Atomic      Atomic             Coordinates (Angstroms)
 Number     Number       Type             X           Y           Z
 ---------------------------------------------------------------------
      1          9           0        1.793891   -1.694751    0.789634
      2          8           0        1.067522   -1.204945   -0.633545
      3          6           0       -0.036143   -0.595655   -0.296396
      4          6           0       -0.062287    0.814552   -0.031858
      5          6           0       -1.311373    1.425214    0.188605
      6          1           0       -1.326221    2.493806    0.362286
      7          6           0       -2.469761    0.674892    0.203498
      8          6           0       -1.246290   -1.339608   -0.231686
      9          1           0       -1.163378   -2.406987   -0.395791
     10          6           0       -2.449463   -0.720677   -0.005294
     11          1           0       -3.371447   -1.287904    0.017358
     12          1           0       -3.415733    1.173174    0.384584
     13          8           0        0.985938    1.629845    0.006857
     14          6           0        2.351858    1.176954   -0.145367
     15          1           0        2.950471    2.053664    0.093147
     16          1           0        2.529919    0.863202   -1.174256
     17          1           0        2.564445    0.350574    0.530454
 ---------------------------------------------------------------------

 SCF Done:  E(RHF) =  -520.422223116     A.U. after    2 cycles

 The electronic state is 1-A.
 Alpha  occ. eigenvalues --  -29.21354 -21.18229 -21.10243 -11.56682 -11.49505
 Alpha  occ. eigenvalues --  -11.46784 -11.45037 -11.42980 -11.41701 -11.39724
 Alpha  occ. eigenvalues --   -1.82787  -1.77023  -1.32670  -1.12382  -1.08841
 Alpha  occ. eigenvalues --   -0.99154  -0.90096  -0.85741  -0.72136  -0.70387
 Alpha  occ. eigenvalues --   -0.66671  -0.65578  -0.61923  -0.61491  -0.58778
 Alpha  occ. eigenvalues --   -0.56776  -0.53249  -0.50716  -0.48780  -0.44893
 Alpha  occ. eigenvalues --   -0.43659  -0.38993  -0.36819  -0.30730  -0.24003
 Alpha  occ. eigenvalues --   -0.21208  -0.20217
 Alpha virt. eigenvalues --    0.03113   0.04547   0.04949   0.05665   0.06470
 Alpha virt. eigenvalues --    0.06815   0.08626   0.08946   0.10143   0.11213
 Alpha virt. eigenvalues --    0.11403   0.12358   0.13103   0.13355   0.14083

 Mulliken charges:
               1
     1  F   -0.542188
     2  O   -3.152459
     3  C    4.656210
     4  C    2.275987
     5  C   -2.014699
     6  H    1.806768
     7  C   -0.506506
     8  C   -2.778961
     9  H    1.584998
    10  C   -0.123863
    11  H    1.536138
    12  H    1.493754
    13  O   -4.722766
    14  C   -3.560024
    15  H    1.388178
    16  H    1.397254
    17  H    1.262178
 Sum of Mulliken charges =  -0.00000

 Dipole moment (field-independent basis, Debye):
    X=              1.1871    Y=              0.0502    Z=              1.1053  Tot=              1.6228

 Test job not archived.
 1\1\GINC-SE339\SP\RHF\Aug-CC-pVDZ\C7H7F1O2\OHZDE\08-Apr-2025\0\\#t hf
 aug-cc-pvdz iop(5/13=1,5/36=2,99/5=2) pseudo=read geom=check guess=(re
 ad,tcheck) scf=(maxcycle=1)\\title\\0,1\F,0,-1.793891,1.694751,0.78963
 4\O,0,-1.067522,1.204945,-0.633545\C,0,0.036143,0.595655,-0.296396\C,0
 ,0.062287,-0.814552,-0.031858\C,0,1.311373,-1.425214,0.188605\H,0,1.32
 6221,-2.493806,0.362286\C,0,2.469761,-0.674892,0.203498\C,0,1.24629,1.
 339608,-0.231686\H,0,1.163378,2.406987,-0.395791\C,0,2.449463,0.720677
 ,-0.005294\H,0,3.371447,1.287905,0.017358\H,0,3.415733,-1.173173,0.384

 Normal termination of Gaussian 16 at Tue Apr  8 23:23:32 2025.
