 Gaussian 16, Revision C.01,

 ----------------------------------------------------------------------
 #t hf aug-cc-pvdz symm=none int=(grid=ultrafine) guess=(read,tcheck) s
 table=(opt,rrhf)
 ----------------------------------------------------------------------
 -----
 title
 -----
 Symbolic Z-matrix:
 Charge =  0 Multiplicity = 1

 SCF Done:  E(RHF) =  -369.965994281     A.U. after   15 cycles
 Normal termination of Gaussian 16 at Wed Apr  9 00:30:43 2025.
 Gaussian 16:  ES64L-G16RevC.01  3-Jul-2019

 ----------------------------------------------------------------------
 #t hf aug-cc-pvdz iop(5/13=1,5/36=2,99/5=2) pseudo=read geom=check gue
 ss=(read,tcheck) scf=(maxcycle=1)
 ----------------------------------------------------------------------
 -----
 title
 -----
 Structure from the checkpoint file:  "BDE49_nonexpt_329_mol1.chk"
 Charge =  0 Multiplicity = 1

                         Standard orientation:
 ---------------------------------------------------------------------
 Center     Atomic      Atomic             Coordinates (Angstroms)
 Number     Number       Type             X           Y           Z
 ---------------------------------------------------------------------
      1          6           0       -2.625697    0.323252   -0.374933
      2          6           0       -1.774160    1.357915    0.006322
      3          6           0       -0.469549    1.081043    0.407560
      4          6           0       -2.159584   -0.989386   -0.350232
      5          6           0       -0.855004   -1.263325    0.053257
      6          6           0        0.010255   -0.234286    0.443325
      7          1           0       -3.642172    0.537187   -0.685286
      8          1           0       -2.126234    2.383748   -0.005846
      9          1           0        0.186034    1.893627    0.704058
     10          1           0       -2.814140   -1.803735   -0.641489
     11          1           0       -0.504026   -2.290177    0.073483
     12          6           0        1.444433   -0.520879    0.850662
     13          5           0        2.380247   -0.416887   -0.414056
     14          1           0        1.766939    0.180699    1.625600
     15          1           0        1.506808   -1.532074    1.268636
     16          8           0        3.277631    0.598352   -0.483183
     17          1           0        3.784273    0.602688   -1.300957
     18          1           0        2.296074   -1.200352   -1.318227
 ---------------------------------------------------------------------

 SCF Done:  E(RHF) =  -371.703493784     A.U. after    2 cycles

 The electronic state is 1-A.
 Alpha  occ. eigenvalues --  -21.06595 -11.50933 -11.43300 -11.42293 -11.40035
 Alpha  occ. eigenvalues --  -11.39792 -11.36434 -11.34816  -7.61915  -1.74598
 Alpha  occ. eigenvalues --   -1.34508  -1.14768  -1.08273  -1.00448  -0.85578
 Alpha  occ. eigenvalues --   -0.83245  -0.75305  -0.69703  -0.64637  -0.63561
 Alpha  occ. eigenvalues --   -0.58735  -0.57027  -0.55394  -0.51858  -0.50729
 Alpha  occ. eigenvalues --   -0.46424  -0.43662  -0.43000  -0.41250  -0.38789
 Alpha  occ. eigenvalues --   -0.32371  -0.30278
 Alpha virt. eigenvalues --    0.03314   0.03930   0.04431   0.04654   0.05751
 Alpha virt. eigenvalues --    0.05992   0.06649   0.07570   0.07868   0.08530
 Alpha virt. eigenvalues --    0.09607   0.10493   0.10696   0.11754   0.12026

 Mulliken charges:
               1
     1  C   -2.821607
     2  C   -1.321859
     3  C   -1.781587
     4  C   -1.553177
     5  C   -2.338054
     6  C    3.962205
     7  H    1.520817
     8  H    1.499110
     9  H    1.761431
    10  H    1.493051
    11  H    1.803746
    12  C   -6.587889
    13  B    7.680775
    14  H    1.248438
    15  H    1.176506
    16  O   -3.459155
    17  H    1.207806
    18  H   -3.490557
 Sum of Mulliken charges =   0.00000

 Dipole moment (field-independent basis, Debye):
    X=              0.8738    Y=              0.1551    Z=             -0.4758  Tot=              1.0070

 Test job not archived.
 1\1\GINC-SE250\SP\RHF\Aug-CC-pVDZ\C7H9B1O1\OHZDE\09-Apr-2025\0\\#t hf
 aug-cc-pvdz iop(5/13=1,5/36=2,99/5=2) pseudo=read geom=check guess=(re
 ad,tcheck) scf=(maxcycle=1)\\title\\0,1\C,0,-2.625697,0.323252,-0.3749
 33\C,0,-1.77416,1.357915,0.006322\C,0,-0.469549,1.081043,0.40756\C,0,-
 2.159584,-0.989386,-0.350232\C,0,-0.855004,-1.263325,0.053257\C,0,0.01
 0255,-0.234286,0.443325\H,0,-3.642172,0.537187,-0.685286\H,0,-2.126234
 ,2.383748,-0.005846\H,0,0.186034,1.893627,0.704058\H,0,-2.81414,-1.803
 735,-0.641489\H,0,-0.504026,-2.290177,0.073483\C,0,1.444433,-0.520879,

 Normal termination of Gaussian 16 at Wed Apr  9 00:30:51 2025.
