 Gaussian 16, Revision C.01,

 ----------------------------------------------------------------------
 #t hf aug-cc-pvdz symm=none int=(grid=ultrafine) guess=(read,tcheck) s
 table=(opt,rrhf)
 ----------------------------------------------------------------------
 -----
 title
 -----
 Symbolic Z-matrix:
 Charge =  0 Multiplicity = 1

 SCF Done:  E(RHF) =  -688.247755451     A.U. after   12 cycles
 Normal termination of Gaussian 16 at Wed Apr  9 00:47:58 2025.
 Gaussian 16:  ES64L-G16RevC.01  3-Jul-2019

 ----------------------------------------------------------------------
 #t hf aug-cc-pvdz iop(5/13=1,5/36=2,99/5=2) pseudo=read geom=check gue
 ss=(read,tcheck) scf=(maxcycle=1)
 ----------------------------------------------------------------------
 -----
 title
 -----
 Structure from the checkpoint file:  "BDE49_nonexpt_844_mol1.chk"
 Charge =  0 Multiplicity = 1

                         Standard orientation:
 ---------------------------------------------------------------------
 Center     Atomic      Atomic             Coordinates (Angstroms)
 Number     Number       Type             X           Y           Z
 ---------------------------------------------------------------------
      1         14           0        0.409553   -0.025996    0.000002
      2          5           0       -1.493736   -0.695380    0.000006
      3          9           0        1.203609   -0.555064    1.277467
      4          9           0        0.551665    1.558818   -0.000019
      5          9           0        1.203617   -0.555099   -1.277444
      6          8           0       -2.473988    0.226444   -0.000010
      7          1           0       -3.364914   -0.142682   -0.000011
      8          1           0       -1.738271   -1.865919    0.000012
 ---------------------------------------------------------------------

 SCF Done:  E(RHF) =  -689.825693020     A.U. after    2 cycles

 The electronic state is 1-A.
 Alpha  occ. eigenvalues --  -76.29916 -29.28533 -29.28528 -29.28407 -21.10302
 Alpha  occ. eigenvalues --   -7.66277  -5.66670  -2.30796  -2.30684  -2.27586
 Alpha  occ. eigenvalues --   -1.77510  -1.00897  -0.79914  -0.71403  -0.71209
 Alpha  occ. eigenvalues --   -0.65863  -0.53280  -0.46861  -0.44307  -0.41899
 Alpha  occ. eigenvalues --   -0.41697  -0.41512  -0.35621  -0.35227  -0.30035
 Alpha  occ. eigenvalues --   -0.29645  -0.29470  -0.27649
 Alpha virt. eigenvalues --    0.02429   0.04659   0.04827   0.06670   0.08767
 Alpha virt. eigenvalues --    0.09363   0.09932   0.10656   0.10687   0.10786
 Alpha virt. eigenvalues --    0.17445   0.20237   0.20841   0.21960   0.23345

 Mulliken charges:
               1
     1  Si   3.774524
     2  B    2.817141
     3  F   -0.761724
     4  F   -0.880732
     5  F   -0.761724
     6  O   -3.225320
     7  H    1.212835
     8  H   -2.175000
 Sum of Mulliken charges =  -0.00000

 Dipole moment (field-independent basis, Debye):
    X=              0.3861    Y=              0.5656    Z=             -0.0000  Tot=              0.6848

 Test job not archived.
 1\1\GINC-SE345\SP\RHF\Aug-CC-pVDZ\B1F3H2O1Si1\OHZDE\09-Apr-2025\0\\#t
 hf aug-cc-pvdz iop(5/13=1,5/36=2,99/5=2) pseudo=read geom=check guess=
 (read,tcheck) scf=(maxcycle=1)\\title\\0,1\Si,0,0.409553,-0.025996,0.0
 00002\B,0,-1.493736,-0.69538,0.000006\F,0,1.203609,-0.555064,1.277467\
 F,0,0.551665,1.558818,-0.000019\F,0,1.203617,-0.555099,-1.277444\O,0,-
 2.473988,0.226444,-0.00001\H,0,-3.364914,-0.142681,-0.000011\H,0,-1.73
 8271,-1.865919,0.000012\\Version=ES64L-G16RevC.01\State=1-A\HF=-689.82
 5693\RMSD=1.012e-01\Dipole=0.1518957,0.2225371,-0.0000038\Quadrupole=3

 Normal termination of Gaussian 16 at Wed Apr  9 00:48:00 2025.
