 Gaussian 16, Revision C.01,

 ----------------------------------------------------------------------
 #t hf aug-cc-pvdz symm=none int=(grid=ultrafine) guess=(read,tcheck) s
 table=(opt,rrhf)
 ----------------------------------------------------------------------
 -----
 title
 -----
 Symbolic Z-matrix:
 Charge =  0 Multiplicity = 1

 SCF Done:  E(RHF) =  -828.333617093     A.U. after   11 cycles
 Normal termination of Gaussian 16 at Tue Apr  8 23:45:17 2025.
 Gaussian 16:  ES64L-G16RevC.01  3-Jul-2019

 ----------------------------------------------------------------------
 #t hf aug-cc-pvdz iop(5/13=1,5/36=2,99/5=2) pseudo=read geom=check gue
 ss=(read,tcheck) scf=(maxcycle=1)
 ----------------------------------------------------------------------
 -----
 title
 -----
 Structure from the checkpoint file:  "BDE49_nonexpt_1745_mol1.chk"
 Charge =  0 Multiplicity = 1

                         Standard orientation:
 ---------------------------------------------------------------------
 Center     Atomic      Atomic             Coordinates (Angstroms)
 Number     Number       Type             X           Y           Z
 ---------------------------------------------------------------------
      1          6           0        0.563833   -1.060814    1.555467
      2         14           0        0.563833   -0.027735   -0.000000
      3          6           0        0.563833   -1.060814   -1.555467
      4          1           0       -0.301146   -1.728640   -1.584594
      5          1           0        1.470502   -1.673069   -1.600719
      6          1           0        0.536281   -0.428091   -2.445723
      7          1           0        0.536281   -0.428091    2.445723
      8          1           0        1.470502   -1.673069    1.600719
      9          1           0       -0.301146   -1.728640    1.584594
     10         17           0       -1.163100    1.168282    0.000000
     11          1           0        1.701772    0.916863    0.000000
 ---------------------------------------------------------------------

 SCF Done:  E(RHF) =  -829.165330694     A.U. after    2 cycles

 The electronic state is 1-A'.
 Alpha  occ. eigenvalues --  -99.86917 -76.24328 -11.35804 -11.35742 -10.44305
 Alpha  occ. eigenvalues --   -9.64217  -9.63671  -9.63597  -5.58133  -2.21683
 Alpha  occ. eigenvalues --   -2.20781  -2.20034  -1.27461  -1.07072  -1.02284
 Alpha  occ. eigenvalues --   -0.72297  -0.59084  -0.58106  -0.56849  -0.55991
 Alpha  occ. eigenvalues --   -0.52441  -0.51668  -0.51590  -0.43689  -0.40742
 Alpha virt. eigenvalues --    0.02840   0.04967   0.05704   0.05943   0.06937
 Alpha virt. eigenvalues --    0.07269   0.07611   0.07745   0.08789   0.09766
 Alpha virt. eigenvalues --    0.12205   0.14206   0.14572   0.15206   0.16587

 Mulliken charges:
               1
     1  C   -4.928817
     2  Si   5.299911
     3  C   -4.928817
     4  H    1.245921
     5  H    1.331541
     6  H    1.211444
     7  H    1.211444
     8  H    1.331541
     9  H    1.245921
    10  Cl  -0.869139
    11  H   -2.150949
 Sum of Mulliken charges =   0.00000

 Dipole moment (field-independent basis, Debye):
    X=              1.3967    Y=             -1.9601    Z=              0.0000  Tot=              2.4068

 Test job not archived.
 1\1\GINC-SE336\SP\RHF\Aug-CC-pVDZ\C2H7Cl1Si1\OHZDE\08-Apr-2025\0\\#t h
 f aug-cc-pvdz iop(5/13=1,5/36=2,99/5=2) pseudo=read geom=check guess=(
 read,tcheck) scf=(maxcycle=1)\\title\\0,1\C,0,0.563833,-1.060814,1.555
 467\Si,0,0.563833,-0.027735,0.\C,0,0.563833,-1.060814,-1.555467\H,0,-0
 .301146,-1.72864,-1.584594\H,0,1.470502,-1.673069,-1.600719\H,0,0.5362
 81,-0.428091,-2.445723\H,0,0.536281,-0.428091,2.445723\H,0,1.470502,-1
 .673069,1.600719\H,0,-0.301146,-1.72864,1.584594\Cl,0,-1.1631,1.168282
 ,0.\H,0,1.701772,0.916863,0.\\Version=ES64L-G16RevC.01\State=1-A'\HF=-

 Normal termination of Gaussian 16 at Tue Apr  8 23:45:20 2025.
