 Gaussian 16, Revision C.01,

 ----------------------------------------------------------------------
 #t hf aug-cc-pvdz symm=none int=(grid=ultrafine) guess=(read,tcheck) s
 table=(opt,rrhf)
 ----------------------------------------------------------------------
 -----
 title
 -----
 Symbolic Z-matrix:
 Charge =  0 Multiplicity = 1

 SCF Done:  E(RHF) =  -1063.08730137     A.U. after   16 cycles
 Normal termination of Gaussian 16 at Tue Apr  8 23:13:05 2025.
 Gaussian 16:  ES64L-G16RevC.01  3-Jul-2019

 ----------------------------------------------------------------------
 #t hf aug-cc-pvdz iop(5/13=1,5/36=2,99/5=2) pseudo=read geom=check gue
 ss=(read,tcheck) scf=(maxcycle=1)
 ----------------------------------------------------------------------
 -----
 title
 -----
 Structure from the checkpoint file:  "BDE49_expt_534_mol1.chk"
 Charge =  0 Multiplicity = 1

                         Standard orientation:
 ---------------------------------------------------------------------
 Center     Atomic      Atomic             Coordinates (Angstroms)
 Number     Number       Type             X           Y           Z
 ---------------------------------------------------------------------
      1          6           0        2.437417    0.864630   -0.195037
      2          6           0        1.403118    0.088361    0.637270
      3          6           0        1.771779   -1.374756    0.378116
      4          7           0        2.830977   -1.379474   -0.520823
      5          7           0        3.352868   -0.066242   -0.676219
      6          1           0        3.730695    0.130482   -1.596213
      7          1           0        3.527715   -2.102997   -0.387393
      8          6           0       -0.044467    0.496473    0.388330
      9          8           0        1.298244   -2.369248    0.871572
     10          8           0        2.491971    2.046404   -0.426216
     11          1           0        1.637679    0.267466    1.695128
     12          6           0       -1.027487   -0.457610    0.116061
     13          6           0       -2.339845   -0.043103   -0.088930
     14          6           0       -2.703469    1.295718   -0.023561
     15          6           0       -1.717248    2.237783    0.257881
     16          6           0       -0.398209    1.848273    0.465856
     17          1           0        0.362654    2.590979    0.663375
     18          1           0       -1.982559    3.287106    0.314835
     19          1           0       -0.787529   -1.510885    0.086622
     20         17           0       -3.567928   -1.252023   -0.434734
     21          1           0       -3.732047    1.590383   -0.185346
 ---------------------------------------------------------------------

 SCF Done:  E(RHF) =  -1066.02500725     A.U. after    2 cycles

 The electronic state is 1-A.
 Alpha  occ. eigenvalues --  -99.89451 -21.06973 -21.06833 -15.81611 -15.81113
 Alpha  occ. eigenvalues --  -11.55719 -11.55039 -11.53676 -11.48337 -11.47017
 Alpha  occ. eigenvalues --  -11.46020 -11.43713 -11.43460 -11.38862 -10.46784
 Alpha  occ. eigenvalues --   -9.66832  -9.65957  -9.65753  -1.76585  -1.73058
 Alpha  occ. eigenvalues --   -1.56348  -1.40891  -1.29714  -1.21181  -1.19877
 Alpha  occ. eigenvalues --   -1.09908  -1.07936  -0.91175  -0.88139  -0.83475
 Alpha  occ. eigenvalues --   -0.82785  -0.73216  -0.72560  -0.70267  -0.66550
 Alpha  occ. eigenvalues --   -0.64871  -0.60784  -0.60241  -0.59262  -0.57644
 Alpha  occ. eigenvalues --   -0.57020  -0.55122  -0.52591  -0.51645  -0.50004
 Alpha  occ. eigenvalues --   -0.48982  -0.48037  -0.46196  -0.40606  -0.35704
 Alpha  occ. eigenvalues --   -0.34044  -0.33209  -0.30829  -0.29703
 Alpha virt. eigenvalues --    0.02813   0.04665   0.04811   0.05541   0.05738
 Alpha virt. eigenvalues --    0.06712   0.07811   0.08097   0.09033   0.09590
 Alpha virt. eigenvalues --    0.09819   0.10392   0.11034   0.11265   0.11848

 Mulliken charges:
               1
     1  C    6.183450
     2  C   -6.540329
     3  C    6.359352
     4  N   -2.363400
     5  N   -2.366098
     6  H    0.803692
     7  H    0.784139
     8  C    6.543168
     9  O   -3.756032
    10  O   -3.544965
    11  H    1.255323
    12  C   -0.961305
    13  C   -1.929348
    14  C   -3.570475
    15  C   -0.501453
    16  C   -2.832009
    17  H    1.963488
    18  H    1.512092
    19  H    2.079551
    20  Cl  -0.863314
    21  H    1.744472
 Sum of Mulliken charges =  -0.00000

 Dipole moment (field-independent basis, Debye):
    X=              2.6884    Y=              1.3003    Z=             -0.2511  Tot=              2.9969

 Test job not archived.
 1\1\GINC-SE332\SP\RHF\Aug-CC-pVDZ\C9H7Cl1N2O2\OHZDE\08-Apr-2025\0\\#t
 hf aug-cc-pvdz iop(5/13=1,5/36=2,99/5=2) pseudo=read geom=check guess=
 (read,tcheck) scf=(maxcycle=1)\\title\\0,1\C,0,2.437417,0.86463,-0.195
 037\C,0,1.403118,0.088361,0.63727\C,0,1.771779,-1.374756,0.378116\N,0,
 2.830977,-1.379474,-0.520823\N,0,3.352868,-0.066242,-0.676219\H,0,3.73
 0695,0.130482,-1.596213\H,0,3.527715,-2.102997,-0.387393\C,0,-0.044467
 ,0.496473,0.38833\O,0,1.298244,-2.369248,0.871572\O,0,2.491971,2.04640
 4,-0.426216\H,0,1.637679,0.267466,1.695128\C,0,-1.027487,-0.45761,0.11

 Normal termination of Gaussian 16 at Tue Apr  8 23:13:21 2025.
