 Gaussian 16, Revision C.01,

 ----------------------------------------------------------------------
 #t hf aug-cc-pvdz symm=none int=(grid=ultrafine) guess=(read,tcheck) s
 table=(opt,rrhf)
 ----------------------------------------------------------------------
 -----
 title
 -----
 Symbolic Z-matrix:
 Charge =  0 Multiplicity = 1

 SCF Done:  E(RHF) =  -1045.73682243     A.U. after   17 cycles
 Normal termination of Gaussian 16 at Tue Apr  8 23:29:17 2025.
 Gaussian 16:  ES64L-G16RevC.01  3-Jul-2019

 ----------------------------------------------------------------------
 #t hf aug-cc-pvdz iop(5/13=1,5/36=2,99/5=2) pseudo=read geom=check gue
 ss=(read,tcheck) scf=(maxcycle=1)
 ----------------------------------------------------------------------
 -----
 title
 -----
 Structure from the checkpoint file:  "BDE49_nonexpt_1201_mol1.chk"
 Charge =  0 Multiplicity = 1

                         Standard orientation:
 ---------------------------------------------------------------------
 Center     Atomic      Atomic             Coordinates (Angstroms)
 Number     Number       Type             X           Y           Z
 ---------------------------------------------------------------------
      1          6           0        0.537911    0.161389   -0.259182
      2          8           0       -0.177055    1.129804   -0.234783
      3         16           0       -0.139453   -1.488888   -0.599978
      4          8           0       -1.766281   -1.068820   -0.752621
      5          6           0       -2.506246   -0.849104    0.407691
      6          8           0       -2.064296   -0.983433    1.507935
      7          6           0        2.014450    0.189547   -0.072950
      8          6           0        2.672124    1.412382   -0.254994
      9          6           0        4.050359    1.489794   -0.101322
     10          6           0        4.779832    0.351801    0.244674
     11          6           0        4.128012   -0.864251    0.440914
     12          6           0        2.748059   -0.947445    0.285286
     13          1           0        2.243922   -1.888788    0.473086
     14          1           0        2.086344    2.284430   -0.517648
     15          1           0        4.557680    2.436214   -0.248335
     16          1           0        5.855070    0.414536    0.367894
     17          1           0        4.692092   -1.744515    0.725766
     18          6           0       -3.900287   -0.413979    0.022477
     19          6           0       -3.946086    1.034351   -0.511414
     20          1           0       -4.518923   -0.513537    0.916632
     21          1           0       -4.275954   -1.097467   -0.743364
     22          6           0       -3.539641    2.085950    0.523723
     23          1           0       -4.968660    1.223746   -0.853397
     24          1           0       -3.299220    1.105995   -1.389459
     25          1           0       -4.165644    2.023596    1.419279
     26          1           0       -3.647516    3.091868    0.109668
     27          1           0       -2.497800    1.963116    0.825870
 ---------------------------------------------------------------------

 SCF Done:  E(RHF) =  -1048.91379028     A.U. after    2 cycles

 The electronic state is 1-A.
 Alpha  occ. eigenvalues --  -75.75140 -21.10678 -21.07204 -21.06020 -13.24986
 Alpha  occ. eigenvalues --  -13.17019 -13.11093 -11.53900 -11.53697 -11.52797
 Alpha  occ. eigenvalues --  -11.45756 -11.45190 -11.43496 -11.43002 -11.42731
 Alpha  occ. eigenvalues --  -11.39252 -11.38740 -11.35134  -8.08927  -1.84205
 Alpha  occ. eigenvalues --   -1.73376  -1.67589  -1.36585  -1.22687  -1.16408
 Alpha  occ. eigenvalues --   -1.11510  -1.10066  -1.03051  -0.92475  -0.88675
 Alpha  occ. eigenvalues --   -0.86975  -0.80273  -0.74780  -0.71765  -0.65580
 Alpha  occ. eigenvalues --   -0.64811  -0.63533  -0.62822  -0.60418  -0.59895
 Alpha  occ. eigenvalues --   -0.59228  -0.56842  -0.55308  -0.54359  -0.52217
 Alpha  occ. eigenvalues --   -0.50548  -0.48551  -0.48071  -0.47416  -0.46570
 Alpha  occ. eigenvalues --   -0.45673  -0.43444  -0.40969  -0.36059  -0.34997
 Alpha  occ. eigenvalues --   -0.33573  -0.29962  -0.27567  -0.25602
 Alpha virt. eigenvalues --    0.02947   0.04720   0.04897   0.04911   0.05903
 Alpha virt. eigenvalues --    0.05970   0.06081   0.06488   0.06841   0.07096
 Alpha virt. eigenvalues --    0.07515   0.07947   0.08885   0.10109   0.10331

 Mulliken charges:
               1
     1  C    0.160506
     2  O   -4.137834
     3  S    1.389076
     4  O   -2.933656
     5  C    6.662724
     6  O   -3.381382
     7  C    5.531166
     8  C   -3.611099
     9  C   -1.199766
    10  C   -2.757949
    11  C   -2.236545
    12  C   -0.471931
    13  H    2.110626
    14  H    1.744220
    15  H    1.496111
    16  H    1.529683
    17  H    1.494289
    18  C   -3.962771
    19  C   -3.334466
    20  H    1.384502
    21  H    1.411053
    22  C   -3.875889
    23  H    1.330695
    24  H    1.623868
    25  H    1.234305
    26  H    1.209545
    27  H    1.590919
 Sum of Mulliken charges =  -0.00000

 Dipole moment (field-independent basis, Debye):
    X=              1.5711    Y=             -0.5426    Z=             -0.6740  Tot=              1.7936

 Test job not archived.
 1\1\GINC-SE253\SP\RHF\Aug-CC-pVDZ\C11H12O3S1\OHZDE\08-Apr-2025\0\\#t h
 f aug-cc-pvdz iop(5/13=1,5/36=2,99/5=2) pseudo=read geom=check guess=(
 read,tcheck) scf=(maxcycle=1)\\title\\0,1\C,0,0.537911,0.161389,-0.259
 182\O,0,-0.177055,1.129804,-0.234783\S,0,-0.139453,-1.488888,-0.599978
 \O,0,-1.766281,-1.06882,-0.752621\C,0,-2.506246,-0.849104,0.407691\O,0
 ,-2.064296,-0.983433,1.507935\C,0,2.01445,0.189547,-0.07295\C,0,2.6721
 24,1.412382,-0.254994\C,0,4.050359,1.489794,-0.101322\C,0,4.779832,0.3
 51801,0.244674\C,0,4.128012,-0.864251,0.440914\C,0,2.748059,-0.947445,

 Normal termination of Gaussian 16 at Tue Apr  8 23:29:44 2025.
