 Gaussian 16, Revision C.01,

 ----------------------------------------------------------------------
 #t hf aug-cc-pvdz symm=none int=(grid=ultrafine) guess=(read,tcheck) s
 table=(opt,rrhf)
 ----------------------------------------------------------------------
 -----
 title
 -----
 Symbolic Z-matrix:
 Charge =  0 Multiplicity = 1

 SCF Done:  E(RHF) =  -862.152992035     A.U. after   15 cycles
 Normal termination of Gaussian 16 at Tue Apr  8 23:42:51 2025.
 Gaussian 16:  ES64L-G16RevC.01  3-Jul-2019

 ----------------------------------------------------------------------
 #t hf aug-cc-pvdz iop(5/13=1,5/36=2,99/5=2) pseudo=read geom=check gue
 ss=(read,tcheck) scf=(maxcycle=1)
 ----------------------------------------------------------------------
 -----
 title
 -----
 Structure from the checkpoint file:  "BDE49_nonexpt_1652_mol1.chk"
 Charge =  0 Multiplicity = 1

                         Standard orientation:
 ---------------------------------------------------------------------
 Center     Atomic      Atomic             Coordinates (Angstroms)
 Number     Number       Type             X           Y           Z
 ---------------------------------------------------------------------
      1          6           0        0.355685    0.230012    0.316371
      2          6           0        0.897219   -1.051449    0.512388
      3          6           0        2.223627   -1.326484    0.192491
      4          6           0        3.037052   -0.323459   -0.333125
      5          6           0        2.519079    0.953214   -0.535921
      6          6           0        1.190820    1.225803   -0.213624
      7         15           0       -2.813155   -0.571450   -0.662175
      8          1           0        2.623445   -2.321605    0.353202
      9          1           0        4.070549   -0.537022   -0.582290
     10          1           0        3.148336    1.736986   -0.943062
     11          1           0        0.802822    2.226723   -0.373614
     12          1           0        0.279051   -1.845217    0.920684
     13         14           0       -1.435110    0.603985    0.730490
     14          1           0       -2.581056    0.266389   -1.784535
     15          1           0       -3.986675    0.122962   -0.263043
     16          1           0       -1.644300    2.069110    0.642402
     17          1           0       -1.764207    0.151801    2.104530
 ---------------------------------------------------------------------

 SCF Done:  E(RHF) =  -863.625051432     A.U. after    2 cycles

 The electronic state is 1-A.
 Alpha  occ. eigenvalues -- -105.17108 -76.22469 -11.51391 -11.43136 -11.42695
 Alpha  occ. eigenvalues --  -11.40804 -11.40459 -11.36363  -5.56051  -2.73835
 Alpha  occ. eigenvalues --   -2.20754  -2.19298  -2.17606  -1.43676  -1.43058
 Alpha  occ. eigenvalues --   -1.41299  -1.33846  -1.09383  -1.09299  -0.86555
 Alpha  occ. eigenvalues --   -0.86449  -0.78153  -0.71377  -0.67068  -0.63256
 Alpha  occ. eigenvalues --   -0.58657  -0.57042  -0.53242  -0.50723  -0.47747
 Alpha  occ. eigenvalues --   -0.44864  -0.40271  -0.34464  -0.33309  -0.25633
 Alpha  occ. eigenvalues --   -0.15266  -0.03927
 Alpha virt. eigenvalues --    0.03380   0.05152   0.05247   0.05757   0.06245
 Alpha virt. eigenvalues --    0.06608   0.07118   0.07460   0.08529   0.09553
 Alpha virt. eigenvalues --    0.09978   0.10297   0.11002   0.11440   0.11660

 Mulliken charges:
               1
     1  C   -0.439288
     2  C   -2.108520
     3  C   -0.639327
     4  C   -2.081253
     5  C   -0.474024
     6  C   -2.656971
     7  P    1.422007
     8  H    1.536166
     9  H    1.522297
    10  H    1.553722
    11  H    1.816271
    12  H    1.903846
    13  Si   3.564317
    14  H   -0.772951
    15  H   -0.757579
    16  H   -1.718273
    17  H   -1.670441
 Sum of Mulliken charges =  -0.00000

 Dipole moment (field-independent basis, Debye):
    X=             -0.7535    Y=             -6.0920    Z=             -2.1041  Tot=              6.4890

 Test job not archived.
 1\1\GINC-SE026\SP\RHF\Aug-CC-pVDZ\C6H9P1Si1\OHZDE\08-Apr-2025\0\\#t hf
  aug-cc-pvdz iop(5/13=1,5/36=2,99/5=2) pseudo=read geom=check guess=(r
 ead,tcheck) scf=(maxcycle=1)\\title\\0,1\C,0,0.355685,0.230012,0.31637
 1\C,0,0.897219,-1.051449,0.512388\C,0,2.223627,-1.326484,0.192491\C,0,
 3.037052,-0.323459,-0.333125\C,0,2.519079,0.953214,-0.535921\C,0,1.190
 82,1.225803,-0.213624\P,0,-2.813155,-0.57145,-0.662175\H,0,2.623445,-2
 .321605,0.353202\H,0,4.070549,-0.537022,-0.58229\H,0,3.148336,1.736986
 ,-0.943062\H,0,0.802822,2.226723,-0.373614\H,0,0.279051,-1.845217,0.92

 Normal termination of Gaussian 16 at Tue Apr  8 23:42:58 2025.
