 Gaussian 16, Revision C.01,

 ----------------------------------------------------------------------
 #t hf aug-cc-pvdz symm=none int=(grid=ultrafine) guess=(read,tcheck) s
 table=opt
 ----------------------------------------------------------------------
 -----
 title
 -----
 Symbolic Z-matrix:
 Charge =  0 Multiplicity = 2

 SCF Done:  E(UHF) =  -446.782085939     A.U. after   15 cycles
 Normal termination of Gaussian 16 at Tue Apr  8 23:57:52 2025.
 Gaussian 16:  ES64L-G16RevC.01  3-Jul-2019

 ----------------------------------------------------------------------
 #t hf aug-cc-pvdz iop(5/13=1,5/36=2,99/5=2) pseudo=read geom=check gue
 ss=(read,tcheck) scf=(maxcycle=1)
 ----------------------------------------------------------------------
 -----
 title
 -----
 Structure from the checkpoint file:  "BDE49_nonexpt_2032_mol2.chk"
 Charge =  0 Multiplicity = 2

                         Standard orientation:
 ---------------------------------------------------------------------
 Center     Atomic      Atomic             Coordinates (Angstroms)
 Number     Number       Type             X           Y           Z
 ---------------------------------------------------------------------
      1         14           0       -1.106075   -1.174533    0.026410
      2          6           0       -0.179375    0.450105   -0.353155
      3          6           0        1.197928    0.539331    0.334916
      4          6           0       -1.067526    1.657860    0.014985
      5          1           0       -1.269017    1.690688    1.090247
      6          1           0       -2.029661    1.633663   -0.503080
      7          1           0       -0.568510    2.596445   -0.254828
      8          1           0       -0.018766    0.464851   -1.439600
      9          6           0        2.217275   -0.499841   -0.140024
     10          1           0        1.067277    0.457702    1.421260
     11          1           0        1.604785    1.543646    0.159203
     12          1           0        1.878968   -1.520923    0.062385
     13          1           0        3.179373   -0.364583    0.361320
     14          1           0        2.388966   -0.418980   -1.217901
     15          1           0       -1.342227   -1.313443    1.491398
     16          1           0       -2.415950   -1.210339   -0.680477
 ---------------------------------------------------------------------

 SCF Done:  E(UHF) =  -447.756256393     A.U. after    2 cycles

 The electronic state is 2-A.
 Alpha  occ. eigenvalues --  -76.21394 -11.41701 -11.39438 -11.37071 -11.34421
 Alpha  occ. eigenvalues --   -5.54801  -2.18665  -2.17140  -2.16719  -1.23932
 Alpha  occ. eigenvalues --   -1.07597  -0.91883  -0.83529  -0.72956  -0.62769
 Alpha  occ. eigenvalues --   -0.58861  -0.58290  -0.56257  -0.51002  -0.48994
 Alpha  occ. eigenvalues --   -0.47027  -0.45498  -0.42896  -0.38403  -0.26244
 Alpha virt. eigenvalues --    0.03985   0.05086   0.05454   0.05783   0.06209
 Alpha virt. eigenvalues --    0.06306   0.06510   0.06617   0.07340   0.08526
 Alpha virt. eigenvalues --    0.09069   0.10071   0.10370   0.11348   0.13252

  Beta  occ. eigenvalues --  -76.20848 -11.41685 -11.39384 -11.37029 -11.34388
  Beta  occ. eigenvalues --   -5.53949  -2.17912  -2.16406  -2.13427  -1.23713
  Beta  occ. eigenvalues --   -1.07384  -0.91726  -0.82709  -0.69692  -0.62270
  Beta  occ. eigenvalues --   -0.58637  -0.58016  -0.55831  -0.50849  -0.48816
  Beta  occ. eigenvalues --   -0.46546  -0.45162  -0.42684  -0.37213
  Beta virt. eigenvalues --    0.03791   0.04217   0.05188   0.05698   0.06081
  Beta virt. eigenvalues --    0.06254   0.06496   0.06553   0.07086   0.08146
  Beta virt. eigenvalues --    0.08900   0.09229   0.10347   0.11200   0.11531

 Mulliken charges and spin densities:
               1          2
     1  Si   3.853729   1.133594
     2  C   -2.239951  -0.052588
     3  C   -2.777157  -0.010897
     4  C   -4.001266  -0.008063
     5  H    1.344364  -0.014954
     6  H    1.263606   0.001391
     7  H    1.260384  -0.002785
     8  H    1.815026  -0.024222
     9  C   -3.814596   0.055221
    10  H    1.384139  -0.009099
    11  H    1.441122  -0.000668
    12  H    1.421489  -0.045870
    13  H    1.096277   0.004381
    14  H    1.282881   0.001699
    15  H   -1.663195  -0.023947
    16  H   -1.666851  -0.003194
 Sum of Mulliken charges =   0.00000   1.00000

 Dipole moment (field-independent basis, Debye):
    X=              0.8823    Y=              0.7086    Z=             -0.4117  Tot=              1.2042
                          Isotropic Fermi Contact Couplings
        Atom                 a.u.       MegaHertz       Gauss      10(-4) cm-1
     1  Si(29)             0.43655    -387.97850    -138.44038    -129.41570
     2  C(13)              0.01055      11.85981       4.23188       3.95601
     3  C(13)             -0.00100      -1.12754      -0.40234      -0.37611
     4  C(13)              0.02251      25.30852       9.03071       8.44202
     5  H(1)              -0.00002      -0.10912      -0.03894      -0.03640
     6  H(1)               0.00026       1.15887       0.41351       0.38656
     7  H(1)               0.00319      14.27624       5.09412       4.76204
     8  H(1)               0.00005       0.23028       0.08217       0.07681

 Normal termination of Gaussian 16 at Tue Apr  8 23:57:58 2025.
