 Gaussian 16, Revision C.01,

 ----------------------------------------------------------------------
 #t hf aug-cc-pvdz symm=none int=(grid=ultrafine) guess=(read,tcheck) s
 table=(opt,rrhf)
 ----------------------------------------------------------------------
 -----
 title
 -----
 Symbolic Z-matrix:
 Charge =  0 Multiplicity = 1

 SCF Done:  E(RHF) =  -631.750338855     A.U. after   12 cycles

 1\1\GINC-SE103\Stability\RHF\Aug-CC-pVDZ\C6H12S1\OHZDE\08-Apr-2025\0\\
 #t hf aug-cc-pvdz symm=none int=(grid=ultrafine) guess=(read,tcheck) s
 table=(opt,rrhf)\\title\\0,1\C,0,-0.002805,-0.161694,0.77841\C,0,-1.21
 2187,-1.101113,0.602243\C,0,-0.613412,1.229772,0.544104\C,0,-1.623884,
 1.030134,-0.602949\H,0,0.127175,2.003681,0.332527\H,0,-1.135263,1.5287
 3,1.461837\C,0,-2.106904,-0.442839,-0.481047\H,0,-1.129405,1.184715,-1
 .563829\H,0,-2.4474,1.745239,-0.545407\H,0,-3.160752,-0.500805,-0.1994
 61\H,0,-2.007287,-0.96026,-1.437193\H,0,-1.745955,-1.147681,1.556655\H

 Normal termination of Gaussian 16 at Tue Apr  8 22:47:34 2025.
 Gaussian 16:  ES64L-G16RevC.01  3-Jul-2019

 ----------------------------------------------------------------------
 #t hf aug-cc-pvdz iop(5/13=1,5/36=2,99/5=2) pseudo=read geom=check gue
 ss=(read,tcheck) scf=(maxcycle=1)
 ----------------------------------------------------------------------
 -----
 title
 -----
 Structure from the checkpoint file:  "BDE49_expt_1572_mol1.chk"
 Charge =  0 Multiplicity = 1

                         Standard orientation:
 ---------------------------------------------------------------------
 Center     Atomic      Atomic             Coordinates (Angstroms)
 Number     Number       Type             X           Y           Z
 ---------------------------------------------------------------------
      1          6           0       -0.002805   -0.161694    0.778410
      2          6           0       -1.212187   -1.101113    0.602243
      3          6           0       -0.613412    1.229772    0.544104
      4          6           0       -1.623884    1.030134   -0.602949
      5          1           0        0.127175    2.003681    0.332527
      6          1           0       -1.135263    1.528730    1.461837
      7          6           0       -2.106904   -0.442839   -0.481047
      8          1           0       -1.129405    1.184715   -1.563829
      9          1           0       -2.447400    1.745239   -0.545407
     10          1           0       -3.160752   -0.500805   -0.199461
     11          1           0       -2.007287   -0.960260   -1.437193
     12          1           0       -1.745955   -1.147681    1.556655
     13          1           0       -0.918166   -2.122669    0.352433
     14         16           0        1.293165   -0.624211   -0.451812
     15          1           0        0.450836   -0.260684    1.767403
     16          6           0        2.640156    0.505046    0.024084
     17          1           0        2.924402    0.354056    1.067505
     18          1           0        2.373674    1.549817   -0.141522
     19          1           0        3.491725    0.257402   -0.611022
 ---------------------------------------------------------------------

 SCF Done:  E(RHF) =  -633.194923514     A.U. after    2 cycles

 The electronic state is 1-A.
 Alpha  occ. eigenvalues --  -75.66303 -13.11739 -13.07831 -13.02312 -11.46542
 Alpha  occ. eigenvalues --  -11.44108 -11.38901 -11.38112 -11.37634 -11.33998
 Alpha  occ. eigenvalues --   -8.00336  -1.33953  -1.16687  -1.04232  -1.03225
 Alpha  occ. eigenvalues --   -0.92127  -0.81550  -0.78541  -0.67622  -0.65532
 Alpha  occ. eigenvalues --   -0.59121  -0.58152  -0.57604  -0.54314  -0.47635
 Alpha  occ. eigenvalues --   -0.46588  -0.45580  -0.43560  -0.43480  -0.39729
 Alpha  occ. eigenvalues --   -0.33881  -0.21592
 Alpha virt. eigenvalues --    0.03703   0.04212   0.05447   0.05745   0.05912
 Alpha virt. eigenvalues --    0.05956   0.06128   0.06494   0.06596   0.08655
 Alpha virt. eigenvalues --    0.09100   0.09185   0.10607   0.12406   0.13538

 Mulliken charges:
               1
     1  C   -0.742304
     2  C   -3.203247
     3  C   -3.015871
     4  C   -3.015740
     5  H    1.475812
     6  H    1.262812
     7  C   -2.531899
     8  H    1.490257
     9  H    1.279367
    10  H    1.384145
    11  H    1.321508
    12  H    1.173454
    13  H    1.445428
    14  S    0.736082
    15  H    1.588327
    16  C   -4.996405
    17  H    1.424848
    18  H    1.605231
    19  H    1.318194
 Sum of Mulliken charges =   0.00000

 Dipole moment (field-independent basis, Debye):
    X=             -0.1431    Y=             -0.1910    Z=             -0.0484  Tot=              0.2435

 Test job not archived.
 1\1\GINC-SE103\SP\RHF\Aug-CC-pVDZ\C6H12S1\OHZDE\08-Apr-2025\0\\#t hf a
 ug-cc-pvdz iop(5/13=1,5/36=2,99/5=2) pseudo=read geom=check guess=(rea
 d,tcheck) scf=(maxcycle=1)\\title\\0,1\C,0,-0.002805,-0.161694,0.77841
 \C,0,-1.212187,-1.101113,0.602243\C,0,-0.613412,1.229772,0.544104\C,0,
 -1.623884,1.030134,-0.602949\H,0,0.127175,2.003681,0.332527\H,0,-1.135
 263,1.52873,1.461837\C,0,-2.106904,-0.442839,-0.481047\H,0,-1.129405,1
 .184715,-1.563829\H,0,-2.4474,1.745239,-0.545407\H,0,-3.160752,-0.5008
 05,-0.199461\H,0,-2.007287,-0.96026,-1.437193\H,0,-1.745955,-1.147681,

 Normal termination of Gaussian 16 at Tue Apr  8 22:47:45 2025.
