 Gaussian 16, Revision C.01,

 ----------------------------------------------------------------------
 #t hf aug-cc-pvdz symm=none int=(grid=ultrafine) guess=(read,tcheck) s
 table=(opt,rrhf)
 ----------------------------------------------------------------------
 -----
 title
 -----
 Symbolic Z-matrix:
 Charge =  0 Multiplicity = 1

 SCF Done:  E(RHF) =  -2625.06898687     A.U. after   12 cycles
 Normal termination of Gaussian 16 at Tue Apr  8 23:49:25 2025.
 Gaussian 16:  ES64L-G16RevC.01  3-Jul-2019

 ----------------------------------------------------------------------
 #t hf aug-cc-pvdz iop(5/13=1,5/36=2,99/5=2) pseudo=read geom=check gue
 ss=(read,tcheck) scf=(maxcycle=1)
 ----------------------------------------------------------------------
 -----
 title
 -----
 Structure from the checkpoint file:  "BDE49_nonexpt_1818_mol1.chk"
 Charge =  0 Multiplicity = 1

                         Standard orientation:
 ---------------------------------------------------------------------
 Center     Atomic      Atomic             Coordinates (Angstroms)
 Number     Number       Type             X           Y           Z
 ---------------------------------------------------------------------
      1          6           0        0.825495    1.003257    0.000000
      2         14           0       -0.105733   -0.650658   -0.000000
      3          1           0        1.900193    0.834373    0.000000
      4         17           0        0.451200    1.940891    1.485980
      5         17           0        0.451200    1.940891   -1.485980
      6         17           0       -2.120854   -0.338161   -0.000000
      7         17           0        0.451200   -1.705478    1.665319
      8         17           0        0.451200   -1.705478   -1.665319
 ---------------------------------------------------------------------

 SCF Done:  E(RHF) =  -2626.62135218     A.U. after    2 cycles

 The electronic state is 1-A'.
 Alpha  occ. eigenvalues --  -99.91962 -99.91958 -99.91925 -99.91920 -99.91905
 Alpha  occ. eigenvalues --  -76.36282 -11.49856 -10.49487 -10.49474 -10.49363
 Alpha  occ. eigenvalues --  -10.49260 -10.49104  -9.69314  -9.69304  -9.69264
 Alpha  occ. eigenvalues --   -9.69046  -9.69033  -9.68790  -9.68756  -9.68717
 Alpha  occ. eigenvalues --   -9.68651  -9.68612  -9.68482  -9.68343  -9.68335
 Alpha  occ. eigenvalues --   -9.68225  -9.68214  -5.70101  -2.32271  -2.32124
 Alpha  occ. eigenvalues --   -2.32002  -1.41388  -1.34919  -1.31582  -1.31527
 Alpha  occ. eigenvalues --   -1.30249  -1.01896  -0.81601  -0.71366  -0.67783
 Alpha  occ. eigenvalues --   -0.66268  -0.63271  -0.62728  -0.58037  -0.57738
 Alpha  occ. eigenvalues --   -0.57531  -0.55574  -0.54666  -0.53896  -0.53041
 Alpha  occ. eigenvalues --   -0.52248  -0.50794  -0.46212
 Alpha virt. eigenvalues --    0.01072   0.03504   0.05164   0.05280   0.06189
 Alpha virt. eigenvalues --    0.06558   0.07197   0.08935   0.09880   0.10052
 Alpha virt. eigenvalues --    0.10947   0.11412   0.12147   0.12712   0.13936

 Mulliken charges:
               1
     1  C   -3.353603
     2  Si   3.384594
     3  H    1.711914
     4  Cl   0.192657
     5  Cl   0.192657
     6  Cl  -0.697617
     7  Cl  -0.715301
     8  Cl  -0.715301
 Sum of Mulliken charges =  -0.00000

 Dipole moment (field-independent basis, Debye):
    X=              0.9183    Y=             -0.4278    Z=             -0.0000  Tot=              1.0131

 Test job not archived.
 1\1\GINC-SE453\SP\RHF\Aug-CC-pVDZ\C1H1Cl5Si1\OHZDE\08-Apr-2025\0\\#t h
 f aug-cc-pvdz iop(5/13=1,5/36=2,99/5=2) pseudo=read geom=check guess=(
 read,tcheck) scf=(maxcycle=1)\\title\\0,1\C,0,1.120133,0.,-0.658231\Si
 ,0,-0.659188,0.,0.002553\H,0,1.121601,0.,-1.746117\Cl,0,1.987599,-1.48
 598,-0.141744\Cl,0,1.987599,1.48598,-0.141744\Cl,0,-0.666059,0.,2.0417
 49\Cl,0,-1.613798,-1.665319,-0.712667\Cl,0,-1.613798,1.665319,-0.71266
 7\\Version=ES64L-G16RevC.01\State=1-A'\HF=-2626.6213522\RMSD=4.110e-02
 \Dipole=-0.1096721,0.,-0.3831898\Quadrupole=-1.9381308,0.459898,1.4782

 Normal termination of Gaussian 16 at Tue Apr  8 23:49:28 2025.
