 Gaussian 16, Revision C.01,

 ----------------------------------------------------------------------
 #t hf aug-cc-pvdz symm=none int=(grid=ultrafine) guess=(read,tcheck) s
 table=(opt,rrhf)
 ----------------------------------------------------------------------
 -----
 title
 -----
 Symbolic Z-matrix:
 Charge =  0 Multiplicity = 1

 SCF Done:  E(RHF) =  -317.185982257     A.U. after   13 cycles
 Normal termination of Gaussian 16 at Wed Apr  9 00:33:17 2025.
 Gaussian 16:  ES64L-G16RevC.01  3-Jul-2019

 ----------------------------------------------------------------------
 #t hf aug-cc-pvdz iop(5/13=1,5/36=2,99/5=2) pseudo=read geom=check gue
 ss=(read,tcheck) scf=(maxcycle=1)
 ----------------------------------------------------------------------
 -----
 title
 -----
 Structure from the checkpoint file:  "BDE49_nonexpt_406_mol1.chk"
 Charge =  0 Multiplicity = 1

                         Standard orientation:
 ---------------------------------------------------------------------
 Center     Atomic      Atomic             Coordinates (Angstroms)
 Number     Number       Type             X           Y           Z
 ---------------------------------------------------------------------
      1          9           0       -1.594737   -0.761803   -0.000009
      2          9           0       -0.639581    1.292567    0.000009
      3          5           0       -0.497684   -0.025180    0.000008
      4          6           0        0.935036   -0.663496   -0.000006
      5          7           0        2.020691    0.009856   -0.000002
      6          1           0        1.810164    1.014532    0.000009
      7          1           0        1.032061   -1.753525    0.000001
 ---------------------------------------------------------------------

 SCF Done:  E(RHF) =  -318.380715990     A.U. after    2 cycles

 The electronic state is 1-A.
 Alpha  occ. eigenvalues --  -29.27685 -29.27564 -15.78191 -11.40937  -7.72258
 Alpha  occ. eigenvalues --   -1.37127  -1.15650  -0.88232  -0.76978  -0.68779
 Alpha  occ. eigenvalues --   -0.59754  -0.54069  -0.47849  -0.47454  -0.43141
 Alpha  occ. eigenvalues --   -0.42542  -0.35834  -0.34979  -0.27562
 Alpha virt. eigenvalues --    0.03446   0.03853   0.04779   0.05519   0.07358
 Alpha virt. eigenvalues --    0.08843   0.09005   0.12394   0.13861   0.15668
 Alpha virt. eigenvalues --    0.17675   0.18000   0.19724   0.20661   0.21778

 Mulliken charges:
               1
     1  F    0.496551
     2  F   -0.871467
     3  B    1.979151
     4  C   -1.758436
     5  N   -2.231692
     6  H    0.916887
     7  H    1.469006
 Sum of Mulliken charges =  -0.00000

 Dipole moment (field-independent basis, Debye):
    X=             -3.5298    Y=              1.2753    Z=              0.0000  Tot=              3.7531

 Test job not archived.
 1\1\GINC-SE083\SP\RHF\Aug-CC-pVDZ\C1H2B1F2N1\OHZDE\09-Apr-2025\0\\#t h
 f aug-cc-pvdz iop(5/13=1,5/36=2,99/5=2) pseudo=read geom=check guess=(
 read,tcheck) scf=(maxcycle=1)\\title\\0,1\F,0,-1.594737,-0.761803,-0.0
 00009\F,0,-0.639581,1.292567,0.000009\B,0,-0.497684,-0.02518,0.000008\
 C,0,0.935036,-0.663496,-0.000006\N,0,2.020691,0.009856,-0.000002\H,0,1
 .810164,1.014532,0.000009\H,0,1.032061,-1.753525,0.000001\\Version=ES6
 4L-G16RevC.01\State=1-A\HF=-318.380716\RMSD=2.621e-01\Dipole=-1.388726
 2,0.5017294,0.0000012\Quadrupole=-2.6782246,4.2196225,-1.541398,2.7775

 Normal termination of Gaussian 16 at Wed Apr  9 00:33:21 2025.
