 Gaussian 16, Revision C.01,

 ----------------------------------------------------------------------
 #t hf aug-cc-pvdz symm=none int=(grid=ultrafine) guess=(read,tcheck) s
 table=(opt,rrhf)
 ----------------------------------------------------------------------
 -----
 title
 -----
 Symbolic Z-matrix:
 Charge =  0 Multiplicity = 1

 SCF Done:  E(RHF) =  -762.864656689     A.U. after   18 cycles
 Normal termination of Gaussian 16 at Tue Apr  8 23:38:39 2025.
 Gaussian 16:  ES64L-G16RevC.01  3-Jul-2019

 ----------------------------------------------------------------------
 #t hf aug-cc-pvdz iop(5/13=1,5/36=2,99/5=2) pseudo=read geom=check gue
 ss=(read,tcheck) scf=(maxcycle=1)
 ----------------------------------------------------------------------
 -----
 title
 -----
 Structure from the checkpoint file:  "BDE49_nonexpt_1477_mol1.chk"
 Charge =  0 Multiplicity = 1

                         Standard orientation:
 ---------------------------------------------------------------------
 Center     Atomic      Atomic             Coordinates (Angstroms)
 Number     Number       Type             X           Y           Z
 ---------------------------------------------------------------------
      1          6           0       -1.945399    0.631860   -1.065853
      2          6           0       -0.612403    0.256479   -1.178443
      3          6           0       -2.735235    0.193364    0.005201
      4          6           0       -2.143661   -0.640405    0.956478
      5          6           0       -0.811007   -1.030496    0.841448
      6          6           0       -0.018873   -0.581564   -0.221620
      7          1           0       -0.027177    0.617842   -2.017042
      8          1           0       -2.381725    1.279114   -1.820446
      9          1           0       -2.733801   -0.999178    1.793602
     10          1           0       -0.384512   -1.696295    1.584593
     11         15           0        1.734994   -1.126908   -0.304357
     12          6           0        2.721811    0.431440    0.142473
     13          8           0        3.776706    0.621368   -0.412789
     14          6           0        2.205621    1.317530    1.256296
     15          1           0        1.295281    1.829789    0.933014
     16          1           0        2.970323    2.049101    1.519022
     17          1           0        1.940321    0.718306    2.132177
     18          6           0       -4.186836    0.592534    0.106314
     19          1           0       -4.320809    1.659011   -0.093595
     20          1           0       -4.590885    0.380148    1.097936
     21          1           0       -4.794768    0.047170   -0.623338
     22          1           0        1.945107   -0.976771   -1.692020
 ---------------------------------------------------------------------

 SCF Done:  E(RHF) =  -765.048366166     A.U. after    2 cycles

 The electronic state is 1-A.
 Alpha  occ. eigenvalues -- -105.18630 -21.05799 -11.52208 -11.48067 -11.44617
 Alpha  occ. eigenvalues --  -11.44482 -11.43301 -11.41729 -11.39794 -11.38785
 Alpha  occ. eigenvalues --  -11.37160  -2.76291  -1.71251  -1.52064  -1.46829
 Alpha  occ. eigenvalues --   -1.46216  -1.34970  -1.14512  -1.10251  -1.10235
 Alpha  occ. eigenvalues --   -0.99678  -0.87735  -0.84325  -0.79088  -0.69821
 Alpha  occ. eigenvalues --   -0.66018  -0.63033  -0.61693  -0.59317  -0.58680
 Alpha  occ. eigenvalues --   -0.58646  -0.57968  -0.52871  -0.52501  -0.50280
 Alpha  occ. eigenvalues --   -0.47907  -0.44904  -0.43152  -0.38913  -0.34209
 Alpha  occ. eigenvalues --   -0.33927  -0.24873  -0.16980  -0.02037
 Alpha virt. eigenvalues --    0.03186   0.04280   0.05020   0.05309   0.05867
 Alpha virt. eigenvalues --    0.06404   0.06564   0.07196   0.07468   0.07965
 Alpha virt. eigenvalues --    0.08465   0.09206   0.09969   0.10345   0.10904

 Mulliken charges:
               1
     1  C   -0.615819
     2  C   -4.278402
     3  C    2.930875
     4  C   -0.799399
     5  C   -6.170838
     6  C    3.251151
     7  H    1.984440
     8  H    1.859785
     9  H    1.935581
    10  H    2.006187
    11  P    2.991484
    12  C    1.423391
    13  O   -3.006671
    14  C   -4.580082
    15  H    1.559044
    16  H    1.184639
    17  H    1.508151
    18  C   -5.947002
    19  H    1.043949
    20  H    1.215926
    21  H    1.124780
    22  H   -0.621169
 Sum of Mulliken charges =   0.00000

 Dipole moment (field-independent basis, Debye):
    X=             -3.0171    Y=             -0.8382    Z=              0.4345  Tot=              3.1614

 Test job not archived.
 1\1\GINC-SE402\SP\RHF\Aug-CC-pVDZ\C9H11O1P1\OHZDE\08-Apr-2025\0\\#t hf
  aug-cc-pvdz iop(5/13=1,5/36=2,99/5=2) pseudo=read geom=check guess=(r
 ead,tcheck) scf=(maxcycle=1)\\title\\0,1\C,0,-1.945399,0.63186,-1.0658
 53\C,0,-0.612403,0.256479,-1.178443\C,0,-2.735235,0.193364,0.005201\C,
 0,-2.143661,-0.640405,0.956478\C,0,-0.811007,-1.030496,0.841448\C,0,-0
 .018873,-0.581564,-0.22162\H,0,-0.027177,0.617842,-2.017042\H,0,-2.381
 725,1.279114,-1.820446\H,0,-2.733801,-0.999178,1.793602\H,0,-0.384512,
 -1.696295,1.584593\P,0,1.734994,-1.126908,-0.304357\C,0,2.721811,0.431

 Normal termination of Gaussian 16 at Tue Apr  8 23:38:53 2025.
