 Gaussian 16, Revision C.01,

 ----------------------------------------------------------------------
 #t hf aug-cc-pvdz symm=none int=(grid=ultrafine) guess=(read,tcheck) s
 table=(opt,rrhf)
 ----------------------------------------------------------------------
 -----
 title
 -----
 Symbolic Z-matrix:
 Charge =  0 Multiplicity = 1

 SCF Done:  E(RHF) =  -849.162417607     A.U. after   11 cycles
 Normal termination of Gaussian 16 at Tue Apr  8 23:47:14 2025.
 Gaussian 16:  ES64L-G16RevC.01  3-Jul-2019

 ----------------------------------------------------------------------
 #t hf aug-cc-pvdz iop(5/13=1,5/36=2,99/5=2) pseudo=read geom=check gue
 ss=(read,tcheck) scf=(maxcycle=1)
 ----------------------------------------------------------------------
 -----
 title
 -----
 Structure from the checkpoint file:  "BDE49_nonexpt_1789_mol1.chk"
 Charge =  0 Multiplicity = 1

                         Standard orientation:
 ---------------------------------------------------------------------
 Center     Atomic      Atomic             Coordinates (Angstroms)
 Number     Number       Type             X           Y           Z
 ---------------------------------------------------------------------
      1         14           0        0.560102    0.513938    0.000014
      2          9           0        1.558447   -0.736619   -0.000005
      3         17           0       -1.377806   -0.183985   -0.000010
      4          1           0        0.777607    1.281078   -1.232700
      5          1           0        0.777636    1.281106    1.232706
 ---------------------------------------------------------------------

 SCF Done:  E(RHF) =  -849.904031376     A.U. after    2 cycles

 The electronic state is 1-A.
 Alpha  occ. eigenvalues --  -99.89854 -76.30584 -29.28686 -10.47353  -9.67193
 Alpha  occ. eigenvalues --   -9.66502  -9.66476  -5.64924  -2.29423  -2.26102
 Alpha  occ. eigenvalues --   -2.25583  -1.30774  -0.89451  -0.64218  -0.58430
 Alpha  occ. eigenvalues --   -0.58025  -0.53056  -0.50667  -0.35919  -0.35149
 Alpha  occ. eigenvalues --   -0.34640
 Alpha virt. eigenvalues --    0.04647   0.05270   0.06146   0.06782   0.09827
 Alpha virt. eigenvalues --    0.11414   0.13744   0.14609   0.15169   0.15694
 Alpha virt. eigenvalues --    0.16474   0.18050   0.23397   0.24219   0.25108

 Mulliken charges:
               1
     1  Si   5.404704
     2  F   -0.922489
     3  Cl  -0.853201
     4  H   -1.814521
     5  H   -1.814493
 Sum of Mulliken charges =   0.00000

 Dipole moment (field-independent basis, Debye):
    X=              2.5660    Y=             -1.1596    Z=              0.0001  Tot=              2.8159

 Test job not archived.
 1\1\GINC-SE073\SP\RHF\Aug-CC-pVDZ\Cl1F1H2Si1\OHZDE\08-Apr-2025\0\\#t h
 f aug-cc-pvdz iop(5/13=1,5/36=2,99/5=2) pseudo=read geom=check guess=(
 read,tcheck) scf=(maxcycle=1)\\title\\0,1\Si,0,-0.560102,0.513938,-0.0
 00014\F,0,-1.558447,-0.736619,0.000005\Cl,0,1.377806,-0.183985,0.00001
 \H,0,-0.777607,1.281078,1.2327\H,0,-0.777636,1.281106,-1.232706\\Versi
 on=ES64L-G16RevC.01\State=1-A\HF=-849.9040314\RMSD=9.505e-02\Dipole=-1
 .0095392,-0.456237,-0.0000302\Quadrupole=1.5181793,-0.1087282,-1.40945
 11,1.1488551,0.0000202,-0.0000668\PG=C01 [X(Cl1F1H2Si1)]\\@

 Normal termination of Gaussian 16 at Tue Apr  8 23:47:15 2025.
