 Gaussian 16, Revision C.01,

 ----------------------------------------------------------------------
 #t hf aug-cc-pvdz symm=none int=(grid=ultrafine) guess=(read,tcheck) s
 table=opt
 ----------------------------------------------------------------------
 -----
 title
 -----
 Symbolic Z-matrix:
 Charge =  0 Multiplicity = 2

 SCF Done:  E(UHF) =  -809.730961299     A.U. after   15 cycles
 Normal termination of Gaussian 16 at Tue Apr  8 22:44:22 2025.
 Gaussian 16:  ES64L-G16RevC.01  3-Jul-2019

 ----------------------------------------------------------------------
 #t hf aug-cc-pvdz iop(5/13=1,5/36=2,99/5=2) pseudo=read geom=check gue
 ss=(read,tcheck) scf=(maxcycle=1)
 ----------------------------------------------------------------------
 -----
 title
 -----
 Structure from the checkpoint file:  "BDE49_expt_144_mol2.chk"
 Charge =  0 Multiplicity = 2

                         Standard orientation:
 ---------------------------------------------------------------------
 Center     Atomic      Atomic             Coordinates (Angstroms)
 Number     Number       Type             X           Y           Z
 ---------------------------------------------------------------------
      1          6           0        1.325818   -0.139251   -0.023756
      2          6           0        0.003258    0.541672   -0.213389
      3          9           0        1.203231   -1.460118   -0.209957
      4          9           0        1.813564    0.069284    1.216067
      5          9           0        2.231734    0.338428   -0.892827
      6          6           0       -1.333710   -0.120443   -0.025434
      7          9           0        0.030562    1.856145   -0.048710
      8          9           0       -1.484756   -1.144678   -0.878403
      9          9           0       -2.313407    0.765364   -0.236119
     10          9           0       -1.477839   -0.612411    1.225002
 ---------------------------------------------------------------------

 SCF Done:  E(UHF) =  -812.556355385     A.U. after    2 cycles

 The electronic state is 2-A.
 Alpha  occ. eigenvalues --  -29.35911 -29.34593 -29.34387 -29.34210 -29.34130
 Alpha  occ. eigenvalues --  -29.33938 -29.33898 -11.65783 -11.64934 -11.52969
 Alpha  occ. eigenvalues --   -1.53361  -1.43408  -1.19323  -0.97064  -0.95866
 Alpha  occ. eigenvalues --   -0.92841  -0.90731  -0.83161  -0.79516  -0.60028
 Alpha  occ. eigenvalues --   -0.52433  -0.50664  -0.48841  -0.47788  -0.46739
 Alpha  occ. eigenvalues --   -0.46476  -0.45584  -0.42217  -0.41130  -0.39055
 Alpha  occ. eigenvalues --   -0.37759  -0.36577  -0.35287  -0.30221  -0.29663
 Alpha  occ. eigenvalues --   -0.29252  -0.27998  -0.25327  -0.24592  -0.23669
 Alpha  occ. eigenvalues --   -0.21988
 Alpha virt. eigenvalues --    0.09314   0.10078   0.10625   0.11838   0.12278
 Alpha virt. eigenvalues --    0.12611   0.12733   0.13003   0.14859   0.16308
 Alpha virt. eigenvalues --    0.18702   0.21138   0.21783   0.22409   0.23209

  Beta  occ. eigenvalues --  -29.35470 -29.34599 -29.34387 -29.34160 -29.34067
  Beta  occ. eigenvalues --  -29.33745 -29.33732 -11.66030 -11.64928 -11.50610
  Beta  occ. eigenvalues --   -1.51136  -1.43526  -1.14283  -0.96526  -0.92703
  Beta  occ. eigenvalues --   -0.92641  -0.90699  -0.82589  -0.78631  -0.52191
  Beta  occ. eigenvalues --   -0.50591  -0.48364  -0.47849  -0.46702  -0.46301
  Beta  occ. eigenvalues --   -0.45997  -0.45091  -0.41835  -0.40672  -0.38642
  Beta  occ. eigenvalues --   -0.36834  -0.35799  -0.34520  -0.30150  -0.29041
  Beta  occ. eigenvalues --   -0.28752  -0.27867  -0.25006  -0.24334  -0.23518
  Beta virt. eigenvalues --    0.09147   0.10077   0.10146   0.11537   0.12102
  Beta virt. eigenvalues --    0.12625   0.12749   0.12852   0.13864   0.14866
  Beta virt. eigenvalues --    0.16809   0.19862   0.21221   0.21887   0.22777

 Mulliken charges and spin densities:
               1          2
     1  C   -0.564814  -0.273923
     2  C   -2.886706   1.325502
     3  F    0.655744  -0.000760
     4  F    0.475714   0.022366
     5  F    0.502008  -0.001096
     6  C   -0.474408  -0.281065
     7  F    0.847344   0.190192
     8  F    0.369923  -0.000534
     9  F    0.603320  -0.010401
    10  F    0.471877   0.029719
 Sum of Mulliken charges =   0.00000   1.00000

 Dipole moment (field-independent basis, Debye):
    X=             -0.0053    Y=              0.3730    Z=              0.8656  Tot=              0.9425
                          Isotropic Fermi Contact Couplings
        Atom                 a.u.       MegaHertz       Gauss      10(-4) cm-1
     1  C(13)             -0.01934     -21.74687      -7.75982      -7.25397
     2  C(13)              0.16864     189.58343      67.64808      63.23823
     3  F(19)             -0.00233      -9.81967      -3.50390      -3.27549
     4  F(19)              0.01239      52.12204      18.59844      17.38604
     5  F(19)              0.00595      25.01983       8.92770       8.34572
     6  C(13)             -0.01924     -21.62674      -7.71696      -7.21391
     7  F(19)              0.03349     140.91263      50.28113      47.00339
     8  F(19)              0.00818      34.39970      12.27467      11.47451

 Normal termination of Gaussian 16 at Tue Apr  8 22:44:31 2025.
