 Gaussian 16, Revision C.01,

 ----------------------------------------------------------------------
 #t hf aug-cc-pvdz symm=none int=(grid=ultrafine) guess=(read,tcheck) s
 table=(opt,rrhf)
 ----------------------------------------------------------------------
 -----
 title
 -----
 Symbolic Z-matrix:
 Charge =  0 Multiplicity = 1

 SCF Done:  E(RHF) =  -630.669460855     A.U. after   15 cycles
 Normal termination of Gaussian 16 at Tue Apr  8 23:59:17 2025.
 Gaussian 16:  ES64L-G16RevC.01  3-Jul-2019

 ----------------------------------------------------------------------
 #t hf aug-cc-pvdz iop(5/13=1,5/36=2,99/5=2) pseudo=read geom=check gue
 ss=(read,tcheck) scf=(maxcycle=1)
 ----------------------------------------------------------------------
 -----
 title
 -----
 Structure from the checkpoint file:  "BDE49_nonexpt_2066_mol1.chk"
 Charge =  0 Multiplicity = 1

                         Standard orientation:
 ---------------------------------------------------------------------
 Center     Atomic      Atomic             Coordinates (Angstroms)
 Number     Number       Type             X           Y           Z
 ---------------------------------------------------------------------
      1         14           0        2.403040   -0.506472    0.171682
      2          6           0        0.757149    0.410907   -0.221046
      3          8           0        0.644165    1.539075   -0.591536
      4          8           0       -0.325957   -0.463191   -0.057627
      5          6           0       -1.636483   -0.001895    0.164432
      6          8           0       -1.879074    1.032482    0.699153
      7          6           0       -2.618994   -1.030316   -0.320878
      8          1           0       -2.385474   -2.006027    0.109841
      9          1           0       -2.538236   -1.124609   -1.406817
     10          1           0       -3.627325   -0.726043   -0.048057
     11          1           0        3.511548    0.431600   -0.082089
     12          1           0        2.503116   -1.696280   -0.699605
     13          1           0        2.370699   -0.927154    1.588209
 ---------------------------------------------------------------------

 SCF Done:  E(RHF) =  -632.262677455     A.U. after    2 cycles

 The electronic state is 1-A.
 Alpha  occ. eigenvalues --  -76.24717 -21.11151 -21.08120 -21.07258 -11.54306
 Alpha  occ. eigenvalues --  -11.50292 -11.40724  -5.58203  -2.21845  -2.20721
 Alpha  occ. eigenvalues --   -2.20318  -1.86935  -1.72793  -1.66375  -1.12777
 Alpha  occ. eigenvalues --   -0.92000  -0.80779  -0.69667  -0.64223  -0.63141
 Alpha  occ. eigenvalues --   -0.61682  -0.57710  -0.54925  -0.52779  -0.49463
 Alpha  occ. eigenvalues --   -0.48836  -0.47491  -0.43888  -0.33948  -0.32347
 Alpha  occ. eigenvalues --   -0.27302
 Alpha virt. eigenvalues --    0.03115   0.04320   0.05266   0.05616   0.05918
 Alpha virt. eigenvalues --    0.06651   0.07307   0.08413   0.09667   0.10121
 Alpha virt. eigenvalues --    0.10738   0.12612   0.13197   0.13328   0.13771

 Mulliken charges:
               1
     1  Si   6.058712
     2  C    2.474648
     3  O   -2.334528
     4  O   -3.049145
     5  C    5.023411
     6  O   -2.930675
     7  C   -4.221051
     8  H    1.313642
     9  H    1.321392
    10  H    1.219560
    11  H   -1.609829
    12  H   -1.597824
    13  H   -1.668315
 Sum of Mulliken charges =  -0.00000

 Dipole moment (field-independent basis, Debye):
    X=             -0.0259    Y=             -1.4566    Z=             -0.3229  Tot=              1.4922

 Test job not archived.
 1\1\GINC-SE345\SP\RHF\Aug-CC-pVDZ\C3H6O3Si1\OHZDE\08-Apr-2025\0\\#t hf
  aug-cc-pvdz iop(5/13=1,5/36=2,99/5=2) pseudo=read geom=check guess=(r
 ead,tcheck) scf=(maxcycle=1)\\title\\0,1\Si,0,2.40304,-0.506472,0.1716
 82\C,0,0.757149,0.410907,-0.221046\O,0,0.644165,1.539075,-0.591536\O,0
 ,-0.325957,-0.463191,-0.057627\C,0,-1.636483,-0.001895,0.164432\O,0,-1
 .879074,1.032482,0.699153\C,0,-2.618994,-1.030316,-0.320878\H,0,-2.385
 474,-2.006027,0.109841\H,0,-2.538236,-1.124609,-1.406817\H,0,-3.627325
 ,-0.726043,-0.048057\H,0,3.511548,0.4316,-0.082089\H,0,2.503116,-1.696

 Normal termination of Gaussian 16 at Tue Apr  8 23:59:21 2025.
