 Gaussian 16, Revision C.01,

 ----------------------------------------------------------------------
 #t hf aug-cc-pvdz symm=none int=(grid=ultrafine) guess=(read,tcheck) s
 table=(opt,rrhf)
 ----------------------------------------------------------------------
 -----
 title
 -----
 Symbolic Z-matrix:
 Charge =  0 Multiplicity = 1

 SCF Done:  E(RHF) =  -324.810354389     A.U. after   15 cycles
 Normal termination of Gaussian 16 at Tue Apr  8 23:09:31 2025.
 Gaussian 16:  ES64L-G16RevC.01  3-Jul-2019

 ----------------------------------------------------------------------
 #t hf aug-cc-pvdz iop(5/13=1,5/36=2,99/5=2) pseudo=read geom=check gue
 ss=(read,tcheck) scf=(maxcycle=1)
 ----------------------------------------------------------------------
 -----
 title
 -----
 Structure from the checkpoint file:  "BDE49_expt_465_mol1.chk"
 Charge =  0 Multiplicity = 1

                         Standard orientation:
 ---------------------------------------------------------------------
 Center     Atomic      Atomic             Coordinates (Angstroms)
 Number     Number       Type             X           Y           Z
 ---------------------------------------------------------------------
      1          6           0       -1.978725    0.570924   -0.002564
      2          6           0       -0.823483    1.344182   -0.005368
      3          6           0        0.442935    0.744087   -0.001968
      4          6           0       -1.890671   -0.818265    0.008641
      5          6           0       -0.631955   -1.415955    0.011304
      6          6           0        0.542537   -0.664103    0.002652
      7          1           0       -2.947597    1.058166   -0.005646
      8          1           0       -0.895759    2.427760   -0.013204
      9          7           0        1.598451    1.530598   -0.071517
     10          1           0        1.464330    2.496602    0.190109
     11          1           0        2.418402    1.138134    0.367464
     12          1           0       -0.553702   -2.498862    0.016097
     13          1           0       -2.786009   -1.428519    0.013228
     14          6           0        1.896295   -1.327344   -0.014853
     15          1           0        1.799427   -2.412764   -0.068236
     16          1           0        2.478594   -1.097946    0.887442
     17          1           0        2.491555   -0.997913   -0.873696
 ---------------------------------------------------------------------

 SCF Done:  E(RHF) =  -326.391646066     A.U. after    2 cycles

 The electronic state is 1-A.
 Alpha  occ. eigenvalues --  -15.75427 -11.50589 -11.44793 -11.42347 -11.40292
 Alpha  occ. eigenvalues --  -11.39497 -11.38417 -11.35137  -1.41151  -1.26193
 Alpha  occ. eigenvalues --   -1.13752  -1.05190  -0.98631  -0.85560  -0.82238
 Alpha  occ. eigenvalues --   -0.69241  -0.67593  -0.64424  -0.58487  -0.57647
 Alpha  occ. eigenvalues --   -0.56531  -0.54293  -0.51189  -0.50359  -0.44415
 Alpha  occ. eigenvalues --   -0.42691  -0.41885  -0.31708  -0.26719
 Alpha virt. eigenvalues --    0.03544   0.04655   0.05028   0.05813   0.06165
 Alpha virt. eigenvalues --    0.06732   0.07097   0.07644   0.09128   0.11033
 Alpha virt. eigenvalues --    0.12039   0.12882   0.12971   0.13409   0.14045

 Mulliken charges:
               1
     1  C   -1.389976
     2  C   -3.077353
     3  C    2.276179
     4  C   -2.632376
     5  C   -0.727377
     6  C    3.649521
     7  H    1.521183
     8  H    1.689973
     9  N   -4.107975
    10  H    0.679645
    11  H    0.614074
    12  H    1.761076
    13  H    1.532081
    14  C   -5.126533
    15  H    1.224238
    16  H    1.046030
    17  H    1.067590
 Sum of Mulliken charges =   0.00000

 Dipole moment (field-independent basis, Debye):
    X=              1.0484    Y=              0.5559    Z=              0.7238  Tot=              1.3900

 Test job not archived.
 1\1\GINC-SE339\SP\RHF\Aug-CC-pVDZ\C7H9N1\OHZDE\08-Apr-2025\0\\#t hf au
 g-cc-pvdz iop(5/13=1,5/36=2,99/5=2) pseudo=read geom=check guess=(read
 ,tcheck) scf=(maxcycle=1)\\title\\0,1\C,0,-1.978725,0.570924,-0.002564
 \C,0,-0.823483,1.344182,-0.005368\C,0,0.442935,0.744087,-0.001968\C,0,
 -1.890671,-0.818265,0.008641\C,0,-0.631955,-1.415955,0.011304\C,0,0.54
 2537,-0.664103,0.002652\H,0,-2.947597,1.058166,-0.005646\H,0,-0.895759
 ,2.42776,-0.013204\N,0,1.598451,1.530598,-0.071517\H,0,1.46433,2.49660
 2,0.190109\H,0,2.418402,1.138134,0.367464\H,0,-0.553702,-2.498862,0.01

 Normal termination of Gaussian 16 at Tue Apr  8 23:09:37 2025.
