 Gaussian 16, Revision C.01,

 ----------------------------------------------------------------------
 #t hf aug-cc-pvdz symm=none int=(grid=ultrafine) guess=(read,tcheck) s
 table=opt
 ----------------------------------------------------------------------
 -----
 title
 -----
 Symbolic Z-matrix:
 Charge =  0 Multiplicity = 2

 SCF Done:  E(UHF) =  -572.949313139     A.U. after   15 cycles
 Normal termination of Gaussian 16 at Tue Apr  8 22:31:27 2025.
 Gaussian 16:  ES64L-G16RevC.01  3-Jul-2019

 ----------------------------------------------------------------------
 #t hf aug-cc-pvdz iop(5/13=1,5/36=2,99/5=2) pseudo=read geom=check gue
 ss=(read,tcheck) scf=(maxcycle=1)
 ----------------------------------------------------------------------
 -----
 title
 -----
 Structure from the checkpoint file:  "BDE49_expt_1020_mol2.chk"
 Charge =  0 Multiplicity = 2

                         Standard orientation:
 ---------------------------------------------------------------------
 Center     Atomic      Atomic             Coordinates (Angstroms)
 Number     Number       Type             X           Y           Z
 ---------------------------------------------------------------------
      1          6           0       -0.522366    0.782287    0.000000
      2          6           0        0.097565   -0.600772   -0.000000
      3          9           0       -0.290612    1.484686    1.098239
      4          9           0       -0.290612    1.484686   -1.098239
      5          9           0       -0.290612   -1.270879    1.090895
      6          9           0        1.445648   -0.548624   -0.000000
      7          9           0       -0.290612   -1.270879   -1.090895
 ---------------------------------------------------------------------

 SCF Done:  E(UHF) =  -574.934264875     A.U. after    2 cycles

 The electronic state is 2-A'.
 Alpha  occ. eigenvalues --  -29.35109 -29.35064 -29.34136 -29.34093 -29.33653
 Alpha  occ. eigenvalues --  -11.63856 -11.55313  -1.50450  -1.27383  -0.96411
 Alpha  occ. eigenvalues --   -0.93446  -0.86207  -0.82404  -0.66957  -0.51394
 Alpha  occ. eigenvalues --   -0.49429  -0.46611  -0.46451  -0.44396  -0.42627
 Alpha  occ. eigenvalues --   -0.38694  -0.38280  -0.35700  -0.30527  -0.30304
 Alpha  occ. eigenvalues --   -0.27899  -0.25652  -0.23902  -0.21339
 Alpha virt. eigenvalues --    0.08439   0.10599   0.11637   0.12620   0.12783
 Alpha virt. eigenvalues --    0.13200   0.15673   0.19913   0.20602   0.22000
 Alpha virt. eigenvalues --    0.23427   0.24947   0.25071   0.27680   0.28749

  Beta  occ. eigenvalues --  -29.34707 -29.34662 -29.34157 -29.34114 -29.33475
  Beta  occ. eigenvalues --  -11.63587 -11.52814  -1.48381  -1.22847  -0.95782
  Beta  occ. eigenvalues --   -0.91899  -0.84430  -0.81341  -0.51490  -0.51145
  Beta  occ. eigenvalues --   -0.48739  -0.46407  -0.46379  -0.43646  -0.42183
  Beta  occ. eigenvalues --   -0.38664  -0.37724  -0.33868  -0.30154  -0.29157
  Beta  occ. eigenvalues --   -0.27604  -0.25565  -0.23811
  Beta virt. eigenvalues --    0.08449   0.09997   0.11010   0.12631   0.12697
  Beta virt. eigenvalues --    0.13259   0.13884   0.15765   0.20670   0.21191
  Beta virt. eigenvalues --    0.22649   0.24851   0.25068   0.25732   0.28392

 Mulliken charges and spin densities:
               1          2
     1  C   -2.142692   0.983972
     2  C   -0.854425  -0.244251
     3  F    0.638630   0.125331
     4  F    0.638630   0.125331
     5  F    0.576698  -0.013196
     6  F    0.566461   0.036008
     7  F    0.576698  -0.013196
 Sum of Mulliken charges =  -0.00000   1.00000

 Dipole moment (field-independent basis, Debye):
    X=              1.3729    Y=              0.5262    Z=             -0.0000  Tot=              1.4703
                          Isotropic Fermi Contact Couplings
        Atom                 a.u.       MegaHertz       Gauss      10(-4) cm-1
     1  C(13)              0.20574     231.29398      82.53144      77.15137
     2  C(13)              0.01722      19.35341       6.90578       6.45560
     3  F(19)              0.03953     166.30832      59.34294      55.47448
     4  F(19)              0.03953     166.30832      59.34294      55.47448
     5  F(19)             -0.00221      -9.29225      -3.31570      -3.09956
     6  F(19)              0.01111      46.76460      16.68677      15.59899
     7  F(19)             -0.00221      -9.29225      -3.31570      -3.09956
 --------------------------------------------------------

 Normal termination of Gaussian 16 at Tue Apr  8 22:31:30 2025.
