 Gaussian 16, Revision C.01,

 ----------------------------------------------------------------------
 #t hf aug-cc-pvdz symm=none int=(grid=ultrafine) guess=(read,tcheck) s
 table=(opt,rrhf)
 ----------------------------------------------------------------------
 -----
 title
 -----
 Symbolic Z-matrix:
 Charge =  0 Multiplicity = 1

 SCF Done:  E(RHF) =  -749.148289227     A.U. after   13 cycles
 Normal termination of Gaussian 16 at Wed Apr  9 00:11:09 2025.
 Gaussian 16:  ES64L-G16RevC.01  3-Jul-2019

 ----------------------------------------------------------------------
 #t hf aug-cc-pvdz iop(5/13=1,5/36=2,99/5=2) pseudo=read geom=check gue
 ss=(read,tcheck) scf=(maxcycle=1)
 ----------------------------------------------------------------------
 -----
 title
 -----
 Structure from the checkpoint file:  "BDE49_nonexpt_2369_mol1.chk"
 Charge =  0 Multiplicity = 1

                         Standard orientation:
 ---------------------------------------------------------------------
 Center     Atomic      Atomic             Coordinates (Angstroms)
 Number     Number       Type             X           Y           Z
 ---------------------------------------------------------------------
      1         14           0        2.120308    0.327390    0.298481
      2         14           0        0.223038   -0.868676   -0.418258
      3          1           0        2.267188    1.577960   -0.478073
      4          1           0        3.334685   -0.504357    0.113908
      5          1           0        1.988723    0.655021    1.738488
      6          6           0       -1.332660    0.220493   -0.072970
      7          1           0        0.129030   -2.187296    0.266857
      8          1           0        0.257450   -1.105182   -1.879738
      9          8           0       -1.355704    1.351880   -0.533099
     10          7           0       -2.349494   -0.291804    0.677111
     11          1           0       -2.330986   -1.234366    1.028086
     12          1           0       -3.164881    0.280843    0.850184
 ---------------------------------------------------------------------

 SCF Done:  E(RHF) =  -750.201004801     A.U. after    2 cycles

 The electronic state is 1-A.
 Alpha  occ. eigenvalues --  -76.22773 -76.22114 -21.03239 -15.78684 -11.46616
 Alpha  occ. eigenvalues --   -5.56432  -5.55522  -2.20100  -2.18681  -2.17967
 Alpha  occ. eigenvalues --   -2.17590  -2.17549  -2.16582  -1.69910  -1.34263
 Alpha  occ. eigenvalues --   -0.87557  -0.79573  -0.73966  -0.69106  -0.57791
 Alpha  occ. eigenvalues --   -0.54127  -0.49041  -0.48093  -0.46666  -0.46548
 Alpha  occ. eigenvalues --   -0.36250  -0.32518  -0.27205
 Alpha virt. eigenvalues --    0.03416   0.04500   0.05306   0.05893   0.06812
 Alpha virt. eigenvalues --    0.07032   0.07540   0.08425   0.09025   0.09479
 Alpha virt. eigenvalues --    0.09812   0.10048   0.10230   0.12336   0.12843

 Mulliken charges:
               1
     1  Si   4.683309
     2  Si   4.132846
     3  H   -1.480453
     4  H   -1.544683
     5  H   -1.516462
     6  C    3.077524
     7  H   -1.572290
     8  H   -1.898552
     9  O   -2.572909
    10  N   -2.900414
    11  H    0.887803
    12  H    0.704280
 Sum of Mulliken charges =  -0.00000

 Dipole moment (field-independent basis, Debye):
    X=             -0.9874    Y=             -1.2785    Z=              1.1321  Tot=              1.9726

 Test job not archived.
 1\1\GINC-SE322\SP\RHF\Aug-CC-pVDZ\C1H7N1O1Si2\OHZDE\09-Apr-2025\0\\#t
 hf aug-cc-pvdz iop(5/13=1,5/36=2,99/5=2) pseudo=read geom=check guess=
 (read,tcheck) scf=(maxcycle=1)\\title\\0,1\Si,0,2.120308,0.32739,0.298
 481\Si,0,0.223038,-0.868676,-0.418258\H,0,2.267188,1.57796,-0.478073\H
 ,0,3.334685,-0.504357,0.113908\H,0,1.988723,0.655021,1.738488\C,0,-1.3
 3266,0.220493,-0.07297\H,0,0.12903,-2.187296,0.266857\H,0,0.25745,-1.1
 05182,-1.879738\O,0,-1.355704,1.35188,-0.533099\N,0,-2.349494,-0.29180
 4,0.677111\H,0,-2.330986,-1.234366,1.028086\H,0,-3.164881,0.280843,0.8

 Normal termination of Gaussian 16 at Wed Apr  9 00:11:13 2025.
