 Gaussian 16, Revision C.01,

 ----------------------------------------------------------------------
 #t hf aug-cc-pvdz symm=none int=(grid=ultrafine) guess=(read,tcheck) s
 table=opt
 ----------------------------------------------------------------------
 -----
 title
 -----
 Symbolic Z-matrix:
 Charge =  0 Multiplicity = 2

 SCF Done:  E(UHF) =  -568.535945806     A.U. after   20 cycles
 Normal termination of Gaussian 16 at Tue Apr  8 23:35:13 2025.
 Gaussian 16:  ES64L-G16RevC.01  3-Jul-2019

 ----------------------------------------------------------------------
 #t hf aug-cc-pvdz iop(5/13=1,5/36=2,99/5=2) pseudo=read geom=check gue
 ss=(read,tcheck) scf=(maxcycle=1)
 ----------------------------------------------------------------------
 -----
 title
 -----
 Structure from the checkpoint file:  "BDE49_nonexpt_1469_mol2.chk"
 Charge =  0 Multiplicity = 2

                         Standard orientation:
 ---------------------------------------------------------------------
 Center     Atomic      Atomic             Coordinates (Angstroms)
 Number     Number       Type             X           Y           Z
 ---------------------------------------------------------------------
      1          6           0       -0.056859    0.298722    0.000056
      2         15           0       -1.845247   -0.220018   -0.000041
      3          8           0        0.823482   -0.723334    0.000032
      4          8           0        0.257245    1.464802   -0.000014
      5          6           0        2.216011   -0.338790    0.000011
      6          1           0        2.447695    0.249979    0.888772
      7          1           0        2.447662    0.250005   -0.888743
      8          1           0        2.772406   -1.272880   -0.000013
      9          1           0       -1.589781   -1.618173    0.000058
 ---------------------------------------------------------------------

 SCF Done:  E(UHF) =  -569.660925158     A.U. after    2 cycles

 The electronic state is 2-A.
 Alpha  occ. eigenvalues -- -105.20664 -21.10185 -21.06932 -11.50133 -11.42144
 Alpha  occ. eigenvalues --   -2.78606  -1.84680  -1.67822  -1.49865  -1.46702
 Alpha  occ. eigenvalues --   -1.46304  -1.02742  -0.80834  -0.71367  -0.63697
 Alpha  occ. eigenvalues --   -0.60293  -0.57478  -0.51965  -0.47054  -0.38094
 Alpha  occ. eigenvalues --   -0.34007  -0.21561  -0.08654   0.00126
 Alpha virt. eigenvalues --    0.03763   0.05625   0.06486   0.06630   0.08006
 Alpha virt. eigenvalues --    0.11070   0.11968   0.12181   0.13664   0.14009
 Alpha virt. eigenvalues --    0.14718   0.15957   0.16483   0.18377   0.19987

  Beta  occ. eigenvalues -- -105.20039 -21.10208 -21.06332 -11.50505 -11.42147
  Beta  occ. eigenvalues --   -2.76689  -1.84571  -1.66863  -1.47911  -1.44551
  Beta  occ. eigenvalues --   -1.22517  -1.02778  -0.78971  -0.70455  -0.63795
  Beta  occ. eigenvalues --   -0.59347  -0.57326  -0.51980  -0.46414  -0.38052
  Beta  occ. eigenvalues --   -0.32358  -0.22063  -0.06701
  Beta virt. eigenvalues --    0.03779   0.05656   0.06514   0.06525   0.07964
  Beta virt. eigenvalues --    0.08223   0.11781   0.12222   0.13956   0.14041
  Beta virt. eigenvalues --    0.14737   0.15287   0.16359   0.17146   0.18436

 Mulliken charges and spin densities:
               1          2
     1  C    2.221419  -0.253616
     2  P    2.677933   1.280791
     3  O   -2.534487  -0.012581
     4  O   -2.415914   0.163604
     5  C   -2.821602   0.021705
     6  H    1.310309  -0.007761
     7  H    1.310298  -0.007752
     8  H    1.311608  -0.002798
     9  H   -1.059564  -0.181594
 Sum of Mulliken charges =   0.00000   1.00000

 Dipole moment (field-independent basis, Debye):
    X=             -1.8860    Y=              0.5940    Z=             -0.0008  Tot=              1.9773
                          Isotropic Fermi Contact Couplings
        Atom                 a.u.       MegaHertz       Gauss      10(-4) cm-1
     1  C(13)             -0.01814     -20.39455      -7.27728      -6.80289
     2  P(31)              0.25222     456.79683     162.99647     152.37102
     3  O(17)             -0.00004       0.02323       0.00829       0.00775
     4  O(17)              0.03374     -20.45542      -7.29900      -6.82319
     5  C(13)              0.00020       0.22814       0.08141       0.07610
     6  H(1)               0.00056       2.52472       0.90088       0.84215
     7  H(1)               0.00056       2.52459       0.90084       0.84211
     8  H(1)               0.00007       0.31312       0.11173       0.10445

 Normal termination of Gaussian 16 at Tue Apr  8 23:35:16 2025.
