 Gaussian 16, Revision C.01,

 ----------------------------------------------------------------------
 #t hf aug-cc-pvdz symm=none int=(grid=ultrafine) guess=(read,tcheck) s
 table=(opt,rrhf)
 ----------------------------------------------------------------------
 -----
 title
 -----
 Symbolic Z-matrix:
 Charge =  0 Multiplicity = 1

 SCF Done:  E(RHF) =  -743.554712944     A.U. after   13 cycles
 Normal termination of Gaussian 16 at Tue Apr  8 22:48:58 2025.
 Gaussian 16:  ES64L-G16RevC.01  3-Jul-2019

 ----------------------------------------------------------------------
 #t hf aug-cc-pvdz iop(5/13=1,5/36=2,99/5=2) pseudo=read geom=check gue
 ss=(read,tcheck) scf=(maxcycle=1)
 ----------------------------------------------------------------------
 -----
 title
 -----
 Structure from the checkpoint file:  "BDE49_expt_1602_mol1.chk"
 Charge =  0 Multiplicity = 1

                         Standard orientation:
 ---------------------------------------------------------------------
 Center     Atomic      Atomic             Coordinates (Angstroms)
 Number     Number       Type             X           Y           Z
 ---------------------------------------------------------------------
      1         16           0        0.821888   -0.231015    0.000000
      2          6           0        1.632761    1.379271    0.000002
      3          8           0        1.156465   -0.874387   -1.260273
      4          8           0        1.156465   -0.874391    1.260270
      5          1           0        1.371544    1.929068   -0.902091
      6          1           0        2.697983    1.146203    0.000002
      7          1           0        1.371544    1.929065    0.902097
      8          6           0       -1.009039    0.092633    0.000000
      9          6           0       -1.383690    0.861256    1.272518
     10          1           0       -0.975044    1.874757    1.276565
     11          1           0       -1.033516    0.338924    2.163652
     12          6           0       -1.641520   -1.309443   -0.000003
     13          1           0       -2.729977   -1.205616   -0.000003
     14          1           0       -1.345617   -1.873278    0.885809
     15          1           0       -1.345617   -1.873275   -0.885816
     16          6           0       -1.383690    0.861261   -1.272515
     17          1           0       -0.975043    1.874762   -1.276557
     18          1           0       -2.472657    0.948527   -1.329471
     19          1           0       -1.033516    0.338933   -2.163651
     20          1           0       -2.472658    0.948521    1.329475
 ---------------------------------------------------------------------

 SCF Done:  E(RHF) =  -745.481500953     A.U. after    2 cycles

 The electronic state is 1-A.
 Alpha  occ. eigenvalues --  -75.86539 -21.02955 -21.02925 -13.48879 -13.39592
 Alpha  occ. eigenvalues --  -13.34335 -11.45140 -11.42384 -11.41248 -11.40681
 Alpha  occ. eigenvalues --  -11.37742  -8.21683  -1.81398  -1.63615  -1.30025
 Alpha  occ. eigenvalues --   -1.13524  -1.03470  -1.02865  -0.94038  -0.78326
 Alpha  occ. eigenvalues --   -0.67898  -0.63767  -0.63056  -0.62874  -0.60452
 Alpha  occ. eigenvalues --   -0.58554  -0.56421  -0.53548  -0.53473  -0.49508
 Alpha  occ. eigenvalues --   -0.47551  -0.46353  -0.41655  -0.37981  -0.36959
 Alpha  occ. eigenvalues --   -0.33824  -0.32492
 Alpha virt. eigenvalues --    0.03111   0.04323   0.04953   0.05144   0.05655
 Alpha virt. eigenvalues --    0.05711   0.06185   0.06951   0.07302   0.08841
 Alpha virt. eigenvalues --    0.09032   0.09233   0.11431   0.11571   0.12938

 Mulliken charges:
               1
     1  S    6.625543
     2  C   -5.079767
     3  O   -2.759703
     4  O   -2.759706
     5  H    1.394427
     6  H    1.306668
     7  H    1.394426
     8  C    3.385532
     9  C   -4.988888
    10  H    1.393088
    11  H    1.214798
    12  C   -4.620752
    13  H    1.228605
    14  H    1.269574
    15  H    1.269575
    16  C   -4.988887
    17  H    1.393088
    18  H    1.053792
    19  H    1.214797
    20  H    1.053792
 Sum of Mulliken charges =   0.00000

 Dipole moment (field-independent basis, Debye):
    X=             -1.5021    Y=              1.8069    Z=              0.0000  Tot=              2.3498

 Test job not archived.
 1\1\GINC-SE051\SP\RHF\Aug-CC-pVDZ\C5H12O2S1\OHZDE\08-Apr-2025\0\\#t hf
  aug-cc-pvdz iop(5/13=1,5/36=2,99/5=2) pseudo=read geom=check guess=(r
 ead,tcheck) scf=(maxcycle=1)\\title\\0,1\S,0,-0.821888,-0.231015,0.\C,
 0,-1.632762,1.379271,-0.000002\O,0,-1.156465,-0.874387,1.260273\O,0,-1
 .156465,-0.874391,-1.26027\H,0,-1.371545,1.929068,0.902091\H,0,-2.6979
 83,1.146202,-0.000002\H,0,-1.371545,1.929065,-0.902097\C,0,1.009039,0.
 092633,0.\C,0,1.38369,0.861256,-1.272518\H,0,0.975043,1.874757,-1.2765
 65\H,0,1.033516,0.338924,-2.163652\C,0,1.64152,-1.309443,0.000003\H,0,

 Normal termination of Gaussian 16 at Tue Apr  8 22:49:08 2025.
