 Gaussian 16, Revision C.01,

 ----------------------------------------------------------------------
 #t hf aug-cc-pvdz symm=none int=(grid=ultrafine) guess=(read,tcheck) s
 table=(opt,rrhf)
 ----------------------------------------------------------------------
 -----
 title
 -----
 Symbolic Z-matrix:
 Charge =  0 Multiplicity = 1

 SCF Done:  E(RHF) =  -687.617069918     A.U. after   12 cycles
 Normal termination of Gaussian 16 at Tue Apr  8 23:42:13 2025.
 Gaussian 16:  ES64L-G16RevC.01  3-Jul-2019

 ----------------------------------------------------------------------
 #t hf aug-cc-pvdz iop(5/13=1,5/36=2,99/5=2) pseudo=read geom=check gue
 ss=(read,tcheck) scf=(maxcycle=1)
 ----------------------------------------------------------------------
 -----
 title
 -----
 Structure from the checkpoint file:  "BDE49_nonexpt_1673_mol1.chk"
 Charge =  0 Multiplicity = 1

                         Standard orientation:
 ---------------------------------------------------------------------
 Center     Atomic      Atomic             Coordinates (Angstroms)
 Number     Number       Type             X           Y           Z
 ---------------------------------------------------------------------
      1         14           0        1.447355    0.188923   -0.006807
      2         15           0       -0.666829   -0.673443   -0.096284
      3          7           0       -1.692900    0.704711    0.071228
      4          1           0       -2.141760    0.981978   -0.789950
      5          1           0       -1.371114    1.510550    0.591272
      6          1           0       -0.663057   -1.123924    1.249894
      7          1           0        1.763814    0.807814   -1.316874
      8          1           0        2.424804   -0.892631    0.269627
      9          1           0        1.577084    1.239957    1.036994
 ---------------------------------------------------------------------

 SCF Done:  E(RHF) =  -688.245424331     A.U. after    2 cycles

 The electronic state is 1-A.
 Alpha  occ. eigenvalues -- -105.18320 -76.22308 -15.74830  -5.55761  -2.76121
 Alpha  occ. eigenvalues --   -2.17769  -2.17685  -2.17378  -1.54114  -1.44183
 Alpha  occ. eigenvalues --   -1.42419  -1.17637  -0.78497  -0.67491  -0.64932
 Alpha  occ. eigenvalues --   -0.47955  -0.47691  -0.41695  -0.28275  -0.17071
 Alpha  occ. eigenvalues --   -0.02747
 Alpha virt. eigenvalues --    0.04439   0.05360   0.06105   0.06680   0.07596
 Alpha virt. eigenvalues --    0.08164   0.08745   0.09593   0.10093   0.10571
 Alpha virt. eigenvalues --    0.12112   0.14736   0.16174   0.16934   0.18209

 Mulliken charges:
               1
     1  Si   4.972717
     2  P    2.086294
     3  N   -2.203324
     4  H    0.557167
     5  H    0.596282
     6  H   -1.030756
     7  H   -1.637291
     8  H   -1.685500
     9  H   -1.655589
 Sum of Mulliken charges =  -0.00000

 Dipole moment (field-independent basis, Debye):
    X=             -4.4128    Y=             -1.1924    Z=             -1.3288  Tot=              4.7603

 Test job not archived.
 1\1\GINC-SE069\SP\RHF\Aug-CC-pVDZ\H6N1P1Si1\OHZDE\08-Apr-2025\0\\#t hf
  aug-cc-pvdz iop(5/13=1,5/36=2,99/5=2) pseudo=read geom=check guess=(r
 ead,tcheck) scf=(maxcycle=1)\\title\\0,1\Si,0,1.447355,0.188923,-0.006
 807\P,0,-0.666829,-0.673443,-0.096284\N,0,-1.6929,0.704711,0.071228\H,
 0,-2.14176,0.981978,-0.78995\H,0,-1.371114,1.51055,0.591272\H,0,-0.663
 057,-1.123924,1.249894\H,0,1.763814,0.807814,-1.316874\H,0,2.424804,-0
 .892631,0.269627\H,0,1.577084,1.239957,1.036994\\Version=ES64L-G16RevC
 .01\State=1-A\HF=-688.2454243\RMSD=2.177e-01\Dipole=-1.7361244,-0.4691

 Normal termination of Gaussian 16 at Tue Apr  8 23:42:15 2025.
