 Gaussian 16, Revision C.01,

 ----------------------------------------------------------------------
 #t hf aug-cc-pvdz symm=none int=(grid=ultrafine) guess=(read,tcheck) s
 table=(opt,rrhf)
 ----------------------------------------------------------------------
 -----
 title
 -----
 Symbolic Z-matrix:
 Charge =  0 Multiplicity = 1

 SCF Done:  E(RHF) =  -1084.17595571     A.U. after   15 cycles
 Normal termination of Gaussian 16 at Tue Apr  8 23:18:55 2025.
 Gaussian 16:  ES64L-G16RevC.01  3-Jul-2019

 ----------------------------------------------------------------------
 #t hf aug-cc-pvdz iop(5/13=1,5/36=2,99/5=2) pseudo=read geom=check gue
 ss=(read,tcheck) scf=(maxcycle=1)
 ----------------------------------------------------------------------
 -----
 title
 -----
 Structure from the checkpoint file:  "BDE49_nonexpt_1062_mol1.chk"
 Charge =  0 Multiplicity = 1

                         Standard orientation:
 ---------------------------------------------------------------------
 Center     Atomic      Atomic             Coordinates (Angstroms)
 Number     Number       Type             X           Y           Z
 ---------------------------------------------------------------------
      1         17           0       -2.329197    0.048334   -0.000003
      2          8           0       -0.774616   -0.897728    0.000000
      3          6           0        0.373661   -0.219774    0.000005
      4         16           0        1.721309   -1.159467   -0.000001
      5          8           0        0.255984    1.085601    0.000003
      6          6           0        1.459938    1.882885    0.000001
      7          1           0        1.110023    2.911804    0.000001
      8          1           0        2.046419    1.668163   -0.893069
      9          1           0        2.046421    1.668165    0.893071
 ---------------------------------------------------------------------

 SCF Done:  E(RHF) =  -1085.62152269     A.U. after    2 cycles

 The electronic state is 1-A.
 Alpha  occ. eigenvalues --  -99.97203 -75.66270 -21.17699 -21.14201 -13.14398
 Alpha  occ. eigenvalues --  -13.01951 -12.97822 -11.55783 -11.44490 -10.53682
 Alpha  occ. eigenvalues --   -9.73497  -9.72901  -9.72682  -8.00551  -1.91384
 Alpha  occ. eigenvalues --   -1.76856  -1.29577  -1.13640  -1.05206  -0.80098
 Alpha  occ. eigenvalues --   -0.70583  -0.66979  -0.66124  -0.61398  -0.59141
 Alpha  occ. eigenvalues --   -0.54205  -0.53702  -0.47985  -0.43119  -0.38917
 Alpha  occ. eigenvalues --   -0.26773  -0.25109
 Alpha virt. eigenvalues --    0.01666   0.02914   0.05702   0.06273   0.07253
 Alpha virt. eigenvalues --    0.08040   0.09710   0.10337   0.11455   0.11580
 Alpha virt. eigenvalues --    0.14293   0.14309   0.15327   0.16730   0.17069

 Mulliken charges:
               1
     1  Cl   0.371158
     2  O   -1.981737
     3  C    1.892195
     4  S    1.023167
     5  O   -2.770298
     6  C   -2.735711
     7  H    1.422292
     8  H    1.389469
     9  H    1.389466
 Sum of Mulliken charges =  -0.00000

 Dipole moment (field-independent basis, Debye):
    X=              4.2237    Y=              0.4477    Z=             -0.0000  Tot=              4.2473

 Test job not archived.
 1\1\GINC-SE403\SP\RHF\Aug-CC-pVDZ\C2H3Cl1O2S1\OHZDE\08-Apr-2025\0\\#t
 hf aug-cc-pvdz iop(5/13=1,5/36=2,99/5=2) pseudo=read geom=check guess=
 (read,tcheck) scf=(maxcycle=1)\\title\\0,1\Cl,0,-2.329197,0.048334,-0.
 000003\O,0,-0.774616,-0.897728,0.\C,0,0.373661,-0.219774,0.000005\S,0,
 1.721309,-1.159467,-0.000001\O,0,0.255984,1.085601,0.000003\C,0,1.4599
 38,1.882885,0.000001\H,0,1.110023,2.911804,0.000001\H,0,2.046419,1.668
 163,-0.893069\H,0,2.046421,1.668165,0.893071\\Version=ES64L-G16RevC.01
 \State=1-A\HF=-1085.6215227\RMSD=9.318e-02\Dipole=1.6617269,0.1761302,

 Normal termination of Gaussian 16 at Tue Apr  8 23:18:58 2025.
