 Gaussian 16, Revision C.01,

 ----------------------------------------------------------------------
 #t hf aug-cc-pvdz symm=none int=(grid=ultrafine) guess=(read,tcheck) s
 table=(opt,rrhf)
 ----------------------------------------------------------------------
 -----
 title
 -----
 Symbolic Z-matrix:
 Charge =  0 Multiplicity = 1

 SCF Done:  E(RHF) =  -593.884164169     A.U. after   13 cycles

 1\1\GINC-SE329\Stability\RHF\Aug-CC-pVDZ\C5H12S1\OHZDE\08-Apr-2025\0\\
 #t hf aug-cc-pvdz symm=none int=(grid=ultrafine) guess=(read,tcheck) s
 table=(opt,rrhf)\\title\\0,1\C,0,0.261079,-0.399544,-0.000498\C,0,-1.1
 26682,-0.440625,-0.682376\C,0,-2.260725,0.336481,-0.005799\H,0,-1.4090
 65,-1.498388,-0.752295\H,0,-1.010296,-0.08811,-1.712661\H,0,-2.028984,
 1.400388,0.082677\H,0,-2.47576,-0.042524,0.995998\S,0,0.81714,1.390675
 ,-0.032891\H,0,2.038299,1.174683,0.48475\C,0,1.245266,-1.247163,-0.817
 949\H,0,2.248561,-1.220116,-0.384893\H,0,1.310754,-0.891516,-1.84791\H

 Normal termination of Gaussian 16 at Tue Apr  8 22:47:02 2025.
 Gaussian 16:  ES64L-G16RevC.01  3-Jul-2019

 ----------------------------------------------------------------------
 #t hf aug-cc-pvdz iop(5/13=1,5/36=2,99/5=2) pseudo=read geom=check gue
 ss=(read,tcheck) scf=(maxcycle=1)
 ----------------------------------------------------------------------
 -----
 title
 -----
 Structure from the checkpoint file:  "BDE49_expt_1554_mol1.chk"
 Charge =  0 Multiplicity = 1

                         Standard orientation:
 ---------------------------------------------------------------------
 Center     Atomic      Atomic             Coordinates (Angstroms)
 Number     Number       Type             X           Y           Z
 ---------------------------------------------------------------------
      1          6           0        0.261079   -0.399544   -0.000498
      2          6           0       -1.126682   -0.440625   -0.682376
      3          6           0       -2.260725    0.336481   -0.005799
      4          1           0       -1.409065   -1.498388   -0.752295
      5          1           0       -1.010296   -0.088110   -1.712661
      6          1           0       -2.028984    1.400388    0.082677
      7          1           0       -2.475760   -0.042524    0.995998
      8         16           0        0.817140    1.390675   -0.032891
      9          1           0        2.038299    1.174683    0.484750
     10          6           0        1.245266   -1.247163   -0.817949
     11          1           0        2.248561   -1.220116   -0.384893
     12          1           0        1.310754   -0.891516   -1.847910
     13          1           0        0.915986   -2.292524   -0.832773
     14          6           0        0.203280   -0.902680    1.447777
     15          1           0       -0.184511   -1.927800    1.473529
     16          1           0       -0.434999   -0.275897    2.070706
     17          1           0        1.200032   -0.912771    1.896213
     18          1           0       -3.177559    0.244959   -0.594022
 ---------------------------------------------------------------------

 SCF Done:  E(RHF) =  -595.156494680     A.U. after    2 cycles

 The electronic state is 1-A.
 Alpha  occ. eigenvalues --  -75.67313 -13.14236 -13.09442 -13.04333 -11.44216
 Alpha  occ. eigenvalues --  -11.41363 -11.39097 -11.37378 -11.35320  -8.01195
 Alpha  occ. eigenvalues --   -1.31054  -1.10835  -1.05097  -1.01208  -0.91440
 Alpha  occ. eigenvalues --   -0.76754  -0.64296  -0.62621  -0.59599  -0.57701
 Alpha  occ. eigenvalues --   -0.54776  -0.53677  -0.50107  -0.49784  -0.47284
 Alpha  occ. eigenvalues --   -0.44059  -0.41665  -0.34740  -0.23450
 Alpha virt. eigenvalues --    0.03483   0.04864   0.05497   0.05634   0.05722
 Alpha virt. eigenvalues --    0.06177   0.06343   0.06383   0.06815   0.08579
 Alpha virt. eigenvalues --    0.08971   0.09504   0.11395   0.12793   0.13084

 Mulliken charges:
               1
     1  C    2.722519
     2  C   -3.471271
     3  C   -3.904953
     4  H    1.346003
     5  H    1.367330
     6  H    1.364959
     7  H    1.382431
     8  S   -1.126201
     9  H    0.928752
    10  C   -4.632721
    11  H    1.219434
    12  H    1.366508
    13  H    1.235303
    14  C   -4.678171
    15  H    1.149677
    16  H    1.488394
    17  H    1.203999
    18  H    1.038008
 Sum of Mulliken charges =  -0.00000

 Dipole moment (field-independent basis, Debye):
    X=             -1.1418    Y=             -0.0935    Z=             -0.3869  Tot=              1.2092

 Test job not archived.
 1\1\GINC-SE329\SP\RHF\Aug-CC-pVDZ\C5H12S1\OHZDE\08-Apr-2025\0\\#t hf a
 ug-cc-pvdz iop(5/13=1,5/36=2,99/5=2) pseudo=read geom=check guess=(rea
 d,tcheck) scf=(maxcycle=1)\\title\\0,1\C,0,0.261079,-0.399544,-0.00049
 8\C,0,-1.126682,-0.440625,-0.682376\C,0,-2.260725,0.336481,-0.005799\H
 ,0,-1.409065,-1.498388,-0.752295\H,0,-1.010296,-0.08811,-1.712661\H,0,
 -2.028984,1.400388,0.082677\H,0,-2.47576,-0.042524,0.995998\S,0,0.8171
 4,1.390675,-0.032891\H,0,2.038299,1.174683,0.48475\C,0,1.245266,-1.247
 163,-0.817949\H,0,2.248561,-1.220116,-0.384893\H,0,1.310754,-0.891516,

 Normal termination of Gaussian 16 at Tue Apr  8 22:47:08 2025.
