 Gaussian 16, Revision C.01,

 ----------------------------------------------------------------------
 #t hf aug-cc-pvdz symm=none int=(grid=ultrafine) guess=(read,tcheck) s
 table=opt
 ----------------------------------------------------------------------
 -----
 title
 -----
 Symbolic Z-matrix:
 Charge =  0 Multiplicity = 2

 SCF Done:  E(UHF) =  -478.297768698     A.U. after   17 cycles
 Normal termination of Gaussian 16 at Tue Apr  8 23:51:20 2025.
 Gaussian 16:  ES64L-G16RevC.01  3-Jul-2019

 ----------------------------------------------------------------------
 #t hf aug-cc-pvdz iop(5/13=1,5/36=2,99/5=2) pseudo=read geom=check gue
 ss=(read,tcheck) scf=(maxcycle=1)
 ----------------------------------------------------------------------
 -----
 title
 -----
 Structure from the checkpoint file:  "BDE49_nonexpt_1888_mol2.chk"
 Charge =  0 Multiplicity = 2

                         Standard orientation:
 ---------------------------------------------------------------------
 Center     Atomic      Atomic             Coordinates (Angstroms)
 Number     Number       Type             X           Y           Z
 ---------------------------------------------------------------------
      1         14           0        1.383575   -0.116895    0.000000
      2          8           0       -0.018194    0.844578   -0.000004
      3          1           0        1.428141   -0.941925    1.231219
      4          1           0        1.428117   -0.941954   -1.231200
      5          6           0       -1.275670    0.350499   -0.000002
      6          8           0       -1.552730   -0.813919    0.000003
      7          1           0       -2.004893    1.172143   -0.000005
 ---------------------------------------------------------------------

 SCF Done:  E(UHF) =  -479.202212201     A.U. after    2 cycles

 The electronic state is 2-A.
 Alpha  occ. eigenvalues --  -76.27282 -21.09843 -21.07276 -11.52097  -5.60522
 Alpha  occ. eigenvalues --   -2.25971  -2.21955  -2.21233  -1.81867  -1.66030
 Alpha  occ. eigenvalues --   -0.90049  -0.74287  -0.66689  -0.57349  -0.55932
 Alpha  occ. eigenvalues --   -0.49277  -0.41858  -0.36067  -0.32901  -0.29984
 Alpha virt. eigenvalues --    0.03462   0.05055   0.06039   0.06136   0.07995
 Alpha virt. eigenvalues --    0.09190   0.10980   0.11590   0.13840   0.14554
 Alpha virt. eigenvalues --    0.14980   0.15302   0.17263   0.18057   0.18075

  Beta  occ. eigenvalues --  -76.26704 -21.09727 -21.07307 -11.52015  -5.59593
  Beta  occ. eigenvalues --   -2.25290  -2.21333  -2.17628  -1.81667  -1.65916
  Beta  occ. eigenvalues --   -0.89106  -0.70740  -0.65814  -0.57077  -0.55552
  Beta  occ. eigenvalues --   -0.48113  -0.41504  -0.35940  -0.32200
  Beta virt. eigenvalues --    0.02682   0.03753   0.05362   0.06370   0.06586
  Beta virt. eigenvalues --    0.09275   0.09828   0.11176   0.11742   0.14019
  Beta virt. eigenvalues --    0.15297   0.15333   0.15678   0.18473   0.19779

 Mulliken charges and spin densities:
               1          2
     1  Si   4.036411   1.128388
     2  O   -2.782026  -0.172546
     3  H   -1.462147   0.024377
     4  H   -1.462147   0.024377
     5  C    2.403255   0.006118
     6  O   -2.358424  -0.018207
     7  H    1.625077   0.007493
 Sum of Mulliken charges =  -0.00000   1.00000

 Dipole moment (field-independent basis, Debye):
    X=              0.6344    Y=              1.1683    Z=             -0.0000  Tot=              1.3295
                          Isotropic Fermi Contact Couplings
        Atom                 a.u.       MegaHertz       Gauss      10(-4) cm-1
     1  Si(29)             0.59604    -529.71685    -189.01614    -176.69452
     2  O(17)              0.06852     -41.53856     -14.82199     -13.85577
     3  H(1)               0.01284      57.39270      20.47914      19.14414
     4  H(1)               0.01284      57.39197      20.47888      19.14390
     5  C(13)              0.02722      30.59840      10.91827      10.20653
     6  O(17)             -0.00091       0.55328       0.19743       0.18456
     7  H(1)               0.00018       0.79069       0.28214       0.26374
 --------------------------------------------------------

 Normal termination of Gaussian 16 at Tue Apr  8 23:51:22 2025.
