 Gaussian 16, Revision C.01,

 ----------------------------------------------------------------------
 #t hf aug-cc-pvdz symm=none int=(grid=ultrafine) guess=(read,tcheck) s
 table=opt
 ----------------------------------------------------------------------
 -----
 title
 -----
 Symbolic Z-matrix:
 Charge =  0 Multiplicity = 2

 SCF Done:  E(UHF) =  -384.720917956     A.U. after   16 cycles
 Normal termination of Gaussian 16 at Tue Apr  8 23:52:20 2025.
 Gaussian 16:  ES64L-G16RevC.01  3-Jul-2019

 ----------------------------------------------------------------------
 #t hf aug-cc-pvdz iop(5/13=1,5/36=2,99/5=2) pseudo=read geom=check gue
 ss=(read,tcheck) scf=(maxcycle=1)
 ----------------------------------------------------------------------
 -----
 title
 -----
 Structure from the checkpoint file:  "BDE49_nonexpt_1901_mol2.chk"
 Charge =  0 Multiplicity = 2

                         Standard orientation:
 ---------------------------------------------------------------------
 Center     Atomic      Atomic             Coordinates (Angstroms)
 Number     Number       Type             X           Y           Z
 ---------------------------------------------------------------------
      1         14           0        1.163465   -0.131278    0.113169
      2          7           0       -0.428730    0.515019   -0.096523
      3          1           0        1.222385   -1.395264   -0.680276
      4          1           0        2.092654    0.883538   -0.463520
      5          6           0       -1.672920   -0.236908    0.016781
      6          1           0       -0.550827    1.510881    0.031313
      7          1           0       -1.484442   -1.288638   -0.210180
      8          1           0       -2.410889    0.128022   -0.704992
      9          1           0       -2.118756   -0.184337    1.018265
 ---------------------------------------------------------------------

 SCF Done:  E(UHF) =  -385.329447025     A.U. after    2 cycles

 The electronic state is 2-A.
 Alpha  occ. eigenvalues --  -76.22503 -15.72287 -11.39010  -5.56021  -2.20730
 Alpha  occ. eigenvalues --   -2.17855  -2.16578  -1.32561  -0.96357  -0.75085
 Alpha  occ. eigenvalues --   -0.63003  -0.59589  -0.54446  -0.47097  -0.46720
 Alpha  occ. eigenvalues --   -0.39394  -0.25316
 Alpha virt. eigenvalues --    0.03498   0.05299   0.05590   0.06167   0.07194
 Alpha virt. eigenvalues --    0.07723   0.08344   0.09070   0.09869   0.12494
 Alpha virt. eigenvalues --    0.14175   0.15096   0.16931   0.17224   0.17953

  Beta  occ. eigenvalues --  -76.22036 -15.71661 -11.39058  -5.55270  -2.20144
  Beta  occ. eigenvalues --   -2.17394  -2.13668  -1.31292  -0.95952  -0.72087
  Beta  occ. eigenvalues --   -0.62045  -0.58806  -0.54061  -0.45983  -0.45419
  Beta  occ. eigenvalues --   -0.35121
  Beta virt. eigenvalues --    0.03379   0.04821   0.05615   0.05876   0.06680
  Beta virt. eigenvalues --    0.07275   0.07922   0.09298   0.09944   0.10771
  Beta virt. eigenvalues --    0.12799   0.15144   0.15741   0.17484   0.17996

 Mulliken charges and spin densities:
               1          2
     1  Si   3.496278   0.866545
     2  N   -2.285428   0.047717
     3  H   -1.404815   0.047567
     4  H   -1.429568   0.031497
     5  C   -3.007854   0.011822
     6  H    0.717049  -0.020664
     7  H    1.353574   0.004939
     8  H    1.295940   0.004798
     9  H    1.264823   0.005779
 Sum of Mulliken charges =  -0.00000   1.00000

 Dipole moment (field-independent basis, Debye):
    X=             -1.2838    Y=              0.5780    Z=              0.5361  Tot=              1.5065
                          Isotropic Fermi Contact Couplings
        Atom                 a.u.       MegaHertz       Gauss      10(-4) cm-1
     1  Si(29)             0.47931    -425.98013    -152.00030    -142.09168
     2  N(14)              0.05839      18.86691       6.73218       6.29332
     3  H(1)               0.01569      70.15008      25.03129      23.39955
     4  H(1)               0.01375      61.47068      21.93427      20.50441
     5  C(13)             -0.00514      -5.77793      -2.06171      -1.92731
     6  H(1)              -0.00292     -13.07027      -4.66380      -4.35977
     7  H(1)               0.00016       0.72250       0.25781       0.24100
     8  H(1)               0.00134       5.98556       2.13580       1.99657

 Normal termination of Gaussian 16 at Tue Apr  8 23:52:22 2025.
