 Gaussian 16, Revision C.01,

 ----------------------------------------------------------------------
 #t hf aug-cc-pvdz symm=none int=(grid=ultrafine) guess=(read,tcheck) s
 table=(opt,rrhf)
 ----------------------------------------------------------------------
 -----
 title
 -----
 Symbolic Z-matrix:
 Charge =  0 Multiplicity = 1

 SCF Done:  E(RHF) =  -1452.10959798     A.U. after   15 cycles
 Normal termination of Gaussian 16 at Wed Apr  9 00:13:14 2025.
 Gaussian 16:  ES64L-G16RevC.01  3-Jul-2019

 ----------------------------------------------------------------------
 #t hf aug-cc-pvdz iop(5/13=1,5/36=2,99/5=2) pseudo=read geom=check gue
 ss=(read,tcheck) scf=(maxcycle=1)
 ----------------------------------------------------------------------
 -----
 title
 -----
 Structure from the checkpoint file:  "BDE49_nonexpt_2431_mol1.chk"
 Charge =  0 Multiplicity = 1

                         Standard orientation:
 ---------------------------------------------------------------------
 Center     Atomic      Atomic             Coordinates (Angstroms)
 Number     Number       Type             X           Y           Z
 ---------------------------------------------------------------------
      1         14           0        1.084456    1.361678   -0.535425
      2         14           0       -0.698603    0.910855    0.951136
      3          6           0       -1.633308   -0.633454    0.396881
      4          1           0       -1.623473    2.065306    0.935858
      5          1           0       -0.150666    0.711629    2.315077
      6         16           0       -2.910281   -0.604072   -0.607574
      7          1           0       -1.268200   -1.599055    0.755502
      8          6           0        2.367282   -0.032658   -0.487567
      9          1           0        1.773351    2.634981   -0.197525
     10          1           0        0.607089    1.470711   -1.937516
     11         16           0        2.130837   -1.473727    0.222365
     12          1           0        3.327208    0.142429   -0.983875
 ---------------------------------------------------------------------

 SCF Done:  E(RHF) =  -1453.21299788     A.U. after    2 cycles

 The electronic state is 1-A.
 Alpha  occ. eigenvalues --  -76.23935 -76.23446 -75.70093 -75.68856 -13.15252
 Alpha  occ. eigenvalues --  -13.14279 -13.05388 -13.02822 -13.01633 -13.00354
 Alpha  occ. eigenvalues --  -11.44882 -11.43912  -8.04124  -8.02880  -5.57531
 Alpha  occ. eigenvalues --   -5.57059  -2.21025  -2.20736  -2.19469  -2.19240
 Alpha  occ. eigenvalues --   -2.19060  -2.17905  -1.20357  -1.19016  -0.89169
 Alpha  occ. eigenvalues --   -0.86721  -0.77247  -0.70799  -0.57016  -0.55703
 Alpha  occ. eigenvalues --   -0.49833  -0.48557  -0.44347  -0.43509  -0.40051
 Alpha  occ. eigenvalues --   -0.37389  -0.33701  -0.23113  -0.21617
 Alpha virt. eigenvalues --    0.02692   0.03596   0.04344   0.04736   0.04983
 Alpha virt. eigenvalues --    0.05748   0.06339   0.06864   0.07372   0.07697
 Alpha virt. eigenvalues --    0.08322   0.08795   0.09653   0.09767   0.10283

 Mulliken charges:
               1
     1  Si   4.834378
     2  Si   4.665000
     3  C   -3.419548
     4  H   -1.809886
     5  H   -1.730775
     6  S    0.917593
     7  H    1.312371
     8  C   -3.657927
     9  H   -1.786274
    10  H   -1.642664
    11  S    1.004824
    12  H    1.312907
 Sum of Mulliken charges =   0.00000

 Dipole moment (field-independent basis, Debye):
    X=             -0.7631    Y=             -2.2103    Z=             -0.2109  Tot=              2.3478

 Test job not archived.
 1\1\GINC-SE331\SP\RHF\Aug-CC-pVDZ\C2H6S2Si2\OHZDE\09-Apr-2025\0\\#t hf
  aug-cc-pvdz iop(5/13=1,5/36=2,99/5=2) pseudo=read geom=check guess=(r
 ead,tcheck) scf=(maxcycle=1)\\title\\0,1\Si,0,1.084456,1.361678,-0.535
 425\Si,0,-0.698603,0.910855,0.951136\C,0,-1.633308,-0.633454,0.396881\
 H,0,-1.623473,2.065306,0.935858\H,0,-0.150666,0.711629,2.315077\S,0,-2
 .910281,-0.604072,-0.607574\H,0,-1.2682,-1.599055,0.755502\C,0,2.36728
 2,-0.032658,-0.487567\H,0,1.773351,2.634981,-0.197525\H,0,0.607089,1.4
 70711,-1.937516\S,0,2.130837,-1.473727,0.222365\H,0,3.327208,0.142429,

 Normal termination of Gaussian 16 at Wed Apr  9 00:13:18 2025.
