 Gaussian 16, Revision C.01,

 ----------------------------------------------------------------------
 #t hf aug-cc-pvdz symm=none int=(grid=ultrafine) guess=(read,tcheck) s
 table=(opt,rrhf)
 ----------------------------------------------------------------------
 -----
 title
 -----
 Symbolic Z-matrix:
 Charge =  0 Multiplicity = 1

 SCF Done:  E(RHF) =  -404.064447303     A.U. after   13 cycles
 Normal termination of Gaussian 16 at Wed Apr  9 00:40:44 2025.
 Gaussian 16:  ES64L-G16RevC.01  3-Jul-2019

 ----------------------------------------------------------------------
 #t hf aug-cc-pvdz iop(5/13=1,5/36=2,99/5=2) pseudo=read geom=check gue
 ss=(read,tcheck) scf=(maxcycle=1)
 ----------------------------------------------------------------------
 -----
 title
 -----
 Structure from the checkpoint file:  "BDE49_nonexpt_639_mol1.chk"
 Charge =  0 Multiplicity = 1

                         Standard orientation:
 ---------------------------------------------------------------------
 Center     Atomic      Atomic             Coordinates (Angstroms)
 Number     Number       Type             X           Y           Z
 ---------------------------------------------------------------------
      1          8           0       -0.206346   -0.439656   -0.634474
      2          5           0       -1.384683   -0.037673   -0.007722
      3          8           0       -2.368473   -0.976938   -0.005611
      4          8           0       -1.546848    1.186024    0.562429
      5          8           0        0.745993    0.665451   -0.614545
      6          6           0        2.041539    0.082594   -0.456647
      7          6           0        2.276951   -0.518289    0.919857
      8          1           0        2.702192    0.934554   -0.643741
      9          1           0        2.191979   -0.653524   -1.252211
     10          1           0        2.119054    0.228763    1.701913
     11          1           0        3.304703   -0.884256    0.996779
     12          1           0        1.602421   -1.357564    1.094604
     13          1           0       -0.743529    1.710390    0.463172
     14          1           0       -3.158946   -0.654876    0.436440
 ---------------------------------------------------------------------

 SCF Done:  E(RHF) =  -405.774711254     A.U. after    2 cycles

 The electronic state is 1-A.
 Alpha  occ. eigenvalues --  -21.10550 -21.07029 -21.05770 -21.05622 -11.44442
 Alpha  occ. eigenvalues --  -11.37429  -7.66211  -1.99325  -1.80067  -1.66787
 Alpha  occ. eigenvalues --   -1.47103  -1.11791  -0.88505  -0.75315  -0.68579
 Alpha  occ. eigenvalues --   -0.64016  -0.62565  -0.60307  -0.55723  -0.53328
 Alpha  occ. eigenvalues --   -0.51914  -0.50909  -0.44944  -0.40956  -0.39833
 Alpha  occ. eigenvalues --   -0.36702  -0.34326  -0.28824
 Alpha virt. eigenvalues --    0.03557   0.04339   0.05361   0.05496   0.05756
 Alpha virt. eigenvalues --    0.06182   0.06611   0.07299   0.07925   0.09250
 Alpha virt. eigenvalues --    0.10080   0.12380   0.13904   0.14360   0.15600

 Mulliken charges:
               1
     1  O   -2.915168
     2  B    8.400006
     3  O   -3.786830
     4  O   -3.796109
     5  O   -1.960323
     6  C   -1.462352
     7  C   -3.539424
     8  H    1.385342
     9  H    1.539145
    10  H    1.275500
    11  H    1.224867
    12  H    1.320696
    13  H    1.466320
    14  H    0.848330
 Sum of Mulliken charges =   0.00000

 Dipole moment (field-independent basis, Debye):
    X=              1.4953    Y=              0.8013    Z=              0.4118  Tot=              1.7457

 Test job not archived.
 1\1\GINC-SE186\SP\RHF\Aug-CC-pVDZ\C2H7B1O4\OHZDE\09-Apr-2025\0\\#t hf
 aug-cc-pvdz iop(5/13=1,5/36=2,99/5=2) pseudo=read geom=check guess=(re
 ad,tcheck) scf=(maxcycle=1)\\title\\0,1\O,0,-0.206346,-0.439656,-0.634
 474\B,0,-1.384683,-0.037673,-0.007722\O,0,-2.368473,-0.976938,-0.00561
 1\O,0,-1.546848,1.186024,0.562429\O,0,0.745993,0.665451,-0.614545\C,0,
 2.041539,0.082594,-0.456647\C,0,2.276951,-0.518289,0.919857\H,0,2.7021
 92,0.934554,-0.643741\H,0,2.191979,-0.653524,-1.252211\H,0,2.119054,0.
 228763,1.701913\H,0,3.304703,-0.884256,0.996779\H,0,1.602421,-1.357564

 Normal termination of Gaussian 16 at Wed Apr  9 00:40:49 2025.
