 Gaussian 16, Revision C.01,

 ----------------------------------------------------------------------
 #t hf aug-cc-pvdz symm=none int=(grid=ultrafine) guess=(read,tcheck) s
 table=(opt,rrhf)
 ----------------------------------------------------------------------
 -----
 title
 -----
 Symbolic Z-matrix:
 Charge =  0 Multiplicity = 1

 SCF Done:  E(RHF) =  -597.110994105     A.U. after   12 cycles
 Normal termination of Gaussian 16 at Wed Apr  9 00:00:13 2025.
 Gaussian 16:  ES64L-G16RevC.01  3-Jul-2019

 ----------------------------------------------------------------------
 #t hf aug-cc-pvdz iop(5/13=1,5/36=2,99/5=2) pseudo=read geom=check gue
 ss=(read,tcheck) scf=(maxcycle=1)
 ----------------------------------------------------------------------
 -----
 title
 -----
 Structure from the checkpoint file:  "BDE49_nonexpt_2069_mol1.chk"
 Charge =  0 Multiplicity = 1

                         Standard orientation:
 ---------------------------------------------------------------------
 Center     Atomic      Atomic             Coordinates (Angstroms)
 Number     Number       Type             X           Y           Z
 ---------------------------------------------------------------------
      1         14           0        1.780073   -0.472755   -0.459630
      2          6           0        0.003264   -0.224723    0.260026
      3          8           0       -0.817184   -0.417057   -0.892511
      4          8           0       -0.234835    1.044140    0.857505
      5          6           0       -2.229556   -0.454159   -0.679399
      6          1           0       -2.687230   -0.361753   -1.664313
      7          1           0       -2.557207    0.376058   -0.047252
      8          1           0       -2.547341   -1.400804   -0.229213
      9          6           0        0.047162    2.181905    0.050246
     10          1           0       -0.347609    3.045011    0.586307
     11          1           0       -0.433638    2.108573   -0.929440
     12          1           0        1.126576    2.321960   -0.090246
     13          6           0       -0.278917   -1.234322    1.373539
     14          1           0       -0.265323   -2.253567    0.982595
     15          1           0       -1.251816   -1.034778    1.829003
     16          1           0        0.474858   -1.146403    2.158655
     17          1           0        1.985991    0.311204   -1.696764
     18          1           0        1.959885   -1.910614   -0.761691
     19          1           0        2.786268   -0.065188    0.550754
 ---------------------------------------------------------------------

 SCF Done:  E(RHF) =  -598.708913224     A.U. after    2 cycles

 The electronic state is 1-A.
 Alpha  occ. eigenvalues --  -76.20921 -21.04535 -21.04467 -11.46514 -11.40498
 Alpha  occ. eigenvalues --  -11.40071 -11.36914  -5.54485  -2.19082  -2.17147
 Alpha  occ. eigenvalues --   -2.16981  -1.80623  -1.68556  -1.11881  -0.99906
 Alpha  occ. eigenvalues --   -0.97547  -0.83017  -0.73856  -0.64350  -0.64038
 Alpha  occ. eigenvalues --   -0.61508  -0.60559  -0.58487  -0.55813  -0.54396
 Alpha  occ. eigenvalues --   -0.48834  -0.47362  -0.46318  -0.44480  -0.43707
 Alpha  occ. eigenvalues --   -0.33712  -0.29873  -0.28744
 Alpha virt. eigenvalues --    0.03825   0.04729   0.05122   0.05401   0.05590
 Alpha virt. eigenvalues --    0.06118   0.06266   0.06552   0.06992   0.08990
 Alpha virt. eigenvalues --    0.09119   0.09591   0.10263   0.10929   0.11688

 Mulliken charges:
               1
     1  Si   6.393170
     2  C    5.396681
     3  O   -3.636574
     4  O   -3.669329
     5  C   -3.395619
     6  H    1.313619
     7  H    1.415181
     8  H    1.486409
     9  C   -3.312939
    10  H    1.288394
    11  H    1.400412
    12  H    1.352462
    13  C   -4.265674
    14  H    1.393360
    15  H    1.309979
    16  H    1.270197
    17  H   -1.884038
    18  H   -1.894820
    19  H   -1.960873
 Sum of Mulliken charges =   0.00000

 Dipole moment (field-independent basis, Debye):
    X=             -0.9196    Y=              0.3472    Z=              0.2210  Tot=              1.0075

 Test job not archived.
 1\1\GINC-SE419\SP\RHF\Aug-CC-pVDZ\C4H12O2Si1\OHZDE\09-Apr-2025\0\\#t h
 f aug-cc-pvdz iop(5/13=1,5/36=2,99/5=2) pseudo=read geom=check guess=(
 read,tcheck) scf=(maxcycle=1)\\title\\0,1\Si,0,1.780073,-0.472755,-0.4
 5963\C,0,0.003264,-0.224723,0.260026\O,0,-0.817184,-0.417057,-0.892511
 \O,0,-0.234835,1.04414,0.857505\C,0,-2.229556,-0.454158,-0.679399\H,0,
 -2.68723,-0.361752,-1.664313\H,0,-2.557207,0.376059,-0.047252\H,0,-2.5
 47341,-1.400803,-0.229213\C,0,0.047163,2.181905,0.050246\H,0,-0.347608
 ,3.045011,0.586307\H,0,-0.433637,2.108573,-0.92944\H,0,1.126577,2.3219

 Normal termination of Gaussian 16 at Wed Apr  9 00:00:21 2025.
