 Gaussian 16, Revision C.01,

 ----------------------------------------------------------------------
 #t hf aug-cc-pvdz symm=none int=(grid=ultrafine) guess=(read,tcheck) s
 table=(opt,rrhf)
 ----------------------------------------------------------------------
 -----
 title
 -----
 Symbolic Z-matrix:
 Charge =  0 Multiplicity = 1

 SCF Done:  E(RHF) =  -627.120019533     A.U. after   11 cycles
 Normal termination of Gaussian 16 at Tue Apr  8 22:46:29 2025.
 Gaussian 16:  ES64L-G16RevC.01  3-Jul-2019

 ----------------------------------------------------------------------
 #t hf aug-cc-pvdz iop(5/13=1,5/36=2,99/5=2) pseudo=read geom=check gue
 ss=(read,tcheck) scf=(maxcycle=1)
 ----------------------------------------------------------------------
 -----
 title
 -----
 Structure from the checkpoint file:  "BDE49_expt_1540_mol1.chk"
 Charge =  0 Multiplicity = 1

                         Standard orientation:
 ---------------------------------------------------------------------
 Center     Atomic      Atomic             Coordinates (Angstroms)
 Number     Number       Type             X           Y           Z
 ---------------------------------------------------------------------
      1         14           0        0.034965    0.000006   -0.000009
      2          6           0       -1.799515    0.000015   -0.000046
      3          1           0       -2.183554   -0.988065    0.264952
      4          1           0       -2.183498    0.264563   -0.988266
      5          1           0       -2.183538    0.723564    0.723151
      6          9           0        0.624403   -1.042313   -1.041847
      7          9           0        0.624315   -0.381156    1.423601
      8          9           0        0.624412    1.423444   -0.381691
 ---------------------------------------------------------------------

 SCF Done:  E(RHF) =  -628.498347326     A.U. after    2 cycles

 The electronic state is 1-A.
 Alpha  occ. eigenvalues --  -76.30607 -29.29118 -29.29111 -29.29111 -11.38179
 Alpha  occ. eigenvalues --   -5.67673  -2.31706  -2.31705  -2.29783  -1.10527
 Alpha  occ. eigenvalues --   -0.95740  -0.72229  -0.72229  -0.59086  -0.59086
 Alpha  occ. eigenvalues --   -0.54645  -0.42464  -0.42464  -0.42441  -0.35482
 Alpha  occ. eigenvalues --   -0.35481  -0.34053  -0.30165  -0.30165  -0.28334
 Alpha virt. eigenvalues --    0.03432   0.05984   0.05984   0.07041   0.09063
 Alpha virt. eigenvalues --    0.09063   0.13223   0.15336   0.16375   0.16375
 Alpha virt. eigenvalues --    0.19126   0.22247   0.22247   0.25396   0.25445

 Mulliken charges:
               1
     1  Si   4.398250
     2  C   -4.889963
     3  H    1.137902
     4  H    1.137910
     5  H    1.137905
     6  F   -0.974007
     7  F   -0.973981
     8  F   -0.974017
 Sum of Mulliken charges =   0.00000

 Dipole moment (field-independent basis, Debye):
    X=              1.3209    Y=              0.0000    Z=              0.0000  Tot=              1.3209

 Test job not archived.
 1\1\GINC-SE029\SP\RHF\Aug-CC-pVDZ\C1H3F3Si1\OHZDE\08-Apr-2025\0\\#t hf
  aug-cc-pvdz iop(5/13=1,5/36=2,99/5=2) pseudo=read geom=check guess=(r
 ead,tcheck) scf=(maxcycle=1)\\title\\0,1\Si,0,0.034965,0.000006,-0.000
 009\C,0,-1.799515,0.000013,-0.000047\H,0,-2.183553,-0.987294,0.267816\
 H,0,-2.183498,0.261693,-0.98903\H,0,-2.183539,0.725657,0.721048\F,0,0.
 624405,-1.045331,-1.038818\F,0,0.624315,-0.377024,1.424701\F,0,0.62441
 1,1.422331,-0.385819\\Version=ES64L-G16RevC.01\State=1-A\HF=-628.49834
 73\RMSD=6.406e-02\Dipole=0.5196662,0.0000005,0.0000057\Quadrupole=-1.0

 Normal termination of Gaussian 16 at Tue Apr  8 22:46:32 2025.
