 Gaussian 16, Revision C.01,

 ----------------------------------------------------------------------
 #t hf aug-cc-pvdz symm=none int=(grid=ultrafine) guess=(read,tcheck) s
 table=opt
 ----------------------------------------------------------------------
 -----
 title
 -----
 Symbolic Z-matrix:
 Charge =  0 Multiplicity = 2

 SCF Done:  E(UHF) =  -1156.38574617     A.U. after   15 cycles
 Normal termination of Gaussian 16 at Tue Apr  8 23:39:29 2025.
 Gaussian 16:  ES64L-G16RevC.01  3-Jul-2019

 ----------------------------------------------------------------------
 #t hf aug-cc-pvdz iop(5/13=1,5/36=2,99/5=2) pseudo=read geom=check gue
 ss=(read,tcheck) scf=(maxcycle=1)
 ----------------------------------------------------------------------
 -----
 title
 -----
 Structure from the checkpoint file:  "BDE49_nonexpt_1445_mol2.chk"
 Charge =  0 Multiplicity = 2

                         Standard orientation:
 ---------------------------------------------------------------------
 Center     Atomic      Atomic             Coordinates (Angstroms)
 Number     Number       Type             X           Y           Z
 ---------------------------------------------------------------------
      1         15           0        0.000001   -1.377056    0.000021
      2         14           0        1.814772    0.009200    0.001450
      3          6           0        3.279853   -1.052898   -0.530040
      4          1           0        3.407215   -1.911920    0.134574
      5          1           0        4.207105   -0.470213   -0.510327
      6          1           0        3.145829   -1.436177   -1.545553
      7          6           0        2.123647    0.640998    1.754767
      8          1           0        2.218346   -0.187336    2.462121
      9          1           0        1.317968    1.291168    2.103690
     10          1           0        3.056797    1.214410    1.784263
     11          6           0        1.676404    1.472403   -1.184912
     12          1           0        1.486012    1.139202   -2.208816
     13          1           0        2.617349    2.033667   -1.188455
     14          1           0        0.878989    2.163320   -0.900753
     15         14           0       -1.814772    0.009199   -0.001446
     16          6           0       -3.279878   -1.052919    0.529939
     17          1           0       -3.407206   -1.911919   -0.134710
     18          1           0       -4.207129   -0.470234    0.510198
     19          1           0       -3.145903   -1.436230    1.545445
     20          6           0       -2.123559    0.641053   -1.754758
     21          1           0       -2.218222   -0.187260   -2.462144
     22          1           0       -1.317863    1.291235   -2.103619
     23          1           0       -3.056708    1.214465   -1.784283
     24          6           0       -1.676469    1.472366    1.184967
     25          1           0       -1.486126    1.139135    2.208871
     26          1           0       -2.617415    2.033627    1.188480
     27          1           0       -0.879042    2.163295    0.900869
 ---------------------------------------------------------------------

 SCF Done:  E(UHF) =  -1158.14787419     A.U. after    2 cycles

 The electronic state is 2-A.
 Alpha  occ. eigenvalues -- -105.15518 -76.20111 -76.20077 -11.35265 -11.34908
 Alpha  occ. eigenvalues --  -11.34651 -11.34547 -11.34305 -11.34043  -5.54008
 Alpha  occ. eigenvalues --   -5.53992  -2.72394  -2.17545  -2.17521  -2.17445
 Alpha  occ. eigenvalues --   -2.17438  -2.16386  -2.15415  -1.44044  -1.43618
 Alpha  occ. eigenvalues --   -1.41078  -1.07687  -1.06685  -1.01252  -1.00954
 Alpha  occ. eigenvalues --   -1.00757  -1.00326  -0.71517  -0.62803  -0.59061
 Alpha  occ. eigenvalues --   -0.57241  -0.56888  -0.56549  -0.56047  -0.55919
 Alpha  occ. eigenvalues --   -0.54806  -0.54496  -0.54204  -0.53930  -0.53244
 Alpha  occ. eigenvalues --   -0.53143  -0.52708  -0.39764  -0.39646  -0.39295
 Alpha  occ. eigenvalues --   -0.39095  -0.08363  -0.03919  -0.01165
 Alpha virt. eigenvalues --    0.02971   0.04770   0.05596   0.05793   0.05985
 Alpha virt. eigenvalues --    0.06043   0.06206   0.06565   0.06675   0.06741
 Alpha virt. eigenvalues --    0.07416   0.07423   0.07740   0.07927   0.08674

  Beta  occ. eigenvalues -- -105.14944 -76.20150 -76.20115 -11.35239 -11.34884
  Beta  occ. eigenvalues --  -11.34597 -11.34494 -11.34306 -11.34044  -5.54067
  Beta  occ. eigenvalues --   -5.54052  -2.70601  -2.17588  -2.17569  -2.17489
  Beta  occ. eigenvalues --   -2.17481  -2.16580  -2.15602  -1.42151  -1.39416
  Beta  occ. eigenvalues --   -1.21523  -1.07616  -1.06637  -1.01156  -1.00861
  Beta  occ. eigenvalues --   -1.00720  -1.00293  -0.69002  -0.62863  -0.58533
  Beta  occ. eigenvalues --   -0.57124  -0.56854  -0.56519  -0.56006  -0.55895
  Beta  occ. eigenvalues --   -0.54712  -0.54399  -0.54119  -0.53918  -0.53220
  Beta  occ. eigenvalues --   -0.53123  -0.49399  -0.39560  -0.39436  -0.39027
  Beta  occ. eigenvalues --   -0.39010  -0.08366  -0.02975
  Beta virt. eigenvalues --    0.03009   0.04759   0.05238   0.05632   0.05832
  Beta virt. eigenvalues --    0.06065   0.06218   0.06321   0.06693   0.06710
  Beta virt. eigenvalues --    0.07427   0.07434   0.07741   0.07944   0.08649

 Mulliken charges and spin densities:
               1          2
     1  P    0.901928   1.437685
     2  Si   5.675436   0.062218
     3  C   -5.571011  -0.041667
     4  H    1.203675   0.003270
     5  H    1.312996  -0.007135
     6  H    1.103546  -0.024040
     7  C   -5.704139  -0.129588
     8  H    1.200436   0.009894
     9  H    1.246360   0.017877
    10  H    1.245722  -0.026269
    11  C   -6.076438  -0.059873
    12  H    1.315205  -0.036492
    13  H    1.156393   0.002779
    14  H    1.440931   0.010193
    15  Si   5.675088   0.062182
    16  C   -5.570973  -0.041657
    17  H    1.203698   0.003269
    18  H    1.313008  -0.007135
    19  H    1.103569  -0.024033
    20  C   -5.704137  -0.129587
    21  H    1.200450   0.009896
    22  H    1.246413   0.017879
    23  H    1.245719  -0.026267
    24  C   -6.076343  -0.059878
    25  H    1.315147  -0.036490
    26  H    1.156426   0.002779
    27  H    1.440893   0.010190
 Sum of Mulliken charges =  -0.00000   1.00000

 Dipole moment (field-independent basis, Debye):
    X=              0.0000    Y=             -6.5420    Z=              0.0000  Tot=              6.5420
                          Isotropic Fermi Contact Couplings
        Atom                 a.u.       MegaHertz       Gauss      10(-4) cm-1
     1  P(31)              0.18086     327.55888     116.88115     109.26188
     2  Si(29)            -0.03058      27.17476       9.69663       9.06453
     3  C(13)              0.00021       0.23866       0.08516       0.07961
     4  H(1)              -0.00001      -0.02894      -0.01033      -0.00965
     5  H(1)              -0.00023      -1.02272      -0.36493      -0.34114
     6  H(1)               0.00037       1.64533       0.58709       0.54882
     7  C(13)              0.03230      36.30788      12.95555      12.11100
     8  H(1)               0.00046       2.07418       0.74012       0.69187

 Normal termination of Gaussian 16 at Tue Apr  8 23:39:52 2025.
