 Gaussian 16, Revision C.01,

 ----------------------------------------------------------------------
 #t hf aug-cc-pvdz symm=none int=(grid=ultrafine) guess=(read,tcheck) s
 table=(opt,rrhf)
 ----------------------------------------------------------------------
 -----
 title
 -----
 Symbolic Z-matrix:
 Charge =  0 Multiplicity = 1

 SCF Done:  E(RHF) =  -763.384121990     A.U. after   12 cycles
 Normal termination of Gaussian 16 at Wed Apr  9 00:42:58 2025.
 Gaussian 16:  ES64L-G16RevC.01  3-Jul-2019

 ----------------------------------------------------------------------
 #t hf aug-cc-pvdz iop(5/13=1,5/36=2,99/5=2) pseudo=read geom=check gue
 ss=(read,tcheck) scf=(maxcycle=1)
 ----------------------------------------------------------------------
 -----
 title
 -----
 Structure from the checkpoint file:  "BDE49_nonexpt_720_mol1.chk"
 Charge =  0 Multiplicity = 1

                         Standard orientation:
 ---------------------------------------------------------------------
 Center     Atomic      Atomic             Coordinates (Angstroms)
 Number     Number       Type             X           Y           Z
 ---------------------------------------------------------------------
      1         15           0        0.643518   -0.796270   -0.000000
      2          5           0       -0.069057    1.055922    0.000000
      3          9           0       -0.258541   -1.329381    1.238774
      4          9           0       -0.258541   -1.329381   -1.238774
      5          9           0       -0.258541    1.699627    1.134010
      6          9           0       -0.258541    1.699627   -1.134010
 ---------------------------------------------------------------------

 SCF Done:  E(RHF) =  -765.013897409     A.U. after    2 cycles

 The electronic state is 1-A'.
 Alpha  occ. eigenvalues -- -105.30621 -29.30345 -29.30340 -29.29000 -29.28904
 Alpha  occ. eigenvalues --   -7.74018  -2.90080  -1.64072  -1.60168  -1.57601
 Alpha  occ. eigenvalues --   -1.11985  -0.90594  -0.79024  -0.58187  -0.54205
 Alpha  occ. eigenvalues --   -0.50460  -0.48940  -0.47523  -0.42241  -0.40578
 Alpha  occ. eigenvalues --   -0.37883  -0.36514  -0.36255  -0.34802  -0.30218
 Alpha  occ. eigenvalues --   -0.20704  -0.13995  -0.01784
 Alpha virt. eigenvalues --    0.04798   0.06304   0.06631   0.08311   0.10282
 Alpha virt. eigenvalues --    0.11590   0.14450   0.16315   0.17272   0.17948
 Alpha virt. eigenvalues --    0.21261   0.21854   0.22420   0.24297   0.25067

 Mulliken charges:
               1
     1  P    1.447766
     2  B   -1.229049
     3  F   -0.441223
     4  F   -0.441223
     5  F    0.331865
     6  F    0.331865
 Sum of Mulliken charges =  -0.00000

 Dipole moment (field-independent basis, Debye):
    X=             -5.3228    Y=             -3.4870    Z=              0.0000  Tot=              6.3633

 Test job not archived.
 1\1\GINC-SE342\SP\RHF\Aug-CC-pVDZ\B1F4P1\OHZDE\09-Apr-2025\0\\#t hf au
 g-cc-pvdz iop(5/13=1,5/36=2,99/5=2) pseudo=read geom=check guess=(read
 ,tcheck) scf=(maxcycle=1)\\title\\0,1\P,0,0.643518,-0.79627,0.\B,0,-0.
 069057,1.055922,0.\F,0,-0.258541,-1.329381,1.238774\F,0,-0.258541,-1.3
 29381,-1.238774\F,0,-0.258541,1.699627,1.13401\F,0,-0.258541,1.699627,
 -1.13401\\Version=ES64L-G16RevC.01\State=1-A'\HF=-765.0138974\RMSD=2.5
 97e-01\Dipole=-2.0941582,-1.37188,0.\Quadrupole=-13.4140003,4.2509846,
 9.1630157,4.4129862,0.,0.\PG=CS [SG(B1P1),X(F4)]\\@

 Normal termination of Gaussian 16 at Wed Apr  9 00:43:00 2025.
