 Gaussian 16, Revision C.01,

 ----------------------------------------------------------------------
 #t hf aug-cc-pvdz symm=none int=(grid=ultrafine) guess=(read,tcheck) s
 table=(opt,rrhf)
 ----------------------------------------------------------------------
 -----
 title
 -----
 Symbolic Z-matrix:
 Charge =  0 Multiplicity = 1

 SCF Done:  E(RHF) =  -517.313994168     A.U. after   12 cycles
 Normal termination of Gaussian 16 at Tue Apr  8 23:59:50 2025.
 Gaussian 16:  ES64L-G16RevC.01  3-Jul-2019

 ----------------------------------------------------------------------
 #t hf aug-cc-pvdz iop(5/13=1,5/36=2,99/5=2) pseudo=read geom=check gue
 ss=(read,tcheck) scf=(maxcycle=1)
 ----------------------------------------------------------------------
 -----
 title
 -----
 Structure from the checkpoint file:  "BDE49_nonexpt_2087_mol1.chk"
 Charge =  0 Multiplicity = 1

                         Standard orientation:
 ---------------------------------------------------------------------
 Center     Atomic      Atomic             Coordinates (Angstroms)
 Number     Number       Type             X           Y           Z
 ---------------------------------------------------------------------
      1          7           0        0.436424    1.411001   -0.182242
      2          7           0        0.436424   -1.411001   -0.182242
      3          6           0       -0.974107    1.285363    0.236227
      4          6           0       -1.675009   -0.000000   -0.255144
      5          6           0       -0.974107   -1.285363    0.236227
      6         14           0        1.405883    0.000000    0.105775
      7          1           0        0.523562    1.833569   -1.097507
      8          1           0        0.523562   -1.833569   -1.097507
      9          1           0       -1.006688   -1.304360    1.333669
     10          1           0       -1.527773   -2.167338   -0.097596
     11          1           0       -1.704766   -0.000000   -1.351802
     12          1           0       -2.714130   -0.000000    0.097392
     13          1           0       -1.527773    2.167339   -0.097596
     14          1           0       -1.006688    1.304360    1.333669
     15          1           0        1.802588    0.000000    1.531519
     16          1           0        2.585144    0.000000   -0.787572
 ---------------------------------------------------------------------

 SCF Done:  E(RHF) =  -518.587962989     A.U. after    2 cycles

 The electronic state is 1-A.
 Alpha  occ. eigenvalues --  -76.21050 -15.69837 -15.69803 -11.42944 -11.41345
 Alpha  occ. eigenvalues --  -11.35845  -5.55295  -2.20996  -2.19214  -2.17067
 Alpha  occ. eigenvalues --   -1.36718  -1.28065  -1.10723  -0.93034  -0.84413
 Alpha  occ. eigenvalues --   -0.75146  -0.65652  -0.63624  -0.60901  -0.54849
 Alpha  occ. eigenvalues --   -0.53490  -0.50224  -0.47682  -0.46016  -0.45776
 Alpha  occ. eigenvalues --   -0.44059  -0.36357  -0.30003
 Alpha virt. eigenvalues --    0.03787   0.05389   0.05447   0.05786   0.06161
 Alpha virt. eigenvalues --    0.06279   0.06422   0.06614   0.06967   0.09103
 Alpha virt. eigenvalues --    0.09321   0.09939   0.11380   0.13265   0.13641

 Mulliken charges:
               1
     1  N   -2.279258
     2  N   -2.279258
     3  C   -2.081844
     4  C   -2.046262
     5  C   -2.081844
     6  Si   5.452383
     7  H    0.566065
     8  H    0.566065
     9  H    1.446585
    10  H    1.312309
    11  H    1.355692
    12  H    1.293479
    13  H    1.312309
    14  H    1.446585
    15  H   -1.992212
    16  H   -1.990792
 Sum of Mulliken charges =  -0.00000

 Dipole moment (field-independent basis, Debye):
    X=             -1.3472    Y=             -0.0000    Z=             -1.3613  Tot=              1.9152

 Test job not archived.
 1\1\GINC-SE073\SP\RHF\Aug-CC-pVDZ\C3H10N2Si1\OHZDE\08-Apr-2025\0\\#t h
 f aug-cc-pvdz iop(5/13=1,5/36=2,99/5=2) pseudo=read geom=check guess=(
 read,tcheck) scf=(maxcycle=1)\\title\\0,1\N,0,0.436424,1.411001,-0.182
 242\N,0,0.436424,-1.411001,-0.182242\C,0,-0.974107,1.285363,0.236227\C
 ,0,-1.675009,0.,-0.255144\C,0,-0.974107,-1.285363,0.236227\Si,0,1.4058
 83,0.,0.105775\H,0,0.523562,1.833569,-1.097507\H,0,0.523562,-1.833569,
 -1.097507\H,0,-1.006688,-1.30436,1.333669\H,0,-1.527773,-2.167338,-0.0
 97596\H,0,-1.704766,0.,-1.351802\H,0,-2.71413,0.,0.097392\H,0,-1.52777

 Normal termination of Gaussian 16 at Tue Apr  8 23:59:55 2025.
