 Gaussian 16, Revision C.01,

 ----------------------------------------------------------------------
 #t hf aug-cc-pvdz symm=none int=(grid=ultrafine) guess=(read,tcheck) s
 table=(opt,rrhf)
 ----------------------------------------------------------------------
 -----
 title
 -----
 Symbolic Z-matrix:
 Charge =  0 Multiplicity = 1

 SCF Done:  E(RHF) =  -482.068701615     A.U. after   13 cycles
 Normal termination of Gaussian 16 at Tue Apr  8 23:50:30 2025.
 Gaussian 16:  ES64L-G16RevC.01  3-Jul-2019

 ----------------------------------------------------------------------
 #t hf aug-cc-pvdz iop(5/13=1,5/36=2,99/5=2) pseudo=read geom=check gue
 ss=(read,tcheck) scf=(maxcycle=1)
 ----------------------------------------------------------------------
 -----
 title
 -----
 Structure from the checkpoint file:  "BDE49_nonexpt_1869_mol1.chk"
 Charge =  0 Multiplicity = 1

                         Standard orientation:
 ---------------------------------------------------------------------
 Center     Atomic      Atomic             Coordinates (Angstroms)
 Number     Number       Type             X           Y           Z
 ---------------------------------------------------------------------
      1         14           0       -2.153669   -0.033657   -0.000018
      2          6           0       -0.317080   -0.463334    0.000054
      3          6           0        2.092869    0.397771    0.000127
      4          8           0        2.534381   -0.722038   -0.000135
      5          1           0       -2.498673    0.766320    1.201341
      6          1           0       -2.498600    0.766238   -1.201452
      7          1           0       -2.970468   -1.270080    0.000000
      8          6           0        0.619689    0.748042    0.000055
      9          1           0        0.449368    1.398044   -0.869961
     10          1           0        0.449313    1.398085    0.870029
     11          1           0        2.775977    1.277006   -0.000193
     12          1           0       -0.101706   -1.091514   -0.870497
     13          1           0       -0.101762   -1.091471    0.870648
 ---------------------------------------------------------------------

 SCF Done:  E(RHF) =  -483.119081246     A.U. after    2 cycles

 The electronic state is 1-A.
 Alpha  occ. eigenvalues --  -76.21421 -21.06592 -11.49083 -11.42458 -11.36574
 Alpha  occ. eigenvalues --   -5.54945  -2.18973  -2.17329  -2.17085  -1.71262
 Alpha  occ. eigenvalues --   -1.19397  -0.97049  -0.80005  -0.75344  -0.64741
 Alpha  occ. eigenvalues --   -0.64529  -0.54805  -0.52535  -0.49376  -0.46630
 Alpha  occ. eigenvalues --   -0.46233  -0.42888  -0.40745  -0.29770
 Alpha virt. eigenvalues --    0.03542   0.04614   0.05414   0.05718   0.05740
 Alpha virt. eigenvalues --    0.06082   0.08100   0.08835   0.09059   0.09411
 Alpha virt. eigenvalues --    0.10292   0.11430   0.12922   0.13305   0.14209

 Mulliken charges:
               1
     1  Si   5.892790
     2  C   -3.820473
     3  C    1.310004
     4  O   -2.741408
     5  H   -1.725384
     6  H   -1.725389
     7  H   -1.689969
     8  C   -2.700939
     9  H    1.503678
    10  H    1.503854
    11  H    1.341088
    12  H    1.426109
    13  H    1.426041
 Sum of Mulliken charges =   0.00000

 Dipole moment (field-independent basis, Debye):
    X=              0.0585    Y=              0.6143    Z=             -0.0001  Tot=              0.6171

 Test job not archived.
 1\1\GINC-SE080\SP\RHF\Aug-CC-pVDZ\C3H8O1Si1\OHZDE\08-Apr-2025\0\\#t hf
  aug-cc-pvdz iop(5/13=1,5/36=2,99/5=2) pseudo=read geom=check guess=(r
 ead,tcheck) scf=(maxcycle=1)\\title\\0,1\Si,0,2.153669,-0.033657,0.000
 018\C,0,0.31708,-0.463334,-0.000054\C,0,-2.092869,0.397771,-0.000127\O
 ,0,-2.534381,-0.722038,0.000135\H,0,2.498673,0.76632,-1.201341\H,0,2.4
 986,0.766238,1.201452\H,0,2.970468,-1.27008,0.\C,0,-0.619689,0.748042,
 -0.000055\H,0,-0.449368,1.398044,0.869961\H,0,-0.449313,1.398085,-0.87
 0029\H,0,-2.775977,1.277006,0.000193\H,0,0.101706,-1.091514,0.870497\H

 Normal termination of Gaussian 16 at Tue Apr  8 23:50:34 2025.
