 Gaussian 16, Revision C.01,

 ----------------------------------------------------------------------
 #t hf aug-cc-pvdz symm=none int=(grid=ultrafine) guess=(read,tcheck) s
 table=(opt,rrhf)
 ----------------------------------------------------------------------
 -----
 title
 -----
 Symbolic Z-matrix:
 Charge =  0 Multiplicity = 1

 SCF Done:  E(RHF) =  -738.323642651     A.U. after   15 cycles

 1\1\GINC-SE339\Stability\RHF\Aug-CC-pVDZ\Cl1N1O3\OHZDE\08-Apr-2025\0\\
 #t hf aug-cc-pvdz symm=none int=(grid=ultrafine) guess=(read,tcheck) s
 table=(opt,rrhf)\\title\\0,1\Cl,0,1.672665,0.031893,0.000075\O,0,0.187
 716,-0.81948,-0.000134\N,0,-1.028777,0.090926,-0.000037\O,0,-0.838831,
 1.261463,-0.000049\O,0,-2.003119,-0.589317,0.000058\\Version=ES64L-G16
 RevC.01\HF=-738.3236427\RMSD=6.155e-09\Dipole=0.5456707,0.1033637,0.00
 00177\Quadrupole=0.5948664,-1.4919019,0.8970355,0.2914795,0.0003819,0.
 0000968\PG=Unknown\\@

 Normal termination of Gaussian 16 at Tue Apr  8 22:53:34 2025.
 Gaussian 16:  ES64L-G16RevC.01  3-Jul-2019

 ----------------------------------------------------------------------
 #t hf aug-cc-pvdz iop(5/13=1,5/36=2,99/5=2) pseudo=read geom=check gue
 ss=(read,tcheck) scf=(maxcycle=1)
 ----------------------------------------------------------------------
 -----
 title
 -----
 Structure from the checkpoint file:  "BDE49_expt_1789_mol1.chk"
 Charge =  0 Multiplicity = 1

                         Standard orientation:
 ---------------------------------------------------------------------
 Center     Atomic      Atomic             Coordinates (Angstroms)
 Number     Number       Type             X           Y           Z
 ---------------------------------------------------------------------
      1         17           0       -1.672665    0.031893   -0.000075
      2          8           0       -0.187716   -0.819480    0.000134
      3          7           0        1.028777    0.090926    0.000037
      4          8           0        0.838831    1.261463    0.000049
      5          8           0        2.003119   -0.589317   -0.000058
 ---------------------------------------------------------------------

 SCF Done:  E(RHF) =  -739.716340190     A.U. after    2 cycles

 The electronic state is 1-A.
 Alpha  occ. eigenvalues --  -99.98067 -21.19006 -21.17089 -21.16515 -16.09923
 Alpha  occ. eigenvalues --  -10.54820  -9.74706  -9.73784  -9.73616  -2.10028
 Alpha  occ. eigenvalues --   -1.79585  -1.78053  -1.29016  -0.94694  -0.77664
 Alpha  occ. eigenvalues --   -0.75261  -0.70199  -0.62079  -0.61056  -0.55962
 Alpha  occ. eigenvalues --   -0.41655  -0.39377  -0.37642  -0.37105
 Alpha virt. eigenvalues --    0.01902   0.08598   0.11052   0.11426   0.12757
 Alpha virt. eigenvalues --    0.12807   0.14352   0.15303   0.16381   0.18680
 Alpha virt. eigenvalues --    0.20464   0.22658   0.22824   0.24230   0.26755

 Mulliken charges:
               1
     1  Cl   0.602297
     2  O   -1.511967
     3  N    5.954907
     4  O   -2.485771
     5  O   -2.559466
 Sum of Mulliken charges =  -0.00000

 Dipole moment (field-independent basis, Debye):
    X=              1.1920    Y=             -0.5822    Z=              0.0001  Tot=              1.3266

 Test job not archived.
 1\1\GINC-SE339\SP\RHF\Aug-CC-pVDZ\Cl1N1O3\OHZDE\08-Apr-2025\0\\#t hf a
 ug-cc-pvdz iop(5/13=1,5/36=2,99/5=2) pseudo=read geom=check guess=(rea
 d,tcheck) scf=(maxcycle=1)\\title\\0,1\Cl,0,1.672665,0.031893,0.000075
 \O,0,0.187716,-0.81948,-0.000134\N,0,-1.028777,0.090926,-0.000037\O,0,
 -0.838831,1.261463,-0.000049\O,0,-2.003119,-0.589317,0.000058\\Version
 =ES64L-G16RevC.01\State=1-A\HF=-739.7163402\RMSD=8.727e-02\Dipole=-0.4
 689805,-0.2290485,-0.0000306\Quadrupole=0.3937939,-0.3749664,-0.018827
 4,0.8259201,0.0001973,0.0002208\PG=C01 [X(Cl1N1O3)]\\@

 Normal termination of Gaussian 16 at Tue Apr  8 22:53:36 2025.
