 Gaussian 16, Revision C.01,

 ----------------------------------------------------------------------
 #t hf aug-cc-pvdz symm=none int=(grid=ultrafine) guess=(read,tcheck) s
 table=(opt,rrhf)
 ----------------------------------------------------------------------
 -----
 title
 -----
 Symbolic Z-matrix:
 Charge =  0 Multiplicity = 1

 SCF Done:  E(RHF) =  -832.751567893     A.U. after   18 cycles
 Normal termination of Gaussian 16 at Tue Apr  8 23:17:26 2025.
 Gaussian 16:  ES64L-G16RevC.01  3-Jul-2019

 ----------------------------------------------------------------------
 #t hf aug-cc-pvdz iop(5/13=1,5/36=2,99/5=2) pseudo=read geom=check gue
 ss=(read,tcheck) scf=(maxcycle=1)
 ----------------------------------------------------------------------
 -----
 title
 -----
 Structure from the checkpoint file:  "BDE49_expt_850_mol1.chk"
 Charge =  0 Multiplicity = 1

                         Standard orientation:
 ---------------------------------------------------------------------
 Center     Atomic      Atomic             Coordinates (Angstroms)
 Number     Number       Type             X           Y           Z
 ---------------------------------------------------------------------
      1          6           0       -0.220544    1.338771   -0.177954
      2          6           0       -1.598946    1.204071   -0.227677
      3          6           0       -2.185149   -0.050783   -0.004511
      4          6           0       -1.375829   -1.161318    0.269965
      5          6           0        0.005055   -1.020706    0.300182
      6          6           0        0.594253    0.226006    0.067847
      7          1           0        0.246294    2.303570   -0.328881
      8          1           0       -2.227992    2.061137   -0.432383
      9          1           0       -1.833094   -2.123564    0.462081
     10          1           0        0.615932   -1.881188    0.540951
     11          6           0       -3.608022   -0.196688   -0.049327
     12          6           0        2.072957    0.477504    0.126786
     13          8           0        2.530893    1.555296    0.405090
     14         16           0        3.236030   -0.858239   -0.248975
     15          1           0        2.365452   -1.762788   -0.723816
     16          7           0       -4.756123   -0.315551   -0.086706
 ---------------------------------------------------------------------

 SCF Done:  E(RHF) =  -834.930401837     A.U. after    2 cycles

 The electronic state is 1-A.
 Alpha  occ. eigenvalues --  -75.72908 -21.08713 -15.77902 -13.17560 -13.15335
 Alpha  occ. eigenvalues --  -13.05244 -11.57167 -11.54015 -11.50265 -11.48999
 Alpha  occ. eigenvalues --  -11.48196 -11.45820 -11.45341 -11.41694  -8.06913
 Alpha  occ. eigenvalues --   -1.75039  -1.41291  -1.31021  -1.20050  -1.14896
 Alpha  occ. eigenvalues --   -1.13911  -0.97594  -0.91732  -0.81948  -0.79489
 Alpha  occ. eigenvalues --   -0.68797  -0.66378  -0.64145  -0.62838  -0.58384
 Alpha  occ. eigenvalues --   -0.57039  -0.53813  -0.53256  -0.50792  -0.49404
 Alpha  occ. eigenvalues --   -0.46755  -0.45812  -0.44619  -0.37584  -0.35176
 Alpha  occ. eigenvalues --   -0.29893  -0.27692
 Alpha virt. eigenvalues --    0.01843   0.04355   0.05124   0.05816   0.06133
 Alpha virt. eigenvalues --    0.06342   0.06967   0.07709   0.08418   0.09506
 Alpha virt. eigenvalues --    0.10149   0.10469   0.11306   0.11684   0.12192

 Mulliken charges:
               1
     1  C   -2.111127
     2  C   -2.511541
     3  C    4.460129
     4  C   -3.360212
     5  C    0.777160
     6  C    0.578676
     7  H    1.863548
     8  H    1.770104
     9  H    1.791006
    10  H    1.987843
    11  C   -1.305990
    12  C    1.416241
    13  O   -3.451593
    14  S   -0.810133
    15  H    1.016946
    16  N   -2.111057
 Sum of Mulliken charges =   0.00000

 Dipole moment (field-independent basis, Debye):
    X=              3.8303    Y=             -0.2803    Z=              0.0018  Tot=              3.8405

 Test job not archived.
 1\1\GINC-SE334\SP\RHF\Aug-CC-pVDZ\C8H5N1O1S1\OHZDE\08-Apr-2025\0\\#t h
 f aug-cc-pvdz iop(5/13=1,5/36=2,99/5=2) pseudo=read geom=check guess=(
 read,tcheck) scf=(maxcycle=1)\\title\\0,1\C,0,-0.220544,1.338771,-0.17
 7954\C,0,-1.598946,1.204071,-0.227677\C,0,-2.185149,-0.050783,-0.00451
 1\C,0,-1.375829,-1.161318,0.269965\C,0,0.005055,-1.020706,0.300182\C,0
 ,0.594253,0.226006,0.067847\H,0,0.246294,2.30357,-0.328881\H,0,-2.2279
 92,2.061137,-0.432383\H,0,-1.833094,-2.123564,0.462081\H,0,0.615932,-1
 .881188,0.540951\C,0,-3.608022,-0.196688,-0.049327\C,0,2.072957,0.4775

 Normal termination of Gaussian 16 at Tue Apr  8 23:17:35 2025.
