 Gaussian 16, Revision C.01,

 ----------------------------------------------------------------------
 #t hf aug-cc-pvdz symm=none int=(grid=ultrafine) guess=(read,tcheck) s
 table=opt
 ----------------------------------------------------------------------
 -----
 title
 -----
 Symbolic Z-matrix:
 Charge =  0 Multiplicity = 2

 SCF Done:  E(UHF) =  -1205.92808362     A.U. after   19 cycles
 Normal termination of Gaussian 16 at Tue Apr  8 22:54:41 2025.
 Gaussian 16:  ES64L-G16RevC.01  3-Jul-2019

 ----------------------------------------------------------------------
 #t hf aug-cc-pvdz iop(5/13=1,5/36=2,99/5=2) pseudo=read geom=check gue
 ss=(read,tcheck) scf=(maxcycle=1)
 ----------------------------------------------------------------------
 -----
 title
 -----
 Structure from the checkpoint file:  "BDE49_expt_1797_mol2.chk"
 Charge =  0 Multiplicity = 2

                         Standard orientation:
 ---------------------------------------------------------------------
 Center     Atomic      Atomic             Coordinates (Angstroms)
 Number     Number       Type             X           Y           Z
 ---------------------------------------------------------------------
      1          8           0        0.000001    2.039653   -0.443460
      2          8           0        0.000001    1.293478    0.639739
      3          6           0       -0.000000   -0.124583    0.355787
      4          9           0       -0.000001   -0.674570    1.566129
      5         17           0        1.468361   -0.583719   -0.523533
      6         17           0       -1.468362   -0.583717   -0.523533
 ---------------------------------------------------------------------

 SCF Done:  E(UHF) =  -1207.47736539     A.U. after    2 cycles

 The electronic state is 2-A.
 Alpha  occ. eigenvalues --  -99.93692 -99.93667 -29.34872 -21.19961 -21.18537
 Alpha  occ. eigenvalues --  -11.61597 -10.51193 -10.51128  -9.71069  -9.70883
 Alpha  occ. eigenvalues --   -9.70129  -9.70101  -9.70073  -9.70017  -2.11270
 Alpha  occ. eigenvalues --   -1.51583  -1.37165  -1.34005  -1.09192  -0.83686
 Alpha  occ. eigenvalues --   -0.77305  -0.73127  -0.63994  -0.58827  -0.55090
 Alpha  occ. eigenvalues --   -0.55013  -0.53634  -0.53100  -0.45900  -0.39570
 Alpha  occ. eigenvalues --   -0.37157  -0.33536  -0.32796
 Alpha virt. eigenvalues --    0.01986   0.07131   0.07305   0.09425   0.11082
 Alpha virt. eigenvalues --    0.12646   0.12838   0.13749   0.14902   0.15793
 Alpha virt. eigenvalues --    0.18377   0.18429   0.18751   0.19570   0.22452

  Beta  occ. eigenvalues --  -99.93687 -99.93662 -29.34891 -21.17995 -21.16011
  Beta  occ. eigenvalues --  -11.61668 -10.51189 -10.51124  -9.71041  -9.70854
  Beta  occ. eigenvalues --   -9.70126  -9.70101  -9.70075  -9.70016  -2.06265
  Beta  occ. eigenvalues --   -1.48133  -1.33957  -1.32245  -1.07942  -0.83616
  Beta  occ. eigenvalues --   -0.76418  -0.72361  -0.58534  -0.58534  -0.54126
  Beta  occ. eigenvalues --   -0.53205  -0.52867  -0.46724  -0.45548  -0.38026
  Beta  occ. eigenvalues --   -0.34804  -0.31860
  Beta virt. eigenvalues --    0.02028   0.05939   0.07159   0.08334   0.11136
  Beta virt. eigenvalues --    0.11416   0.12663   0.12873   0.13774   0.15686
  Beta virt. eigenvalues --    0.16052   0.18485   0.18572   0.19591   0.20308

 Mulliken charges and spin densities:
               1          2
     1  O   -0.360889   0.922624
     2  O   -0.731714   0.073963
     3  C   -0.525396  -0.006622
     4  F    1.204873   0.002319
     5  Cl   0.206563   0.003858
     6  Cl   0.206563   0.003858
 Sum of Mulliken charges =  -0.00000   1.00000

 Dipole moment (field-independent basis, Debye):
    X=             -0.0000    Y=             -0.3089    Z=              3.8032  Tot=              3.8157
                          Isotropic Fermi Contact Couplings
        Atom                 a.u.       MegaHertz       Gauss      10(-4) cm-1
     1  O(17)              0.19877    -120.49516     -42.99567     -40.19286
     2  O(17)              0.05175     -31.36896     -11.19322     -10.46356
     3  C(13)             -0.00990     -11.12987      -3.97141      -3.71252
     4  F(19)             -0.00336     -14.13579      -5.04400      -4.71519
     5  Cl(35)            -0.00341      -1.49702      -0.53417      -0.49935
     6  Cl(35)            -0.00341      -1.49701      -0.53417      -0.49935
 --------------------------------------------------------
       Center         ----  Spin Dipole Couplings  ----

 Normal termination of Gaussian 16 at Tue Apr  8 22:54:44 2025.
