 Gaussian 16, Revision C.01,

 ----------------------------------------------------------------------
 #t hf aug-cc-pvdz symm=none int=(grid=ultrafine) guess=(read,tcheck) s
 table=(opt,rrhf)
 ----------------------------------------------------------------------
 -----
 title
 -----
 Symbolic Z-matrix:
 Charge =  0 Multiplicity = 1

 SCF Done:  E(RHF) =  -700.417877510     A.U. after   16 cycles
 Normal termination of Gaussian 16 at Wed Apr  9 00:29:50 2025.
 Gaussian 16:  ES64L-G16RevC.01  3-Jul-2019

 ----------------------------------------------------------------------
 #t hf aug-cc-pvdz iop(5/13=1,5/36=2,99/5=2) pseudo=read geom=check gue
 ss=(read,tcheck) scf=(maxcycle=1)
 ----------------------------------------------------------------------
 -----
 title
 -----
 Structure from the checkpoint file:  "BDE49_nonexpt_291_mol1.chk"
 Charge =  0 Multiplicity = 1

                         Standard orientation:
 ---------------------------------------------------------------------
 Center     Atomic      Atomic             Coordinates (Angstroms)
 Number     Number       Type             X           Y           Z
 ---------------------------------------------------------------------
      1          6           0       -0.065105   -0.034347    0.185334
      2          5           0        0.647215    1.329924   -0.333862
      3          7           0        0.190862   -1.271205   -0.691072
      4          7           0       -1.585612    0.194585    0.047249
      5          6           0        0.309375   -0.405189    1.624173
      6          8           0       -1.969180    0.390797   -1.094259
      7          8           0        1.192238   -1.274205   -1.402593
      8          8           0        1.627792    1.380394   -1.251844
      9          8           0       -0.574748   -2.200664   -0.568119
     10          8           0        0.191862    2.433763    0.306624
     11          8           0       -2.266125    0.198317    1.049189
     12          6           0        1.795901   -0.732847    1.807066
     13          1           0       -0.315510   -1.245271    1.933953
     14          1           0        0.029537    0.450948    2.239767
     15          1           0        2.096606   -1.613389    1.234865
     16          1           0        1.992892   -0.941559    2.860070
     17          1           0        2.439881    0.098371    1.508015
     18          1           0        0.606716    3.246193   -0.004024
     19          1           0        1.821318    0.498504   -1.607993
 ---------------------------------------------------------------------

 SCF Done:  E(RHF) =  -703.414570649     A.U. after    2 cycles

 The electronic state is 1-A.
 Alpha  occ. eigenvalues --  -21.13858 -21.12904 -21.12474 -21.11499 -21.09159
 Alpha  occ. eigenvalues --  -21.08138 -16.03200 -16.02033 -11.56151 -11.45734
 Alpha  occ. eigenvalues --  -11.40568  -7.70001  -2.04786  -2.01160  -1.85504
 Alpha  occ. eigenvalues --   -1.73427  -1.71889  -1.69680  -1.33447  -1.16062
 Alpha  occ. eigenvalues --   -1.01694  -0.95056  -0.87938  -0.79706  -0.75480
 Alpha  occ. eigenvalues --   -0.72866  -0.71845  -0.67408  -0.66254  -0.63266
 Alpha  occ. eigenvalues --   -0.62737  -0.62466  -0.60380  -0.55371  -0.53982
 Alpha  occ. eigenvalues --   -0.53314  -0.51849  -0.47194  -0.42926  -0.39924
 Alpha  occ. eigenvalues --   -0.37361  -0.36912  -0.35326  -0.34459  -0.32990
 Alpha  occ. eigenvalues --   -0.32609
 Alpha virt. eigenvalues --    0.02832   0.03816   0.04980   0.05255   0.06106
 Alpha virt. eigenvalues --    0.06578   0.06971   0.07564   0.08074   0.08648
 Alpha virt. eigenvalues --    0.09519   0.11459   0.11709   0.12487   0.13710

 Mulliken charges:
               1
     1  C    1.426311
     2  B    8.161967
     3  N    4.243510
     4  N    4.070083
     5  C   -2.443835
     6  O   -2.988215
     7  O   -2.965988
     8  O   -4.358105
     9  O   -3.008298
    10  O   -4.700181
    11  O   -2.906701
    12  C   -3.594082
    13  H    1.574705
    14  H    1.400909
    15  H    1.363306
    16  H    1.068736
    17  H    1.041135
    18  H    1.046879
    19  H    1.567862
 Sum of Mulliken charges =  -0.00000

 Dipole moment (field-independent basis, Debye):
    X=              2.0470    Y=              0.5030    Z=              1.4364  Tot=              2.5508

 Test job not archived.
 1\1\GINC-SE459\SP\RHF\Aug-CC-pVDZ\C3H7B1N2O6\OHZDE\09-Apr-2025\0\\#t h
 f aug-cc-pvdz iop(5/13=1,5/36=2,99/5=2) pseudo=read geom=check guess=(
 read,tcheck) scf=(maxcycle=1)\\title\\0,1\C,0,-0.065105,-0.034347,0.18
 5334\B,0,0.647216,1.329924,-0.333862\N,0,0.190861,-1.271205,-0.691072\
 N,0,-1.585612,0.194586,0.047249\C,0,0.309375,-0.405189,1.624173\O,0,-1
 .96918,0.390799,-1.094259\O,0,1.192237,-1.274206,-1.402593\O,0,1.62779
 3,1.380393,-1.251844\O,0,-0.57475,-2.200663,-0.568119\O,0,0.191864,2.4
 33763,0.306624\O,0,-2.266125,0.198319,1.049189\C,0,1.7959,-0.732848,1.

 Normal termination of Gaussian 16 at Wed Apr  9 00:30:02 2025.
