 Gaussian 16, Revision C.01,

 ----------------------------------------------------------------------
 #t hf aug-cc-pvdz symm=none int=(grid=ultrafine) guess=(read,tcheck) s
 table=(opt,rrhf)
 ----------------------------------------------------------------------
 -----
 title
 -----
 Symbolic Z-matrix:
 Charge =  0 Multiplicity = 1

 SCF Done:  E(RHF) =  -1454.63864934     A.U. after   14 cycles
 Normal termination of Gaussian 16 at Tue Apr  8 23:59:25 2025.
 Gaussian 16:  ES64L-G16RevC.01  3-Jul-2019

 ----------------------------------------------------------------------
 #t hf aug-cc-pvdz iop(5/13=1,5/36=2,99/5=2) pseudo=read geom=check gue
 ss=(read,tcheck) scf=(maxcycle=1)
 ----------------------------------------------------------------------
 -----
 title
 -----
 Structure from the checkpoint file:  "BDE49_nonexpt_206_mol1.chk"
 Charge =  0 Multiplicity = 1

                         Standard orientation:
 ---------------------------------------------------------------------
 Center     Atomic      Atomic             Coordinates (Angstroms)
 Number     Number       Type             X           Y           Z
 ---------------------------------------------------------------------
      1         17           0        1.435944   -1.522240   -0.152258
      2         17           0        1.435804    1.522323   -0.152185
      3          5           0        0.612110   -0.000003    0.080461
      4          6           0       -0.902766   -0.000085    0.562414
      5          8           0       -1.169252   -0.000099    1.738232
      6         16           0       -2.229521   -0.000010   -0.671726
      7          1           0       -1.437317    0.000065   -1.759506
 ---------------------------------------------------------------------

 SCF Done:  E(RHF) =  -1455.91525342     A.U. after    2 cycles

 The electronic state is 1-A.
 Alpha  occ. eigenvalues --  -99.93026 -99.93005 -75.73031 -21.09517 -13.16500
 Alpha  occ. eigenvalues --  -13.13662 -13.05119 -11.50064 -10.50397 -10.50206
 Alpha  occ. eigenvalues --   -9.70354  -9.70148  -9.69809  -9.69690  -9.69664
 Alpha  occ. eigenvalues --   -9.69589  -8.07032  -7.75004  -1.74706  -1.43112
 Alpha  occ. eigenvalues --   -1.32754  -1.18235  -0.93897  -0.76029  -0.67182
 Alpha  occ. eigenvalues --   -0.66870  -0.60947  -0.56635  -0.55199  -0.53535
 Alpha  occ. eigenvalues --   -0.51906  -0.49419  -0.47348  -0.27998  -0.27740
 Alpha virt. eigenvalues --    0.02268   0.03186   0.03917   0.04117   0.04414
 Alpha virt. eigenvalues --    0.07252   0.09399   0.09730   0.10757   0.11662
 Alpha virt. eigenvalues --    0.14172   0.14220   0.14825   0.15113   0.16262

 Mulliken charges:
               1
     1  Cl  -1.286836
     2  Cl  -1.286811
     3  B    3.982359
     4  C    0.547777
     5  O   -2.524141
     6  S   -0.486437
     7  H    1.054088
 Sum of Mulliken charges =  -0.00000

 Dipole moment (field-independent basis, Debye):
    X=             -1.6528    Y=              0.0001    Z=             -0.5381  Tot=              1.7382

 Test job not archived.
 1\1\GINC-SE252\SP\RHF\Aug-CC-pVDZ\C1H1B1Cl2O1S1\OHZDE\08-Apr-2025\0\\#
 t hf aug-cc-pvdz iop(5/13=1,5/36=2,99/5=2) pseudo=read geom=check gues
 s=(read,tcheck) scf=(maxcycle=1)\\title\\0,1\Cl,0,1.435944,-1.52224,-0
 .152258\Cl,0,1.435803,1.522323,-0.152185\B,0,0.61211,-0.000003,0.08046
 1\C,0,-0.902766,-0.000085,0.562414\O,0,-1.169252,-0.000099,1.738232\S,
 0,-2.229521,-0.00001,-0.671726\H,0,-1.437317,0.000065,-1.759506\\Versi
 on=ES64L-G16RevC.01\State=1-A\HF=-1455.9152534\RMSD=7.611e-02\Dipole=-
 0.6502527,0.000033,-0.2117195\Quadrupole=2.9678923,-1.6300069,-1.33788

 Normal termination of Gaussian 16 at Tue Apr  8 23:59:28 2025.
