 Gaussian 16, Revision C.01,

 ----------------------------------------------------------------------
 #t hf aug-cc-pvdz symm=none int=(grid=ultrafine) guess=(read,tcheck) s
 table=opt
 ----------------------------------------------------------------------
 -----
 title
 -----
 Symbolic Z-matrix:
 Charge =  0 Multiplicity = 2

 SCF Done:  E(UHF) =  -238.662463657     A.U. after   15 cycles
 Normal termination of Gaussian 16 at Wed Apr  9 00:34:48 2025.
 Gaussian 16:  ES64L-G16RevC.01  3-Jul-2019

 ----------------------------------------------------------------------
 #t hf aug-cc-pvdz iop(5/13=1,5/36=2,99/5=2) pseudo=read geom=check gue
 ss=(read,tcheck) scf=(maxcycle=1)
 ----------------------------------------------------------------------
 -----
 title
 -----
 Structure from the checkpoint file:  "BDE49_nonexpt_439_mol2.chk"
 Charge =  0 Multiplicity = 2

                         Standard orientation:
 ---------------------------------------------------------------------
 Center     Atomic      Atomic             Coordinates (Angstroms)
 Number     Number       Type             X           Y           Z
 ---------------------------------------------------------------------
      1          5           0       -0.785001    0.674099    0.000001
      2          9           0       -1.493934   -0.456182   -0.000009
      3          8           0        0.543289    0.719235    0.000006
      4          6           0        1.374908   -0.463598    0.000003
      5          1           0        2.003687   -0.433809   -0.889936
      6          1           0        0.767304   -1.369498   -0.000022
      7          1           0        2.003656   -0.433837    0.889965
 ---------------------------------------------------------------------

 SCF Done:  E(UHF) =  -239.579509037     A.U. after    2 cycles

 The electronic state is 2-A.
 Alpha  occ. eigenvalues --  -29.25575 -21.04843 -11.42680  -7.69595  -1.79372
 Alpha  occ. eigenvalues --   -1.03956  -0.91386  -0.64316  -0.62858  -0.62226
 Alpha  occ. eigenvalues --   -0.48168  -0.47812  -0.45877  -0.34580  -0.33073
 Alpha  occ. eigenvalues --   -0.23424
 Alpha virt. eigenvalues --    0.02929   0.04376   0.05303   0.06016   0.06954
 Alpha virt. eigenvalues --    0.07793   0.10991   0.14298   0.14933   0.15157
 Alpha virt. eigenvalues --    0.16111   0.17953   0.22370   0.23249   0.23273

  Beta  occ. eigenvalues --  -29.25231 -21.04742 -11.42554  -7.67377  -1.78832
  Beta  occ. eigenvalues --   -1.02697  -0.88901  -0.63463  -0.62846  -0.60417
  Beta  occ. eigenvalues --   -0.47127  -0.45463  -0.39074  -0.33841  -0.33546
  Beta virt. eigenvalues --    0.02919   0.04012   0.04500   0.06089   0.07005
  Beta virt. eigenvalues --    0.07552   0.09673   0.12468   0.14794   0.15071
  Beta virt. eigenvalues --    0.15666   0.16161   0.20839   0.23691   0.23937

 Mulliken charges and spin densities:
               1          2
     1  B    2.122370   1.213339
     2  F   -0.961078   0.030837
     3  O   -2.694843  -0.273884
     4  C   -2.325611   0.059351
     5  H    1.181809  -0.003316
     6  H    1.495547  -0.023011
     7  H    1.181805  -0.003316
 Sum of Mulliken charges =   0.00000   1.00000

 Dipole moment (field-independent basis, Debye):
    X=             -0.5481    Y=             -3.4080    Z=             -0.0000  Tot=              3.4518
                          Isotropic Fermi Contact Couplings
        Atom                 a.u.       MegaHertz       Gauss      10(-4) cm-1
     1  B(11)              0.29138     417.94630     149.13363     139.41188
     2  F(19)              0.09901     416.55787     148.63821     138.94875
     3  O(17)              0.22909    -138.87461     -49.55391     -46.32358
     4  C(13)              0.03558      40.00054      14.27319      13.34274
     5  H(1)              -0.00089      -3.96948      -1.41641      -1.32408
     6  H(1)              -0.00045      -2.00877      -0.71678      -0.67005
     7  H(1)              -0.00089      -3.96953      -1.41643      -1.32409
 --------------------------------------------------------

 Normal termination of Gaussian 16 at Wed Apr  9 00:34:50 2025.
