 Gaussian 16, Revision C.01,

 ----------------------------------------------------------------------
 #t hf aug-cc-pvdz symm=none int=(grid=ultrafine) guess=(read,tcheck) s
 table=opt
 ----------------------------------------------------------------------
 -----
 title
 -----
 Symbolic Z-matrix:
 Charge =  0 Multiplicity = 2

 SCF Done:  E(UHF) =  -233.608605445     A.U. after   19 cycles
 Normal termination of Gaussian 16 at Wed Apr  9 00:33:45 2025.
 Gaussian 16:  ES64L-G16RevC.01  3-Jul-2019

 ----------------------------------------------------------------------
 #t hf aug-cc-pvdz iop(5/13=1,5/36=2,99/5=2) pseudo=read geom=check gue
 ss=(read,tcheck) scf=(maxcycle=1)
 ----------------------------------------------------------------------
 -----
 title
 -----
 Structure from the checkpoint file:  "BDE49_nonexpt_424_mol2.chk"
 Charge =  0 Multiplicity = 2

                         Standard orientation:
 ---------------------------------------------------------------------
 Center     Atomic      Atomic             Coordinates (Angstroms)
 Number     Number       Type             X           Y           Z
 ---------------------------------------------------------------------
      1          9           0        1.913617   -0.002003   -0.000002
      2          5           0        0.613101   -0.004470    0.000006
      3          7           0       -0.636896    0.052327   -0.000003
      4          7           0       -1.922816   -0.156819   -0.000000
      5          1           0       -2.370079    0.771812    0.000010
 ---------------------------------------------------------------------

 SCF Done:  E(UHF) =  -234.490459748     A.U. after    2 cycles

 The electronic state is 2-A.
 Alpha  occ. eigenvalues --  -29.30502 -15.80167 -15.71054  -7.73796  -1.48837
 Alpha  occ. eigenvalues --   -1.12248  -0.97729  -0.73013  -0.67554  -0.64749
 Alpha  occ. eigenvalues --   -0.51023  -0.49129  -0.46793  -0.26095  -0.23683
 Alpha virt. eigenvalues --    0.02944   0.03190   0.04700   0.06420   0.08352
 Alpha virt. eigenvalues --    0.09633   0.13544   0.13756   0.15502   0.19403
 Alpha virt. eigenvalues --    0.19707   0.20679   0.21812   0.22006   0.23635

  Beta  occ. eigenvalues --  -29.30406 -15.77238 -15.71639  -7.73358  -1.45220
  Beta  occ. eigenvalues --   -1.07108  -0.97330  -0.72074  -0.64223  -0.64222
  Beta  occ. eigenvalues --   -0.48447  -0.46482  -0.35379  -0.26074
  Beta virt. eigenvalues --    0.03015   0.03264   0.04812   0.06443   0.08521
  Beta virt. eigenvalues --    0.10266   0.10776   0.14096   0.14984   0.15618
  Beta virt. eigenvalues --    0.19959   0.20950   0.21943   0.22030   0.22757

 Mulliken charges and spin densities:
               1          2
     1  F    0.130781   0.093189
     2  B    0.312717   0.190845
     3  N   -1.747434  -0.216325
     4  N    0.467824   0.992540
     5  H    0.836112  -0.060249
 Sum of Mulliken charges =  -0.00000   1.00000

 Dipole moment (field-independent basis, Debye):
    X=              4.7667    Y=              0.9552    Z=              0.0000  Tot=              4.8615
                          Isotropic Fermi Contact Couplings
        Atom                 a.u.       MegaHertz       Gauss      10(-4) cm-1
     1  F(19)             -0.00156      -6.55314      -2.33832      -2.18589
     2  B(11)              0.02103      30.16013      10.76189      10.06034
     3  N(14)             -0.08636     -27.90492      -9.95717      -9.30808
     4  N(14)              0.20062      64.82041      23.12953      21.62176
     5  H(1)              -0.01696     -75.81760     -27.05361     -25.29003
 --------------------------------------------------------
       Center         ----  Spin Dipole Couplings  ----
                      3XX-RR        3YY-RR        3ZZ-RR

 Normal termination of Gaussian 16 at Wed Apr  9 00:33:47 2025.
