 Gaussian 16, Revision C.01,

 ----------------------------------------------------------------------
 #t hf aug-cc-pvdz symm=none int=(grid=ultrafine) guess=(read,tcheck) s
 table=(opt,rrhf)
 ----------------------------------------------------------------------
 -----
 title
 -----
 Symbolic Z-matrix:
 Charge =  0 Multiplicity = 1

 SCF Done:  E(RHF) =  -760.695585912     A.U. after   16 cycles
 Normal termination of Gaussian 16 at Tue Apr  8 22:53:21 2025.
 Gaussian 16:  ES64L-G16RevC.01  3-Jul-2019

 ----------------------------------------------------------------------
 #t hf aug-cc-pvdz iop(5/13=1,5/36=2,99/5=2) pseudo=read geom=check gue
 ss=(read,tcheck) scf=(maxcycle=1)
 ----------------------------------------------------------------------
 -----
 title
 -----
 Structure from the checkpoint file:  "BDE49_expt_1461_mol1.chk"
 Charge =  0 Multiplicity = 1

                         Standard orientation:
 ---------------------------------------------------------------------
 Center     Atomic      Atomic             Coordinates (Angstroms)
 Number     Number       Type             X           Y           Z
 ---------------------------------------------------------------------
      1          6           0        2.377492    0.161494   -0.124401
      2          6           0        1.146876    0.948956   -0.391475
      3          8           0        0.000000    0.259029    0.000003
      4          6           0       -1.146877    0.948955    0.391479
      5          8           0        1.104736    2.018695   -0.924616
      6          8           0       -1.104739    2.018697    0.924616
      7          6           0       -2.377493    0.161494    0.124403
      8          6           0        2.359683   -1.055175    0.566953
      9          6           0        3.549067   -1.739969    0.794973
     10          6           0        4.756306   -1.217077    0.334462
     11          6           0        4.777050   -0.004104   -0.354776
     12          6           0        3.592709    0.684330   -0.583533
     13          6           0       -2.359681   -1.055177   -0.566949
     14          6           0       -3.592710    0.684330    0.583529
     15          6           0       -4.777051   -0.004104    0.354770
     16          6           0       -4.756305   -1.217079   -0.334465
     17          6           0       -3.549064   -1.739972   -0.794971
     18          1           0       -3.534717   -2.680844   -1.332777
     19          1           0       -1.419628   -1.453632   -0.924052
     20          1           0       -3.585095    1.628849    1.112980
     21          1           0       -5.716315    0.402746    0.710912
     22          1           0       -5.681365   -1.753509   -0.513672
     23          1           0        1.419631   -1.453629    0.924060
     24          1           0        3.534721   -2.680841    1.332781
     25          1           0        5.681366   -1.753507    0.513667
     26          1           0        5.716313    0.402745   -0.710922
     27          1           0        3.585092    1.628847   -1.112986
 ---------------------------------------------------------------------

 SCF Done:  E(RHF) =  -764.111686192     A.U. after    2 cycles

 The electronic state is 1-A.
 Alpha  occ. eigenvalues --  -21.10863 -21.06363 -21.06348 -11.56087 -11.55489
 Alpha  occ. eigenvalues --  -11.53414 -11.53313 -11.45509 -11.45266 -11.45021
 Alpha  occ. eigenvalues --  -11.44769 -11.43161 -11.43133 -11.42415 -11.42366
 Alpha  occ. eigenvalues --  -11.38310 -11.38284  -1.87967  -1.72449  -1.66028
 Alpha  occ. eigenvalues --   -1.35772  -1.35482  -1.14359  -1.12381  -1.10894
 Alpha  occ. eigenvalues --   -1.10810  -0.96377  -0.91506  -0.88309  -0.87818
 Alpha  occ. eigenvalues --   -0.83326  -0.76880  -0.73026  -0.71154  -0.67247
 Alpha  occ. eigenvalues --   -0.64701  -0.62940  -0.62344  -0.60739  -0.59873
 Alpha  occ. eigenvalues --   -0.59727  -0.58411  -0.55899  -0.54956  -0.53715
 Alpha  occ. eigenvalues --   -0.50422  -0.50146  -0.47743  -0.46639  -0.46385
 Alpha  occ. eigenvalues --   -0.45820  -0.43673  -0.35403  -0.34595  -0.34584
 Alpha  occ. eigenvalues --   -0.33685  -0.32312  -0.31383  -0.28947
 Alpha virt. eigenvalues --    0.02710   0.04061   0.04926   0.04997   0.05193
 Alpha virt. eigenvalues --    0.05336   0.06757   0.06801   0.07126   0.07528
 Alpha virt. eigenvalues --    0.07815   0.08558   0.09563   0.09734   0.10795

 Mulliken charges:
               1
     1  C    3.468989
     2  C    3.899085
     3  O   -4.127469
     4  C    3.899077
     5  O   -3.616631
     6  O   -3.616627
     7  C    3.469042
     8  C   -0.284822
     9  C   -1.915995
    10  C   -3.258756
    11  C   -1.288270
    12  C   -3.159882
    13  C   -0.284859
    14  C   -3.159814
    15  C   -1.288297
    16  C   -3.258795
    17  C   -1.916002
    18  H    1.506696
    19  H    1.990177
    20  H    1.680514
    21  H    1.487986
    22  H    1.554642
    23  H    1.990177
    24  H    1.506695
    25  H    1.554642
    26  H    1.487984
    27  H    1.680511
 Sum of Mulliken charges =  -0.00000

 Dipole moment (field-independent basis, Debye):
    X=              0.0000    Y=             -2.3065    Z=             -0.0000  Tot=              2.3065

 Test job not archived.
 1\1\GINC-SE219\SP\RHF\Aug-CC-pVDZ\C14H10O3\OHZDE\08-Apr-2025\0\\#t hf
 aug-cc-pvdz iop(5/13=1,5/36=2,99/5=2) pseudo=read geom=check guess=(re
 ad,tcheck) scf=(maxcycle=1)\\title\\0,1\C,0,2.377492,0.161494,-0.12440
 1\C,0,1.146876,0.948956,-0.391475\O,0,0.,0.259029,0.000003\C,0,-1.1468
 77,0.948955,0.391479\O,0,1.104736,2.018695,-0.924616\O,0,-1.104739,2.0
 18697,0.924616\C,0,-2.377493,0.161494,0.124403\C,0,2.359683,-1.055175,
 0.566953\C,0,3.549067,-1.739969,0.794973\C,0,4.756306,-1.217077,0.3344
 62\C,0,4.77705,-0.004104,-0.354776\C,0,3.592709,0.68433,-0.583533\C,0,

 Normal termination of Gaussian 16 at Tue Apr  8 22:53:53 2025.
