 Gaussian 16, Revision C.01,

 ----------------------------------------------------------------------
 #t hf aug-cc-pvdz symm=none int=(grid=ultrafine) guess=(read,tcheck) s
 table=(opt,rrhf)
 ----------------------------------------------------------------------
 -----
 title
 -----
 Symbolic Z-matrix:
 Charge =  0 Multiplicity = 1

 SCF Done:  E(RHF) =  -268.018988623     A.U. after   12 cycles
 Normal termination of Gaussian 16 at Tue Apr  8 22:36:33 2025.
 Gaussian 16:  ES64L-G16RevC.01  3-Jul-2019

 ----------------------------------------------------------------------
 #t hf aug-cc-pvdz iop(5/13=1,5/36=2,99/5=2) pseudo=read geom=check gue
 ss=(read,tcheck) scf=(maxcycle=1)
 ----------------------------------------------------------------------
 -----
 title
 -----
 Structure from the checkpoint file:  "BDE49_expt_1070_mol1.chk"
 Charge =  0 Multiplicity = 1

                         Standard orientation:
 ---------------------------------------------------------------------
 Center     Atomic      Atomic             Coordinates (Angstroms)
 Number     Number       Type             X           Y           Z
 ---------------------------------------------------------------------
      1          6           0       -0.445837    0.027532   -0.337041
      2          6           0        0.750218   -0.738616    0.215444
      3          8           0       -0.317669    1.348514    0.219712
      4          1           0       -0.902457    1.942118   -0.259720
      5          8           0        1.971248   -0.112425   -0.135342
      6          1           0        0.774450   -1.748594   -0.200637
      7          1           0        0.641164   -0.819405    1.307917
      8          1           0        1.855486    0.817621    0.094696
      9          6           0       -1.784467   -0.602650    0.029305
     10          1           0       -0.336342    0.082175   -1.428851
     11          1           0       -1.897224   -0.653208    1.115278
     12          1           0       -1.868266   -1.613933   -0.380041
     13          1           0       -2.614926   -0.013078   -0.369851
 ---------------------------------------------------------------------

 SCF Done:  E(RHF) =  -269.237879619     A.U. after    2 cycles

 The electronic state is 1-A.
 Alpha  occ. eigenvalues --  -21.07434 -21.05636 -11.45273 -11.41544 -11.37151
 Alpha  occ. eigenvalues --   -1.74104  -1.67524  -1.15045  -0.98245  -0.83617
 Alpha  occ. eigenvalues --   -0.70232  -0.61121  -0.59331  -0.58546  -0.53192
 Alpha  occ. eigenvalues --   -0.52377  -0.49313  -0.41375  -0.39499  -0.32955
 Alpha  occ. eigenvalues --   -0.30728
 Alpha virt. eigenvalues --    0.03704   0.05356   0.05466   0.05687   0.06119
 Alpha virt. eigenvalues --    0.06829   0.07123   0.07733   0.11465   0.12815
 Alpha virt. eigenvalues --    0.14243   0.15294   0.15815   0.16132   0.16244

 Mulliken charges:
               1
     1  C   -0.161043
     2  C   -0.496446
     3  O   -2.780956
     4  H    0.721143
     5  O   -2.750212
     6  H    1.352717
     7  H    1.337475
     8  H    0.843853
     9  C   -3.336958
    10  H    1.701972
    11  H    1.179224
    12  H    1.226058
    13  H    1.163173
 Sum of Mulliken charges =   0.00000

 Dipole moment (field-independent basis, Debye):
    X=             -1.2166    Y=              0.2975    Z=             -0.3566  Tot=              1.3022

 Test job not archived.
 1\1\GINC-SE015\SP\RHF\Aug-CC-pVDZ\C3H8O2\OHZDE\08-Apr-2025\0\\#t hf au
 g-cc-pvdz iop(5/13=1,5/36=2,99/5=2) pseudo=read geom=check guess=(read
 ,tcheck) scf=(maxcycle=1)\\title\\0,1\C,0,-0.445837,0.027532,-0.337041
 \C,0,0.750218,-0.738616,0.215444\O,0,-0.317669,1.348514,0.219712\H,0,-
 0.902457,1.942118,-0.25972\O,0,1.971248,-0.112426,-0.135342\H,0,0.7744
 5,-1.748594,-0.200637\H,0,0.641164,-0.819405,1.307917\H,0,1.855486,0.8
 1762,0.094696\C,0,-1.784467,-0.60265,0.029305\H,0,-0.336342,0.082175,-
 1.428851\H,0,-1.897224,-0.653208,1.115278\H,0,-1.868266,-1.613933,-0.3

 Normal termination of Gaussian 16 at Tue Apr  8 22:36:37 2025.
