 Gaussian 16, Revision C.01,

 ----------------------------------------------------------------------
 #t hf aug-cc-pvdz symm=none int=(grid=ultrafine) guess=(read,tcheck) s
 table=(opt,rrhf)
 ----------------------------------------------------------------------
 -----
 title
 -----
 Symbolic Z-matrix:
 Charge =  0 Multiplicity = 1

 SCF Done:  E(RHF) =  -798.236664204     A.U. after   12 cycles
 Normal termination of Gaussian 16 at Tue Apr  8 23:41:19 2025.
 Gaussian 16:  ES64L-G16RevC.01  3-Jul-2019

 ----------------------------------------------------------------------
 #t hf aug-cc-pvdz iop(5/13=1,5/36=2,99/5=2) pseudo=read geom=check gue
 ss=(read,tcheck) scf=(maxcycle=1)
 ----------------------------------------------------------------------
 -----
 title
 -----
 Structure from the checkpoint file:  "BDE49_nonexpt_1597_mol1.chk"
 Charge =  0 Multiplicity = 1

                         Standard orientation:
 ---------------------------------------------------------------------
 Center     Atomic      Atomic             Coordinates (Angstroms)
 Number     Number       Type             X           Y           Z
 ---------------------------------------------------------------------
      1          8           0       -0.091224    0.328008   -0.275631
      2         15           0       -1.595377   -0.106905   -0.050339
      3          8           0       -1.990814   -1.442346   -0.505460
      4          6           0        0.993367   -0.529918    0.172950
      5          6           0        2.308234    0.021606   -0.365102
      6          6           0        2.579349    1.440560    0.147373
      7          1           0        1.756656    2.112318   -0.102760
      8          1           0        3.496063    1.842702   -0.292308
      9          1           0        2.700961    1.444473    1.236128
     10          6           0        3.448154   -0.941585   -0.006514
     11          1           0        2.214748    0.057399   -1.457161
     12          1           0        3.565342   -1.027915    1.078940
     13          1           0        4.396882   -0.582163   -0.412365
     14          1           0        3.271950   -1.944202   -0.406732
     15          1           0        0.808391   -1.542557   -0.194275
     16          1           0        0.991813   -0.540381    1.268094
     17          8           0       -1.787164    0.168454    1.513309
     18          1           0       -2.531915   -0.329557    1.870058
     19          8           0       -2.385384    1.106819   -0.721312
     20          1           0       -2.678168    0.882011   -1.612023
 ---------------------------------------------------------------------

 SCF Done:  E(RHF) =  -800.486453137     A.U. after    2 cycles

 The electronic state is 1-A.
 Alpha  occ. eigenvalues -- -105.32187 -21.11693 -21.11617 -21.07786 -21.02308
 Alpha  occ. eigenvalues --  -11.46156 -11.41258 -11.38739 -11.35719  -2.95694
 Alpha  occ. eigenvalues --   -2.00816  -1.92756  -1.91958  -1.75101  -1.43115
 Alpha  occ. eigenvalues --   -1.40614  -1.26420  -1.22678  -1.00621  -0.97034
 Alpha  occ. eigenvalues --   -0.81956  -0.70202  -0.67166  -0.61654  -0.60738
 Alpha  occ. eigenvalues --   -0.59839  -0.56991  -0.54333  -0.53596  -0.49788
 Alpha  occ. eigenvalues --   -0.47889  -0.46608  -0.45060  -0.44286  -0.40874
 Alpha  occ. eigenvalues --   -0.38415  -0.34365  -0.33911  -0.29008  -0.26497
 Alpha  occ. eigenvalues --   -0.16232
 Alpha virt. eigenvalues --    0.03772   0.04964   0.05231   0.05682   0.05944
 Alpha virt. eigenvalues --    0.06170   0.06443   0.06575   0.07901   0.08362
 Alpha virt. eigenvalues --    0.09479   0.11100   0.12114   0.13238   0.13483

 Mulliken charges:
               1
     1  O   -4.393560
     2  P    9.326419
     3  O   -2.847742
     4  C   -0.937640
     5  C   -2.833993
     6  C   -3.746367
     7  H    1.365096
     8  H    1.245471
     9  H    1.317446
    10  C   -3.803068
    11  H    1.780366
    12  H    1.323568
    13  H    1.241692
    14  H    1.251913
    15  H    1.645063
    16  H    1.639692
    17  O   -2.637415
    18  H    0.777419
    19  O   -2.510104
    20  H    0.795744
 Sum of Mulliken charges =  -0.00000

 Dipole moment (field-independent basis, Debye):
    X=              1.1810    Y=              2.1437    Z=              0.5732  Tot=              2.5137

 Test job not archived.
 1\1\GINC-SE126\SP\RHF\Aug-CC-pVDZ\C4H11O4P1\OHZDE\08-Apr-2025\0\\#t hf
  aug-cc-pvdz iop(5/13=1,5/36=2,99/5=2) pseudo=read geom=check guess=(r
 ead,tcheck) scf=(maxcycle=1)\\title\\0,1\O,0,-0.091224,0.328008,-0.275
 631\P,0,-1.595377,-0.106905,-0.050339\O,0,-1.990814,-1.442346,-0.50546
 \C,0,0.993367,-0.529918,0.17295\C,0,2.308234,0.021606,-0.365102\C,0,2.
 579349,1.44056,0.147373\H,0,1.756656,2.112318,-0.10276\H,0,3.496063,1.
 842702,-0.292308\H,0,2.700961,1.444473,1.236128\C,0,3.448154,-0.941585
 ,-0.006514\H,0,2.214748,0.057399,-1.457161\H,0,3.565342,-1.027915,1.07

 Normal termination of Gaussian 16 at Tue Apr  8 23:41:30 2025.
