 Gaussian 16, Revision C.01,

 ----------------------------------------------------------------------
 #t hf aug-cc-pvdz symm=none int=(grid=ultrafine) guess=(read,tcheck) s
 table=(opt,rrhf)
 ----------------------------------------------------------------------
 -----
 title
 -----
 Symbolic Z-matrix:
 Charge =  0 Multiplicity = 1

 SCF Done:  E(RHF) =  -1007.65419493     A.U. after   16 cycles
 Normal termination of Gaussian 16 at Tue Apr  8 23:20:52 2025.
 Gaussian 16:  ES64L-G16RevC.01  3-Jul-2019

 ----------------------------------------------------------------------
 #t hf aug-cc-pvdz iop(5/13=1,5/36=2,99/5=2) pseudo=read geom=check gue
 ss=(read,tcheck) scf=(maxcycle=1)
 ----------------------------------------------------------------------
 -----
 title
 -----
 Structure from the checkpoint file:  "BDE49_nonexpt_1148_mol1.chk"
 Charge =  0 Multiplicity = 1

                         Standard orientation:
 ---------------------------------------------------------------------
 Center     Atomic      Atomic             Coordinates (Angstroms)
 Number     Number       Type             X           Y           Z
 ---------------------------------------------------------------------
      1          9           0       -1.873089   -1.173591   -0.000012
      2          8           0       -0.302783   -1.238876    0.000008
      3          6           0        0.253129   -0.036578    0.000046
      4         16           0        1.882593   -0.199930   -0.000038
      5         16           0       -0.655413    1.439441    0.000022
      6          1           0       -1.873587    0.860626    0.000035
 ---------------------------------------------------------------------

 SCF Done:  E(RHF) =  -1008.91636376     A.U. after    2 cycles

 The electronic state is 1-A.
 Alpha  occ. eigenvalues --  -75.76461 -75.69471 -29.32538 -21.25516 -13.21475
 Alpha  occ. eigenvalues --  -13.17984 -13.16046 -13.07981 -13.02723 -13.00359
 Alpha  occ. eigenvalues --  -11.55924  -8.10595  -8.03693  -1.87327  -1.25844
 Alpha  occ. eigenvalues --   -1.13963  -0.85574  -0.71825  -0.64973  -0.61387
 Alpha  occ. eigenvalues --   -0.52981  -0.45415  -0.39191  -0.36036  -0.29884
 Alpha  occ. eigenvalues --   -0.29883  -0.25002  -0.23588
 Alpha virt. eigenvalues --    0.03104   0.05936   0.06187   0.08224   0.08716
 Alpha virt. eigenvalues --    0.11354   0.13395   0.14130   0.14317   0.15359
 Alpha virt. eigenvalues --    0.16867   0.17792   0.17824   0.20114   0.22490

 Mulliken charges:
               1
     1  F   -0.074953
     2  O   -1.385636
     3  C   -0.566161
     4  S    1.140753
     5  S   -0.108658
     6  H    0.994656
 Sum of Mulliken charges =  -0.00000

 Dipole moment (field-independent basis, Debye):
    X=             -1.3563    Y=              1.3923    Z=             -0.0003  Tot=              1.9437

 Test job not archived.
 1\1\GINC-SE071\SP\RHF\Aug-CC-pVDZ\C1H1F1O1S2\OHZDE\08-Apr-2025\0\\#t h
 f aug-cc-pvdz iop(5/13=1,5/36=2,99/5=2) pseudo=read geom=check guess=(
 read,tcheck) scf=(maxcycle=1)\\title\\0,1\F,0,-1.873089,-1.173591,-0.0
 00012\O,0,-0.302783,-1.238876,0.000008\C,0,0.253129,-0.036578,0.000046
 \S,0,1.882593,-0.19993,-0.000038\S,0,-0.655413,1.439441,0.000022\H,0,-
 1.873587,0.860626,0.000035\\Version=ES64L-G16RevC.01\State=1-A\HF=-100
 8.9163638\RMSD=1.393e-01\Dipole=-0.5336049,0.5477777,-0.0001246\Quadru
 pole=3.8469594,0.377318,-4.2242774,-0.9167825,-0.0003059,-0.0001072\PG

 Normal termination of Gaussian 16 at Tue Apr  8 23:20:54 2025.
