 Gaussian 16, Revision C.01,

 ----------------------------------------------------------------------
 #t hf aug-cc-pvdz symm=none int=(grid=ultrafine) guess=(read,tcheck) s
 table=(opt,rrhf)
 ----------------------------------------------------------------------
 -----
 title
 -----
 Symbolic Z-matrix:
 Charge =  0 Multiplicity = 1

 SCF Done:  E(RHF) =  -854.909322518     A.U. after   17 cycles
 Normal termination of Gaussian 16 at Tue Apr  8 23:17:51 2025.
 Gaussian 16:  ES64L-G16RevC.01  3-Jul-2019

 ----------------------------------------------------------------------
 #t hf aug-cc-pvdz iop(5/13=1,5/36=2,99/5=2) pseudo=read geom=check gue
 ss=(read,tcheck) scf=(maxcycle=1)
 ----------------------------------------------------------------------
 -----
 title
 -----
 Structure from the checkpoint file:  "BDE49_expt_848_mol1.chk"
 Charge =  0 Multiplicity = 1

                         Standard orientation:
 ---------------------------------------------------------------------
 Center     Atomic      Atomic             Coordinates (Angstroms)
 Number     Number       Type             X           Y           Z
 ---------------------------------------------------------------------
      1          6           0       -0.173611    1.229043    0.097706
      2          6           0       -1.541420    0.990888    0.126959
      3          6           0       -2.018908   -0.316075   -0.032782
      4          6           0       -1.109226   -1.366518   -0.223327
      5          6           0        0.250806   -1.117431   -0.235758
      6          6           0        0.744443    0.185428   -0.066157
      7          1           0        0.205629    2.237445    0.205873
      8          1           0       -2.220991    1.819860    0.269419
      9          1           0       -1.500251   -2.366017   -0.366777
     10          1           0        0.928058   -1.942454   -0.416202
     11          8           0       -3.327582   -0.665571   -0.025362
     12          6           0        2.184523    0.560395   -0.098981
     13          8           0        2.570716    1.681379   -0.318446
     14         16           0        3.470068   -0.691614    0.219615
     15          1           0        2.695773   -1.693736    0.663125
     16          6           0       -4.310137    0.351034    0.149516
     17          1           0       -4.196617    0.853064    1.115834
     18          1           0       -5.270385   -0.159962    0.118856
     19          1           0       -4.266188    1.090573   -0.656560
 ---------------------------------------------------------------------

 SCF Done:  E(RHF) =  -857.204446197     A.U. after    2 cycles

 The electronic state is 1-A.
 Alpha  occ. eigenvalues --  -75.70702 -21.09486 -21.06053 -13.15228 -13.13174
 Alpha  occ. eigenvalues --  -13.02985 -11.54869 -11.51869 -11.48427 -11.45803
 Alpha  occ. eigenvalues --  -11.44169 -11.42900 -11.42361 -11.38883  -8.04692
 Alpha  occ. eigenvalues --   -1.80956  -1.72536  -1.34609  -1.16600  -1.12227
 Alpha  occ. eigenvalues --   -1.10312  -1.01626  -0.89739  -0.88653  -0.78749
 Alpha  occ. eigenvalues --   -0.70917  -0.65953  -0.64868  -0.64029  -0.63280
 Alpha  occ. eigenvalues --   -0.60102  -0.56208  -0.55638  -0.53683  -0.50468
 Alpha  occ. eigenvalues --   -0.48564  -0.47064  -0.43622  -0.41036  -0.40878
 Alpha  occ. eigenvalues --   -0.35449  -0.27738  -0.27537  -0.25692
 Alpha virt. eigenvalues --    0.02595   0.04440   0.04823   0.05320   0.05723
 Alpha virt. eigenvalues --    0.06473   0.07299   0.07432   0.08663   0.08908
 Alpha virt. eigenvalues --    0.09443   0.10171   0.10535   0.12144   0.12414

 Mulliken charges:
               1
     1  C   -1.409938
     2  C   -2.948254
     3  C    4.876328
     4  C   -5.009637
     5  C    1.541630
     6  C    1.588250
     7  H    1.807396
     8  H    1.802901
     9  H    1.857942
    10  H    1.962207
    11  O   -4.748945
    12  C    1.534161
    13  O   -3.518838
    14  S   -0.802915
    15  H    1.014729
    16  C   -3.769244
    17  H    1.400419
    18  H    1.419615
    19  H    1.402194
 Sum of Mulliken charges =   0.00000

 Dipole moment (field-independent basis, Debye):
    X=             -2.1593    Y=             -0.2315    Z=              0.1167  Tot=              2.1748

 Test job not archived.
 1\1\GINC-SE165\SP\RHF\Aug-CC-pVDZ\C8H8O2S1\OHZDE\08-Apr-2025\0\\#t hf
 aug-cc-pvdz iop(5/13=1,5/36=2,99/5=2) pseudo=read geom=check guess=(re
 ad,tcheck) scf=(maxcycle=1)\\title\\0,1\C,0,-0.173611,1.229043,0.09770
 6\C,0,-1.54142,0.990888,0.126959\C,0,-2.018908,-0.316075,-0.032782\C,0
 ,-1.109226,-1.366518,-0.223327\C,0,0.250806,-1.117431,-0.235758\C,0,0.
 744443,0.185428,-0.066157\H,0,0.205629,2.237445,0.205873\H,0,-2.220991
 ,1.81986,0.269419\H,0,-1.500251,-2.366017,-0.366777\H,0,0.928058,-1.94
 2454,-0.416202\O,0,-3.327582,-0.665571,-0.025362\C,0,2.184523,0.560395

 Normal termination of Gaussian 16 at Tue Apr  8 23:18:04 2025.
