 Gaussian 16, Revision C.01,

 ----------------------------------------------------------------------
 #t hf aug-cc-pvdz symm=none int=(grid=ultrafine) guess=(read,tcheck) s
 table=(opt,rrhf)
 ----------------------------------------------------------------------
 -----
 title
 -----
 Symbolic Z-matrix:
 Charge =  0 Multiplicity = 1

 SCF Done:  E(RHF) =  -991.419682180     A.U. after   14 cycles

 1\1\GINC-SE393\Stability\RHF\Aug-CC-pVDZ\C5H12S2\OHZDE\08-Apr-2025\0\\
 #t hf aug-cc-pvdz symm=none int=(grid=ultrafine) guess=(read,tcheck) s
 table=(opt,rrhf)\\title\\0,1\C,0,-1.309001,0.162421,0.075547\S,0,0.101
 84,-0.792685,-0.730979\S,0,1.772929,-0.504798,0.467581\C,0,2.651318,0.
 895071,-0.324014\H,0,3.600928,0.985266,0.209554\H,0,2.092439,1.824683,
 -0.230053\H,0,2.846812,0.672921,-1.371966\C,0,-2.484329,-0.08708,-0.88
 2062\H,0,-2.284017,0.315943,-1.877999\H,0,-3.380755,0.40529,-0.491985\
 H,0,-2.703127,-1.153607,-0.978848\C,0,-1.60515,-0.414266,1.462345\H,0,

 Normal termination of Gaussian 16 at Tue Apr  8 22:48:30 2025.
 Gaussian 16:  ES64L-G16RevC.01  3-Jul-2019

 ----------------------------------------------------------------------
 #t hf aug-cc-pvdz iop(5/13=1,5/36=2,99/5=2) pseudo=read geom=check gue
 ss=(read,tcheck) scf=(maxcycle=1)
 ----------------------------------------------------------------------
 -----
 title
 -----
 Structure from the checkpoint file:  "BDE49_expt_1594_mol1.chk"
 Charge =  0 Multiplicity = 1

                         Standard orientation:
 ---------------------------------------------------------------------
 Center     Atomic      Atomic             Coordinates (Angstroms)
 Number     Number       Type             X           Y           Z
 ---------------------------------------------------------------------
      1          6           0       -1.309001    0.162421    0.075547
      2         16           0        0.101840   -0.792685   -0.730979
      3         16           0        1.772929   -0.504798    0.467581
      4          6           0        2.651318    0.895071   -0.324014
      5          1           0        3.600928    0.985266    0.209554
      6          1           0        2.092439    1.824683   -0.230053
      7          1           0        2.846812    0.672921   -1.371966
      8          6           0       -2.484329   -0.087080   -0.882062
      9          1           0       -2.284017    0.315943   -1.877999
     10          1           0       -3.380755    0.405290   -0.491985
     11          1           0       -2.703127   -1.153607   -0.978848
     12          6           0       -1.605150   -0.414266    1.462345
     13          1           0       -0.744350   -0.304411    2.125425
     14          1           0       -1.859060   -1.474641    1.402322
     15          1           0       -2.449561    0.117844    1.914662
     16          6           0       -0.983698    1.655186    0.159535
     17          1           0       -0.760694    2.069966   -0.825980
     18          1           0       -0.129858    1.833896    0.816723
     19          1           0       -1.839902    2.198585    0.574426
 ---------------------------------------------------------------------

 SCF Done:  E(RHF) =  -992.916538856     A.U. after    2 cycles

 The electronic state is 1-A.
 Alpha  occ. eigenvalues --  -75.69586 -75.69012 -13.15156 -13.12300 -13.09741
 Alpha  occ. eigenvalues --  -13.08795 -13.05682 -13.04968 -11.43632 -11.39832
 Alpha  occ. eigenvalues --  -11.39593 -11.39148 -11.35792  -8.03444  -8.02886
 Alpha  occ. eigenvalues --   -1.31217  -1.19813  -1.04813  -1.01470  -1.01073
 Alpha  occ. eigenvalues --   -0.90083  -0.77072  -0.62648  -0.61351  -0.61136
 Alpha  occ. eigenvalues --   -0.58860  -0.58544  -0.55029  -0.54528  -0.51921
 Alpha  occ. eigenvalues --   -0.45961  -0.45491  -0.44013  -0.38417  -0.33071
 Alpha  occ. eigenvalues --   -0.24060  -0.22937
 Alpha virt. eigenvalues --    0.03354   0.03570   0.04707   0.05698   0.05953
 Alpha virt. eigenvalues --    0.06140   0.06397   0.06733   0.06899   0.08153
 Alpha virt. eigenvalues --    0.09132   0.09736   0.09937   0.10971   0.12066

 Mulliken charges:
               1
     1  C    2.196811
     2  S   -0.374649
     3  S   -0.046888
     4  C   -4.622573
     5  H    1.393262
     6  H    1.526604
     7  H    1.518648
     8  C   -4.150531
     9  H    1.300405
    10  H    1.227263
    11  H    1.318802
    12  C   -4.704606
    13  H    1.362807
    14  H    1.380470
    15  H    1.193025
    16  C   -4.630719
    17  H    1.416757
    18  H    1.566146
    19  H    1.128966
 Sum of Mulliken charges =  -0.00000

 Dipole moment (field-independent basis, Debye):
    X=             -0.3137    Y=             -0.4057    Z=              0.0551  Tot=              0.5158

 Test job not archived.
 1\1\GINC-SE393\SP\RHF\Aug-CC-pVDZ\C5H12S2\OHZDE\08-Apr-2025\0\\#t hf a
 ug-cc-pvdz iop(5/13=1,5/36=2,99/5=2) pseudo=read geom=check guess=(rea
 d,tcheck) scf=(maxcycle=1)\\title\\0,1\C,0,-1.309001,0.162421,0.075547
 \S,0,0.10184,-0.792685,-0.730979\S,0,1.772929,-0.504798,0.467581\C,0,2
 .651318,0.895071,-0.324014\H,0,3.600928,0.985266,0.209554\H,0,2.092439
 ,1.824683,-0.230053\H,0,2.846812,0.672921,-1.371966\C,0,-2.484329,-0.0
 8708,-0.882062\H,0,-2.284017,0.315943,-1.877999\H,0,-3.380755,0.40529,
 -0.491985\H,0,-2.703127,-1.153607,-0.978848\C,0,-1.60515,-0.414266,1.4

 Normal termination of Gaussian 16 at Tue Apr  8 22:48:38 2025.
