 Gaussian 16, Revision C.01,

 ----------------------------------------------------------------------
 #t hf aug-cc-pvdz symm=none int=(grid=ultrafine) guess=(read,tcheck) s
 table=opt
 ----------------------------------------------------------------------
 -----
 title
 -----
 Symbolic Z-matrix:
 Charge =  0 Multiplicity = 2

 SCF Done:  E(UHF) =  -943.718570903     A.U. after   14 cycles
 Normal termination of Gaussian 16 at Tue Apr  8 23:27:58 2025.
 Gaussian 16:  ES64L-G16RevC.01  3-Jul-2019

 ----------------------------------------------------------------------
 #t hf aug-cc-pvdz iop(5/13=1,5/36=2,99/5=2) pseudo=read geom=check gue
 ss=(read,tcheck) scf=(maxcycle=1)
 ----------------------------------------------------------------------
 -----
 title
 -----
 Structure from the checkpoint file:  "BDE49_nonexpt_12_mol2.chk"
 Charge =  0 Multiplicity = 2

                         Standard orientation:
 ---------------------------------------------------------------------
 Center     Atomic      Atomic             Coordinates (Angstroms)
 Number     Number       Type             X           Y           Z
 ---------------------------------------------------------------------
      1          5           0        0.000000   -0.000000    0.693571
      2         17           0        0.000000    1.542548   -0.101996
      3         17           0       -0.000000   -1.542548   -0.101996
 ---------------------------------------------------------------------

 SCF Done:  E(UHF) =  -944.283504692     A.U. after    2 cycles

 The electronic state is 2-A1.
 Alpha  occ. eigenvalues --  -99.91993 -99.91992 -10.49355 -10.49226  -9.69322
 Alpha  occ. eigenvalues --   -9.69159  -9.68711  -9.68598  -9.68498  -9.68470
 Alpha  occ. eigenvalues --   -7.74058  -1.41062  -1.32036  -0.82170  -0.65335
 Alpha  occ. eigenvalues --   -0.61519  -0.59132  -0.53896  -0.52542  -0.37161
 Alpha virt. eigenvalues --    0.02979   0.03915   0.04162   0.04832   0.05094
 Alpha virt. eigenvalues --    0.10920   0.13147   0.15700   0.16261   0.16764
 Alpha virt. eigenvalues --    0.17483   0.17536   0.19196   0.20401   0.20943

  Beta  occ. eigenvalues --  -99.91895 -99.91894 -10.49239 -10.49110  -9.69105
  Beta  occ. eigenvalues --   -9.68907  -9.68509  -9.68482  -9.68466  -9.68325
  Beta  occ. eigenvalues --   -7.71860  -1.39786  -1.31205  -0.78870  -0.63518
  Beta  occ. eigenvalues --   -0.58859  -0.57862  -0.54136  -0.51984
  Beta virt. eigenvalues --    0.00627   0.04031   0.04040   0.04367   0.06808
  Beta virt. eigenvalues --    0.08178   0.11441   0.13499   0.16017   0.16282
  Beta virt. eigenvalues --    0.16878   0.17601   0.18107   0.20595   0.20711

 Mulliken charges and spin densities:
               1          2
     1  B    1.253318   0.925551
     2  Cl  -0.626659   0.037224
     3  Cl  -0.626659   0.037224
 Sum of Mulliken charges =  -0.00000   1.00000

 Dipole moment (field-independent basis, Debye):
    X=              0.0000    Y=             -0.0000    Z=             -0.0495  Tot=              0.0495
                          Isotropic Fermi Contact Couplings
        Atom                 a.u.       MegaHertz       Gauss      10(-4) cm-1
     1  B(11)              0.31942     458.15797     163.48216     152.82505
     2  Cl(35)             0.15566      68.25287      24.35432      22.76671
     3  Cl(35)             0.15566      68.25287      24.35432      22.76671
 --------------------------------------------------------
       Center         ----  Spin Dipole Couplings  ----
                      3XX-RR        3YY-RR        3ZZ-RR
 --------------------------------------------------------
     1   Atom       -0.162324     -0.172319      0.334643

 Normal termination of Gaussian 16 at Tue Apr  8 23:27:59 2025.
