 Gaussian 16, Revision C.01,

 ----------------------------------------------------------------------
 #t hf aug-cc-pvdz symm=none int=(grid=ultrafine) guess=(read,tcheck) s
 table=(opt,rrhf)
 ----------------------------------------------------------------------
 -----
 title
 -----
 Symbolic Z-matrix:
 Charge =  0 Multiplicity = 1

 SCF Done:  E(RHF) =  -589.243337422     A.U. after   14 cycles
 Normal termination of Gaussian 16 at Wed Apr  9 00:22:36 2025.
 Gaussian 16:  ES64L-G16RevC.01  3-Jul-2019

 ----------------------------------------------------------------------
 #t hf aug-cc-pvdz iop(5/13=1,5/36=2,99/5=2) pseudo=read geom=check gue
 ss=(read,tcheck) scf=(maxcycle=1)
 ----------------------------------------------------------------------
 -----
 title
 -----
 Structure from the checkpoint file:  "BDE49_nonexpt_2654_mol1.chk"
 Charge =  0 Multiplicity = 1

                         Standard orientation:
 ---------------------------------------------------------------------
 Center     Atomic      Atomic             Coordinates (Angstroms)
 Number     Number       Type             X           Y           Z
 ---------------------------------------------------------------------
      1          9           0       -1.398163    0.813341    0.000003
      2         16           0       -0.538736   -0.604020   -0.000003
      3          6           0        1.032556   -0.000314    0.000001
      4          7           0        2.143987    0.335162    0.000003
 ---------------------------------------------------------------------

 SCF Done:  E(RHF) =  -590.194636655     A.U. after    2 cycles

 The electronic state is 1-A.
 Alpha  occ. eigenvalues --  -75.83959 -29.32310 -15.81270 -13.30653 -13.25135
 Alpha  occ. eigenvalues --  -13.14278 -11.47018  -8.17973  -1.37405  -1.25843
 Alpha  occ. eigenvalues --   -0.81381  -0.64096  -0.55405  -0.54430  -0.49566
 Alpha  occ. eigenvalues --   -0.43645  -0.37668  -0.34090  -0.22614
 Alpha virt. eigenvalues --    0.04295   0.06846   0.09387   0.10466   0.12695
 Alpha virt. eigenvalues --    0.13198   0.13526   0.13894   0.17311   0.18497
 Alpha virt. eigenvalues --    0.20356   0.23664   0.25934   0.26682   0.26852

 Mulliken charges:
               1
     1  F   -0.072043
     2  S    1.379155
     3  C    0.651537
     4  N   -1.958649
 Sum of Mulliken charges =  -0.00000

 Dipole moment (field-independent basis, Debye):
    X=             -5.3633    Y=              0.4147    Z=             -0.0000  Tot=              5.3794

 Test job not archived.
 1\1\GINC-SE116\SP\RHF\Aug-CC-pVDZ\C1F1N1S1\OHZDE\09-Apr-2025\0\\#t hf
 aug-cc-pvdz iop(5/13=1,5/36=2,99/5=2) pseudo=read geom=check guess=(re
 ad,tcheck) scf=(maxcycle=1)\\title\\0,1\F,0,-1.398163,0.81334,0.000003
 \S,0,-0.538736,-0.60402,-0.000003\C,0,1.032556,-0.000314,0.000001\N,0,
 2.143987,0.335162,0.000003\\Version=ES64L-G16RevC.01\State=1-A\HF=-590
 .1946367\RMSD=9.659e-02\Dipole=-2.1101019,0.1631475,-0.0000008\Quadrup
 ole=-0.958164,1.924328,-0.9661641,-1.5421356,-0.0000066,0.0000128\PG=C
 01 [X(C1F1N1S1)]\\@

 Normal termination of Gaussian 16 at Wed Apr  9 00:22:39 2025.
