 Gaussian 16, Revision C.01,

 ----------------------------------------------------------------------
 #t hf aug-cc-pvdz symm=none int=(grid=ultrafine) guess=(read,tcheck) s
 table=(opt,rrhf)
 ----------------------------------------------------------------------
 -----
 title
 -----
 Symbolic Z-matrix:
 Charge =  0 Multiplicity = 1

 SCF Done:  E(RHF) =  -990.565412448     A.U. after   16 cycles
 Normal termination of Gaussian 16 at Tue Apr  8 23:14:11 2025.
 Gaussian 16:  ES64L-G16RevC.01  3-Jul-2019

 ----------------------------------------------------------------------
 #t hf aug-cc-pvdz iop(5/13=1,5/36=2,99/5=2) pseudo=read geom=check gue
 ss=(read,tcheck) scf=(maxcycle=1)
 ----------------------------------------------------------------------
 -----
 title
 -----
 Structure from the checkpoint file:  "BDE49_expt_494_mol1.chk"
 Charge =  0 Multiplicity = 1

                         Standard orientation:
 ---------------------------------------------------------------------
 Center     Atomic      Atomic             Coordinates (Angstroms)
 Number     Number       Type             X           Y           Z
 ---------------------------------------------------------------------
      1          6           0       -2.128184   -1.120912   -0.050928
      2          6           0       -0.742378   -0.992384   -0.052889
      3          6           0       -2.938419    0.006300    0.001219
      4          6           0       -2.375912    1.276510    0.052367
      5          6           0       -0.993763    1.406674    0.050278
      6          6           0       -0.157903    0.280767   -0.001964
      7          1           0       -0.109335   -1.864545   -0.087941
      8          1           0       -2.575601   -2.105878   -0.089686
      9          1           0       -3.009243    2.153137    0.093213
     10          1           0       -0.558479    2.400751    0.089642
     11          7           0        1.229739    0.511990   -0.006781
     12          6           0        2.251946   -0.431192   -0.011015
     13          8           0        2.046398   -1.634496    0.026362
     14          7           0        3.525270    0.105248   -0.072951
     15          1           0        1.487930    1.482937    0.038813
     16          6           0        4.656432   -0.798338    0.098016
     17          1           0        4.289614   -1.819591    0.045423
     18          1           0        5.146456   -0.645491    1.067438
     19          1           0        5.392064   -0.637608   -0.695811
     20          6           0        3.807077    1.531691   -0.071566
     21          1           0        3.628981    2.004732    0.904458
     22          1           0        3.225481    2.057020   -0.835469
     23          1           0        4.857639    1.678550   -0.322345
     24         17           0       -4.688537   -0.170789    0.003435
 ---------------------------------------------------------------------

 SCF Done:  E(RHF) =  -993.291976381     A.U. after    2 cycles

 The electronic state is 1-A.
 Alpha  occ. eigenvalues --  -99.88697 -21.01696 -15.78273 -15.75090 -11.53623
 Alpha  occ. eigenvalues --  -11.52244 -11.47620 -11.45279 -11.44496 -11.42326
 Alpha  occ. eigenvalues --  -11.42029 -11.39878 -11.37751 -10.46025  -9.66074
 Alpha  occ. eigenvalues --   -9.65178  -9.64996  -1.72550  -1.46907  -1.42056
 Alpha  occ. eigenvalues --   -1.35864  -1.24827  -1.10770  -1.08220  -1.06204
 Alpha  occ. eigenvalues --   -0.98476  -0.89553  -0.86517  -0.78479  -0.74124
 Alpha  occ. eigenvalues --   -0.70213  -0.68638  -0.67133  -0.62631  -0.61090
 Alpha  occ. eigenvalues --   -0.59315  -0.59101  -0.58251  -0.57473  -0.55867
 Alpha  occ. eigenvalues --   -0.55153  -0.53611  -0.49878  -0.49414  -0.49128
 Alpha  occ. eigenvalues --   -0.47745  -0.45204  -0.40693  -0.34314  -0.30596
 Alpha  occ. eigenvalues --   -0.29726  -0.28333
 Alpha virt. eigenvalues --    0.02707   0.04106   0.04570   0.05027   0.05842
 Alpha virt. eigenvalues --    0.06026   0.06217   0.06634   0.07458   0.07789
 Alpha virt. eigenvalues --    0.09030   0.09626   0.10611   0.10753   0.11120

 Mulliken charges:
               1
     1  C   -0.757840
     2  C   -1.144155
     3  C   -2.142985
     4  C   -1.854831
     5  C   -1.102185
     6  C    3.208410
     7  H    2.096463
     8  H    1.803911
     9  H    1.843151
    10  H    1.999747
    11  N   -4.549693
    12  C    6.022438
    13  O   -3.520808
    14  N   -2.891888
    15  H    0.847408
    16  C   -3.813332
    17  H    1.371314
    18  H    1.432763
    19  H    1.367810
    20  C   -3.673407
    21  H    1.424670
    22  H    1.439480
    23  H    1.471398
    24  Cl  -0.877841
 Sum of Mulliken charges =   0.00000

 Dipole moment (field-independent basis, Debye):
    X=              4.6874    Y=              2.6882    Z=              0.0286  Tot=              5.4036

 Test job not archived.
 1\1\GINC-SE179\SP\RHF\Aug-CC-pVDZ\C9H11Cl1N2O1\OHZDE\08-Apr-2025\0\\#t
  hf aug-cc-pvdz iop(5/13=1,5/36=2,99/5=2) pseudo=read geom=check guess
 =(read,tcheck) scf=(maxcycle=1)\\title\\0,1\C,0,-2.128184,-1.120912,-0
 .050928\C,0,-0.742378,-0.992384,-0.052889\C,0,-2.938419,0.0063,0.00121
 9\C,0,-2.375912,1.27651,0.052367\C,0,-0.993763,1.406674,0.050278\C,0,-
 0.157903,0.280767,-0.001964\H,0,-0.109335,-1.864545,-0.087941\H,0,-2.5
 75601,-2.105878,-0.089686\H,0,-3.009243,2.153137,0.093213\H,0,-0.55847
 9,2.400751,0.089642\N,0,1.229739,0.51199,-0.006781\C,0,2.251946,-0.431

 Normal termination of Gaussian 16 at Tue Apr  8 23:14:31 2025.
