 Gaussian 16, Revision C.01,

 ----------------------------------------------------------------------
 #t hf aug-cc-pvdz symm=none int=(grid=ultrafine) guess=(read,tcheck) s
 table=(opt,rrhf)
 ----------------------------------------------------------------------
 -----
 title
 -----
 Symbolic Z-matrix:
 Charge =  0 Multiplicity = 1

 SCF Done:  E(RHF) =  -182.555610236     A.U. after   12 cycles

 1\1\GINC-SE150\Stability\RHF\Aug-CC-pVDZ\C4H11B1\OHZDE\09-Apr-2025\0\\
 #t hf aug-cc-pvdz symm=none int=(grid=ultrafine) guess=(read,tcheck) s
 table=(opt,rrhf)\\title\\0,1\B,0,1.006664,0.,1.29076\C,0,-0.009833,0.,
 0.101641\C,0,-0.887305,-1.263834,0.030894\H,0,-1.583906,-1.310786,0.87
 3806\H,0,-0.28084,-2.173509,0.052185\C,0,0.977356,0.,-1.110801\H,0,-1.
 484145,-1.276666,-0.888886\H,0,0.395181,0.,-2.039673\H,0,1.617602,0.88
 7204,-1.124143\H,0,1.617603,-0.887203,-1.124143\C,0,-0.887306,1.263834
 ,0.030894\H,0,-1.583907,1.310785,0.873806\H,0,-1.484146,1.276665,-0.88

 Normal termination of Gaussian 16 at Wed Apr  9 00:26:16 2025.
 Gaussian 16:  ES64L-G16RevC.01  3-Jul-2019

 ----------------------------------------------------------------------
 #t hf aug-cc-pvdz iop(5/13=1,5/36=2,99/5=2) pseudo=read geom=check gue
 ss=(read,tcheck) scf=(maxcycle=1)
 ----------------------------------------------------------------------
 -----
 title
 -----
 Structure from the checkpoint file:  "BDE49_nonexpt_272_mol1.chk"
 Charge =  0 Multiplicity = 1

                         Standard orientation:
 ---------------------------------------------------------------------
 Center     Atomic      Atomic             Coordinates (Angstroms)
 Number     Number       Type             X           Y           Z
 ---------------------------------------------------------------------
      1          5           0       -1.006664   -0.000026    1.290760
      2          6           0        0.009833    0.000000    0.101641
      3          6           0        0.887272    1.263857    0.030894
      4          1           0        1.583872    1.310827    0.873806
      5          1           0        0.280783    2.173516    0.052185
      6          6           0       -0.977356   -0.000025   -1.110801
      7          1           0        1.484112    1.276705   -0.888886
      8          1           0       -0.395181   -0.000010   -2.039673
      9          1           0       -1.617579   -0.887246   -1.124143
     10          1           0       -1.617626    0.887161   -1.124143
     11          6           0        0.887339   -1.263811    0.030894
     12          1           0        1.583941   -1.310744    0.873806
     13          1           0        1.484179   -1.276626   -0.888886
     14          1           0        0.280899   -2.173502    0.052185
     15          1           0       -1.438332    1.027623    1.722091
     16          1           0       -1.438278   -1.027700    1.722091
 ---------------------------------------------------------------------

 SCF Done:  E(RHF) =  -183.521887916     A.U. after    2 cycles

 The electronic state is 1-A.
 Alpha  occ. eigenvalues --  -11.38960 -11.38658 -11.38242 -11.33376  -7.60476
 Alpha  occ. eigenvalues --   -1.27112  -1.00300  -0.99675  -0.88605  -0.72846
 Alpha  occ. eigenvalues --   -0.60491  -0.59724  -0.58927  -0.53850  -0.53765
 Alpha  occ. eigenvalues --   -0.50943  -0.47375  -0.43235  -0.41165  -0.37021
 Alpha virt. eigenvalues --    0.03661   0.03820   0.04250   0.04725   0.06380
 Alpha virt. eigenvalues --    0.06462   0.06528   0.07044   0.07164   0.08856
 Alpha virt. eigenvalues --    0.08864   0.09613   0.10658   0.11273   0.12420

 Mulliken charges:
               1
     1  B    7.511177
     2  C    0.617022
     3  C   -4.164280
     4  H    1.204861
     5  H    1.241315
     6  C   -3.866110
     7  H    1.233391
     8  H    1.280626
     9  H    1.228450
    10  H    1.228450
    11  C   -4.164280
    12  H    1.204861
    13  H    1.233391
    14  H    1.241316
    15  H   -3.515096
    16  H   -3.515095
 Sum of Mulliken charges =  -0.00000

 Dipole moment (field-independent basis, Debye):
    X=              0.3607    Y=              0.0000    Z=             -0.5643  Tot=              0.6698

 Test job not archived.
 1\1\GINC-SE150\SP\RHF\Aug-CC-pVDZ\C4H11B1\OHZDE\09-Apr-2025\0\\#t hf a
 ug-cc-pvdz iop(5/13=1,5/36=2,99/5=2) pseudo=read geom=check guess=(rea
 d,tcheck) scf=(maxcycle=1)\\title\\0,1\B,0,1.006664,0.,1.29076\C,0,-0.
 009833,0.,0.101641\C,0,-0.887305,-1.263834,0.030894\H,0,-1.583906,-1.3
 10786,0.873806\H,0,-0.28084,-2.173509,0.052185\C,0,0.977356,0.,-1.1108
 01\H,0,-1.484145,-1.276666,-0.888886\H,0,0.395181,0.,-2.039673\H,0,1.6
 17602,0.887204,-1.124143\H,0,1.617603,-0.887203,-1.124143\C,0,-0.88730
 6,1.263834,0.030894\H,0,-1.583907,1.310785,0.873806\H,0,-1.484146,1.27

 Normal termination of Gaussian 16 at Wed Apr  9 00:26:21 2025.
