 Gaussian 16, Revision C.01,

 ----------------------------------------------------------------------
 #t hf aug-cc-pvdz symm=none int=(grid=ultrafine) guess=(read,tcheck) s
 table=(opt,rrhf)
 ----------------------------------------------------------------------
 -----
 title
 -----
 Symbolic Z-matrix:
 Charge =  0 Multiplicity = 1

 SCF Done:  E(RHF) =  -1036.13013760     A.U. after   12 cycles

 1\1\GINC-SE461\Stability\RHF\Aug-CC-pVDZ\C3H6Cl2\OHZDE\08-Apr-2025\0\\
 #t hf aug-cc-pvdz symm=none int=(grid=ultrafine) guess=(read,tcheck) s
 table=(opt,rrhf)\\title\\0,1\C,0,0.,1.285248,0.431879\H,0,0.058129,2.1
 58334,1.078189\Cl,0,-1.534303,1.483967,-0.529961\H,0,0.813149,1.310015
 ,-0.290624\C,0,0.,0.,1.24492\C,0,0.,-1.285248,0.431879\H,0,-0.881129,-
 0.017366,1.895733\H,0,-0.813149,-1.310015,-0.290624\Cl,0,1.534303,-1.4
 83967,-0.529961\H,0,0.881129,0.017366,1.895733\H,0,-0.058129,-2.158334
 ,1.078189\\Version=ES64L-G16RevC.01\HF=-1036.1301376\RMSD=4.038e-09\Di

 Normal termination of Gaussian 16 at Tue Apr  8 22:32:26 2025.
 Gaussian 16:  ES64L-G16RevC.01  3-Jul-2019

 ----------------------------------------------------------------------
 #t hf aug-cc-pvdz iop(5/13=1,5/36=2,99/5=2) pseudo=read geom=check gue
 ss=(read,tcheck) scf=(maxcycle=1)
 ----------------------------------------------------------------------
 -----
 title
 -----
 Structure from the checkpoint file:  "BDE49_expt_1029_mol1.chk"
 Charge =  0 Multiplicity = 1

                         Standard orientation:
 ---------------------------------------------------------------------
 Center     Atomic      Atomic             Coordinates (Angstroms)
 Number     Number       Type             X           Y           Z
 ---------------------------------------------------------------------
      1          6           0       -0.000000    1.285248    0.431879
      2          1           0        0.058129    2.158334    1.078189
      3         17           0       -1.534303    1.483967   -0.529961
      4          1           0        0.813149    1.310015   -0.290624
      5          6           0        0.000000   -0.000000    1.244920
      6          6           0        0.000000   -1.285248    0.431879
      7          1           0       -0.881129   -0.017366    1.895733
      8          1           0       -0.813149   -1.310015   -0.290624
      9         17           0        1.534303   -1.483967   -0.529961
     10          1           0        0.881129    0.017366    1.895733
     11          1           0       -0.058129   -2.158334    1.078189
 ---------------------------------------------------------------------

 SCF Done:  E(RHF) =  -1037.22155549     A.U. after    2 cycles

 The electronic state is 1-A.
 Alpha  occ. eigenvalues --  -99.88003 -99.87994 -11.47000 -11.45429 -11.40394
 Alpha  occ. eigenvalues --  -10.45255 -10.45246  -9.65164  -9.65118  -9.64518
 Alpha  occ. eigenvalues --   -9.64491  -9.64395  -9.64355  -1.36539  -1.30810
 Alpha  occ. eigenvalues --   -1.16355  -1.00187  -0.87238  -0.68889  -0.68728
 Alpha  occ. eigenvalues --   -0.62636  -0.59920  -0.57091  -0.54486  -0.51395
 Alpha  occ. eigenvalues --   -0.48700  -0.48616  -0.46413  -0.45496
 Alpha virt. eigenvalues --    0.03248   0.04763   0.06094   0.06110   0.06541
 Alpha virt. eigenvalues --    0.06556   0.07607   0.08144   0.11262   0.11392
 Alpha virt. eigenvalues --    0.12659   0.14578   0.14624   0.16097   0.16255

 Mulliken charges:
               1
     1  C   -3.481346
     2  H    1.494717
     3  Cl   0.047847
     4  H    1.646588
     5  C   -2.127829
     6  C   -3.481346
     7  H    1.356109
     8  H    1.646588
     9  Cl   0.047847
    10  H    1.356109
    11  H    1.494717
 Sum of Mulliken charges =  -0.00000

 Dipole moment (field-independent basis, Debye):
    X=              0.0000    Y=             -0.0000    Z=              2.6459  Tot=              2.6459

 Test job not archived.
 1\1\GINC-SE461\SP\RHF\Aug-CC-pVDZ\C3H6Cl2\OHZDE\08-Apr-2025\0\\#t hf a
 ug-cc-pvdz iop(5/13=1,5/36=2,99/5=2) pseudo=read geom=check guess=(rea
 d,tcheck) scf=(maxcycle=1)\\title\\0,1\C,0,0.,1.285248,0.431879\H,0,0.
 058129,2.158334,1.078189\Cl,0,-1.534303,1.483967,-0.529961\H,0,0.81314
 9,1.310015,-0.290624\C,0,0.,0.,1.24492\C,0,0.,-1.285248,0.431879\H,0,-
 0.881129,-0.017366,1.895733\H,0,-0.813149,-1.310015,-0.290624\Cl,0,1.5
 34303,-1.483967,-0.529961\H,0,0.881129,0.017366,1.895733\H,0,-0.058129
 ,-2.158334,1.078189\\Version=ES64L-G16RevC.01\State=1-A\HF=-1037.22155

 Normal termination of Gaussian 16 at Tue Apr  8 22:32:30 2025.
