 Gaussian 16, Revision C.01,

 ----------------------------------------------------------------------
 #t hf aug-cc-pvdz symm=none int=(grid=ultrafine) guess=(read,tcheck) s
 table=opt
 ----------------------------------------------------------------------
 -----
 title
 -----
 Symbolic Z-matrix:
 Charge =  0 Multiplicity = 2

 SCF Done:  E(UHF) =  -474.072335989     A.U. after   15 cycles
 Normal termination of Gaussian 16 at Tue Apr  8 22:35:28 2025.
 Gaussian 16:  ES64L-G16RevC.01  3-Jul-2019

 ----------------------------------------------------------------------
 #t hf aug-cc-pvdz iop(5/13=1,5/36=2,99/5=2) pseudo=read geom=check gue
 ss=(read,tcheck) scf=(maxcycle=1)
 ----------------------------------------------------------------------
 -----
 title
 -----
 Structure from the checkpoint file:  "BDE49_expt_1054_mol3.chk"
 Charge =  0 Multiplicity = 2

                         Standard orientation:
 ---------------------------------------------------------------------
 Center     Atomic      Atomic             Coordinates (Angstroms)
 Number     Number       Type             X           Y           Z
 ---------------------------------------------------------------------
      1          6           0        0.713057    0.213507   -0.317986
      2          6           0       -0.696621   -0.310486   -0.334919
      3          9           0        0.998757    1.082946    0.640157
      4          9           0        1.648040   -0.729853   -0.419061
      5          9           0       -1.555417    0.723865   -0.525415
      6          9           0       -1.010489   -0.895514    0.864707
      7          1           0       -0.826627   -1.051125   -1.126065
 ---------------------------------------------------------------------

 SCF Done:  E(UHF) =  -475.739270516     A.U. after    2 cycles

 The electronic state is 2-A.
 Alpha  occ. eigenvalues --  -29.33836 -29.33477 -29.31330 -29.30829 -11.57723
 Alpha  occ. eigenvalues --  -11.52575  -1.42568  -1.20418  -0.89149  -0.84800
 Alpha  occ. eigenvalues --   -0.79738  -0.73452  -0.63847  -0.48415  -0.46484
 Alpha  occ. eigenvalues --   -0.42770  -0.41252  -0.39994  -0.34786  -0.32068
 Alpha  occ. eigenvalues --   -0.31131  -0.28364  -0.26304  -0.24202  -0.19731
 Alpha virt. eigenvalues --    0.04520   0.08683   0.10883   0.11290   0.11940
 Alpha virt. eigenvalues --    0.12657   0.13557   0.20065   0.21541   0.21814
 Alpha virt. eigenvalues --    0.23294   0.24656   0.25516   0.28397   0.29348

  Beta  occ. eigenvalues --  -29.33438 -29.33082 -29.31345 -29.30618 -11.56917
  Beta  occ. eigenvalues --  -11.50657  -1.39070  -1.17104  -0.87859  -0.82666
  Beta  occ. eigenvalues --   -0.77854  -0.72943  -0.49373  -0.47699  -0.46251
  Beta  occ. eigenvalues --   -0.42044  -0.40965  -0.39503  -0.33450  -0.31847
  Beta  occ. eigenvalues --   -0.30301  -0.27449  -0.25956  -0.24060
  Beta virt. eigenvalues --    0.04538   0.08769   0.10512   0.10975   0.11863
  Beta virt. eigenvalues --    0.12628   0.13612   0.14877   0.20674   0.21835
  Beta virt. eigenvalues --    0.22528   0.24158   0.25505   0.26317   0.28846

 Mulliken charges and spin densities:
               1          2
     1  C   -1.730375   0.978352
     2  C   -1.930695  -0.232156
     3  F    0.672501   0.121786
     4  F    0.547162   0.119172
     5  F    0.455710  -0.015174
     6  F    0.467508   0.038884
     7  H    1.518189  -0.010863
 Sum of Mulliken charges =  -0.00000   1.00000

 Dipole moment (field-independent basis, Debye):
    X=              0.1216    Y=              0.1664    Z=              2.0343  Tot=              2.0447
                          Isotropic Fermi Contact Couplings
        Atom                 a.u.       MegaHertz       Gauss      10(-4) cm-1
     1  C(13)              0.19877     223.45333      79.73370      74.53601
     2  C(13)              0.01525      17.14119       6.11640       5.71769
     3  F(19)              0.03796     159.73301      56.99671      53.28120
     4  F(19)              0.03861     162.46329      57.97094      54.19192
     5  F(19)              0.00084       3.55011       1.26677       1.18419
     6  F(19)              0.01276      53.68778      19.15713      17.90831
     7  H(1)              -0.00032      -1.45006      -0.51742      -0.48369
 --------------------------------------------------------

 Normal termination of Gaussian 16 at Tue Apr  8 22:35:30 2025.
