 Gaussian 16, Revision C.01,

 ----------------------------------------------------------------------
 #t hf aug-cc-pvdz symm=none int=(grid=ultrafine) guess=(read,tcheck) s
 table=opt
 ----------------------------------------------------------------------
 -----
 title
 -----
 Symbolic Z-matrix:
 Charge =  0 Multiplicity = 2

 SCF Done:  E(UHF) =  -904.154266629     A.U. after   21 cycles
 Normal termination of Gaussian 16 at Tue Apr  8 23:45:28 2025.
 Gaussian 16:  ES64L-G16RevC.01  3-Jul-2019

 ----------------------------------------------------------------------
 #t hf aug-cc-pvdz iop(5/13=1,5/36=2,99/5=2) pseudo=read geom=check gue
 ss=(read,tcheck) scf=(maxcycle=1)
 ----------------------------------------------------------------------
 -----
 title
 -----
 Structure from the checkpoint file:  "BDE49_nonexpt_173_mol2.chk"
 Charge =  0 Multiplicity = 2

                         Standard orientation:
 ---------------------------------------------------------------------
 Center     Atomic      Atomic             Coordinates (Angstroms)
 Number     Number       Type             X           Y           Z
 ---------------------------------------------------------------------
      1         17           0       -2.316556   -0.084075    0.092049
      2          5           0       -0.730921   -0.800787    0.024473
      3         15           0        0.880954   -0.052648   -0.515999
      4          6           0        2.198920   -1.014718    0.365974
      5          6           0        1.015012    1.656241    0.209895
      6          1           0        2.078538   -2.072054    0.125817
      7          1           0        2.156142   -0.889179    1.449326
      8          1           0        3.177676   -0.689994    0.006662
      9          1           0        0.172692    2.254537   -0.141099
     10          1           0        1.936585    2.123469   -0.144546
     11          1           0        1.016518    1.647016    1.301416
 ---------------------------------------------------------------------

 SCF Done:  E(UHF) =  -905.093409528     A.U. after    2 cycles

 The electronic state is 2-A.
 Alpha  occ. eigenvalues -- -105.15921 -99.90088 -11.38242 -11.38040 -10.47319
 Alpha  occ. eigenvalues --   -9.67234  -9.66906  -9.66639  -7.67596  -2.75063
 Alpha  occ. eigenvalues --   -1.52900  -1.47865  -1.42847  -1.33440  -1.05228
 Alpha  occ. eigenvalues --   -0.97385  -0.77668  -0.64478  -0.57968  -0.57497
 Alpha  occ. eigenvalues --   -0.57298  -0.56193  -0.55249  -0.54617  -0.38586
 Alpha  occ. eigenvalues --   -0.20909  -0.14748  -0.04687
 Alpha virt. eigenvalues --    0.02244   0.04433   0.04535   0.05471   0.06795
 Alpha virt. eigenvalues --    0.06884   0.07667   0.08054   0.08274   0.09557
 Alpha virt. eigenvalues --    0.11854   0.12313   0.13374   0.14185   0.14766

  Beta  occ. eigenvalues -- -105.15908 -99.90022 -11.38189 -11.38017 -10.47244
  Beta  occ. eigenvalues --   -9.67218  -9.66655  -9.66574  -7.65720  -2.74992
  Beta  occ. eigenvalues --   -1.51805  -1.47831  -1.42989  -1.32749  -1.05008
  Beta  occ. eigenvalues --   -0.97303  -0.74272  -0.63627  -0.57941  -0.57400
  Beta  occ. eigenvalues --   -0.56773  -0.56041  -0.54556  -0.53407  -0.20949
  Beta  occ. eigenvalues --   -0.20308  -0.03415
  Beta virt. eigenvalues --    0.02591   0.04044   0.04616   0.05342   0.06813
  Beta virt. eigenvalues --    0.06984   0.07659   0.08025   0.08286   0.08329
  Beta virt. eigenvalues --    0.10127   0.12141   0.12982   0.14248   0.14555

 Mulliken charges and spin densities:
               1          2
     1  Cl  -1.193579   0.073237
     2  B    0.247842   1.051084
     3  P    5.574099  -0.129607
     4  C   -6.064174   0.020570
     5  C   -6.144692   0.020655
     6  H    1.338749   0.002653
     7  H    1.347002  -0.007476
     8  H    1.198298  -0.012021
     9  H    1.204226  -0.012950
    10  H    1.219781   0.016682
    11  H    1.272450  -0.022827
 Sum of Mulliken charges =  -0.00000   1.00000

 Dipole moment (field-independent basis, Debye):
    X=              8.0922    Y=              3.2170    Z=             -4.3370  Tot=              9.7285
                          Isotropic Fermi Contact Couplings
        Atom                 a.u.       MegaHertz       Gauss      10(-4) cm-1
     1  Cl(35)             0.00364       1.59470       0.56903       0.53194
     2  B(11)              0.07928     113.70988      40.57451      37.92953
     3  P(31)              0.00605      10.95118       3.90765       3.65292
     4  C(13)             -0.01036     -11.65033      -4.15713      -3.88613
     5  C(13)              0.01379      15.50465       5.53245       5.17180
     6  H(1)               0.00015       0.67722       0.24165       0.22590
     7  H(1)              -0.00012      -0.53678      -0.19154      -0.17905
     8  H(1)              -0.00068      -3.03694      -1.08365      -1.01301

 1\1\GINC-SE249\SP\UHF\Aug-CC-pVDZ\C2H6B1Cl1P1(2)\OHZDE\08-Apr-2025\0\\
 #t hf aug-cc-pvdz iop(5/13=1,5/36=2,99/5=2) pseudo=read geom=check gue
 ss=(read,tcheck) scf=(maxcycle=1)\\title\\0,2\Cl,0,-2.316556,-0.084075
 ,0.092049\B,0,-0.730921,-0.800787,0.024473\P,0,0.880954,-0.052648,-0.5
 15999\C,0,2.19892,-1.014718,0.365974\C,0,1.015012,1.656241,0.209895\H,
 0,2.078538,-2.072054,0.125817\H,0,2.156142,-0.889179,1.449326\H,0,3.17
 7676,-0.689994,0.006662\H,0,0.172692,2.254537,-0.141099\H,0,1.936585,2
 .123469,-0.144546\H,0,1.016518,1.647016,1.301416\\Version=ES64L-G16Rev

 Normal termination of Gaussian 16 at Tue Apr  8 23:45:33 2025.
