 Gaussian 16, Revision C.01,

 ----------------------------------------------------------------------
 #t hf aug-cc-pvdz symm=none int=(grid=ultrafine) guess=(read,tcheck) s
 table=(opt,rrhf)
 ----------------------------------------------------------------------
 -----
 title
 -----
 Symbolic Z-matrix:
 Charge =  0 Multiplicity = 1

 SCF Done:  E(RHF) =  -1454.78562887     A.U. after   15 cycles
 Normal termination of Gaussian 16 at Tue Apr  8 23:49:03 2025.
 Gaussian 16:  ES64L-G16RevC.01  3-Jul-2019

 ----------------------------------------------------------------------
 #t hf aug-cc-pvdz iop(5/13=1,5/36=2,99/5=2) pseudo=read geom=check gue
 ss=(read,tcheck) scf=(maxcycle=1)
 ----------------------------------------------------------------------
 -----
 title
 -----
 Structure from the checkpoint file:  "BDE49_nonexpt_1795_mol1.chk"
 Charge =  0 Multiplicity = 1

                         Standard orientation:
 ---------------------------------------------------------------------
 Center     Atomic      Atomic             Coordinates (Angstroms)
 Number     Number       Type             X           Y           Z
 ---------------------------------------------------------------------
      1          6           0        2.567316    0.000194    1.317571
      2          6           0        1.193441    0.000181    1.123138
      3          6           0        3.398392    0.000016    0.196745
      4          7           0        2.946373   -0.000167   -1.059339
      5          6           0        1.621309   -0.000178   -1.231677
      6          6           0        0.687366   -0.000010   -0.185357
      7          1           0        2.993177    0.000340    2.313747
      8          1           0        0.523346    0.000319    1.976342
      9          1           0        1.287247   -0.000328   -2.266493
     10         14           0       -1.125739   -0.000053   -0.575129
     11         17           0       -2.046779    1.671983    0.230179
     12         17           0       -2.046769   -1.671952    0.230475
     13          1           0        4.478568    0.000021    0.314199
     14          1           0       -1.363248   -0.000186   -2.024247
 ---------------------------------------------------------------------

 SCF Done:  E(RHF) =  -1456.57605464     A.U. after    2 cycles

 The electronic state is 1-A.
 Alpha  occ. eigenvalues --  -99.89694 -99.89686 -76.30763 -15.75334 -11.49579
 Alpha  occ. eigenvalues --  -11.46748 -11.45720 -11.42571 -11.39451 -10.47141
 Alpha  occ. eigenvalues --  -10.47093  -9.67066  -9.67003  -9.66483  -9.66447
 Alpha  occ. eigenvalues --   -9.66359  -9.66267  -5.64451  -2.28505  -2.26924
 Alpha  occ. eigenvalues --   -2.26432  -1.46233  -1.31579  -1.28933  -1.20512
 Alpha  occ. eigenvalues --   -1.13132  -0.91105  -0.90727  -0.79712  -0.73726
 Alpha  occ. eigenvalues --   -0.64581  -0.62858  -0.59942  -0.59395  -0.58634
 Alpha  occ. eigenvalues --   -0.56914  -0.55821  -0.54308  -0.53904  -0.51859
 Alpha  occ. eigenvalues --   -0.50958  -0.44727  -0.38841  -0.36827  -0.36451
 Alpha virt. eigenvalues --    0.02915   0.04818   0.05314   0.05460   0.06095
 Alpha virt. eigenvalues --    0.06161   0.07395   0.08003   0.08678   0.09365
 Alpha virt. eigenvalues --    0.09479   0.10450   0.11350   0.12227   0.12469

 Mulliken charges:
               1
     1  C   -0.607710
     2  C    0.033414
     3  C   -0.905107
     4  N   -3.554212
     5  C   -2.056144
     6  C    0.328679
     7  H    1.394808
     8  H    1.710334
     9  H    1.655740
    10  Si   4.238947
    11  Cl  -0.922663
    12  Cl  -0.922670
    13  H    1.573252
    14  H   -1.966666
 Sum of Mulliken charges =  -0.00000

 Dipole moment (field-independent basis, Debye):
    X=              1.8771    Y=              0.0002    Z=              0.9765  Tot=              2.1159

 Test job not archived.
 1\1\GINC-SE250\SP\RHF\Aug-CC-pVDZ\C5H5Cl2N1Si1\OHZDE\08-Apr-2025\0\\#t
  hf aug-cc-pvdz iop(5/13=1,5/36=2,99/5=2) pseudo=read geom=check guess
 =(read,tcheck) scf=(maxcycle=1)\\title\\0,1\C,0,2.567316,0.000194,1.31
 7571\C,0,1.193441,0.000181,1.123138\C,0,3.398392,0.000016,0.196745\N,0
 ,2.946373,-0.000167,-1.059339\C,0,1.621309,-0.000178,-1.231677\C,0,0.6
 87366,-0.00001,-0.185357\H,0,2.993177,0.00034,2.313747\H,0,0.523346,0.
 000319,1.976342\H,0,1.287247,-0.000328,-2.266493\Si,0,-1.125739,-0.000
 053,-0.575129\Cl,0,-2.046779,1.671983,0.230179\Cl,0,-2.046769,-1.67195

 Normal termination of Gaussian 16 at Tue Apr  8 23:49:10 2025.
