 Gaussian 16, Revision C.01,

 ----------------------------------------------------------------------
 #t hf aug-cc-pvdz symm=none int=(grid=ultrafine) guess=(read,tcheck) s
 table=(opt,rrhf)
 ----------------------------------------------------------------------
 -----
 title
 -----
 Symbolic Z-matrix:
 Charge =  0 Multiplicity = 1

 SCF Done:  E(RHF) =  -1008.46159311     A.U. after   15 cycles
 Normal termination of Gaussian 16 at Tue Apr  8 22:57:53 2025.
 Gaussian 16:  ES64L-G16RevC.01  3-Jul-2019

 ----------------------------------------------------------------------
 #t hf aug-cc-pvdz iop(5/13=1,5/36=2,99/5=2) pseudo=read geom=check gue
 ss=(read,tcheck) scf=(maxcycle=1)
 ----------------------------------------------------------------------
 -----
 title
 -----
 Structure from the checkpoint file:  "BDE49_expt_1867_mol1.chk"
 Charge =  0 Multiplicity = 1

                         Standard orientation:
 ---------------------------------------------------------------------
 Center     Atomic      Atomic             Coordinates (Angstroms)
 Number     Number       Type             X           Y           Z
 ---------------------------------------------------------------------
      1          8           0        0.999159    0.687728   -0.499078
      2          8           0       -0.107304   -0.105679   -0.981524
      3          6           0        1.997368   -0.152781   -0.067301
      4         16           0       -1.318892   -0.127685    0.139364
      5          9           0       -1.802025    1.380952   -0.034332
      6          8           0       -2.290518   -0.965116   -0.456349
      7          8           0       -0.793319   -0.238620    1.449493
      8          8           0        2.016311   -1.322415   -0.012429
      9          9           0        2.971295    0.675989    0.275784
 ---------------------------------------------------------------------

 SCF Done:  E(RHF) =  -1011.06952177     A.U. after    2 cycles

 The electronic state is 1-A.
 Alpha  occ. eigenvalues --  -76.02661 -29.37171 -29.36719 -21.22842 -21.21947
 Alpha  occ. eigenvalues --  -21.14501 -21.14352 -21.13659 -13.67415 -13.56455
 Alpha  occ. eigenvalues --  -13.50073 -11.63267  -8.38406  -2.11536  -1.93354
 Alpha  occ. eigenvalues --   -1.80985  -1.75263  -1.59823  -1.14846  -1.07691
 Alpha  occ. eigenvalues --   -0.83242  -0.77804  -0.72528  -0.68890  -0.64719
 Alpha  occ. eigenvalues --   -0.61672  -0.56193  -0.53980  -0.53090  -0.49928
 Alpha  occ. eigenvalues --   -0.47969  -0.46903  -0.44678  -0.41104  -0.38705
 Alpha  occ. eigenvalues --   -0.38293  -0.36706  -0.35432  -0.34944  -0.33149
 Alpha virt. eigenvalues --    0.07894   0.08659   0.09139   0.10297   0.10412
 Alpha virt. eigenvalues --    0.11389   0.11945   0.15558   0.16121   0.16747
 Alpha virt. eigenvalues --    0.17835   0.18451   0.19760   0.20935   0.21328

 Mulliken charges:
               1
     1  O   -1.324942
     2  O   -1.684908
     3  C    3.177424
     4  S    6.381743
     5  F    0.255907
     6  O   -2.533158
     7  O   -2.597414
     8  O   -2.564649
     9  F    0.889996
 Sum of Mulliken charges =  -0.00000

 Dipole moment (field-independent basis, Debye):
    X=              1.7408    Y=              6.0975    Z=              0.0605  Tot=              6.3414

 Test job not archived.
 1\1\GINC-SE125\SP\RHF\Aug-CC-pVDZ\C1F2O5S1\OHZDE\08-Apr-2025\0\\#t hf
 aug-cc-pvdz iop(5/13=1,5/36=2,99/5=2) pseudo=read geom=check guess=(re
 ad,tcheck) scf=(maxcycle=1)\\title\\0,1\O,0,0.999159,0.687728,-0.49907
 8\O,0,-0.107304,-0.105679,-0.981524\C,0,1.997368,-0.152781,-0.067301\S
 ,0,-1.318892,-0.127685,0.139364\F,0,-1.802025,1.380952,-0.034332\O,0,-
 2.290518,-0.965116,-0.456349\O,0,-0.793319,-0.23862,1.449493\O,0,2.016
 311,-1.322415,-0.012429\F,0,2.971295,0.675989,0.275784\\Version=ES64L-
 G16RevC.01\State=1-A\HF=-1011.0695218\RMSD=3.936e-02\Dipole=0.6848869,

 Normal termination of Gaussian 16 at Tue Apr  8 22:57:58 2025.
