 Gaussian 16, Revision C.01,

 ----------------------------------------------------------------------
 #t hf aug-cc-pvdz symm=none int=(grid=ultrafine) guess=(read,tcheck) s
 table=(opt,rrhf)
 ----------------------------------------------------------------------
 -----
 title
 -----
 Symbolic Z-matrix:
 Charge =  0 Multiplicity = 1

 SCF Done:  E(RHF) =  -687.807449017     A.U. after   14 cycles
 Normal termination of Gaussian 16 at Tue Apr  8 23:10:49 2025.
 Gaussian 16:  ES64L-G16RevC.01  3-Jul-2019

 ----------------------------------------------------------------------
 #t hf aug-cc-pvdz iop(5/13=1,5/36=2,99/5=2) pseudo=read geom=check gue
 ss=(read,tcheck) scf=(maxcycle=1)
 ----------------------------------------------------------------------
 -----
 title
 -----
 Structure from the checkpoint file:  "BDE49_expt_623_mol1.chk"
 Charge =  0 Multiplicity = 1

                         Standard orientation:
 ---------------------------------------------------------------------
 Center     Atomic      Atomic             Coordinates (Angstroms)
 Number     Number       Type             X           Y           Z
 ---------------------------------------------------------------------
      1          6           0       -0.105543    0.465328    0.344771
      2          8           0        1.061200    0.563884   -0.387441
      3          8           0        2.042805   -0.337305    0.169185
      4          1           0        1.860949   -1.143277   -0.340310
      5          6           0       -0.987840    1.633593   -0.028697
      6          1           0       -0.489307    2.562233    0.258959
      7          1           0       -1.942064    1.560103    0.492011
      8          1           0       -1.168619    1.643081   -1.104019
      9         17           0       -0.978822   -1.141421   -0.050894
     10          1           0        0.107264    0.375852    1.408156
 ---------------------------------------------------------------------

 SCF Done:  E(RHF) =  -689.048626152     A.U. after    2 cycles

 The electronic state is 1-A.
 Alpha  occ. eigenvalues --  -99.87922 -21.13787 -21.12663 -11.50354 -11.39757
 Alpha  occ. eigenvalues --  -10.45155  -9.65049  -9.64418  -9.64305  -1.97677
 Alpha  occ. eigenvalues --   -1.48702  -1.29537  -1.11414  -0.89210  -0.71024
 Alpha  occ. eigenvalues --   -0.65162  -0.63061  -0.59940  -0.54338  -0.54070
 Alpha  occ. eigenvalues --   -0.49181  -0.48835  -0.44077  -0.35903  -0.34611
 Alpha virt. eigenvalues --    0.03787   0.05354   0.05677   0.06371   0.06796
 Alpha virt. eigenvalues --    0.08261   0.10959   0.12316   0.13523   0.13837
 Alpha virt. eigenvalues --    0.15459   0.15547   0.16914   0.17822   0.18125

 Mulliken charges:
               1
     1  C   -0.762206
     2  O   -1.674395
     3  O   -0.851245
     4  H    0.870492
     5  C   -3.178294
     6  H    1.260579
     7  H    1.221753
     8  H    1.265219
     9  Cl   0.003625
    10  H    1.844473
 Sum of Mulliken charges =  -0.00000

 Dipole moment (field-independent basis, Debye):
    X=              0.9797    Y=              1.8792    Z=              0.4033  Tot=              2.1573

 Test job not archived.
 1\1\GINC-SE328\SP\RHF\Aug-CC-pVDZ\C2H5Cl1O2\OHZDE\08-Apr-2025\0\\#t hf
  aug-cc-pvdz iop(5/13=1,5/36=2,99/5=2) pseudo=read geom=check guess=(r
 ead,tcheck) scf=(maxcycle=1)\\title\\0,1\C,0,-0.105543,0.465328,0.3447
 71\O,0,1.061201,0.563883,-0.387441\O,0,2.042805,-0.337307,0.169185\H,0
 ,1.860948,-1.143279,-0.34031\C,0,-0.987838,1.633594,-0.028697\H,0,-0.4
 89304,2.562233,0.258959\H,0,-1.942062,1.560105,0.492011\H,0,-1.168617,
 1.643082,-1.104019\Cl,0,-0.978823,-1.14142,-0.050894\H,0,0.107264,0.37
 5852,1.408156\\Version=ES64L-G16RevC.01\State=1-A\HF=-689.0486262\RMSD

 Normal termination of Gaussian 16 at Tue Apr  8 23:10:52 2025.
