 Gaussian 16, Revision C.01,

 ----------------------------------------------------------------------
 #t hf aug-cc-pvdz symm=none int=(grid=ultrafine) guess=(read,tcheck) s
 table=(opt,rrhf)
 ----------------------------------------------------------------------
 -----
 title
 -----
 Symbolic Z-matrix:
 Charge =  0 Multiplicity = 1

 SCF Done:  E(RHF) =  -663.970462859     A.U. after   17 cycles
 Normal termination of Gaussian 16 at Tue Apr  8 23:20:52 2025.
 Gaussian 16:  ES64L-G16RevC.01  3-Jul-2019

 ----------------------------------------------------------------------
 #t hf aug-cc-pvdz iop(5/13=1,5/36=2,99/5=2) pseudo=read geom=check gue
 ss=(read,tcheck) scf=(maxcycle=1)
 ----------------------------------------------------------------------
 -----
 title
 -----
 Structure from the checkpoint file:  "BDE49_nonexpt_1138_mol1.chk"
 Charge =  0 Multiplicity = 1

                         Standard orientation:
 ---------------------------------------------------------------------
 Center     Atomic      Atomic             Coordinates (Angstroms)
 Number     Number       Type             X           Y           Z
 ---------------------------------------------------------------------
      1          9           0       -1.810954   -0.911253   -0.289246
      2          8           0       -1.108010    0.096375    0.636497
      3          6           0        1.387883   -0.154692   -0.008934
      4          7           0        2.351567   -0.791873    0.064984
      5         16           0        0.023400    0.868846   -0.180628
 ---------------------------------------------------------------------

 SCF Done:  E(RHF) =  -665.219929036     A.U. after    2 cycles

 The electronic state is 1-A.
 Alpha  occ. eigenvalues --  -75.83652 -29.32713 -21.23801 -15.81495 -13.34586
 Alpha  occ. eigenvalues --  -13.26108 -13.16377 -11.47060  -8.17827  -1.86918
 Alpha  occ. eigenvalues --   -1.35157  -1.16583  -0.77796  -0.70116  -0.60084
 Alpha  occ. eigenvalues --   -0.57630  -0.52742  -0.49104  -0.47480  -0.41216
 Alpha  occ. eigenvalues --   -0.30547  -0.27661  -0.25995
 Alpha virt. eigenvalues --    0.04161   0.06002   0.07819   0.10328   0.11853
 Alpha virt. eigenvalues --    0.12371   0.13186   0.13806   0.15730   0.17551
 Alpha virt. eigenvalues --    0.18751   0.20790   0.21249   0.23609   0.25454

 Mulliken charges:
               1
     1  F    0.038029
     2  O   -1.334809
     3  C    0.765568
     4  N   -1.946900
     5  S    2.478112
 Sum of Mulliken charges =  -0.00000

 Dipole moment (field-independent basis, Debye):
    X=             -3.7224    Y=              1.2416    Z=             -1.6143  Tot=              4.2431

 Test job not archived.
 1\1\GINC-SE253\SP\RHF\Aug-CC-pVDZ\C1F1N1O1S1\OHZDE\08-Apr-2025\0\\#t h
 f aug-cc-pvdz iop(5/13=1,5/36=2,99/5=2) pseudo=read geom=check guess=(
 read,tcheck) scf=(maxcycle=1)\\title\\0,1\F,0,-1.810954,-0.911253,-0.2
 89246\O,0,-1.10801,0.096375,0.636497\C,0,1.387883,-0.154692,-0.008934\
 N,0,2.351567,-0.791873,0.064984\S,0,0.0234,0.868846,-0.180628\\Version
 =ES64L-G16RevC.01\State=1-A\HF=-665.219929\RMSD=7.719e-02\Dipole=-1.46
 44881,0.4884791,-0.6351172\Quadrupole=-1.9202285,1.9882744,-0.0680459,
 2.4770855,0.1458596,-1.1440595\PG=C01 [X(C1F1N1O1S1)]\\@

 Normal termination of Gaussian 16 at Tue Apr  8 23:20:54 2025.
