 Gaussian 16, Revision C.01,

 ----------------------------------------------------------------------
 #t hf aug-cc-pvdz symm=none int=(grid=ultrafine) guess=(read,tcheck) s
 table=(opt,rrhf)
 ----------------------------------------------------------------------
 -----
 title
 -----
 Symbolic Z-matrix:
 Charge =  0 Multiplicity = 1

 SCF Done:  E(RHF) =  -1329.37519980     A.U. after   17 cycles
 Normal termination of Gaussian 16 at Wed Apr  9 00:31:05 2025.
 Gaussian 16:  ES64L-G16RevC.01  3-Jul-2019

 ----------------------------------------------------------------------
 #t hf aug-cc-pvdz iop(5/13=1,5/36=2,99/5=2) pseudo=read geom=check gue
 ss=(read,tcheck) scf=(maxcycle=1)
 ----------------------------------------------------------------------
 -----
 title
 -----
 Structure from the checkpoint file:  "BDE49_nonexpt_2724_mol1.chk"
 Charge =  0 Multiplicity = 1

                         Standard orientation:
 ---------------------------------------------------------------------
 Center     Atomic      Atomic             Coordinates (Angstroms)
 Number     Number       Type             X           Y           Z
 ---------------------------------------------------------------------
      1          6           0        0.700328    0.063523   -0.548763
      2          8           0        0.131454    0.872109   -1.227972
      3         16           0       -0.192575   -1.378341    0.190846
      4         16           0       -2.039718   -1.194482   -0.706298
      5          6           0       -2.825814    0.147277    0.289882
      6          8           0       -2.299738    0.656392    1.232213
      7          6           0        2.143207    0.144500   -0.181211
      8          6           0        2.806037    1.350353   -0.447159
      9          6           0        4.151022    1.491309   -0.131691
     10          6           0        4.848023    0.429188    0.444838
     11          6           0        4.196561   -0.775169    0.703748
     12          6           0        2.848379   -0.919656    0.392644
     13          1           0        2.356139   -1.865634    0.583499
     14          1           0        2.247651    2.160825   -0.898182
     15          1           0        4.657787    2.427644   -0.334727
     16          1           0        5.898418    0.539325    0.689610
     17          1           0        4.738968   -1.603549    1.144036
     18          6           0       -4.183591    0.521393   -0.278265
     19          6           0       -5.068845    1.247717    0.735057
     20          1           0       -4.670779   -0.376647   -0.671220
     21          1           0       -3.980423    1.160563   -1.146036
     22          1           0       -5.309618    0.601003    1.581582
     23          1           0       -6.004168    1.559414    0.265359
     24          1           0       -4.562871    2.131616    1.124916
 ---------------------------------------------------------------------

 SCF Done:  E(RHF) =  -1332.27301283     A.U. after    2 cycles

 The electronic state is 1-A.
 Alpha  occ. eigenvalues --  -75.72336 -75.72044 -21.07297 -21.07127 -13.20639
 Alpha  occ. eigenvalues --  -13.15107 -13.13847 -13.11747 -13.06504 -13.05722
 Alpha  occ. eigenvalues --  -11.53507 -11.52537 -11.51770 -11.45335 -11.44737
 Alpha  occ. eigenvalues --  -11.43142 -11.42680 -11.42385 -11.38398 -11.37681
 Alpha  occ. eigenvalues --   -8.06321  -8.06087  -1.73587  -1.72939  -1.36241
 Alpha  occ. eigenvalues --   -1.25184  -1.18981  -1.13458  -1.11024  -1.04661
 Alpha  occ. eigenvalues --   -0.94786  -0.91205  -0.88077  -0.78692  -0.73773
 Alpha  occ. eigenvalues --   -0.71608  -0.65210  -0.64425  -0.62878  -0.61162
 Alpha  occ. eigenvalues --   -0.60001  -0.58664  -0.55668  -0.54604  -0.52540
 Alpha  occ. eigenvalues --   -0.51932  -0.51353  -0.48603  -0.47780  -0.47044
 Alpha  occ. eigenvalues --   -0.45950  -0.44684  -0.36606  -0.34645  -0.33543
 Alpha  occ. eigenvalues --   -0.29267  -0.28435  -0.25728  -0.24609
 Alpha virt. eigenvalues --    0.02980   0.03513   0.04912   0.05001   0.05525
 Alpha virt. eigenvalues --    0.06204   0.06386   0.06618   0.07138   0.07663
 Alpha virt. eigenvalues --    0.07834   0.08661   0.09001   0.10693   0.10752

 Mulliken charges:
               1
     1  C    0.955670
     2  O   -3.581936
     3  S   -0.220615
     4  S   -0.179965
     5  C    3.890655
     6  O   -3.130846
     7  C    4.528144
     8  C   -3.190085
     9  C   -1.127521
    10  C   -2.925532
    11  C   -2.586240
    12  C    0.023106
    13  H    2.086479
    14  H    1.715066
    15  H    1.477405
    16  H    1.527143
    17  H    1.514998
    18  C   -4.041193
    19  C   -3.742875
    20  H    1.719041
    21  H    1.520468
    22  H    1.272137
    23  H    1.108573
    24  H    1.387925
 Sum of Mulliken charges =  -0.00000

 Dipole moment (field-independent basis, Debye):
    X=              0.6865    Y=             -0.5208    Z=              0.0838  Tot=              0.8658

 Test job not archived.
 1\1\GINC-SE343\SP\RHF\Aug-CC-pVDZ\C10H10O2S2\OHZDE\09-Apr-2025\0\\#t h
 f aug-cc-pvdz iop(5/13=1,5/36=2,99/5=2) pseudo=read geom=check guess=(
 read,tcheck) scf=(maxcycle=1)\\title\\0,1\C,0,0.700328,0.063523,-0.548
 763\O,0,0.131454,0.872109,-1.227972\S,0,-0.192575,-1.378341,0.190846\S
 ,0,-2.039718,-1.194482,-0.706298\C,0,-2.825814,0.147277,0.289882\O,0,-
 2.299738,0.656392,1.232213\C,0,2.143207,0.1445,-0.181211\C,0,2.806037,
 1.350353,-0.447159\C,0,4.151022,1.491309,-0.131691\C,0,4.848023,0.4291
 88,0.444838\C,0,4.196561,-0.775169,0.703748\C,0,2.848379,-0.919656,0.3

 Normal termination of Gaussian 16 at Wed Apr  9 00:31:24 2025.
