 Gaussian 16, Revision C.01,

 ----------------------------------------------------------------------
 #t hf aug-cc-pvdz symm=none int=(grid=ultrafine) guess=(read,tcheck) s
 table=(opt,rrhf)
 ----------------------------------------------------------------------
 -----
 title
 -----
 Symbolic Z-matrix:
 Charge =  0 Multiplicity = 1

 SCF Done:  E(RHF) =  -912.639107568     A.U. after   12 cycles
 Normal termination of Gaussian 16 at Wed Apr  9 00:16:33 2025.
 Gaussian 16:  ES64L-G16RevC.01  3-Jul-2019

 ----------------------------------------------------------------------
 #t hf aug-cc-pvdz iop(5/13=1,5/36=2,99/5=2) pseudo=read geom=check gue
 ss=(read,tcheck) scf=(maxcycle=1)
 ----------------------------------------------------------------------
 -----
 title
 -----
 Structure from the checkpoint file:  "BDE49_nonexpt_2527_mol1.chk"
 Charge =  0 Multiplicity = 1

                         Standard orientation:
 ---------------------------------------------------------------------
 Center     Atomic      Atomic             Coordinates (Angstroms)
 Number     Number       Type             X           Y           Z
 ---------------------------------------------------------------------
      1         17           0       -1.412168    0.214298   -0.000014
      2          7           0        1.633394    0.604184    0.000017
      3         16           0        0.566766   -0.634259    0.000005
      4          1           0        1.752465    1.137885    0.851827
      5          1           0        1.752385    1.137906   -0.851792
 ---------------------------------------------------------------------

 SCF Done:  E(RHF) =  -913.366947411     A.U. after    2 cycles

 The electronic state is 1-A.
 Alpha  occ. eigenvalues --  -99.88630 -75.76575 -15.80441 -13.22363 -13.09732
 Alpha  occ. eigenvalues --  -13.08564 -10.45701  -9.65403  -9.64843  -9.64788
 Alpha  occ. eigenvalues --   -8.10277  -1.41460  -1.27195  -1.00534  -0.71614
 Alpha  occ. eigenvalues --   -0.62705  -0.55005  -0.52889  -0.46365  -0.43473
 Alpha  occ. eigenvalues --   -0.26338
 Alpha virt. eigenvalues --    0.02776   0.05267   0.05293   0.07705   0.12337
 Alpha virt. eigenvalues --    0.14282   0.14631   0.15216   0.16711   0.17229
 Alpha virt. eigenvalues --    0.18012   0.19926   0.21097   0.23870   0.24626

 Mulliken charges:
               1
     1  Cl  -0.414489
     2  N   -2.370107
     3  S    1.498738
     4  H    0.642926
     5  H    0.642932
 Sum of Mulliken charges =   0.00000

 Dipole moment (field-independent basis, Debye):
    X=              3.7344    Y=             -0.5385    Z=              0.0000  Tot=              3.7730

 Test job not archived.
 1\1\GINC-SE058\SP\RHF\Aug-CC-pVDZ\Cl1H2N1S1\OHZDE\09-Apr-2025\0\\#t hf
  aug-cc-pvdz iop(5/13=1,5/36=2,99/5=2) pseudo=read geom=check guess=(r
 ead,tcheck) scf=(maxcycle=1)\\title\\0,1\Cl,0,-1.412168,0.214298,-0.00
 0014\N,0,1.633394,0.604184,0.000017\S,0,0.566766,-0.634259,0.000005\H,
 0,1.752465,1.137885,0.851827\H,0,1.752385,1.137906,-0.851792\\Version=
 ES64L-G16RevC.01\State=1-A\HF=-913.3669474\RMSD=3.669e-02\Dipole=1.469
 2253,-0.2118443,0.0000098\Quadrupole=-0.761476,2.2013309,-1.4398549,1.
 213473,0.0001415,0.0000301\PG=C01 [X(Cl1H2N1S1)]\\@

 Normal termination of Gaussian 16 at Wed Apr  9 00:16:35 2025.
