 Gaussian 16, Revision C.01,

 ----------------------------------------------------------------------
 #t hf aug-cc-pvdz symm=none int=(grid=ultrafine) guess=(read,tcheck) s
 table=(opt,rrhf)
 ----------------------------------------------------------------------
 -----
 title
 -----
 Symbolic Z-matrix:
 Charge =  0 Multiplicity = 1

 SCF Done:  E(RHF) =  -605.821755638     A.U. after   15 cycles
 Normal termination of Gaussian 16 at Tue Apr  8 23:32:05 2025.
 Gaussian 16:  ES64L-G16RevC.01  3-Jul-2019

 ----------------------------------------------------------------------
 #t hf aug-cc-pvdz iop(5/13=1,5/36=2,99/5=2) pseudo=read geom=check gue
 ss=(read,tcheck) scf=(maxcycle=1)
 ----------------------------------------------------------------------
 -----
 title
 -----
 Structure from the checkpoint file:  "BDE49_nonexpt_1401_mol1.chk"
 Charge =  0 Multiplicity = 1

                         Standard orientation:
 ---------------------------------------------------------------------
 Center     Atomic      Atomic             Coordinates (Angstroms)
 Number     Number       Type             X           Y           Z
 ---------------------------------------------------------------------
      1         15           0       -0.342212   -1.274862   -0.111671
      2          6           0        0.957492    0.091628   -0.007790
      3          8           0        0.322276    1.334699   -0.011931
      4          6           0       -1.048119    1.226270    0.010467
      5          6           0       -1.609114    0.016318    0.051476
      6          8           0        2.142849    0.003912    0.021296
      7          1           0       -2.677463   -0.140028    0.038932
      8          1           0       -1.538499    2.189776   -0.013658
      9          1           0       -0.173412   -1.640995    1.249945
 ---------------------------------------------------------------------

 SCF Done:  E(RHF) =  -607.130538458     A.U. after    2 cycles

 The electronic state is 1-A.
 Alpha  occ. eigenvalues -- -105.21233 -21.12347 -21.07750 -11.52106 -11.48935
 Alpha  occ. eigenvalues --  -11.40681  -2.79328  -1.86828  -1.69869  -1.53016
 Alpha  occ. eigenvalues --   -1.48606  -1.47057  -1.11836  -0.91686  -0.76024
 Alpha  occ. eigenvalues --   -0.70259  -0.68769  -0.58739  -0.55070  -0.49924
 Alpha  occ. eigenvalues --   -0.46179  -0.42814  -0.31585  -0.26477  -0.19036
 Alpha  occ. eigenvalues --   -0.04477
 Alpha virt. eigenvalues --    0.03264   0.04889   0.06307   0.07362   0.09130
 Alpha virt. eigenvalues --    0.09553   0.10406   0.11270   0.12701   0.12969
 Alpha virt. eigenvalues --    0.13684   0.14052   0.14485   0.15383   0.16306

 Mulliken charges:
               1
     1  P    3.430707
     2  C    2.782831
     3  O   -3.486808
     4  C    0.859278
     5  C   -3.062311
     6  O   -2.900089
     7  H    1.037492
     8  H    1.567074
     9  H   -0.228173
 Sum of Mulliken charges =  -0.00000

 Dipole moment (field-independent basis, Debye):
    X=             -2.4781    Y=             -1.8606    Z=             -2.0459  Tot=              3.7133

 Test job not archived.
 1\1\GINC-SE435\SP\RHF\Aug-CC-pVDZ\C3H3O2P1\OHZDE\08-Apr-2025\0\\#t hf
 aug-cc-pvdz iop(5/13=1,5/36=2,99/5=2) pseudo=read geom=check guess=(re
 ad,tcheck) scf=(maxcycle=1)\\title\\0,1\P,0,-0.342213,-1.274862,-0.111
 671\C,0,0.957492,0.091627,-0.00779\O,0,0.322277,1.334699,-0.011931\C,0
 ,-1.048118,1.226271,0.010467\C,0,-1.609114,0.016319,0.051476\O,0,2.142
 849,0.00391,0.021296\H,0,-2.677463,-0.140026,0.038932\H,0,-1.538497,2.
 189777,-0.013658\H,0,-0.173413,-1.640995,1.249945\\Version=ES64L-G16Re
 vC.01\State=1-A\HF=-607.1305385\RMSD=7.678e-01\Dipole=-0.9749584,-0.73

 Normal termination of Gaussian 16 at Tue Apr  8 23:32:08 2025.
