 Gaussian 16, Revision C.01,

 ----------------------------------------------------------------------
 #t hf aug-cc-pvdz symm=none int=(grid=ultrafine) guess=(read,tcheck) s
 table=(opt,rrhf)
 ----------------------------------------------------------------------
 -----
 title
 -----
 Symbolic Z-matrix:
 Charge =  0 Multiplicity = 1

 SCF Done:  E(RHF) =  -535.971647861     A.U. after   15 cycles
 Normal termination of Gaussian 16 at Wed Apr  9 00:29:13 2025.
 Gaussian 16:  ES64L-G16RevC.01  3-Jul-2019

 ----------------------------------------------------------------------
 #t hf aug-cc-pvdz iop(5/13=1,5/36=2,99/5=2) pseudo=read geom=check gue
 ss=(read,tcheck) scf=(maxcycle=1)
 ----------------------------------------------------------------------
 -----
 title
 -----
 Structure from the checkpoint file:  "BDE49_nonexpt_285_mol1.chk"
 Charge =  0 Multiplicity = 1

                         Standard orientation:
 ---------------------------------------------------------------------
 Center     Atomic      Atomic             Coordinates (Angstroms)
 Number     Number       Type             X           Y           Z
 ---------------------------------------------------------------------
      1          6           0        0.151101   -0.190410   -0.296910
      2          7           0       -0.004619    1.311137   -0.259602
      3          5           0        1.683897   -0.632396   -0.150276
      4          8           0        0.544989    1.916566    0.665391
      5          8           0       -0.677174    1.845920   -1.120525
      6          8           0        1.997325   -1.837487   -0.697506
      7          8           0        2.611898    0.092686    0.516891
      8          1           0       -0.252946   -0.485429   -1.263598
      9          6           0       -0.690818   -0.802090    0.849858
     10          6           0       -2.191666   -0.474124    0.818833
     11          1           0       -0.263888   -0.480769    1.804219
     12          1           0       -0.547489   -1.885680    0.785763
     13          6           0       -2.925546   -0.959688   -0.434736
     14          1           0       -2.335940    0.605499    0.935469
     15          1           0       -2.642532   -0.932823    1.705253
     16          1           0       -2.587592   -0.433822   -1.330661
     17          1           0       -4.000295   -0.784477   -0.343591
     18          1           0       -2.776194   -2.032645   -0.592250
     19          1           0        2.230294    0.913994    0.865171
     20          1           0        2.914687   -2.083431   -0.533461
 ---------------------------------------------------------------------

 SCF Done:  E(RHF) =  -538.336771851     A.U. after    2 cycles

 The electronic state is 1-A.
 Alpha  occ. eigenvalues --  -21.10921 -21.09482 -21.07359 -21.06356 -15.99621
 Alpha  occ. eigenvalues --  -11.48141 -11.43726 -11.40184 -11.36617  -7.66316
 Alpha  occ. eigenvalues --   -2.00318  -1.83305  -1.69803  -1.67313  -1.28859
 Alpha  occ. eigenvalues --   -1.15851  -1.01268  -0.90451  -0.83115  -0.77848
 Alpha  occ. eigenvalues --   -0.71129  -0.70739  -0.65731  -0.62986  -0.61935
 Alpha  occ. eigenvalues --   -0.60949  -0.57619  -0.56181  -0.54191  -0.50719
 Alpha  occ. eigenvalues --   -0.48098  -0.47398  -0.46208  -0.44493  -0.39033
 Alpha  occ. eigenvalues --   -0.37878  -0.34256  -0.32155  -0.31819
 Alpha virt. eigenvalues --    0.03386   0.04287   0.04706   0.05087   0.05425
 Alpha virt. eigenvalues --    0.06050   0.06667   0.07046   0.07630   0.08643
 Alpha virt. eigenvalues --    0.08716   0.09055   0.09235   0.11083   0.13123

 Mulliken charges:
               1
     1  C   -2.843457
     2  N    4.146063
     3  B    7.692442
     4  O   -2.843780
     5  O   -2.800422
     6  O   -4.544819
     7  O   -4.256413
     8  H    2.579684
     9  C   -1.829880
    10  C   -3.252853
    11  H    1.280794
    12  H    1.327258
    13  C   -3.876220
    14  H    1.461118
    15  H    1.237636
    16  H    1.443769
    17  H    1.130770
    18  H    1.323159
    19  H    1.521312
    20  H    1.103839
 Sum of Mulliken charges =  -0.00000

 Dipole moment (field-independent basis, Debye):
    X=             -0.3840    Y=             -1.6596    Z=              0.5828  Tot=              1.8004

 Test job not archived.
 1\1\GINC-SE344\SP\RHF\Aug-CC-pVDZ\C4H10B1N1O4\OHZDE\09-Apr-2025\0\\#t
 hf aug-cc-pvdz iop(5/13=1,5/36=2,99/5=2) pseudo=read geom=check guess=
 (read,tcheck) scf=(maxcycle=1)\\title\\0,1\C,0,0.151101,-0.19041,-0.29
 691\N,0,-0.004619,1.311137,-0.259602\B,0,1.683897,-0.632396,-0.150276\
 O,0,0.544989,1.916566,0.665391\O,0,-0.677174,1.84592,-1.120525\O,0,1.9
 97325,-1.837487,-0.697506\O,0,2.611898,0.092686,0.516891\H,0,-0.252946
 ,-0.485429,-1.263598\C,0,-0.690818,-0.80209,0.849858\C,0,-2.191666,-0.
 474124,0.818833\H,0,-0.263888,-0.480769,1.804219\H,0,-0.547489,-1.8856

 Normal termination of Gaussian 16 at Wed Apr  9 00:29:24 2025.
