 Gaussian 16, Revision C.01,

 ----------------------------------------------------------------------
 #t hf aug-cc-pvdz symm=none int=(grid=ultrafine) guess=(read,tcheck) s
 table=(opt,rrhf)
 ----------------------------------------------------------------------
 -----
 title
 -----
 Symbolic Z-matrix:
 Charge =  0 Multiplicity = 1

 SCF Done:  E(RHF) =  -1248.26458094     A.U. after   11 cycles
 Normal termination of Gaussian 16 at Tue Apr  8 23:46:15 2025.
 Gaussian 16:  ES64L-G16RevC.01  3-Jul-2019

 ----------------------------------------------------------------------
 #t hf aug-cc-pvdz iop(5/13=1,5/36=2,99/5=2) pseudo=read geom=check gue
 ss=(read,tcheck) scf=(maxcycle=1)
 ----------------------------------------------------------------------
 -----
 title
 -----
 Structure from the checkpoint file:  "BDE49_nonexpt_1756_mol1.chk"
 Charge =  0 Multiplicity = 1

                         Standard orientation:
 ---------------------------------------------------------------------
 Center     Atomic      Atomic             Coordinates (Angstroms)
 Number     Number       Type             X           Y           Z
 ---------------------------------------------------------------------
      1          6           0        0.000001    2.024866   -0.305345
      2         14           0        0.000000    0.332874    0.453812
      3          1           0       -0.000004    1.962261   -1.395823
      4          1           0        0.888610    2.577520    0.011862
      5          1           0       -0.888602    2.577525    0.011869
      6         17           0        1.686286   -0.713698   -0.149203
      7         17           0       -1.686286   -0.713697   -0.149203
      8          1           0        0.000000    0.338981    1.923713
 ---------------------------------------------------------------------

 SCF Done:  E(RHF) =  -1249.11958589     A.U. after    2 cycles

 The electronic state is 1-A.
 Alpha  occ. eigenvalues --  -99.89140 -99.89140 -76.29852 -11.37552 -10.46610
 Alpha  occ. eigenvalues --  -10.46564  -9.66463  -9.66459  -9.65906  -9.65831
 Alpha  occ. eigenvalues --   -9.65821  -9.65722  -5.63537  -2.26403  -2.25559
 Alpha  occ. eigenvalues --   -2.24985  -1.31209  -1.28416  -1.06559  -0.77122
 Alpha  occ. eigenvalues --   -0.61069  -0.60498  -0.57406  -0.56696  -0.55887
 Alpha  occ. eigenvalues --   -0.53168  -0.51354  -0.50974  -0.44325
 Alpha virt. eigenvalues --    0.02914   0.05528   0.05677   0.05689   0.07298
 Alpha virt. eigenvalues --    0.07504   0.09048   0.10566   0.11413   0.12869
 Alpha virt. eigenvalues --    0.13264   0.14405   0.14444   0.15702   0.15822

 Mulliken charges:
               1
     1  C   -4.646220
     2  Si   4.560439
     3  H    1.183807
     4  H    1.282744
     5  H    1.282744
     6  Cl  -0.816986
     7  Cl  -0.816986
     8  H   -2.029543
 Sum of Mulliken charges =  -0.00000

 Dipole moment (field-independent basis, Debye):
    X=              0.0000    Y=              2.2945    Z=              0.2714  Tot=              2.3105

 Test job not archived.
 1\1\GINC-SE102\SP\RHF\Aug-CC-pVDZ\C1H4Cl2Si1\OHZDE\08-Apr-2025\0\\#t h
 f aug-cc-pvdz iop(5/13=1,5/36=2,99/5=2) pseudo=read geom=check guess=(
 read,tcheck) scf=(maxcycle=1)\\title\\0,1\C,0,0.,2.024866,-0.305345\Si
 ,0,0.,0.332874,0.453812\H,0,-0.000005,1.962261,-1.395823\H,0,0.888608,
 2.577521,0.011862\H,0,-0.888604,2.577524,0.011869\Cl,0,1.686286,-0.713
 697,-0.149203\Cl,0,-1.686286,-0.713698,-0.149203\H,0,0.,0.338981,1.923
 713\\Version=ES64L-G16RevC.01\State=1-A\HF=-1249.1195859\RMSD=7.161e-0
 2\Dipole=0.0000006,0.902736,0.1067873\Quadrupole=-1.276966,1.5811481,-

 Normal termination of Gaussian 16 at Tue Apr  8 23:46:18 2025.
