 Gaussian 16, Revision C.01,

 ----------------------------------------------------------------------
 #t hf aug-cc-pvdz symm=none int=(grid=ultrafine) guess=(read,tcheck) s
 table=(opt,rrhf)
 ----------------------------------------------------------------------
 -----
 title
 -----
 Symbolic Z-matrix:
 Charge =  0 Multiplicity = 1

 SCF Done:  E(RHF) =  -309.105054408     A.U. after   14 cycles

 1\1\GINC-SE402\Stability\RHF\Aug-CC-pVDZ\C6H12O1\OHZDE\08-Apr-2025\0\\
 #t hf aug-cc-pvdz symm=none int=(grid=ultrafine) guess=(read,tcheck) s
 table=(opt,rrhf)\\title\\0,1\C,0,0.759771,0.972687,-0.219608\C,0,2.102
 654,0.279087,-0.464563\C,0,2.588895,-0.546465,0.730704\H,0,2.849461,1.
 040192,-0.713089\H,0,2.004356,-0.369492,-1.339081\H,0,2.704862,0.07773
 6,1.62306\H,0,3.558477,-1.005689,0.520828\H,0,1.885957,-1.349052,0.963
 955\C,0,-0.441893,0.032427,-0.189241\H,0,0.555164,1.700162,-1.017324\H
 ,0,0.778157,1.559345,0.707455\O,0,-0.375396,-1.106408,-0.595741\C,0,-1

 Normal termination of Gaussian 16 at Tue Apr  8 22:37:09 2025.
 Gaussian 16:  ES64L-G16RevC.01  3-Jul-2019

 ----------------------------------------------------------------------
 #t hf aug-cc-pvdz iop(5/13=1,5/36=2,99/5=2) pseudo=read geom=check gue
 ss=(read,tcheck) scf=(maxcycle=1)
 ----------------------------------------------------------------------
 -----
 title
 -----
 Structure from the checkpoint file:  "BDE49_expt_1089_mol1.chk"
 Charge =  0 Multiplicity = 1

                         Standard orientation:
 ---------------------------------------------------------------------
 Center     Atomic      Atomic             Coordinates (Angstroms)
 Number     Number       Type             X           Y           Z
 ---------------------------------------------------------------------
      1          6           0        0.759771    0.972687   -0.219608
      2          6           0        2.102654    0.279087   -0.464563
      3          6           0        2.588895   -0.546465    0.730704
      4          1           0        2.849461    1.040192   -0.713089
      5          1           0        2.004356   -0.369492   -1.339081
      6          1           0        2.704862    0.077736    1.623060
      7          1           0        3.558477   -1.005689    0.520828
      8          1           0        1.885957   -1.349052    0.963955
      9          6           0       -0.441893    0.032427   -0.189241
     10          1           0        0.555164    1.700162   -1.017324
     11          1           0        0.778157    1.559345    0.707455
     12          8           0       -0.375396   -1.106408   -0.595741
     13          6           0       -1.737909    0.611669    0.365136
     14          6           0       -2.953237   -0.289885    0.166191
     15          1           0       -1.894130    1.600818   -0.082708
     16          1           0       -1.567236    0.806407    1.432584
     17          1           0       -3.151641   -0.450707   -0.895673
     18          1           0       -3.843236    0.154305    0.618175
     19          1           0       -2.786708   -1.269876    0.616035
 ---------------------------------------------------------------------

 SCF Done:  E(RHF) =  -310.609678295     A.U. after    2 cycles

 The electronic state is 1-A.
 Alpha  occ. eigenvalues --  -21.04367 -11.49419 -11.42970 -11.41159 -11.38790
 Alpha  occ. eigenvalues --  -11.36511 -11.35063  -1.70418  -1.23181  -1.16530
 Alpha  occ. eigenvalues --   -1.03596  -0.93276  -0.85323  -0.72369  -0.66031
 Alpha  occ. eigenvalues --   -0.64423  -0.60637  -0.58545  -0.56681  -0.52432
 Alpha  occ. eigenvalues --   -0.51018  -0.49879  -0.47686  -0.46083  -0.44918
 Alpha  occ. eigenvalues --   -0.43786  -0.40278  -0.27797
 Alpha virt. eigenvalues --    0.03591   0.04816   0.04987   0.05322   0.05443
 Alpha virt. eigenvalues --    0.05869   0.06287   0.07018   0.07399   0.08137
 Alpha virt. eigenvalues --    0.08594   0.09086   0.11603   0.12770   0.13839

 Mulliken charges:
               1
     1  C   -3.691683
     2  C   -3.282363
     3  C   -3.713011
     4  H    1.242644
     5  H    1.529397
     6  H    1.292210
     7  H    1.169161
     8  H    1.346872
     9  C    5.744699
    10  H    1.420322
    11  H    1.632619
    12  O   -3.472198
    13  C   -3.909891
    14  C   -3.978352
    15  H    1.554073
    16  H    1.420706
    17  H    1.289971
    18  H    1.034384
    19  H    1.370441
 Sum of Mulliken charges =   0.00000

 Dipole moment (field-independent basis, Debye):
    X=             -0.0459    Y=              1.0418    Z=              0.2630  Tot=              1.0754

 Test job not archived.
 1\1\GINC-SE402\SP\RHF\Aug-CC-pVDZ\C6H12O1\OHZDE\08-Apr-2025\0\\#t hf a
 ug-cc-pvdz iop(5/13=1,5/36=2,99/5=2) pseudo=read geom=check guess=(rea
 d,tcheck) scf=(maxcycle=1)\\title\\0,1\C,0,0.759771,0.972687,-0.219608
 \C,0,2.102654,0.279087,-0.464563\C,0,2.588895,-0.546465,0.730704\H,0,2
 .849461,1.040192,-0.713089\H,0,2.004356,-0.369492,-1.339081\H,0,2.7048
 62,0.077736,1.62306\H,0,3.558477,-1.005689,0.520828\H,0,1.885957,-1.34
 9052,0.963955\C,0,-0.441893,0.032427,-0.189241\H,0,0.555164,1.700162,-
 1.017324\H,0,0.778157,1.559345,0.707455\O,0,-0.375396,-1.106408,-0.595

 Normal termination of Gaussian 16 at Tue Apr  8 22:37:16 2025.
