 Gaussian 16, Revision C.01,

 ----------------------------------------------------------------------
 #t hf aug-cc-pvdz symm=none int=(grid=ultrafine) guess=(read,tcheck) s
 table=opt
 ----------------------------------------------------------------------
 -----
 title
 -----
 Symbolic Z-matrix:
 Charge =  0 Multiplicity = 2

 SCF Done:  E(UHF) =  -1029.82831352     A.U. after   18 cycles

 1\1\GINC-SE127\Stability\UHF\Aug-CC-pVDZ\C6H13S2\OHZDE\08-Apr-2025\0\\
 #t hf aug-cc-pvdz symm=none int=(grid=ultrafine) guess=(read,tcheck) s
 table=opt\\title\\0,2\C,0,1.946068,-1.101554,-0.296102\S,0,1.029127,0.
 260142,-1.134133\C,0,-0.003268,0.918023,0.117343\C,0,-0.217231,2.40438
 4,0.149451\H,0,-0.468966,2.735208,1.1615\H,0,-1.051102,2.714364,-0.497
 115\H,0,0.677701,2.937721,-0.179605\S,0,-0.957584,-0.099222,1.182803\C
 ,0,-1.869247,-1.244137,0.05289\C,0,-2.931086,-0.557912,-0.797724\H,0,-
 2.311473,-1.974431,0.735591\H,0,-1.140051,-1.766247,-0.568471\H,0,-3.6

 Normal termination of Gaussian 16 at Tue Apr  8 23:08:42 2025.
 Gaussian 16:  ES64L-G16RevC.01  3-Jul-2019

 ----------------------------------------------------------------------
 #t hf aug-cc-pvdz iop(5/13=1,5/36=2,99/5=2) pseudo=read geom=check gue
 ss=(read,tcheck) scf=(maxcycle=1)
 ----------------------------------------------------------------------
 -----
 title
 -----
 Structure from the checkpoint file:  "BDE49_expt_377_mol2.chk"
 Charge =  0 Multiplicity = 2

                         Standard orientation:
 ---------------------------------------------------------------------
 Center     Atomic      Atomic             Coordinates (Angstroms)
 Number     Number       Type             X           Y           Z
 ---------------------------------------------------------------------
      1          6           0        1.946068   -1.101554   -0.296102
      2         16           0        1.029127    0.260142   -1.134133
      3          6           0       -0.003268    0.918023    0.117343
      4          6           0       -0.217231    2.404384    0.149451
      5          1           0       -0.468966    2.735208    1.161500
      6          1           0       -1.051102    2.714364   -0.497115
      7          1           0        0.677701    2.937721   -0.179605
      8         16           0       -0.957584   -0.099222    1.182803
      9          6           0       -1.869247   -1.244137    0.052890
     10          6           0       -2.931086   -0.557913   -0.797724
     11          1           0       -2.311473   -1.974431    0.735591
     12          1           0       -1.140051   -1.766247   -0.568471
     13          1           0       -3.668490   -0.048588   -0.173560
     14          1           0       -3.453735   -1.294562   -1.417059
     15          1           0       -2.479809    0.178990   -1.465556
     16          6           0        2.975634   -0.613092    0.716250
     17          1           0        2.417688   -1.639044   -1.122522
     18          1           0        1.219469   -1.769466    0.167918
     19          1           0        3.715901    0.036494    0.244143
     20          1           0        3.499258   -1.464981    1.162411
     21          1           0        2.493699   -0.054445    1.520976
 ---------------------------------------------------------------------

 SCF Done:  E(UHF) =  -1031.49056878     A.U. after    2 cycles

 The electronic state is 2-A.
 Alpha  occ. eigenvalues --  -75.67860 -75.67697 -13.15127 -13.12909 -13.11085
 Alpha  occ. eigenvalues --  -13.09864 -13.07193 -13.06040 -11.43113 -11.42349
 Alpha  occ. eigenvalues --  -11.41821 -11.37264 -11.36819 -11.36720  -8.02156
 Alpha  occ. eigenvalues --   -8.01746  -1.31136  -1.20724  -1.14920  -1.04037
 Alpha  occ. eigenvalues --   -1.02850  -0.89394  -0.87221  -0.75306  -0.63976
 Alpha  occ. eigenvalues --   -0.63231  -0.61252  -0.58756  -0.58261  -0.57005
 Alpha  occ. eigenvalues --   -0.52484  -0.51913  -0.51576  -0.49506  -0.48237
 Alpha  occ. eigenvalues --   -0.44973  -0.40710  -0.38305  -0.30002  -0.23255
 Alpha  occ. eigenvalues --   -0.19034
 Alpha virt. eigenvalues --    0.03414   0.03885   0.04132   0.05333   0.06192
 Alpha virt. eigenvalues --    0.06398   0.06464   0.06764   0.07478   0.08101
 Alpha virt. eigenvalues --    0.08237   0.08771   0.09021   0.09864   0.11450

  Beta  occ. eigenvalues --  -75.67893 -75.67763 -13.15547 -13.13251 -13.11272
  Beta  occ. eigenvalues --  -13.10163 -13.07020 -13.05741 -11.42226 -11.41734
  Beta  occ. eigenvalues --  -11.41372 -11.36896 -11.36751 -11.36661  -8.02196
  Beta  occ. eigenvalues --   -8.01798  -1.28735  -1.20406  -1.13088  -1.03921
  Beta  occ. eigenvalues --   -1.02718  -0.88185  -0.86956  -0.70885  -0.63681
  Beta  occ. eigenvalues --   -0.62949  -0.59446  -0.57906  -0.56972  -0.55414
  Beta  occ. eigenvalues --   -0.52257  -0.51501  -0.51363  -0.49430  -0.46681
  Beta  occ. eigenvalues --   -0.42093  -0.37460  -0.33961  -0.25018  -0.22331
  Beta virt. eigenvalues --    0.03438   0.03901   0.04145   0.05048   0.06184
  Beta virt. eigenvalues --    0.06319   0.06461   0.06765   0.07507   0.08054
  Beta virt. eigenvalues --    0.08252   0.08796   0.08944   0.09314   0.09964

 Mulliken charges and spin densities:
               1          2
     1  C   -3.760739   0.064865
     2  S    0.594652  -0.108273
     3  C    1.270447   1.465975
     4  C   -5.400478  -0.344195
     5  H    1.409315   0.015222
     6  H    1.238369   0.028869
     7  H    1.423040   0.001524
     8  S    0.532159  -0.184302
     9  C   -3.685240   0.102968
    10  C   -4.047562  -0.004064
    11  H    1.463497  -0.007821
    12  H    1.777942   0.001769
    13  H    1.382729  -0.000562
    14  H    1.183061  -0.001763
    15  H    1.410019  -0.015933
    16  C   -4.091880   0.005013
    17  H    1.427835  -0.008263
    18  H    1.877267   0.003933
    19  H    1.384800   0.001849
    20  H    1.187204  -0.003165
    21  H    1.423563  -0.013646
 Sum of Mulliken charges =  -0.00000   1.00000

 Dipole moment (field-independent basis, Debye):
    X=              0.0728    Y=             -0.6491    Z=             -0.1281  Tot=              0.6656
                          Isotropic Fermi Contact Couplings
        Atom                 a.u.       MegaHertz       Gauss      10(-4) cm-1
     1  C(13)              0.01610      18.09459       6.45660       6.03571
     2  S(33)              0.05465      18.77212       6.69836       6.26170
     3  C(13)              0.15323     172.25583      61.46516      57.45836
     4  C(13)             -0.03458     -38.87155     -13.87034     -12.96615
     5  H(1)               0.00828      37.02811      13.21255      12.35125
     6  H(1)               0.01774      79.29969      28.29610      26.45153
     7  H(1)               0.00315      14.08917       5.02737       4.69964
     8  S(33)              0.09835      33.78106      12.05392      11.26815

 Normal termination of Gaussian 16 at Tue Apr  8 23:08:55 2025.
