 Gaussian 16, Revision C.01,

 ----------------------------------------------------------------------
 #t hf aug-cc-pvdz symm=none int=(grid=ultrafine) guess=(read,tcheck) s
 table=(opt,rrhf)
 ----------------------------------------------------------------------
 -----
 title
 -----
 Symbolic Z-matrix:
 Charge =  0 Multiplicity = 1

 SCF Done:  E(RHF) =  -528.080366165     A.U. after   12 cycles
 Normal termination of Gaussian 16 at Tue Apr  8 23:49:23 2025.
 Gaussian 16:  ES64L-G16RevC.01  3-Jul-2019

 ----------------------------------------------------------------------
 #t hf aug-cc-pvdz iop(5/13=1,5/36=2,99/5=2) pseudo=read geom=check gue
 ss=(read,tcheck) scf=(maxcycle=1)
 ----------------------------------------------------------------------
 -----
 title
 -----
 Structure from the checkpoint file:  "BDE49_nonexpt_1834_mol1.chk"
 Charge =  0 Multiplicity = 1

                         Standard orientation:
 ---------------------------------------------------------------------
 Center     Atomic      Atomic             Coordinates (Angstroms)
 Number     Number       Type             X           Y           Z
 ---------------------------------------------------------------------
      1          6           0       -0.941884    0.667434   -0.000011
      2         14           0        0.570338   -0.461264    0.000004
      3          9           0        1.892081    0.466442    0.000009
      4          1           0        0.584640   -1.294144   -1.217198
      5          1           0        0.584624   -1.294133    1.217215
      6          9           0       -2.058990   -0.196127   -0.000007
      7          1           0       -1.000251    1.304261   -0.887422
      8          1           0       -1.000257    1.304277    0.887389
 ---------------------------------------------------------------------

 SCF Done:  E(RHF) =  -529.117005454     A.U. after    2 cycles

 The electronic state is 1-A.
 Alpha  occ. eigenvalues --  -76.26015 -29.27285 -29.26295 -11.42614  -5.60508
 Alpha  occ. eigenvalues --   -2.25716  -2.22647  -2.21558  -1.15586  -0.86948
 Alpha  occ. eigenvalues --   -0.68670  -0.64913  -0.60683  -0.52832  -0.51502
 Alpha  occ. eigenvalues --   -0.38963  -0.34717  -0.33478  -0.33394  -0.26082
 Alpha  occ. eigenvalues --   -0.22558
 Alpha virt. eigenvalues --    0.04357   0.05101   0.05438   0.07700   0.07889
 Alpha virt. eigenvalues --    0.08008   0.10171   0.13539   0.14848   0.15941
 Alpha virt. eigenvalues --    0.16656   0.16893   0.18709   0.20551   0.22194

 Mulliken charges:
               1
     1  C   -3.898165
     2  Si   5.811743
     3  F   -1.010365
     4  H   -1.827691
     5  H   -1.827690
     6  F    0.095454
     7  H    1.328357
     8  H    1.328358
 Sum of Mulliken charges =  -0.00000

 Dipole moment (field-independent basis, Debye):
    X=              0.4300    Y=              0.7937    Z=              0.0000  Tot=              0.9027

 Test job not archived.
 1\1\GINC-SE072\SP\RHF\Aug-CC-pVDZ\C1H4F2Si1\OHZDE\08-Apr-2025\0\\#t hf
  aug-cc-pvdz iop(5/13=1,5/36=2,99/5=2) pseudo=read geom=check guess=(r
 ead,tcheck) scf=(maxcycle=1)\\title\\0,1\C,0,0.941884,0.667434,0.00001
 1\Si,0,-0.570338,-0.461264,-0.000004\F,0,-1.892081,0.466442,-0.000009\
 H,0,-0.58464,-1.294144,1.217198\H,0,-0.584624,-1.294133,-1.217215\F,0,
 2.05899,-0.196127,0.000007\H,0,1.000251,1.304261,0.887422\H,0,1.000257
 ,1.304277,-0.887389\\Version=ES64L-G16RevC.01\State=1-A\HF=-529.117005
 5\RMSD=9.662e-02\Dipole=-0.1691826,0.3122476,-0.0000005\Quadrupole=2.8

 Normal termination of Gaussian 16 at Tue Apr  8 23:49:25 2025.
