 Gaussian 16, Revision C.01,

 ----------------------------------------------------------------------
 #t hf aug-cc-pvdz symm=none int=(grid=ultrafine) guess=(read,tcheck) s
 table=(opt,rrhf)
 ----------------------------------------------------------------------
 -----
 title
 -----
 Symbolic Z-matrix:
 Charge =  0 Multiplicity = 1

 SCF Done:  E(RHF) =  -724.190281829     A.U. after   14 cycles
 Normal termination of Gaussian 16 at Wed Apr  9 00:22:01 2025.
 Gaussian 16:  ES64L-G16RevC.01  3-Jul-2019

 ----------------------------------------------------------------------
 #t hf aug-cc-pvdz iop(5/13=1,5/36=2,99/5=2) pseudo=read geom=check gue
 ss=(read,tcheck) scf=(maxcycle=1)
 ----------------------------------------------------------------------
 -----
 title
 -----
 Structure from the checkpoint file:  "BDE49_nonexpt_2645_mol1.chk"
 Charge =  0 Multiplicity = 1

                         Standard orientation:
 ---------------------------------------------------------------------
 Center     Atomic      Atomic             Coordinates (Angstroms)
 Number     Number       Type             X           Y           Z
 ---------------------------------------------------------------------
      1          9           0        2.279918    0.513202    0.000003
      2         16           0        1.207407   -0.739184   -0.000004
      3          6           0       -0.296684    0.235012   -0.000003
      4          8           0       -0.365592    1.425794    0.000000
      5          8           0       -1.303494   -0.649179    0.000000
      6          6           0       -2.637260   -0.086408    0.000005
      7          1           0       -3.306948   -0.942119    0.000005
      8          1           0       -2.787235    0.522853   -0.891520
      9          1           0       -2.787230    0.522850    0.891533
 ---------------------------------------------------------------------

 SCF Done:  E(RHF) =  -725.713123367     A.U. after    2 cycles

 The electronic state is 1-A.
 Alpha  occ. eigenvalues --  -75.78648 -29.28950 -21.12602 -21.08390 -13.24028
 Alpha  occ. eigenvalues --  -13.19745 -13.09036 -11.54886 -11.44064  -8.12754
 Alpha  occ. eigenvalues --   -1.87264  -1.70113  -1.24912  -1.04892  -0.81752
 Alpha  occ. eigenvalues --   -0.71073  -0.66003  -0.63793  -0.59397  -0.56581
 Alpha  occ. eigenvalues --   -0.56318  -0.44756  -0.42256  -0.35417  -0.35341
 Alpha  occ. eigenvalues --   -0.32869  -0.28401  -0.19909
 Alpha virt. eigenvalues --    0.02875   0.05563   0.06219   0.06665   0.08188
 Alpha virt. eigenvalues --    0.11143   0.11944   0.12603   0.13610   0.14319
 Alpha virt. eigenvalues --    0.14572   0.15544   0.17010   0.18391   0.19013

 Mulliken charges:
               1
     1  F   -0.159124
     2  S    1.031648
     3  C    2.718454
     4  O   -2.343044
     5  O   -2.383931
     6  C   -2.813545
     7  H    1.335888
     8  H    1.306827
     9  H    1.306827
 Sum of Mulliken charges =   0.00000

 Dipole moment (field-independent basis, Debye):
    X=              1.1121    Y=              0.1388    Z=              0.0000  Tot=              1.1207

 Test job not archived.
 1\1\GINC-SE090\SP\RHF\Aug-CC-pVDZ\C2H3F1O2S1\OHZDE\09-Apr-2025\0\\#t h
 f aug-cc-pvdz iop(5/13=1,5/36=2,99/5=2) pseudo=read geom=check guess=(
 read,tcheck) scf=(maxcycle=1)\\title\\0,1\F,0,2.279918,0.513202,0.0000
 03\S,0,1.207407,-0.739184,-0.000004\C,0,-0.296684,0.235012,-0.000003\O
 ,0,-0.365592,1.425794,0.\O,0,-1.303494,-0.649179,0.\C,0,-2.63726,-0.08
 6408,0.000005\H,0,-3.306948,-0.942118,0.000005\H,0,-2.787235,0.522853,
 -0.89152\H,0,-2.78723,0.52285,0.891533\\Version=ES64L-G16RevC.01\State
 =1-A\HF=-725.7131234\RMSD=6.661e-02\Dipole=0.4375144,0.054608,0.000007

 Normal termination of Gaussian 16 at Wed Apr  9 00:22:04 2025.
