 Gaussian 16, Revision C.01,

 ----------------------------------------------------------------------
 #t hf aug-cc-pvdz symm=none int=(grid=ultrafine) guess=(read,tcheck) s
 table=(opt,rrhf)
 ----------------------------------------------------------------------
 -----
 title
 -----
 Symbolic Z-matrix:
 Charge =  0 Multiplicity = 1

 SCF Done:  E(RHF) =  -643.692542577     A.U. after   16 cycles
 Normal termination of Gaussian 16 at Tue Apr  8 23:19:49 2025.
 Gaussian 16:  ES64L-G16RevC.01  3-Jul-2019

 ----------------------------------------------------------------------
 #t hf aug-cc-pvdz iop(5/13=1,5/36=2,99/5=2) pseudo=read geom=check gue
 ss=(read,tcheck) scf=(maxcycle=1)
 ----------------------------------------------------------------------
 -----
 title
 -----
 Structure from the checkpoint file:  "BDE49_nonexpt_1081_mol1.chk"
 Charge =  0 Multiplicity = 1

                         Standard orientation:
 ---------------------------------------------------------------------
 Center     Atomic      Atomic             Coordinates (Angstroms)
 Number     Number       Type             X           Y           Z
 ---------------------------------------------------------------------
      1         17           0        1.361158   -0.240362    0.000023
      2          8           0       -0.150493    0.951522   -0.000011
      3          7           0       -1.298839    0.421379    0.000016
      4          7           0       -1.479002   -0.789405   -0.000066
      5          1           0       -2.490849   -0.949834    0.000046
 ---------------------------------------------------------------------

 SCF Done:  E(RHF) =  -644.735717078     A.U. after    2 cycles

 The electronic state is 1-A.
 Alpha  occ. eigenvalues --  -99.94743 -21.20133 -15.90305 -15.82523 -10.51182
 Alpha  occ. eigenvalues --   -9.70884  -9.70368  -9.70258  -1.93040  -1.47159
 Alpha  occ. eigenvalues --   -1.27094  -0.91867  -0.75353  -0.65929  -0.65119
 Alpha  occ. eigenvalues --   -0.54683  -0.53414  -0.49360  -0.41343  -0.38095
 Alpha virt. eigenvalues --    0.01969   0.04458   0.10522   0.11114   0.11932
 Alpha virt. eigenvalues --    0.13412   0.14367   0.15460   0.17789   0.18289
 Alpha virt. eigenvalues --    0.18688   0.20667   0.22022   0.23674   0.26518

 Mulliken charges:
               1
     1  Cl   0.107814
     2  O   -1.723927
     3  N    1.467862
     4  N   -0.711981
     5  H    0.860231
 Sum of Mulliken charges =  -0.00000

 Dipole moment (field-independent basis, Debye):
    X=             -3.2725    Y=              1.0409    Z=              0.0001  Tot=              3.4341

 Test job not archived.
 1\1\GINC-SE220\SP\RHF\Aug-CC-pVDZ\Cl1H1N2O1\OHZDE\08-Apr-2025\0\\#t hf
  aug-cc-pvdz iop(5/13=1,5/36=2,99/5=2) pseudo=read geom=check guess=(r
 ead,tcheck) scf=(maxcycle=1)\\title\\0,1\Cl,0,1.361158,-0.240362,0.000
 023\O,0,-0.150493,0.951522,-0.000011\N,0,-1.298839,0.421379,0.000016\N
 ,0,-1.479002,-0.789405,-0.000066\H,0,-2.490849,-0.949834,0.000046\\Ver
 sion=ES64L-G16RevC.01\State=1-A\HF=-644.7357171\RMSD=9.169e-02\Dipole=
 -1.2875116,0.4095088,0.0000336\Quadrupole=2.2508935,-0.8493144,-1.4015
 792,0.6035159,-0.0001493,-0.000194\PG=C01 [X(Cl1H1N2O1)]\\@

 Normal termination of Gaussian 16 at Tue Apr  8 23:19:51 2025.
