 Gaussian 16, Revision C.01,

 ----------------------------------------------------------------------
 #t hf aug-cc-pvdz symm=none int=(grid=ultrafine) guess=(read,tcheck) s
 table=(opt,rrhf)
 ----------------------------------------------------------------------
 -----
 title
 -----
 Symbolic Z-matrix:
 Charge =  0 Multiplicity = 1

 SCF Done:  E(RHF) =  -786.223429761     A.U. after   15 cycles
 Normal termination of Gaussian 16 at Wed Apr  9 00:45:55 2025.
 Gaussian 16:  ES64L-G16RevC.01  3-Jul-2019

 ----------------------------------------------------------------------
 #t hf aug-cc-pvdz iop(5/13=1,5/36=2,99/5=2) pseudo=read geom=check gue
 ss=(read,tcheck) scf=(maxcycle=1)
 ----------------------------------------------------------------------
 -----
 title
 -----
 Structure from the checkpoint file:  "BDE49_nonexpt_745_mol1.chk"
 Charge =  0 Multiplicity = 1

                         Standard orientation:
 ---------------------------------------------------------------------
 Center     Atomic      Atomic             Coordinates (Angstroms)
 Number     Number       Type             X           Y           Z
 ---------------------------------------------------------------------
      1          6           0       -2.482808   -1.483337    0.329436
      2          6           0       -1.186087   -1.510904   -0.172867
      3          6           0       -3.103949   -0.260248    0.566757
      4          6           0       -2.423106    0.920747    0.289450
      5          6           0       -1.122383    0.914785   -0.227906
      6          6           0       -0.486801   -0.327914   -0.456399
      7          1           0       -3.001706   -2.412356    0.537451
      8          1           0       -0.705961   -2.466948   -0.349342
      9          5           0        2.282788   -0.101670    0.434661
     10          8           0        3.619399   -0.328335    0.335778
     11          8           0        1.764018    0.351939    1.612567
     12          1           0       -2.911311    1.873852    0.465890
     13          1           0       -4.113379   -0.224694    0.960637
     14          6           0       -0.436191    2.225558   -0.540173
     15          1           0       -1.120905    3.064505   -0.405034
     16          1           0       -0.070943    2.245574   -1.571351
     17          1           0        0.429841    2.399919    0.106728
     18          1           0        0.800505    0.383129    1.609444
     19          1           0        4.075438   -0.172352    1.171831
     20         15           0        1.214176   -0.364819   -1.186252
     21          1           0        1.372462   -1.770948   -1.222318
 ---------------------------------------------------------------------

 SCF Done:  E(RHF) =  -788.455714256     A.U. after    2 cycles

 The electronic state is 1-A.
 Alpha  occ. eigenvalues -- -105.16728 -21.06475 -21.06013 -11.52068 -11.45069
 Alpha  occ. eigenvalues --  -11.43907 -11.41722 -11.41551 -11.39252 -11.36576
 Alpha  occ. eigenvalues --   -7.65106  -2.74212  -1.81906  -1.66220  -1.50632
 Alpha  occ. eigenvalues --   -1.46062  -1.44399  -1.34079  -1.14925  -1.08497
 Alpha  occ. eigenvalues --   -0.99696  -0.86403  -0.83941  -0.77172  -0.71564
 Alpha  occ. eigenvalues --   -0.67421  -0.62736  -0.61842  -0.60871  -0.58535
 Alpha  occ. eigenvalues --   -0.56316  -0.52700  -0.51088  -0.49698  -0.48833
 Alpha  occ. eigenvalues --   -0.47864  -0.44169  -0.42625  -0.36929  -0.34357
 Alpha  occ. eigenvalues --   -0.32797  -0.24728  -0.15664  -0.02186
 Alpha virt. eigenvalues --    0.03201   0.04560   0.04930   0.05106   0.05883
 Alpha virt. eigenvalues --    0.06463   0.06570   0.07249   0.07683   0.08463
 Alpha virt. eigenvalues --    0.09138   0.09467   0.10029   0.10558   0.10986

 Mulliken charges:
               1
     1  C   -1.048088
     2  C   -4.668773
     3  C   -2.360747
     4  C   -0.850732
     5  C    0.894143
     6  C    3.864744
     7  H    1.558438
     8  H    1.932915
     9  B    5.949159
    10  O   -3.944113
    11  O   -3.948015
    12  H    1.810566
    13  H    1.516673
    14  C   -5.731245
    15  H    1.188349
    16  H    1.414733
    17  H    1.221513
    18  H    1.975986
    19  H    1.014372
    20  P    0.042207
    21  H   -1.832088
 Sum of Mulliken charges =  -0.00000

 Dipole moment (field-independent basis, Debye):
    X=             -1.4676    Y=              2.1131    Z=             -2.4454  Tot=              3.5495

 Test job not archived.
 1\1\GINC-SE460\SP\RHF\Aug-CC-pVDZ\C7H10B1O2P1\OHZDE\09-Apr-2025\0\\#t
 hf aug-cc-pvdz iop(5/13=1,5/36=2,99/5=2) pseudo=read geom=check guess=
 (read,tcheck) scf=(maxcycle=1)\\title\\0,1\C,0,-2.482808,-1.483337,0.3
 29436\C,0,-1.186087,-1.510904,-0.172867\C,0,-3.103949,-0.260248,0.5667
 57\C,0,-2.423106,0.920747,0.28945\C,0,-1.122383,0.914785,-0.227906\C,0
 ,-0.486801,-0.327914,-0.456399\H,0,-3.001706,-2.412356,0.537451\H,0,-0
 .705961,-2.466948,-0.349342\B,0,2.282788,-0.10167,0.434661\O,0,3.61939
 9,-0.328335,0.335778\O,0,1.764018,0.351939,1.612567\H,0,-2.911311,1.87

 Normal termination of Gaussian 16 at Wed Apr  9 00:46:08 2025.
