 Gaussian 16, Revision C.01,

 ----------------------------------------------------------------------
 #t hf aug-cc-pvdz symm=none int=(grid=ultrafine) guess=(read,tcheck) s
 table=opt
 ----------------------------------------------------------------------
 -----
 title
 -----
 Symbolic Z-matrix:
 Charge =  0 Multiplicity = 2

 SCF Done:  E(UHF) =  -651.381590358     A.U. after   20 cycles
 Normal termination of Gaussian 16 at Wed Apr  9 00:04:29 2025.
 Gaussian 16:  ES64L-G16RevC.01  3-Jul-2019

 ----------------------------------------------------------------------
 #t hf aug-cc-pvdz iop(5/13=1,5/36=2,99/5=2) pseudo=read geom=check gue
 ss=(read,tcheck) scf=(maxcycle=1)
 ----------------------------------------------------------------------
 -----
 title
 -----
 Structure from the checkpoint file:  "BDE49_nonexpt_218_mol2.chk"
 Charge =  0 Multiplicity = 2

                         Standard orientation:
 ---------------------------------------------------------------------
 Center     Atomic      Atomic             Coordinates (Angstroms)
 Number     Number       Type             X           Y           Z
 ---------------------------------------------------------------------
      1          5           0        0.638914    1.010458    0.000002
      2          6           0       -1.521778   -0.009756   -0.000004
      3          7           0       -2.276834   -0.882542    0.000003
      4          8           0       -0.728827    1.023555    0.000001
      5         17           0        1.629679   -0.412023   -0.000001
 ---------------------------------------------------------------------

 SCF Done:  E(UHF) =  -652.379138923     A.U. after    2 cycles

 The electronic state is 2-A.
 Alpha  occ. eigenvalues --  -99.93716 -21.17352 -15.78116 -11.51127 -10.51018
 Alpha  occ. eigenvalues --   -9.71043  -9.70396  -9.70190  -7.76587  -1.90906
 Alpha  occ. eigenvalues --   -1.38125  -1.31031  -0.89625  -0.75068  -0.65498
 Alpha  occ. eigenvalues --   -0.63486  -0.57023  -0.56195  -0.55090  -0.42659
 Alpha  occ. eigenvalues --   -0.41757  -0.39986
 Alpha virt. eigenvalues --    0.03004   0.03803   0.04015   0.04204   0.06041
 Alpha virt. eigenvalues --    0.10597   0.11758   0.12369   0.13530   0.14320
 Alpha virt. eigenvalues --    0.15385   0.16092   0.17264   0.17915   0.18747

  Beta  occ. eigenvalues --  -99.93605 -21.17196 -15.78291 -11.50854 -10.50888
  Beta  occ. eigenvalues --   -9.70741  -9.70193  -9.70142  -7.74234  -1.90265
  Beta  occ. eigenvalues --   -1.37006  -1.31167  -0.86755  -0.73762  -0.63087
  Beta  occ. eigenvalues --   -0.62515  -0.57076  -0.55335  -0.54971  -0.42340
  Beta  occ. eigenvalues --   -0.41862
  Beta virt. eigenvalues --   -0.00245   0.03750   0.03947   0.04136   0.07292
  Beta virt. eigenvalues --    0.08496   0.10939   0.11901   0.12562   0.13540
  Beta virt. eigenvalues --    0.14411   0.15499   0.16272   0.17830   0.18858

 Mulliken charges and spin densities:
               1          2
     1  B    1.540200   1.156568
     2  C    4.129902   0.157932
     3  N   -2.497900  -0.087613
     4  O   -2.405258  -0.318310
     5  Cl  -0.766944   0.091424
 Sum of Mulliken charges =  -0.00000   1.00000

 Dipole moment (field-independent basis, Debye):
    X=              1.5617    Y=              1.9190    Z=             -0.0000  Tot=              2.4741
                          Isotropic Fermi Contact Couplings
        Atom                 a.u.       MegaHertz       Gauss      10(-4) cm-1
     1  B(11)              0.39501     566.58347     202.17107     188.99190
     2  C(13)              0.05967      67.07626      23.93448      22.37423
     3  N(14)             -0.00639      -2.06489      -0.73681      -0.68877
     4  O(17)              0.17492    -106.03622     -37.83636     -35.36987
     5  Cl(35)             0.16439      72.07766      25.71910      24.04252
 --------------------------------------------------------
       Center         ----  Spin Dipole Couplings  ----
                      3XX-RR        3YY-RR        3ZZ-RR

 1\1\GINC-SE364\SP\UHF\Aug-CC-pVDZ\C1B1Cl1N1O1(2)\OHZDE\09-Apr-2025\0\\
 #t hf aug-cc-pvdz iop(5/13=1,5/36=2,99/5=2) pseudo=read geom=check gue
 ss=(read,tcheck) scf=(maxcycle=1)\\title\\0,2\B,0,0.638914,1.010458,0.
 000002\C,0,-1.521778,-0.009756,-0.000004\N,0,-2.276834,-0.882542,0.000
 003\O,0,-0.728827,1.023555,0.000001\Cl,0,1.629679,-0.412023,-0.000001\
 \Version=ES64L-G16RevC.01\State=2-A\HF=-652.3791389\S2=0.757013\S2-1=0
 .\S2A=0.750039\RMSD=5.514e-02\Dipole=0.6144168,0.7549739,-0.0000012\Qu
 adrupole=-2.7637839,0.7302813,2.0335026,-3.3061528,0.0000029,-0.000002

 Normal termination of Gaussian 16 at Wed Apr  9 00:04:31 2025.
