 Gaussian 16, Revision C.01,

 ----------------------------------------------------------------------
 #t hf aug-cc-pvdz symm=none int=(grid=ultrafine) guess=(read,tcheck) s
 table=(opt,rrhf)
 ----------------------------------------------------------------------
 -----
 title
 -----
 Symbolic Z-matrix:
 Charge =  0 Multiplicity = 1

 SCF Done:  E(RHF) =  -424.349004813     A.U. after   12 cycles
 Normal termination of Gaussian 16 at Tue Apr  8 23:52:01 2025.
 Gaussian 16:  ES64L-G16RevC.01  3-Jul-2019

 ----------------------------------------------------------------------
 #t hf aug-cc-pvdz iop(5/13=1,5/36=2,99/5=2) pseudo=read geom=check gue
 ss=(read,tcheck) scf=(maxcycle=1)
 ----------------------------------------------------------------------
 -----
 title
 -----
 Structure from the checkpoint file:  "BDE49_nonexpt_1898_mol1.chk"
 Charge =  0 Multiplicity = 1

                         Standard orientation:
 ---------------------------------------------------------------------
 Center     Atomic      Atomic             Coordinates (Angstroms)
 Number     Number       Type             X           Y           Z
 ---------------------------------------------------------------------
      1         14           0       -1.734078   -0.094431    0.034533
      2          6           0        0.017413    0.608282   -0.093527
      3          1           0       -1.879152   -1.233405   -0.907102
      4          1           0       -2.728606    0.944189   -0.331567
      5          1           0       -2.013590   -0.573746    1.406624
      6          7           0        1.004028   -0.464490    0.044207
      7          6           0        2.386482    0.004408    0.057940
      8          1           0        0.883410   -1.133546   -0.708769
      9          1           0        2.557964    0.605564    0.955683
     10          1           0        2.658410    0.622338   -0.815701
     11          1           0        3.063328   -0.852564    0.099465
     12          1           0        0.150794    1.311033    0.738279
     13          1           0        0.132974    1.207454   -1.016296
 ---------------------------------------------------------------------

 SCF Done:  E(RHF) =  -425.195228432     A.U. after    2 cycles

 The electronic state is 1-A.
 Alpha  occ. eigenvalues --  -76.20639 -15.72046 -11.37993 -11.36659  -5.54197
 Alpha  occ. eigenvalues --   -2.18170  -2.16507  -2.16358  -1.37132  -1.02453
 Alpha  occ. eigenvalues --   -0.90115  -0.75241  -0.65200  -0.59491  -0.57105
 Alpha  occ. eigenvalues --   -0.54813  -0.49940  -0.46145  -0.46086  -0.40333
 Alpha  occ. eigenvalues --   -0.32713
 Alpha virt. eigenvalues --    0.03942   0.04742   0.05486   0.05671   0.06510
 Alpha virt. eigenvalues --    0.06924   0.07150   0.07935   0.09095   0.09773
 Alpha virt. eigenvalues --    0.10097   0.10599   0.13032   0.14477   0.15636

 Mulliken charges:
               1
     1  Si   5.911629
     2  C   -3.195021
     3  H   -1.686380
     4  H   -1.652638
     5  H   -1.731811
     6  N   -2.112176
     7  C   -3.246034
     8  H    0.702251
     9  H    1.360697
    10  H    1.293656
    11  H    1.276290
    12  H    1.603481
    13  H    1.476055
 Sum of Mulliken charges =  -0.00000

 Dipole moment (field-independent basis, Debye):
    X=              0.9510    Y=              0.4200    Z=             -0.6140  Tot=              1.2074

 Test job not archived.
 1\1\GINC-SE100\SP\RHF\Aug-CC-pVDZ\C2H9N1Si1\OHZDE\08-Apr-2025\0\\#t hf
  aug-cc-pvdz iop(5/13=1,5/36=2,99/5=2) pseudo=read geom=check guess=(r
 ead,tcheck) scf=(maxcycle=1)\\title\\0,1\Si,0,-1.734078,-0.094431,0.03
 4533\C,0,0.017413,0.608282,-0.093527\H,0,-1.879152,-1.233405,-0.907102
 \H,0,-2.728606,0.944189,-0.331567\H,0,-2.01359,-0.573746,1.406624\N,0,
 1.004028,-0.46449,0.044207\C,0,2.386482,0.004408,0.05794\H,0,0.88341,-
 1.133546,-0.708769\H,0,2.557964,0.605564,0.955683\H,0,2.65841,0.622338
 ,-0.815701\H,0,3.063328,-0.852564,0.099465\H,0,0.150794,1.311033,0.738

 Normal termination of Gaussian 16 at Tue Apr  8 23:52:04 2025.
