 Gaussian 16, Revision C.01,

 ----------------------------------------------------------------------
 #t hf aug-cc-pvdz symm=none int=(grid=ultrafine) guess=(read,tcheck) s
 table=(opt,rrhf)
 ----------------------------------------------------------------------
 -----
 title
 -----
 Symbolic Z-matrix:
 Charge =  0 Multiplicity = 1

 SCF Done:  E(RHF) =  -532.237611328     A.U. after   16 cycles
 Normal termination of Gaussian 16 at Tue Apr  8 22:45:15 2025.
 Gaussian 16:  ES64L-G16RevC.01  3-Jul-2019

 ----------------------------------------------------------------------
 #t hf aug-cc-pvdz iop(5/13=1,5/36=2,99/5=2) pseudo=read geom=check gue
 ss=(read,tcheck) scf=(maxcycle=1)
 ----------------------------------------------------------------------
 -----
 title
 -----
 Structure from the checkpoint file:  "BDE49_expt_1425_mol1.chk"
 Charge =  0 Multiplicity = 1

                         Standard orientation:
 ---------------------------------------------------------------------
 Center     Atomic      Atomic             Coordinates (Angstroms)
 Number     Number       Type             X           Y           Z
 ---------------------------------------------------------------------
      1          6           0        1.917727   -0.623520    0.000001
      2          6           0        1.341716    0.638393   -0.000027
      3          6           0       -0.048358    0.795894   -0.000037
      4          6           0        1.088699   -1.748242    0.000020
      5          6           0       -0.294659   -1.611973    0.000011
      6          6           0       -0.880418   -0.341113   -0.000016
      7          1           0        1.543807   -2.731359    0.000041
      8          1           0       -0.906320   -2.503487    0.000026
      9          8           0       -2.225478   -0.118704   -0.000026
     10          6           0       -3.105202   -1.235687   -0.000006
     11          1           0       -4.110830   -0.819267   -0.000018
     12          1           0       -2.968826   -1.852523    0.894750
     13          1           0       -2.968820   -1.852559   -0.894737
     14          1           0        1.944156    1.541866   -0.000044
     15          8           0        3.269360   -0.835412    0.000010
     16          1           0        3.721934    0.014325   -0.000005
     17          6           0       -0.606417    2.167316   -0.000073
     18          8           0        0.077873    3.169716    0.000099
     19          1           0       -1.707669    2.231807    0.000093
 ---------------------------------------------------------------------

 SCF Done:  E(RHF) =  -534.599237572     A.U. after    2 cycles

 The electronic state is 1-A.
 Alpha  occ. eigenvalues --  -21.10664 -21.08853 -21.05309 -11.54323 -11.49051
 Alpha  occ. eigenvalues --  -11.48337 -11.45761 -11.44435 -11.43118 -11.42650
 Alpha  occ. eigenvalues --  -11.38558  -1.80743  -1.75942  -1.69789  -1.31708
 Alpha  occ. eigenvalues --   -1.13644  -1.08935  -1.00019  -0.94790  -0.85567
 Alpha  occ. eigenvalues --   -0.81029  -0.71895  -0.68434  -0.64570  -0.63887
 Alpha  occ. eigenvalues --   -0.62749  -0.61222  -0.56545  -0.55440  -0.55339
 Alpha  occ. eigenvalues --   -0.51450  -0.49230  -0.45923  -0.45196  -0.43584
 Alpha  occ. eigenvalues --   -0.41065  -0.36502  -0.33438  -0.28799  -0.24348
 Alpha virt. eigenvalues --    0.02921   0.04573   0.05166   0.05625   0.05811
 Alpha virt. eigenvalues --    0.06780   0.07133   0.07689   0.07787   0.09352
 Alpha virt. eigenvalues --    0.10743   0.11112   0.12087   0.12989   0.13279

 Mulliken charges:
               1
     1  C    5.637374
     2  C   -4.624607
     3  C    1.209896
     4  C   -2.702712
     5  C   -2.130289
     6  C    7.352791
     7  H    1.759913
     8  H    1.871852
     9  O   -5.121249
    10  C   -3.696151
    11  H    1.451830
    12  H    1.368458
    13  H    1.368434
    14  H    1.820795
    15  O   -4.627855
    16  H    1.043648
    17  C   -0.230638
    18  O   -3.262853
    19  H    1.511362
 Sum of Mulliken charges =  -0.00000

 Dipole moment (field-independent basis, Debye):
    X=             -0.8558    Y=             -1.9276    Z=              0.0001  Tot=              2.1090

 Test job not archived.
 1\1\GINC-SE094\SP\RHF\Aug-CC-pVDZ\C8H8O3\OHZDE\08-Apr-2025\0\\#t hf au
 g-cc-pvdz iop(5/13=1,5/36=2,99/5=2) pseudo=read geom=check guess=(read
 ,tcheck) scf=(maxcycle=1)\\title\\0,1\C,0,1.917727,-0.62352,0.000001\C
 ,0,1.341716,0.638393,-0.000027\C,0,-0.048358,0.795894,-0.000037\C,0,1.
 088699,-1.748242,0.00002\C,0,-0.294659,-1.611973,0.000011\C,0,-0.88041
 8,-0.341113,-0.000016\H,0,1.543807,-2.731359,0.000041\H,0,-0.90632,-2.
 503487,0.000026\O,0,-2.225478,-0.118704,-0.000026\C,0,-3.105202,-1.235
 687,-0.000006\H,0,-4.11083,-0.819267,-0.000018\H,0,-2.968826,-1.852523

 Normal termination of Gaussian 16 at Tue Apr  8 22:45:26 2025.
