 Gaussian 16, Revision C.01,

 ----------------------------------------------------------------------
 #t hf aug-cc-pvdz symm=none int=(grid=ultrafine) guess=(read,tcheck) s
 table=(opt,rrhf)
 ----------------------------------------------------------------------
 -----
 title
 -----
 Symbolic Z-matrix:
 Charge =  0 Multiplicity = 1

 SCF Done:  E(RHF) =  -636.334354629     A.U. after   16 cycles
 Normal termination of Gaussian 16 at Wed Apr  9 00:44:15 2025.
 Gaussian 16:  ES64L-G16RevC.01  3-Jul-2019

 ----------------------------------------------------------------------
 #t hf aug-cc-pvdz iop(5/13=1,5/36=2,99/5=2) pseudo=read geom=check gue
 ss=(read,tcheck) scf=(maxcycle=1)
 ----------------------------------------------------------------------
 -----
 title
 -----
 Structure from the checkpoint file:  "BDE49_nonexpt_713_mol1.chk"
 Charge =  0 Multiplicity = 1

                         Standard orientation:
 ---------------------------------------------------------------------
 Center     Atomic      Atomic             Coordinates (Angstroms)
 Number     Number       Type             X           Y           Z
 ---------------------------------------------------------------------
      1          6           0        0.313856   -0.278039    0.499350
      2          6           0        1.160675   -1.261308   -0.022011
      3          6           0        2.434404   -0.935862   -0.484183
      4          6           0        2.883606    0.380672   -0.427349
      5          6           0        2.049969    1.368584    0.095706
      6          6           0        0.777071    1.041555    0.552284
      7          5           0       -2.876733    1.324758   -0.574934
      8          1           0        3.076371   -1.712977   -0.883981
      9          1           0        3.875120    0.635601   -0.783658
     10          1           0        2.393311    2.395745    0.150178
     11          1           0        0.134248    1.818070    0.954407
     12          1           0        0.822245   -2.291976   -0.062746
     13          6           0       -1.069416   -0.637445    0.983105
     14         15           0       -2.443710   -0.441974   -0.272280
     15          1           0       -2.862507    2.098707    0.329687
     16          1           0       -3.352591    1.624362   -1.622736
     17          1           0       -1.366333   -0.011415    1.828914
     18          1           0       -1.093621   -1.672601    1.330509
     19          1           0       -1.887920   -0.946623   -1.463112
 ---------------------------------------------------------------------

 SCF Done:  E(RHF) =  -637.965285202     A.U. after    2 cycles

 The electronic state is 1-A.
 Alpha  occ. eigenvalues -- -105.16127 -11.51797 -11.44152 -11.43171 -11.41009
 Alpha  occ. eigenvalues --  -11.40628 -11.40337 -11.36230  -7.61683  -2.74185
 Alpha  occ. eigenvalues --   -1.52964  -1.46498  -1.41300  -1.34581  -1.13760
 Alpha  occ. eigenvalues --   -1.09236  -0.98793  -0.86527  -0.84745  -0.80934
 Alpha  occ. eigenvalues --   -0.70799  -0.65171  -0.63946  -0.61720  -0.58019
 Alpha  occ. eigenvalues --   -0.56312  -0.52738  -0.50416  -0.49328  -0.44728
 Alpha  occ. eigenvalues --   -0.44254  -0.34515  -0.33245  -0.22873  -0.13756
 Alpha  occ. eigenvalues --   -0.04116
 Alpha virt. eigenvalues --    0.03217   0.04122   0.04388   0.05022   0.05610
 Alpha virt. eigenvalues --    0.05789   0.06985   0.07108   0.07648   0.08008
 Alpha virt. eigenvalues --    0.09041   0.10138   0.10396   0.11202   0.11579

 Mulliken charges:
               1
     1  C    5.229793
     2  C   -3.320070
     3  C   -1.360661
     4  C   -3.150934
     5  C   -1.093434
     6  C   -2.175269
     7  B    4.087638
     8  H    1.519499
     9  H    1.549884
    10  H    1.519992
    11  H    1.844006
    12  H    1.737835
    13  C   -5.651005
    14  P    2.654858
    15  H   -2.040497
    16  H   -2.717956
    17  H    1.298485
    18  H    1.160877
    19  H   -1.093040
 Sum of Mulliken charges =   0.00000

 Dipole moment (field-independent basis, Debye):
    X=             -1.0806    Y=             -7.7240    Z=              2.4576  Tot=              8.1773

 Test job not archived.
 1\1\GINC-SE250\SP\RHF\Aug-CC-pVDZ\C7H10B1P1\OHZDE\09-Apr-2025\0\\#t hf
  aug-cc-pvdz iop(5/13=1,5/36=2,99/5=2) pseudo=read geom=check guess=(r
 ead,tcheck) scf=(maxcycle=1)\\title\\0,1\C,0,0.313856,-0.278039,0.4993
 5\C,0,1.160675,-1.261308,-0.022011\C,0,2.434404,-0.935862,-0.484183\C,
 0,2.883606,0.380672,-0.427349\C,0,2.049969,1.368584,0.095706\C,0,0.777
 071,1.041555,0.552284\B,0,-2.876733,1.324758,-0.574934\H,0,3.076371,-1
 .712977,-0.883981\H,0,3.87512,0.635601,-0.783658\H,0,2.393311,2.395745
 ,0.150178\H,0,0.134248,1.81807,0.954407\H,0,0.822245,-2.291976,-0.0627

 Normal termination of Gaussian 16 at Wed Apr  9 00:44:25 2025.
