 Gaussian 16, Revision C.01,

 ----------------------------------------------------------------------
 #t hf aug-cc-pvdz symm=none int=(grid=ultrafine) guess=(read,tcheck) s
 table=(opt,rrhf)
 ----------------------------------------------------------------------
 -----
 title
 -----
 Symbolic Z-matrix:
 Charge =  0 Multiplicity = 1

 SCF Done:  E(RHF) =  -453.715611527     A.U. after   12 cycles
 Normal termination of Gaussian 16 at Wed Apr  9 00:54:18 2025.
 Gaussian 16:  ES64L-G16RevC.01  3-Jul-2019

 ----------------------------------------------------------------------
 #t hf aug-cc-pvdz iop(5/13=1,5/36=2,99/5=2) pseudo=read geom=check gue
 ss=(read,tcheck) scf=(maxcycle=1)
 ----------------------------------------------------------------------
 -----
 title
 -----
 Structure from the checkpoint file:  "BDE49_nonexpt_991_mol1.chk"
 Charge =  0 Multiplicity = 1

                         Standard orientation:
 ---------------------------------------------------------------------
 Center     Atomic      Atomic             Coordinates (Angstroms)
 Number     Number       Type             X           Y           Z
 ---------------------------------------------------------------------
      1          7           0        1.105220    0.136129   -0.000024
      2         16           0       -0.611922   -0.098947    0.000014
      3          1           0        1.509229   -0.286026   -0.827363
      4          1           0        1.509254   -0.285713    0.827463
      5          1           0       -0.964265    1.201993   -0.000154
 ---------------------------------------------------------------------

 SCF Done:  E(RHF) =  -454.210422972     A.U. after    2 cycles

 The electronic state is 1-A.
 Alpha  occ. eigenvalues --  -75.70690 -15.76680 -13.14097 -13.09497 -13.02534
 Alpha  occ. eigenvalues --   -8.04485  -1.34464  -1.01543  -0.66643  -0.54339
 Alpha  occ. eigenvalues --   -0.51591  -0.34934  -0.24650
 Alpha virt. eigenvalues --    0.03272   0.04274   0.05826   0.08931   0.11964
 Alpha virt. eigenvalues --    0.15539   0.16148   0.17822   0.19507   0.21988
 Alpha virt. eigenvalues --    0.23117   0.25935   0.26723   0.30690   0.31692

 Mulliken charges:
               1
     1  N   -2.200069
     2  S   -0.080031
     3  H    0.678096
     4  H    0.678097
     5  H    0.923907
 Sum of Mulliken charges =  -0.00000

 Dipole moment (field-independent basis, Debye):
    X=              0.2926    Y=             -1.7245    Z=              0.0003  Tot=              1.7491

 Test job not archived.
 1\1\GINC-SE435\SP\RHF\Aug-CC-pVDZ\H3N1S1\OHZDE\09-Apr-2025\0\\#t hf au
 g-cc-pvdz iop(5/13=1,5/36=2,99/5=2) pseudo=read geom=check guess=(read
 ,tcheck) scf=(maxcycle=1)\\title\\0,1\N,0,-1.10522,0.136129,0.000024\S
 ,0,0.611922,-0.098947,-0.000014\H,0,-1.509229,-0.286026,0.827363\H,0,-
 1.509254,-0.285713,-0.827463\H,0,0.964265,1.201993,0.000154\\Version=E
 S64L-G16RevC.01\State=1-A\HF=-454.210423\RMSD=6.332e-02\Dipole=-0.1151
 054,-0.6784519,-0.0001018\Quadrupole=1.3223864,-0.2527899,-1.0695965,1
 .5643458,0.0003279,-0.0000389\PG=C01 [X(H3N1S1)]\\@

 Normal termination of Gaussian 16 at Wed Apr  9 00:54:20 2025.
