 Gaussian 16, Revision C.01,

 ----------------------------------------------------------------------
 #t hf aug-cc-pvdz symm=none int=(grid=ultrafine) guess=(read,tcheck) s
 table=(opt,rrhf)
 ----------------------------------------------------------------------
 -----
 title
 -----
 Symbolic Z-matrix:
 Charge =  0 Multiplicity = 1

 SCF Done:  E(RHF) =  -159.613366333     A.U. after   11 cycles
 Normal termination of Gaussian 16 at Wed Apr  9 00:27:44 2025.
 Gaussian 16:  ES64L-G16RevC.01  3-Jul-2019

 ----------------------------------------------------------------------
 #t hf aug-cc-pvdz iop(5/13=1,5/36=2,99/5=2) pseudo=read geom=check gue
 ss=(read,tcheck) scf=(maxcycle=1)
 ----------------------------------------------------------------------
 -----
 title
 -----
 Structure from the checkpoint file:  "BDE49_nonexpt_284_mol1.chk"
 Charge =  0 Multiplicity = 1

                         Standard orientation:
 ---------------------------------------------------------------------
 Center     Atomic      Atomic             Coordinates (Angstroms)
 Number     Number       Type             X           Y           Z
 ---------------------------------------------------------------------
      1          5           0       -0.000000    0.054288   -0.000011
      2          7           0       -0.000000    1.455537    0.000001
      3          6           0        1.378041   -0.729515   -0.000005
      4          6           0       -1.378041   -0.729516    0.000007
      5          1           0       -2.261811   -0.083244    0.000044
      6          1           0       -1.450260   -1.388412    0.873592
      7          1           0       -1.450299   -1.388365   -0.873610
      8          1           0        2.261811   -0.083243   -0.000028
      9          1           0        1.450272   -1.388411   -0.873589
     10          1           0        1.450287   -1.388365    0.873613
     11          1           0        0.844377    2.007012   -0.000000
     12          1           0       -0.844377    2.007012    0.000015
 ---------------------------------------------------------------------

 SCF Done:  E(RHF) =  -160.423902051     A.U. after    2 cycles

 The electronic state is 1-A.
 Alpha  occ. eigenvalues --  -15.71415 -11.32054 -11.31693  -7.57210  -1.32490
 Alpha  occ. eigenvalues --   -1.07076  -0.99594  -0.71607  -0.66530  -0.57626
 Alpha  occ. eigenvalues --   -0.55170  -0.51675  -0.51353  -0.44065  -0.39441
 Alpha  occ. eigenvalues --   -0.38909
 Alpha virt. eigenvalues --    0.03215   0.04248   0.04256   0.04581   0.07832
 Alpha virt. eigenvalues --    0.08009   0.08623   0.08772   0.08825   0.09303
 Alpha virt. eigenvalues --    0.09903   0.10219   0.15617   0.17145   0.17154

 Mulliken charges:
               1
     1  B    7.591161
     2  N   -2.887475
     3  C   -6.317590
     4  C   -6.317589
     5  H    1.149518
     6  H    0.926707
     7  H    0.926679
     8  H    1.149518
     9  H    0.926688
    10  H    0.926698
    11  H    0.962844
    12  H    0.962843
 Sum of Mulliken charges =  -0.00000

 Dipole moment (field-independent basis, Debye):
    X=             -0.0000    Y=              1.0516    Z=              0.0000  Tot=              1.0516

 Test job not archived.
 1\1\GINC-SE273\SP\RHF\Aug-CC-pVDZ\C2H8B1N1\OHZDE\09-Apr-2025\0\\#t hf
 aug-cc-pvdz iop(5/13=1,5/36=2,99/5=2) pseudo=read geom=check guess=(re
 ad,tcheck) scf=(maxcycle=1)\\title\\0,1\B,0,0.,0.054288,0.000011\N,0,0
 .,1.455537,-0.000001\C,0,-1.378041,-0.729515,0.000005\C,0,1.378041,-0.
 729515,-0.000007\H,0,2.261811,-0.083243,-0.000044\H,0,1.45026,-1.38841
 1,-0.873592\H,0,1.450299,-1.388364,0.87361\H,0,-2.261811,-0.083243,0.0
 00028\H,0,-1.450272,-1.388411,0.873589\H,0,-1.450287,-1.388365,-0.8736
 13\H,0,-0.844377,2.007012,0.\H,0,0.844377,2.007012,-0.000015\\Version=

 Normal termination of Gaussian 16 at Wed Apr  9 00:27:48 2025.
