 Gaussian 16, Revision C.01,

 ----------------------------------------------------------------------
 #t hf aug-cc-pvdz symm=none int=(grid=ultrafine) guess=(read,tcheck) s
 table=opt
 ----------------------------------------------------------------------
 -----
 title
 -----
 Symbolic Z-matrix:
 Charge =  0 Multiplicity = 2

 SCF Done:  E(UHF) =  -759.592295035     A.U. after   24 cycles
 Normal termination of Gaussian 16 at Tue Apr  8 23:22:56 2025.
 Gaussian 16:  ES64L-G16RevC.01  3-Jul-2019

 ----------------------------------------------------------------------
 #t hf aug-cc-pvdz iop(5/13=1,5/36=2,99/5=2) pseudo=read geom=check gue
 ss=(read,tcheck) scf=(maxcycle=1)
 ----------------------------------------------------------------------
 -----
 title
 -----
 Structure from the checkpoint file:  "BDE49_expt_820_mol2.chk"
 Charge =  0 Multiplicity = 2

                         Standard orientation:
 ---------------------------------------------------------------------
 Center     Atomic      Atomic             Coordinates (Angstroms)
 Number     Number       Type             X           Y           Z
 ---------------------------------------------------------------------
      1         15           0        0.355821    1.683462   -0.666764
      2          6           0        1.681623    1.415170    0.629361
      3          6           0        1.873948   -0.010968    1.186126
      4          1           0        1.460914    2.086705    1.467453
      5          1           0        2.622660    1.765795    0.192257
      6          6           0        2.507650   -1.019055    0.201991
      7          6           0        1.624611   -1.451088   -0.879590
      8          7           0        0.921707   -1.813806   -1.718865
      9          6           0       -1.176123    1.518102    0.400738
     10          6           0       -2.379923    0.900900   -0.329727
     11          1           0       -1.441059    2.532753    0.723142
     12          1           0       -0.960568    0.951615    1.311274
     13          6           0       -2.225395   -0.606058   -0.635856
     14          1           0       -2.551455    1.415600   -1.280180
     15          1           0       -3.279787    1.046852    0.275606
     16          6           0       -1.984270   -1.393514    0.571426
     17          1           0       -1.391563   -0.787850   -1.321331
     18          1           0       -3.128764   -0.984098   -1.123001
     19          7           0       -1.765085   -1.973786    1.543949
     20          1           0        2.810160   -1.916702    0.749761
     21          1           0        3.415423   -0.597913   -0.242674
     22          1           0        0.931152   -0.419437    1.558663
     23          1           0        2.546492    0.046974    2.048093
 ---------------------------------------------------------------------

 SCF Done:  E(UHF) =  -761.770018191     A.U. after    2 cycles

 The electronic state is 2-A.
 Alpha  occ. eigenvalues -- -105.17463 -15.75975 -15.75214 -11.48508 -11.47096
 Alpha  occ. eigenvalues --  -11.44852 -11.44228 -11.42576 -11.41596 -11.38872
 Alpha  occ. eigenvalues --  -11.38118  -2.75599  -1.49810  -1.47782  -1.46621
 Alpha  occ. eigenvalues --   -1.32838  -1.32132  -1.22297  -1.20872  -1.05348
 Alpha  occ. eigenvalues --   -1.03004  -0.89274  -0.86547  -0.71484  -0.70422
 Alpha  occ. eigenvalues --   -0.66247  -0.66095  -0.64750  -0.62609  -0.60434
 Alpha  occ. eigenvalues --   -0.58022  -0.54077  -0.52733  -0.52194  -0.50891
 Alpha  occ. eigenvalues --   -0.50709  -0.50353  -0.48757  -0.43661  -0.42910
 Alpha  occ. eigenvalues --   -0.42357  -0.41785  -0.20224  -0.06351   0.02469
 Alpha virt. eigenvalues --    0.04339   0.04745   0.05113   0.05211   0.05535
 Alpha virt. eigenvalues --    0.06083   0.06435   0.06752   0.07392   0.07661
 Alpha virt. eigenvalues --    0.08691   0.09234   0.09972   0.10201   0.10986

  Beta  occ. eigenvalues -- -105.16813 -15.75798 -15.75215 -11.48505 -11.47090
  Beta  occ. eigenvalues --  -11.44875 -11.44229 -11.42639 -11.41619 -11.38925
  Beta  occ. eigenvalues --  -11.38186  -2.73617  -1.47765  -1.45295  -1.32680
  Beta  occ. eigenvalues --   -1.32100  -1.24085  -1.22057  -1.20748  -1.05177
  Beta  occ. eigenvalues --   -1.02894  -0.88889  -0.86475  -0.71443  -0.69932
  Beta  occ. eigenvalues --   -0.66075  -0.65550  -0.63351  -0.61707  -0.60270
  Beta  occ. eigenvalues --   -0.57610  -0.53287  -0.52444  -0.51862  -0.50654
  Beta  occ. eigenvalues --   -0.50461  -0.50001  -0.48719  -0.43438  -0.42639
  Beta  occ. eigenvalues --   -0.42291  -0.41670  -0.21350  -0.04171
  Beta virt. eigenvalues --    0.03588   0.04736   0.04947   0.05146   0.05484
  Beta virt. eigenvalues --    0.06112   0.06128   0.06504   0.07244   0.07618
  Beta virt. eigenvalues --    0.08610   0.09194   0.09530   0.10140   0.11006

 Mulliken charges and spin densities:
               1          2
     1  P    5.421870   1.184105
     2  C   -4.415641  -0.217995
     3  C   -3.495246  -0.791921
     4  H    1.120709   0.061549
     5  H    1.477734  -0.162277
     6  C   -2.479658   0.020734
     7  C    2.115528  -0.237823
     8  N   -2.335511   0.125589
     9  C   -4.277852  -0.567590
    10  C   -2.721490   0.028174
    11  H    1.159383  -0.045665
    12  H    1.726696   0.052678
    13  C   -3.119081  -0.181212
    14  H    1.445517   0.041980
    15  H    0.975248   0.241810
    16  C    1.704635   0.101566
    17  H    1.946635   0.162276
    18  H    1.124128   0.125990
    19  N   -2.250723  -0.020341
    20  H    1.355919   0.052290
    21  H    0.923266   0.626851
    22  H    2.278607  -0.412375
    23  H    0.319327   0.811604
 Sum of Mulliken charges =   0.00000   1.00000

 Dipole moment (field-independent basis, Debye):
    X=             -2.0368    Y=              7.1389    Z=             -5.6592  Tot=              9.3348
                          Isotropic Fermi Contact Couplings
        Atom                 a.u.       MegaHertz       Gauss      10(-4) cm-1
     1  P(31)              0.31857     576.96628     205.87591     192.45523
     2  C(13)             -0.00042      -0.46787      -0.16695      -0.15607
     3  C(13)              0.04016      45.15283      16.11165      15.06136
     4  H(1)               0.00478      21.38212       7.62967       7.13231
     5  H(1)               0.00034       1.53685       0.54839       0.51264
     6  C(13)              0.03372      37.91235      13.52807      12.64620
     7  C(13)             -0.00241      -2.71296      -0.96805      -0.90495
     8  N(14)              0.04096      13.23294       4.72184       4.41404

 Normal termination of Gaussian 16 at Tue Apr  8 23:23:15 2025.
