 Gaussian 16, Revision C.01,

 ----------------------------------------------------------------------
 #t hf aug-cc-pvdz symm=none int=(grid=ultrafine) guess=(read,tcheck) s
 table=(opt,rrhf)
 ----------------------------------------------------------------------
 -----
 title
 -----
 Symbolic Z-matrix:
 Charge =  0 Multiplicity = 1

 SCF Done:  E(RHF) =  -906.387504558     A.U. after   12 cycles
 Normal termination of Gaussian 16 at Tue Apr  8 23:45:49 2025.
 Gaussian 16:  ES64L-G16RevC.01  3-Jul-2019

 ----------------------------------------------------------------------
 #t hf aug-cc-pvdz iop(5/13=1,5/36=2,99/5=2) pseudo=read geom=check gue
 ss=(read,tcheck) scf=(maxcycle=1)
 ----------------------------------------------------------------------
 -----
 title
 -----
 Structure from the checkpoint file:  "BDE49_nonexpt_1736_mol1.chk"
 Charge =  0 Multiplicity = 1

                         Standard orientation:
 ---------------------------------------------------------------------
 Center     Atomic      Atomic             Coordinates (Angstroms)
 Number     Number       Type             X           Y           Z
 ---------------------------------------------------------------------
      1          6           0       -2.215089    0.894190   -0.000032
      2          6           0       -1.040941   -0.110910   -0.000006
      3         14           0        0.552596    0.916124   -0.000011
      4          6           0       -1.112304   -0.992894    1.262576
      5         17           0        2.252271   -0.306992    0.000022
      6          1           0       -2.205683    1.537227    0.885676
      7          1           0       -3.168116    0.352410   -0.000031
      8          1           0       -1.076464   -0.396395    2.179307
      9          1           0       -0.292760   -1.715343    1.298839
     10          1           0       -2.052923   -1.556218    1.272301
     11          6           0       -1.112284   -0.992936   -1.262560
     12          1           0       -1.076429   -0.396468   -2.179310
     13          1           0       -2.052903   -1.556261   -1.272282
     14          1           0       -0.292740   -1.715387   -1.298786
     15          1           0       -2.205669    1.537197   -0.885762
     16          1           0        0.641216    1.758860    1.211690
     17          1           0        0.641234    1.758821   -1.211737
 ---------------------------------------------------------------------

 SCF Done:  E(RHF) =  -907.627544767     A.U. after    2 cycles

 The electronic state is 1-A.
 Alpha  occ. eigenvalues --  -99.87556 -76.24735 -11.41284 -11.39774 -11.39390
 Alpha  occ. eigenvalues --  -11.35229 -10.44927  -9.64879  -9.64332  -9.64230
 Alpha  occ. eigenvalues --   -5.58391  -2.22442  -2.21040  -2.20615  -1.28508
 Alpha  occ. eigenvalues --   -1.25557  -1.01344  -1.01086  -0.82937  -0.74038
 Alpha  occ. eigenvalues --   -0.62320  -0.61186  -0.61119  -0.55727  -0.55595
 Alpha  occ. eigenvalues --   -0.53398  -0.53254  -0.51994  -0.51932  -0.46826
 Alpha  occ. eigenvalues --   -0.44487  -0.44256  -0.36844
 Alpha virt. eigenvalues --    0.03578   0.05250   0.05662   0.05783   0.05814
 Alpha virt. eigenvalues --    0.06056   0.06148   0.06227   0.06608   0.08655
 Alpha virt. eigenvalues --    0.09403   0.09602   0.10226   0.11423   0.12204

 Mulliken charges:
               1
     1  C   -4.103583
     2  C    0.351633
     3  Si   5.502003
     4  C   -4.093141
     5  Cl  -0.902731
     6  H    1.281886
     7  H    1.248618
     8  H    1.262835
     9  H    1.219584
    10  H    1.281149
    11  C   -4.093140
    12  H    1.262835
    13  H    1.281148
    14  H    1.219585
    15  H    1.281886
    16  H   -2.000284
    17  H   -2.000285
 Sum of Mulliken charges =  -0.00000

 Dipole moment (field-independent basis, Debye):
    X=             -2.2525    Y=              0.1841    Z=             -0.0000  Tot=              2.2600

 Test job not archived.
 1\1\GINC-SE284\SP\RHF\Aug-CC-pVDZ\C4H11Cl1Si1\OHZDE\08-Apr-2025\0\\#t
 hf aug-cc-pvdz iop(5/13=1,5/36=2,99/5=2) pseudo=read geom=check guess=
 (read,tcheck) scf=(maxcycle=1)\\title\\0,1\C,0,-2.215089,0.89419,-0.00
 0032\C,0,-1.040941,-0.11091,-0.000006\Si,0,0.552596,0.916124,-0.000011
 \C,0,-1.112304,-0.992894,1.262576\Cl,0,2.252271,-0.306992,0.000022\H,0
 ,-2.205683,1.537227,0.885676\H,0,-3.168116,0.35241,-0.000031\H,0,-1.07
 6464,-0.396395,2.179307\H,0,-0.29276,-1.715343,1.298839\H,0,-2.052923,
 -1.556218,1.272301\C,0,-1.112284,-0.992936,-1.26256\H,0,-1.076429,-0.3

 Normal termination of Gaussian 16 at Tue Apr  8 23:45:56 2025.
