 Gaussian 16, Revision C.01,

 ----------------------------------------------------------------------
 #t hf aug-cc-pvdz symm=none int=(grid=ultrafine) guess=(read,tcheck) s
 table=(opt,rrhf)
 ----------------------------------------------------------------------
 -----
 title
 -----
 Symbolic Z-matrix:
 Charge =  0 Multiplicity = 1

 SCF Done:  E(RHF) =  -1097.36722578     A.U. after   12 cycles
 Normal termination of Gaussian 16 at Wed Apr  9 00:40:56 2025.
 Gaussian 16:  ES64L-G16RevC.01  3-Jul-2019

 ----------------------------------------------------------------------
 #t hf aug-cc-pvdz iop(5/13=1,5/36=2,99/5=2) pseudo=read geom=check gue
 ss=(read,tcheck) scf=(maxcycle=1)
 ----------------------------------------------------------------------
 -----
 title
 -----
 Structure from the checkpoint file:  "BDE49_nonexpt_650_mol1.chk"
 Charge =  0 Multiplicity = 1

                         Standard orientation:
 ---------------------------------------------------------------------
 Center     Atomic      Atomic             Coordinates (Angstroms)
 Number     Number       Type             X           Y           Z
 ---------------------------------------------------------------------
      1         17           0        2.026838   -0.962346    0.133962
      2         17           0        0.521948    1.689160    0.037108
      3          8           0       -0.587980   -0.787873   -0.390876
      4          6           0       -1.918110   -0.264920   -0.607847
      5          1           0       -2.325595   -0.850521   -1.432978
      6          1           0       -1.854790    0.780563   -0.915069
      7          6           0       -2.757149   -0.426341    0.646738
      8          1           0       -2.777989   -1.470628    0.964837
      9          1           0       -3.783134   -0.104568    0.448383
     10          1           0       -2.361404    0.180207    1.464484
     11          5           0        0.505786   -0.088067   -0.108834
 ---------------------------------------------------------------------

 SCF Done:  E(RHF) =  -1098.67092730     A.U. after    2 cycles

 The electronic state is 1-A.
 Alpha  occ. eigenvalues --  -99.89728 -99.88967 -21.05461 -11.45960 -11.38286
 Alpha  occ. eigenvalues --  -10.47056 -10.46250  -9.67034  -9.66579  -9.66342
 Alpha  occ. eigenvalues --   -9.66204  -9.65752  -9.65603  -7.73114  -1.81165
 Alpha  occ. eigenvalues --   -1.36372  -1.29343  -1.14341  -0.91735  -0.77921
 Alpha  occ. eigenvalues --   -0.69179  -0.66164  -0.62291  -0.59333  -0.56696
 Alpha  occ. eigenvalues --   -0.54616  -0.52475  -0.51704  -0.50469  -0.48874
 Alpha  occ. eigenvalues --   -0.41456  -0.40534
 Alpha virt. eigenvalues --    0.02919   0.04379   0.04532   0.04964   0.05855
 Alpha virt. eigenvalues --    0.06380   0.07028   0.07581   0.09850   0.10838
 Alpha virt. eigenvalues --    0.11136   0.12104   0.13697   0.13958   0.14648

 Mulliken charges:
               1
     1  Cl  -1.277846
     2  Cl  -1.129930
     3  O   -3.462044
     4  C   -1.142075
     5  H    1.358868
     6  H    1.524199
     7  C   -3.533288
     8  H    1.311636
     9  H    1.217096
    10  H    1.229893
    11  B    3.903491
 Sum of Mulliken charges =  -0.00000

 Dipole moment (field-independent basis, Debye):
    X=             -2.7621    Y=             -0.3598    Z=             -0.4424  Tot=              2.8203

 Test job not archived.
 1\1\GINC-SE332\SP\RHF\Aug-CC-pVDZ\C2H5B1Cl2O1\OHZDE\09-Apr-2025\0\\#t
 hf aug-cc-pvdz iop(5/13=1,5/36=2,99/5=2) pseudo=read geom=check guess=
 (read,tcheck) scf=(maxcycle=1)\\title\\0,1\Cl,0,2.026838,-0.962347,0.1
 33962\Cl,0,0.521949,1.68916,0.037108\O,0,-0.58798,-0.787873,-0.390876\
 C,0,-1.91811,-0.264919,-0.607847\H,0,-2.325595,-0.85052,-1.432978\H,0,
 -1.85479,0.780564,-0.915069\C,0,-2.757149,-0.42634,0.646738\H,0,-2.777
 989,-1.470627,0.964837\H,0,-3.783134,-0.104567,0.448383\H,0,-2.361404,
 0.180208,1.464484\B,0,0.505786,-0.088067,-0.108834\\Version=ES64L-G16R

 Normal termination of Gaussian 16 at Wed Apr  9 00:40:59 2025.
