 Gaussian 16, Revision C.01,

 ----------------------------------------------------------------------
 #t hf aug-cc-pvdz symm=none int=(grid=ultrafine) guess=(read,tcheck) s
 table=(opt,rrhf)
 ----------------------------------------------------------------------
 -----
 title
 -----
 Symbolic Z-matrix:
 Charge =  0 Multiplicity = 1

 SCF Done:  E(RHF) =  -558.070955176     A.U. after   12 cycles
 Normal termination of Gaussian 16 at Tue Apr  8 23:59:48 2025.
 Gaussian 16:  ES64L-G16RevC.01  3-Jul-2019

 ----------------------------------------------------------------------
 #t hf aug-cc-pvdz iop(5/13=1,5/36=2,99/5=2) pseudo=read geom=check gue
 ss=(read,tcheck) scf=(maxcycle=1)
 ----------------------------------------------------------------------
 -----
 title
 -----
 Structure from the checkpoint file:  "BDE49_nonexpt_2070_mol1.chk"
 Charge =  0 Multiplicity = 1

                         Standard orientation:
 ---------------------------------------------------------------------
 Center     Atomic      Atomic             Coordinates (Angstroms)
 Number     Number       Type             X           Y           Z
 ---------------------------------------------------------------------
      1         14           0       -1.742863   -0.698368    0.064782
      2          6           0        0.029405   -0.200143   -0.489106
      3          8           0        0.893057   -0.775184    0.471581
      4          8           0        0.278740    1.176985   -0.699089
      5          6           0        2.252588   -0.869412    0.047973
      6          1           0        2.344919   -1.538705   -0.817281
      7          1           0        2.816001   -1.283236    0.883920
      8          1           0        2.653107    0.113734   -0.215395
      9          6           0        0.011081    2.017631    0.418446
     10          1           0        0.364778    3.012658    0.149390
     11          1           0        0.535839    1.673262    1.314441
     12          1           0       -1.064362    2.074057    0.632897
     13          1           0        0.224381   -0.642056   -1.477061
     14          1           0       -1.963443   -0.433065    1.503415
     15          1           0       -1.897684   -2.147958   -0.192245
     16          1           0       -2.746262    0.045598   -0.732842
 ---------------------------------------------------------------------

 SCF Done:  E(RHF) =  -559.455420071     A.U. after    2 cycles

 The electronic state is 1-A.
 Alpha  occ. eigenvalues --  -76.21286 -21.05142 -21.04921 -11.43015 -11.40534
 Alpha  occ. eigenvalues --  -11.39903  -5.54834  -2.18979  -2.17286  -2.17196
 Alpha  occ. eigenvalues --   -1.80744  -1.68775  -1.04043  -0.98301  -0.87380
 Alpha  occ. eigenvalues --   -0.75752  -0.66668  -0.62966  -0.60154  -0.59733
 Alpha  occ. eigenvalues --   -0.58425  -0.52349  -0.48296  -0.46669  -0.46111
 Alpha  occ. eigenvalues --   -0.44141  -0.35387  -0.30123  -0.28992
 Alpha virt. eigenvalues --    0.03738   0.04776   0.05411   0.05509   0.05903
 Alpha virt. eigenvalues --    0.06394   0.06611   0.06963   0.08178   0.09133
 Alpha virt. eigenvalues --    0.09873   0.10575   0.11177   0.13095   0.14109

 Mulliken charges:
               1
     1  Si   6.306930
     2  C    1.507804
     3  O   -3.029957
     4  O   -3.150219
     5  C   -2.968368
     6  H    1.314901
     7  H    1.299324
     8  H    1.371107
     9  C   -3.012822
    10  H    1.263895
    11  H    1.394540
    12  H    1.322001
    13  H    1.921400
    14  H   -1.895545
    15  H   -1.813156
    16  H   -1.831834
 Sum of Mulliken charges =  -0.00000

 Dipole moment (field-independent basis, Debye):
    X=              0.8554    Y=              0.2735    Z=             -0.0239  Tot=              0.8984

 Test job not archived.
 1\1\GINC-SE453\SP\RHF\Aug-CC-pVDZ\C3H10O2Si1\OHZDE\08-Apr-2025\0\\#t h
 f aug-cc-pvdz iop(5/13=1,5/36=2,99/5=2) pseudo=read geom=check guess=(
 read,tcheck) scf=(maxcycle=1)\\title\\0,1\Si,0,-1.742863,-0.698369,0.0
 64782\C,0,0.029405,-0.200143,-0.489106\O,0,0.893057,-0.775184,0.471581
 \O,0,0.278739,1.176985,-0.699089\C,0,2.252588,-0.869411,0.047973\H,0,2
 .34492,-1.538704,-0.817281\H,0,2.816001,-1.283235,0.88392\H,0,2.653107
 ,0.113735,-0.215395\C,0,0.01108,2.017631,0.418446\H,0,0.364777,3.01265
 8,0.14939\H,0,0.535838,1.673262,1.314441\H,0,-1.064363,2.074056,0.6328

 Normal termination of Gaussian 16 at Tue Apr  8 23:59:53 2025.
