 Gaussian 16, Revision C.01,

 ----------------------------------------------------------------------
 #t hf aug-cc-pvdz symm=none int=(grid=ultrafine) guess=(read,tcheck) s
 table=(opt,rrhf)
 ----------------------------------------------------------------------
 -----
 title
 -----
 Symbolic Z-matrix:
 Charge =  0 Multiplicity = 1

 SCF Done:  E(RHF) =  -480.461290005     A.U. after   15 cycles
 Normal termination of Gaussian 16 at Wed Apr  9 00:43:22 2025.
 Gaussian 16:  ES64L-G16RevC.01  3-Jul-2019

 ----------------------------------------------------------------------
 #t hf aug-cc-pvdz iop(5/13=1,5/36=2,99/5=2) pseudo=read geom=check gue
 ss=(read,tcheck) scf=(maxcycle=1)
 ----------------------------------------------------------------------
 -----
 title
 -----
 Structure from the checkpoint file:  "BDE49_nonexpt_729_mol1.chk"
 Charge =  0 Multiplicity = 1

                         Standard orientation:
 ---------------------------------------------------------------------
 Center     Atomic      Atomic             Coordinates (Angstroms)
 Number     Number       Type             X           Y           Z
 ---------------------------------------------------------------------
      1          6           0       -1.014729    0.448950   -0.172429
      2          5           0        1.949916    0.599300    0.261317
      3          8           0       -2.043139    0.037208    0.290421
      4         15           0        0.561775   -0.519819   -0.226164
      5          1           0        2.892415    0.155581    0.829947
      6          1           0        1.930096    1.724510   -0.121716
      7          1           0       -0.931561    1.443600   -0.660324
      8          1           0        0.366334   -1.514275    0.749174
 ---------------------------------------------------------------------

 SCF Done:  E(RHF) =  -481.243970763     A.U. after    2 cycles

 The electronic state is 1-A.
 Alpha  occ. eigenvalues -- -105.18092 -21.08157 -11.48905  -7.64295  -2.76900
 Alpha  occ. eigenvalues --   -1.72651  -1.54888  -1.48849  -1.42836  -0.91837
 Alpha  occ. eigenvalues --   -0.81232  -0.68233  -0.56282  -0.51551  -0.47085
 Alpha  occ. eigenvalues --   -0.41482  -0.23142  -0.13256  -0.06513
 Alpha virt. eigenvalues --    0.03218   0.03674   0.04260   0.05871   0.08081
 Alpha virt. eigenvalues --    0.08834   0.09608   0.09959   0.11052   0.12143
 Alpha virt. eigenvalues --    0.12570   0.14171   0.14892   0.15961   0.16654

 Mulliken charges:
               1
     1  C   -0.921062
     2  B    4.337257
     3  O   -2.345633
     4  P    2.801817
     5  H   -2.579819
     6  H   -2.053091
     7  H    1.349201
     8  H   -0.588671
 Sum of Mulliken charges =   0.00000

 Dipole moment (field-independent basis, Debye):
    X=             -2.9098    Y=             -5.5081    Z=             -4.7016  Tot=              7.8045

 Test job not archived.
 1\1\GINC-SE166\SP\RHF\Aug-CC-pVDZ\C1H4B1O1P1\OHZDE\09-Apr-2025\0\\#t h
 f aug-cc-pvdz iop(5/13=1,5/36=2,99/5=2) pseudo=read geom=check guess=(
 read,tcheck) scf=(maxcycle=1)\\title\\0,1\C,0,-1.014729,0.44895,-0.172
 429\B,0,1.949916,0.5993,0.261317\O,0,-2.043139,0.037209,0.290421\P,0,0
 .561775,-0.519819,-0.226164\H,0,2.892415,0.15558,0.829947\H,0,1.930097
 ,1.72451,-0.121716\H,0,-0.931561,1.4436,-0.660324\H,0,0.366334,-1.5142
 75,0.749174\\Version=ES64L-G16RevC.01\State=1-A\HF=-481.2439708\RMSD=3
 .916e-01\Dipole=-1.1447967,-2.1670647,-1.849736\Quadrupole=-7.0665645,

 Normal termination of Gaussian 16 at Wed Apr  9 00:43:25 2025.
