 Gaussian 16, Revision C.01,

 ----------------------------------------------------------------------
 #t hf aug-cc-pvdz symm=none int=(grid=ultrafine) guess=(read,tcheck) s
 table=(opt,rrhf)
 ----------------------------------------------------------------------
 -----
 title
 -----
 Symbolic Z-matrix:
 Charge =  0 Multiplicity = 1

 SCF Done:  E(RHF) =  -3032.42800482     A.U. after   14 cycles
 Normal termination of Gaussian 16 at Wed Apr  9 00:51:25 2025.
 Gaussian 16:  ES64L-G16RevC.01  3-Jul-2019

 ----------------------------------------------------------------------
 #t hf aug-cc-pvdz iop(5/13=1,5/36=2,99/5=2) pseudo=read geom=check gue
 ss=(read,tcheck) scf=(maxcycle=1)
 ----------------------------------------------------------------------
 -----
 title
 -----
 Structure from the checkpoint file:  "BDE49_nonexpt_915_mol1.chk"
 Charge =  0 Multiplicity = 1

                         Standard orientation:
 ---------------------------------------------------------------------
 Center     Atomic      Atomic             Coordinates (Angstroms)
 Number     Number       Type             X           Y           Z
 ---------------------------------------------------------------------
      1         16           0        1.028690   -1.098632   -0.710722
      2          5           0        2.345730    0.046342   -0.119451
      3         16           0        3.874976   -0.763857    0.437705
      4         16           0        2.310697    1.845896   -0.081728
      5         16           0       -0.586668    0.075455   -1.314235
      6          6           0       -1.763654   -0.021784    0.105967
      7         17           0       -2.308776   -1.696806    0.429490
      8         17           0       -3.152745    0.965833   -0.464541
      9         17           0       -1.110361    0.673200    1.620922
     10          1           0        1.056028    1.976780   -0.557078
     11          1           0        3.476111   -2.037436    0.262415
 ---------------------------------------------------------------------

 SCF Done:  E(RHF) =  -3034.35794653     A.U. after    2 cycles

 The electronic state is 1-A.
 Alpha  occ. eigenvalues --  -99.93339 -99.92901 -99.92753 -75.75845 -75.73556
 Alpha  occ. eigenvalues --  -75.71137 -75.70751 -13.19434 -13.18688 -13.18155
 Alpha  occ. eigenvalues --  -13.16467 -13.14309 -13.13338 -13.13172 -13.11264
 Alpha  occ. eigenvalues --  -13.09064 -13.08502 -13.06250 -13.04704 -11.57851
 Alpha  occ. eigenvalues --  -10.50728 -10.50220 -10.49983  -9.70521  -9.70113
 Alpha  occ. eigenvalues --   -9.69920  -9.69717  -9.69656  -9.69398  -9.69268
 Alpha  occ. eigenvalues --   -9.69129  -9.69077  -8.09676  -8.07526  -8.05208
 Alpha  occ. eigenvalues --   -8.04558  -7.69840  -1.48088  -1.32041  -1.31479
 Alpha  occ. eigenvalues --   -1.28393  -1.19921  -1.11622  -1.06923  -0.93239
 Alpha  occ. eigenvalues --   -0.72622  -0.71984  -0.69473  -0.66573  -0.58386
 Alpha  occ. eigenvalues --   -0.58111  -0.55522  -0.52673  -0.52320  -0.51192
 Alpha  occ. eigenvalues --   -0.50014  -0.46951  -0.44440  -0.39731  -0.36102
 Alpha  occ. eigenvalues --   -0.33883  -0.29131  -0.27751  -0.26187
 Alpha virt. eigenvalues --   -0.01202   0.01325   0.02120   0.02683   0.03195
 Alpha virt. eigenvalues --    0.04942   0.05570   0.08018   0.08490   0.08862
 Alpha virt. eigenvalues --    0.09792   0.10136   0.10283   0.11075   0.12248

 Mulliken charges:
               1
     1  S   -1.483362
     2  B    4.684732
     3  S   -2.500855
     4  S   -2.299312
     5  S    0.164498
     6  C   -1.195614
     7  Cl   0.193127
     8  Cl   0.383439
     9  Cl   0.066191
    10  H    1.044139
    11  H    0.943019
 Sum of Mulliken charges =  -0.00000

 Dipole moment (field-independent basis, Debye):
    X=              4.7345    Y=              0.6746    Z=             -1.5738  Tot=              5.0346

 Test job not archived.
 1\1\GINC-SE404\SP\RHF\Aug-CC-pVDZ\C1H2B1Cl3S4\OHZDE\09-Apr-2025\0\\#t
 hf aug-cc-pvdz iop(5/13=1,5/36=2,99/5=2) pseudo=read geom=check guess=
 (read,tcheck) scf=(maxcycle=1)\\title\\0,1\S,0,1.02869,-1.098632,-0.71
 0722\B,0,2.34573,0.046342,-0.119451\S,0,3.874976,-0.763857,0.437705\S,
 0,2.310697,1.845896,-0.081728\S,0,-0.586668,0.075455,-1.314235\C,0,-1.
 763654,-0.021784,0.105967\Cl,0,-2.308776,-1.696806,0.42949\Cl,0,-3.152
 745,0.965833,-0.464541\Cl,0,-1.110361,0.6732,1.620922\H,0,1.056028,1.9
 7678,-0.557078\H,0,3.476111,-2.037436,0.262415\\Version=ES64L-G16RevC.

 Normal termination of Gaussian 16 at Wed Apr  9 00:51:33 2025.
