 Gaussian 16, Revision C.01,

 ----------------------------------------------------------------------
 #t hf aug-cc-pvdz symm=none int=(grid=ultrafine) guess=(read,tcheck) s
 table=(opt,rrhf)
 ----------------------------------------------------------------------
 -----
 title
 -----
 Symbolic Z-matrix:
 Charge =  0 Multiplicity = 1

 SCF Done:  E(RHF) =  -321.605225037     A.U. after   14 cycles
 Normal termination of Gaussian 16 at Tue Apr  8 22:41:36 2025.
 Gaussian 16:  ES64L-G16RevC.01  3-Jul-2019

 ----------------------------------------------------------------------
 #t hf aug-cc-pvdz iop(5/13=1,5/36=2,99/5=2) pseudo=read geom=check gue
 ss=(read,tcheck) scf=(maxcycle=1)
 ----------------------------------------------------------------------
 -----
 title
 -----
 Structure from the checkpoint file:  "BDE49_expt_1348_mol1.chk"
 Charge =  0 Multiplicity = 1

                         Standard orientation:
 ---------------------------------------------------------------------
 Center     Atomic      Atomic             Coordinates (Angstroms)
 Number     Number       Type             X           Y           Z
 ---------------------------------------------------------------------
      1          6           0       -1.064289   -1.187857    0.000005
      2          6           0       -1.823053   -0.022991    0.000001
      3          6           0       -1.141946    1.193844    0.000001
      4          6           0        0.244622    1.193993   -0.000002
      5          6           0        0.904188   -0.045216   -0.000011
      6          7           0        0.272012   -1.209308   -0.000003
      7          1           0       -1.548455   -2.160508    0.000003
      8          1           0       -2.904622   -0.067292    0.000001
      9          1           0       -1.684315    2.132659    0.000003
     10          1           0        0.804023    2.123773    0.000003
     11          8           0        2.259440   -0.137775    0.000004
     12          1           0        2.636641    0.748085    0.000013
 ---------------------------------------------------------------------

 SCF Done:  E(RHF) =  -323.062421222     A.U. after    2 cycles

 The electronic state is 1-A.
 Alpha  occ. eigenvalues --  -21.11084 -15.73189 -11.50937 -11.47328 -11.44554
 Alpha  occ. eigenvalues --  -11.41231 -11.38240  -1.77400  -1.42817  -1.19728
 Alpha  occ. eigenvalues --   -1.09508  -0.90640  -0.87485  -0.73129  -0.67306
 Alpha  occ. eigenvalues --   -0.63664  -0.59102  -0.57708  -0.56686  -0.50127
 Alpha  occ. eigenvalues --   -0.44870  -0.43957  -0.37307  -0.36083  -0.28815
 Alpha virt. eigenvalues --    0.03000   0.04771   0.05026   0.05813   0.07009
 Alpha virt. eigenvalues --    0.09883   0.10592   0.11881   0.12049   0.12350
 Alpha virt. eigenvalues --    0.13160   0.13581   0.14009   0.14470   0.14582

 Mulliken charges:
               1
     1  C   -1.162009
     2  C   -0.531857
     3  C    0.237531
     4  C   -1.492429
     5  C    3.000878
     6  N   -3.118160
     7  H    1.543380
     8  H    1.385965
     9  H    1.464028
    10  H    1.455726
    11  O   -3.619753
    12  H    0.836701
 Sum of Mulliken charges =   0.00000

 Dipole moment (field-independent basis, Debye):
    X=             -0.4920    Y=              2.1560    Z=              0.0000  Tot=              2.2115

 Test job not archived.
 1\1\GINC-SE364\SP\RHF\Aug-CC-pVDZ\C5H5N1O1\OHZDE\08-Apr-2025\0\\#t hf
 aug-cc-pvdz iop(5/13=1,5/36=2,99/5=2) pseudo=read geom=check guess=(re
 ad,tcheck) scf=(maxcycle=1)\\title\\0,1\C,0,1.064289,-1.187857,-0.0000
 05\C,0,1.823053,-0.022991,-0.000001\C,0,1.141946,1.193844,-0.000001\C,
 0,-0.244622,1.193993,0.000002\C,0,-0.904188,-0.045216,0.000011\N,0,-0.
 272012,-1.209308,0.000003\H,0,1.548455,-2.160508,-0.000003\H,0,2.90462
 2,-0.067292,-0.000001\H,0,1.684315,2.132659,-0.000003\H,0,-0.804023,2.
 123773,-0.000003\O,0,-2.25944,-0.137775,-0.000004\H,0,-2.636641,0.7480

 Normal termination of Gaussian 16 at Tue Apr  8 22:41:40 2025.
