 Gaussian 16, Revision C.01,

 ----------------------------------------------------------------------
 #t hf aug-cc-pvdz symm=none int=(grid=ultrafine) guess=(read,tcheck) s
 table=(opt,rrhf)
 ----------------------------------------------------------------------
 -----
 title
 -----
 Symbolic Z-matrix:
 Charge =  0 Multiplicity = 1

 SCF Done:  E(RHF) =  -473.536690368     A.U. after   13 cycles
 Normal termination of Gaussian 16 at Tue Apr  8 22:58:34 2025.
 Gaussian 16:  ES64L-G16RevC.01  3-Jul-2019

 ----------------------------------------------------------------------
 #t hf aug-cc-pvdz iop(5/13=1,5/36=2,99/5=2) pseudo=read geom=check gue
 ss=(read,tcheck) scf=(maxcycle=1)
 ----------------------------------------------------------------------
 -----
 title
 -----
 Structure from the checkpoint file:  "BDE49_expt_1912_mol1.chk"
 Charge =  0 Multiplicity = 1

                         Standard orientation:
 ---------------------------------------------------------------------
 Center     Atomic      Atomic             Coordinates (Angstroms)
 Number     Number       Type             X           Y           Z
 ---------------------------------------------------------------------
      1          8           0       -1.100518    0.022487   -0.117710
      2         16           0        0.585231   -0.089872    0.009200
      3          1           0       -1.439897    0.029319    0.785218
      4          1           0        0.880356    1.228735    0.009263
 ---------------------------------------------------------------------

 SCF Done:  E(RHF) =  -474.075096488     A.U. after    2 cycles

 The electronic state is 1-A.
 Alpha  occ. eigenvalues --  -75.73796 -21.10912 -13.18568 -13.11548 -13.05617
 Alpha  occ. eigenvalues --   -8.07240  -1.72816  -1.05688  -0.61808  -0.53913
 Alpha  occ. eigenvalues --   -0.43882  -0.35433  -0.24803
 Alpha virt. eigenvalues --    0.03103   0.04523   0.09149   0.10777   0.13241
 Alpha virt. eigenvalues --    0.15402   0.20079   0.21727   0.23579   0.24756
 Alpha virt. eigenvalues --    0.26534   0.27297   0.31111   0.34702   0.35800

 Mulliken charges:
               1
     1  O   -2.002681
     2  S    0.128234
     3  H    0.960140
     4  H    0.914307
 Sum of Mulliken charges =  -0.00000

 Dipole moment (field-independent basis, Debye):
    X=             -0.0069    Y=             -0.8017    Z=              0.5591  Tot=              0.9774

 Test job not archived.
 1\1\GINC-SE249\SP\RHF\Aug-CC-pVDZ\H2O1S1\OHZDE\08-Apr-2025\0\\#t hf au
 g-cc-pvdz iop(5/13=1,5/36=2,99/5=2) pseudo=read geom=check guess=(read
 ,tcheck) scf=(maxcycle=1)\\title\\0,1\O,0,-1.100518,0.022487,-0.11771\
 S,0,0.585231,-0.089872,0.0092\H,0,-1.439897,0.029319,0.785218\H,0,0.88
 0357,1.228735,0.009263\\Version=ES64L-G16RevC.01\State=1-A\HF=-474.075
 0965\RMSD=7.232e-02\Dipole=-0.0027023,-0.3154162,0.2199628\Quadrupole=
 1.1083448,0.25229,-1.3606348,-0.0634721,-1.4586374,0.0211053\PG=C01 [X
 (H2O1S1)]\\@

 Normal termination of Gaussian 16 at Tue Apr  8 22:58:36 2025.
