 Gaussian 16, Revision C.01,

 ----------------------------------------------------------------------
 #t hf aug-cc-pvdz symm=none int=(grid=ultrafine) guess=(read,tcheck) s
 table=(opt,rrhf)
 ----------------------------------------------------------------------
 -----
 title
 -----
 Symbolic Z-matrix:
 Charge =  0 Multiplicity = 1

 SCF Done:  E(RHF) =  -973.121450619     A.U. after   15 cycles
 Normal termination of Gaussian 16 at Tue Apr  8 23:13:18 2025.
 Gaussian 16:  ES64L-G16RevC.01  3-Jul-2019

 ----------------------------------------------------------------------
 #t hf aug-cc-pvdz iop(5/13=1,5/36=2,99/5=2) pseudo=read geom=check gue
 ss=(read,tcheck) scf=(maxcycle=1)
 ----------------------------------------------------------------------
 -----
 title
 -----
 Structure from the checkpoint file:  "BDE49_expt_394_mol1.chk"
 Charge =  0 Multiplicity = 1

                         Standard orientation:
 ---------------------------------------------------------------------
 Center     Atomic      Atomic             Coordinates (Angstroms)
 Number     Number       Type             X           Y           Z
 ---------------------------------------------------------------------
      1         16           0       -1.348096   -0.838134   -0.177729
      2          8           0       -2.395527   -1.318197   -1.067573
      3          8           0       -1.020615   -1.587039    1.026731
      4          6           0        1.452902   -0.364789   -0.608343
      5          6           0        2.124057    0.769117   -1.078519
      6          6           0        2.031943   -1.112743    0.424075
      7          6           0        3.247212   -0.723149    0.978181
      8          6           0        3.906103    0.411842    0.507160
      9          6           0        3.342871    1.156433   -0.525883
     10          1           0        3.851634    2.035576   -0.904978
     11          1           0        1.695342    1.349026   -1.889783
     12          1           0        1.516602   -1.987567    0.800490
     13          1           0        3.682796   -1.309665    1.779219
     14          1           0        4.854636    0.709966    0.939152
     15          6           0        0.154069   -0.785872   -1.237834
     16          1           0       -0.108794   -0.175932   -2.101585
     17          1           0        0.177532   -1.829223   -1.565855
     18          6           0       -1.813164    0.893596    0.338828
     19          6           0       -1.920885    1.775307   -0.910080
     20          1           0       -2.332194    2.747678   -0.623534
     21          1           0       -2.585847    1.330288   -1.652162
     22          1           0       -0.946508    1.957307   -1.368827
     23          6           0       -3.188591    0.722345    1.006533
     24          1           0       -3.530738    1.701554    1.353178
     25          1           0       -3.126987    0.055139    1.867965
     26          1           0       -3.922564    0.321359    0.307085
     27          6           0       -0.787270    1.428556    1.343733
     28          1           0        0.195757    1.574109    0.895235
     29          1           0       -0.682892    0.751075    2.191540
     30          1           0       -1.134571    2.397506    1.716159
 ---------------------------------------------------------------------

 SCF Done:  E(RHF) =  -976.149637975     A.U. after    2 cycles

 The electronic state is 1-A.
 Alpha  occ. eigenvalues --  -75.86273 -21.02903 -21.02726 -13.48811 -13.40004
 Alpha  occ. eigenvalues --  -13.36576 -11.53383 -11.46830 -11.45288 -11.44514
 Alpha  occ. eigenvalues --  -11.44012 -11.42161 -11.41695 -11.41242 -11.40401
 Alpha  occ. eigenvalues --  -11.37636 -11.37360  -8.21336  -1.81134  -1.63553
 Alpha  occ. eigenvalues --   -1.36550  -1.29364  -1.17890  -1.10126  -1.05683
 Alpha  occ. eigenvalues --   -1.03096  -1.02333  -0.94142  -0.87468  -0.85028
 Alpha  occ. eigenvalues --   -0.78051  -0.71909  -0.67834  -0.66276  -0.64017
 Alpha  occ. eigenvalues --   -0.62564  -0.62231  -0.59518  -0.58860  -0.58120
 Alpha  occ. eigenvalues --   -0.56405  -0.55279  -0.53844  -0.52967  -0.50676
 Alpha  occ. eigenvalues --   -0.49230  -0.47655  -0.46527  -0.45811  -0.45254
 Alpha  occ. eigenvalues --   -0.41403  -0.37917  -0.37318  -0.34461  -0.33771
 Alpha  occ. eigenvalues --   -0.33229  -0.30159
 Alpha virt. eigenvalues --    0.03229   0.04394   0.04441   0.04655   0.05218
 Alpha virt. eigenvalues --    0.05536   0.05805   0.06327   0.06806   0.07077
 Alpha virt. eigenvalues --    0.07257   0.07914   0.08396   0.08777   0.09186

 Mulliken charges:
               1
     1  S    7.494565
     2  O   -2.957462
     3  O   -3.004981
     4  C    7.172378
     5  C   -3.548034
     6  C   -3.604661
     7  C   -1.654684
     8  C   -2.966003
     9  C   -1.746582
    10  H    1.521707
    11  H    1.921461
    12  H    2.115897
    13  H    1.548264
    14  H    1.565925
    15  C   -6.409168
    16  H    1.412171
    17  H    1.175447
    18  C    4.887445
    19  C   -5.726500
    20  H    1.042037
    21  H    1.122996
    22  H    1.522142
    23  C   -5.702093
    24  H    1.186673
    25  H    1.211825
    26  H    1.352954
    27  C   -5.088154
    28  H    1.779497
    29  H    1.348157
    30  H    1.026781
 Sum of Mulliken charges =   0.00000

 Dipole moment (field-independent basis, Debye):
    X=              1.1322    Y=              1.9450    Z=              0.1284  Tot=              2.2542

 Test job not archived.
 1\1\GINC-SE368\SP\RHF\Aug-CC-pVDZ\C11H16O2S1\OHZDE\08-Apr-2025\0\\#t h
 f aug-cc-pvdz iop(5/13=1,5/36=2,99/5=2) pseudo=read geom=check guess=(
 read,tcheck) scf=(maxcycle=1)\\title\\0,1\S,0,-1.348096,-0.838134,-0.1
 77729\O,0,-2.395527,-1.318197,-1.067573\O,0,-1.020615,-1.587039,1.0267
 31\C,0,1.452902,-0.364789,-0.608343\C,0,2.124057,0.769117,-1.078519\C,
 0,2.031943,-1.112743,0.424075\C,0,3.247212,-0.723149,0.978181\C,0,3.90
 6103,0.411842,0.50716\C,0,3.342871,1.156433,-0.525883\H,0,3.851634,2.0
 35576,-0.904978\H,0,1.695342,1.349026,-1.889783\H,0,1.516602,-1.987567

 Normal termination of Gaussian 16 at Tue Apr  8 23:13:47 2025.
