 Gaussian 16, Revision C.01,

 ----------------------------------------------------------------------
 #t hf aug-cc-pvdz symm=none int=(grid=ultrafine) guess=(read,tcheck) s
 table=(opt,rrhf)
 ----------------------------------------------------------------------
 -----
 title
 -----
 Symbolic Z-matrix:
 Charge =  0 Multiplicity = 1

 SCF Done:  E(RHF) =  -586.889781241     A.U. after   18 cycles
 Normal termination of Gaussian 16 at Tue Apr  8 22:43:57 2025.
 Gaussian 16:  ES64L-G16RevC.01  3-Jul-2019

 ----------------------------------------------------------------------
 #t hf aug-cc-pvdz iop(5/13=1,5/36=2,99/5=2) pseudo=read geom=check gue
 ss=(read,tcheck) scf=(maxcycle=1)
 ----------------------------------------------------------------------
 -----
 title
 -----
 Structure from the checkpoint file:  "BDE49_expt_1259_mol1.chk"
 Charge =  0 Multiplicity = 1

                         Standard orientation:
 ---------------------------------------------------------------------
 Center     Atomic      Atomic             Coordinates (Angstroms)
 Number     Number       Type             X           Y           Z
 ---------------------------------------------------------------------
      1          6           0       -0.901959    2.181659    0.070356
      2          6           0        0.423118    2.539780    0.074646
      3          6           0       -1.295944    0.820702    0.022993
      4          6           0       -0.302645   -0.217873    0.000958
      5          6           0        1.060121    0.214300    0.012471
      6          6           0        1.413989    1.543241    0.034646
      7          1           0        0.715400    3.582068    0.108954
      8          7           0        2.189611   -0.743551    0.010211
      9          8           0        3.248513   -0.363542   -0.472331
     10          8           0        2.017463   -1.849453    0.509408
     11          1           0       -1.674906    2.942112    0.098769
     12          6           0       -2.670684    0.469593   -0.009765
     13          6           0       -3.062633   -0.842778   -0.073065
     14          6           0       -2.087463   -1.862448   -0.108158
     15          6           0       -0.745727   -1.566375   -0.069072
     16          1           0       -2.399626   -2.899049   -0.163931
     17          1           0       -0.018254   -2.361948   -0.080897
     18          1           0       -3.407193    1.265476    0.011069
     19          1           0       -4.115211   -1.099714   -0.099604
     20          1           0        2.463665    1.801064    0.021488
 ---------------------------------------------------------------------

 SCF Done:  E(RHF) =  -589.550371227     A.U. after    2 cycles

 The electronic state is 1-A.
 Alpha  occ. eigenvalues --  -21.09192 -21.09040 -15.99852 -11.55840 -11.52207
 Alpha  occ. eigenvalues --  -11.49021 -11.47695 -11.45926 -11.45482 -11.43826
 Alpha  occ. eigenvalues --  -11.43020 -11.42128 -11.39329  -1.99604  -1.68796
 Alpha  occ. eigenvalues --   -1.42056  -1.27174  -1.19658  -1.10779  -1.09885
 Alpha  occ. eigenvalues --   -0.99583  -0.90699  -0.89946  -0.82976  -0.74956
 Alpha  occ. eigenvalues --   -0.72560  -0.70319  -0.68714  -0.67209  -0.63005
 Alpha  occ. eigenvalues --   -0.60683  -0.58383  -0.56550  -0.55783  -0.55479
 Alpha  occ. eigenvalues --   -0.51961  -0.46762  -0.46509  -0.44736  -0.40819
 Alpha  occ. eigenvalues --   -0.35315  -0.33634  -0.31355  -0.31014  -0.29200
 Alpha virt. eigenvalues --    0.02841   0.04312   0.04632   0.05669   0.05861
 Alpha virt. eigenvalues --    0.06274   0.07329   0.07782   0.09136   0.09751
 Alpha virt. eigenvalues --    0.10230   0.10530   0.11450   0.12321   0.12551

 Mulliken charges:
               1
     1  C   -4.464993
     2  C   -2.794862
     3  C    2.612774
     4  C    5.941007
     5  C    4.548820
     6  C   -4.419100
     7  H    1.524421
     8  N    3.272617
     9  O   -2.935485
    10  O   -2.920525
    11  H    1.704293
    12  C   -3.658882
    13  C   -4.184596
    14  C   -3.609803
    15  C    0.974507
    16  H    1.462448
    17  H    1.967808
    18  H    1.653728
    19  H    1.495031
    20  H    1.830792
 Sum of Mulliken charges =   0.00000

 Dipole moment (field-independent basis, Debye):
    X=             -2.8467    Y=              1.7898    Z=              0.0027  Tot=              3.3626

 Test job not archived.
 1\1\GINC-SE219\SP\RHF\Aug-CC-pVDZ\C10H7N1O2\OHZDE\08-Apr-2025\0\\#t hf
  aug-cc-pvdz iop(5/13=1,5/36=2,99/5=2) pseudo=read geom=check guess=(r
 ead,tcheck) scf=(maxcycle=1)\\title\\0,1\C,0,-0.901959,2.181659,0.0703
 56\C,0,0.423118,2.53978,0.074646\C,0,-1.295944,0.820702,0.022993\C,0,-
 0.302645,-0.217873,0.000958\C,0,1.060121,0.2143,0.012471\C,0,1.413989,
 1.543241,0.034646\H,0,0.715401,3.582068,0.108954\N,0,2.189611,-0.74355
 1,0.010211\O,0,3.248513,-0.363542,-0.472331\O,0,2.017463,-1.849453,0.5
 09408\H,0,-1.674906,2.942112,0.098769\C,0,-2.670684,0.469593,-0.009765

 Normal termination of Gaussian 16 at Tue Apr  8 22:44:13 2025.
