 Gaussian 16, Revision C.01,

 ----------------------------------------------------------------------
 #t hf aug-cc-pvdz symm=none int=(grid=ultrafine) guess=(read,tcheck) s
 table=(opt,rrhf)
 ----------------------------------------------------------------------
 -----
 title
 -----
 Symbolic Z-matrix:
 Charge =  0 Multiplicity = 1

 SCF Done:  E(RHF) =  -1759.93318101     A.U. after   12 cycles
 Normal termination of Gaussian 16 at Tue Apr  8 23:46:17 2025.
 Gaussian 16:  ES64L-G16RevC.01  3-Jul-2019

 ----------------------------------------------------------------------
 #t hf aug-cc-pvdz iop(5/13=1,5/36=2,99/5=2) pseudo=read geom=check gue
 ss=(read,tcheck) scf=(maxcycle=1)
 ----------------------------------------------------------------------
 -----
 title
 -----
 Structure from the checkpoint file:  "BDE49_nonexpt_1766_mol1.chk"
 Charge =  0 Multiplicity = 1

                         Standard orientation:
 ---------------------------------------------------------------------
 Center     Atomic      Atomic             Coordinates (Angstroms)
 Number     Number       Type             X           Y           Z
 ---------------------------------------------------------------------
      1          6           0       -1.840947    0.000031    0.000490
      2         14           0       -0.007912    0.000001   -0.000045
      3          7           0       -2.996110    0.000045    0.000847
      4         17           0        0.629668   -1.672157   -0.971578
      5         17           0        0.629727    1.677394   -0.962473
      6         17           0        0.630560   -0.005267    1.933567
 ---------------------------------------------------------------------

 SCF Done:  E(RHF) =  -1761.19968485     A.U. after    2 cycles

 The electronic state is 1-A.
 Alpha  occ. eigenvalues --  -99.93404 -99.93404 -99.93400 -76.39162 -15.80767
 Alpha  occ. eigenvalues --  -11.43076 -10.50955 -10.50955 -10.50854  -9.70742
 Alpha  occ. eigenvalues --   -9.70741  -9.70716  -9.70197  -9.70197  -9.70096
 Alpha  occ. eigenvalues --   -9.70014  -9.70014  -9.69939  -5.72964  -2.35543
 Alpha  occ. eigenvalues --   -2.34820  -2.34820  -1.37554  -1.32907  -1.32906
 Alpha  occ. eigenvalues --   -1.32657  -0.88956  -0.71002  -0.65261  -0.65260
 Alpha  occ. eigenvalues --   -0.60064  -0.59571  -0.59571  -0.56431  -0.56430
 Alpha  occ. eigenvalues --   -0.54402  -0.52925  -0.48554  -0.48554
 Alpha virt. eigenvalues --    0.02925   0.04866   0.05251   0.05251   0.05791
 Alpha virt. eigenvalues --    0.07092   0.07093   0.10553   0.11589   0.11589
 Alpha virt. eigenvalues --    0.12598   0.13432   0.13432   0.15589   0.16008

 Mulliken charges:
               1
     1  C    1.090745
     2  Si   3.336027
     3  N   -2.226556
     4  Cl  -0.733405
     5  Cl  -0.733406
     6  Cl  -0.733404
 Sum of Mulliken charges =  -0.00000

 Dipole moment (field-independent basis, Debye):
    X=              1.4687    Y=             -0.0000    Z=             -0.0007  Tot=              1.4687

 Test job not archived.
 1\1\GINC-SE073\SP\RHF\Aug-CC-pVDZ\C1Cl3N1Si1\OHZDE\08-Apr-2025\0\\#t h
 f aug-cc-pvdz iop(5/13=1,5/36=2,99/5=2) pseudo=read geom=check guess=(
 read,tcheck) scf=(maxcycle=1)\\title\\0,1\C,0,-1.840947,-0.000036,-0.0
 00486\Si,0,-0.007912,-0.000001,0.000045\N,0,-2.99611,-0.000053,-0.0008
 41\Cl,0,0.629666,1.673686,0.968943\Cl,0,0.629733,-1.675875,0.965111\Cl
 ,0,0.630556,0.002225,-1.933574\\Version=ES64L-G16RevC.01\State=1-A\HF=
 -1761.1996849\RMSD=5.023e-02\Dipole=0.5778115,0.000009,0.000287\Quadru
 pole=-4.0626242,2.031595,2.0310292,-0.0001098,-0.0016985,-0.0000008\PG

 Normal termination of Gaussian 16 at Tue Apr  8 23:46:20 2025.
