 Gaussian 16, Revision C.01,

 ----------------------------------------------------------------------
 #t hf aug-cc-pvdz symm=none int=(grid=ultrafine) guess=(read,tcheck) s
 table=(opt,rrhf)
 ----------------------------------------------------------------------
 -----
 title
 -----
 Symbolic Z-matrix:
 Charge =  0 Multiplicity = 1

 SCF Done:  E(RHF) =  -913.319020760     A.U. after   18 cycles
 Normal termination of Gaussian 16 at Wed Apr  9 00:54:02 2025.
 Gaussian 16:  ES64L-G16RevC.01  3-Jul-2019

 ----------------------------------------------------------------------
 #t hf aug-cc-pvdz iop(5/13=1,5/36=2,99/5=2) pseudo=read geom=check gue
 ss=(read,tcheck) scf=(maxcycle=1)
 ----------------------------------------------------------------------
 -----
 title
 -----
 Structure from the checkpoint file:  "BDE49_nonexpt_926_mol1.chk"
 Charge =  0 Multiplicity = 1

                         Standard orientation:
 ---------------------------------------------------------------------
 Center     Atomic      Atomic             Coordinates (Angstroms)
 Number     Number       Type             X           Y           Z
 ---------------------------------------------------------------------
      1         17           0       -3.810036   -0.050580   -0.410497
      2          7           0       -0.241961   -1.035010    0.169838
      3          7           0       -2.477463   -0.707628    0.554428
      4          1           0       -2.446236   -1.704079    0.353607
      5          6           0       -1.207044   -0.155384    0.285085
      6          6           0       -1.013170    1.253847    0.266431
      7          1           0       -1.859758    1.919895    0.362635
      8          6           0        0.263828    1.720533    0.131056
      9          1           0        0.459697    2.787539    0.111177
     10          6           0        2.698886    1.217753   -0.103045
     11          1           0        2.928189    2.278009   -0.130106
     12          6           0        3.703368    0.282547   -0.194368
     13          1           0        4.734976    0.599431   -0.294547
     14          6           0        3.395662   -1.096388   -0.158554
     15          1           0        4.196714   -1.823336   -0.231609
     16          6           0        2.094094   -1.522515   -0.031763
     17          1           0        1.837055   -2.574321   -0.003770
     18          6           0        1.040318   -0.582092    0.065213
     19          6           0        1.350048    0.810896    0.030147
 ---------------------------------------------------------------------

 SCF Done:  E(RHF) =  -915.689772881     A.U. after    2 cycles

 The electronic state is 1-A.
 Alpha  occ. eigenvalues --  -99.91814 -15.80360 -15.73909 -11.52961 -11.51626
 Alpha  occ. eigenvalues --  -11.48233 -11.46470 -11.43972 -11.42790 -11.41889
 Alpha  occ. eigenvalues --  -11.41315 -11.37854 -10.48873  -9.68758  -9.67980
 Alpha  occ. eigenvalues --   -9.67839  -1.52642  -1.41788  -1.30183  -1.21092
 Alpha  occ. eigenvalues --   -1.19418  -1.08686  -1.06753  -0.92669  -0.88716
 Alpha  occ. eigenvalues --   -0.86709  -0.74512  -0.72392  -0.71303  -0.66022
 Alpha  occ. eigenvalues --   -0.62472  -0.61702  -0.59304  -0.58395  -0.56155
 Alpha  occ. eigenvalues --   -0.55739  -0.54974  -0.51058  -0.48256  -0.47599
 Alpha  occ. eigenvalues --   -0.45132  -0.41851  -0.40194  -0.36931  -0.31584
 Alpha  occ. eigenvalues --   -0.29620
 Alpha virt. eigenvalues --    0.03238   0.04326   0.04751   0.05103   0.05971
 Alpha virt. eigenvalues --    0.06418   0.06800   0.07564   0.08357   0.09405
 Alpha virt. eigenvalues --    0.10257   0.10849   0.10865   0.11849   0.12274

 Mulliken charges:
               1
     1  Cl   0.225516
     2  N   -4.714605
     3  N   -3.329608
     4  H    0.881338
     5  C    1.059555
     6  C   -2.478709
     7  H    1.441550
     8  C   -0.106286
     9  H    1.796497
    10  C   -1.489815
    11  H    1.734812
    12  C   -2.192216
    13  H    1.501967
    14  C   -1.571552
    15  H    1.514802
    16  C   -2.611387
    17  H    1.824154
    18  C    1.320332
    19  C    5.193654
 Sum of Mulliken charges =   0.00000

 Dipole moment (field-independent basis, Debye):
    X=              2.3236    Y=              0.7885    Z=              0.1130  Tot=              2.4564

 Test job not archived.
 1\1\GINC-SE103\SP\RHF\Aug-CC-pVDZ\C9H7Cl1N2\OHZDE\09-Apr-2025\0\\#t hf
  aug-cc-pvdz iop(5/13=1,5/36=2,99/5=2) pseudo=read geom=check guess=(r
 ead,tcheck) scf=(maxcycle=1)\\title\\0,1\Cl,0,-3.810036,-0.05058,-0.41
 0497\N,0,-0.241961,-1.03501,0.169838\N,0,-2.477463,-0.707628,0.554428\
 H,0,-2.446236,-1.704079,0.353607\C,0,-1.207044,-0.155384,0.285085\C,0,
 -1.01317,1.253847,0.266431\H,0,-1.859758,1.919895,0.362635\C,0,0.26382
 8,1.720533,0.131056\H,0,0.459697,2.787539,0.111177\C,0,2.698886,1.2177
 53,-0.103045\H,0,2.928189,2.278009,-0.130106\C,0,3.703368,0.282547,-0.

 Normal termination of Gaussian 16 at Wed Apr  9 00:54:30 2025.
