 Gaussian 16, Revision C.01,

 ----------------------------------------------------------------------
 #t hf aug-cc-pvdz symm=none int=(grid=ultrafine) guess=(read,tcheck) s
 table=(opt,rrhf)
 ----------------------------------------------------------------------
 -----
 title
 -----
 Symbolic Z-matrix:
 Charge =  0 Multiplicity = 1

 SCF Done:  E(RHF) =  -1655.15131818     A.U. after   14 cycles
 Normal termination of Gaussian 16 at Wed Apr  9 00:28:02 2025.
 Gaussian 16:  ES64L-G16RevC.01  3-Jul-2019

 ----------------------------------------------------------------------
 #t hf aug-cc-pvdz iop(5/13=1,5/36=2,99/5=2) pseudo=read geom=check gue
 ss=(read,tcheck) scf=(maxcycle=1)
 ----------------------------------------------------------------------
 -----
 title
 -----
 Structure from the checkpoint file:  "BDE49_nonexpt_2745_mol1.chk"
 Charge =  0 Multiplicity = 1

                         Standard orientation:
 ---------------------------------------------------------------------
 Center     Atomic      Atomic             Coordinates (Angstroms)
 Number     Number       Type             X           Y           Z
 ---------------------------------------------------------------------
      1          6           0        3.127545    0.198211    0.121596
      2          8           0        1.959877   -0.485637    0.431736
      3          9           0        3.523622   -0.050500   -1.124746
      4          9           0        4.051317   -0.240918    0.967440
      5          9           0        2.982249    1.511770    0.277090
      6          6           0        0.814510   -0.229824   -0.296687
      7         16           0       -0.432712   -1.328634    0.424645
      8          8           0        0.702638    0.537176   -1.189119
      9         16           0       -2.062522   -0.910372   -0.770311
     10          6           0       -2.846901    0.460452    0.172810
     11          9           0       -3.935782    0.811078   -0.527871
     12          9           0       -3.229852    0.090973    1.399859
     13          9           0       -2.052365    1.526348    0.297494
 ---------------------------------------------------------------------

 SCF Done:  E(RHF) =  -1658.68989404     A.U. after    2 cycles

 The electronic state is 1-A.
 Alpha  occ. eigenvalues --  -75.77812 -75.76697 -29.34511 -29.34295 -29.34245
 Alpha  occ. eigenvalues --  -29.34066 -29.33752 -29.33700 -21.16653 -21.11902
 Alpha  occ. eigenvalues --  -13.24269 -13.20091 -13.17788 -13.15849 -13.11503
 Alpha  occ. eigenvalues --  -13.10522 -11.64656 -11.61686 -11.58774  -8.11791
 Alpha  occ. eigenvalues --   -8.10832  -1.94795  -1.75835  -1.46063  -1.38765
 Alpha  occ. eigenvalues --   -1.26075  -1.08003  -0.96535  -0.95509  -0.92518
 Alpha  occ. eigenvalues --   -0.91412  -0.88407  -0.71903  -0.68741  -0.65445
 Alpha  occ. eigenvalues --   -0.62047  -0.53858  -0.50820  -0.50575  -0.47542
 Alpha  occ. eigenvalues --   -0.46494  -0.46148  -0.45867  -0.45251  -0.42922
 Alpha  occ. eigenvalues --   -0.41160  -0.40439  -0.37747  -0.36632  -0.35782
 Alpha  occ. eigenvalues --   -0.33970  -0.32884  -0.30246  -0.28280  -0.28227
 Alpha  occ. eigenvalues --   -0.27700  -0.26077  -0.25159  -0.24232  -0.23774
 Alpha virt. eigenvalues --    0.05379   0.05939   0.08473   0.09118   0.09956
 Alpha virt. eigenvalues --    0.11117   0.11751   0.11765   0.12723   0.13239
 Alpha virt. eigenvalues --    0.13576   0.14036   0.14216   0.14738   0.15121

 Mulliken charges:
               1
     1  C    1.326606
     2  O   -2.681943
     3  F    0.425696
     4  F    0.599154
     5  F    0.440277
     6  C    1.885652
     7  S    0.130127
     8  O   -2.212519
     9  S   -0.385295
    10  C   -0.995134
    11  F    0.567068
    12  F    0.432754
    13  F    0.467557
 Sum of Mulliken charges =  -0.00000

 Dipole moment (field-independent basis, Debye):
    X=             -0.0789    Y=              1.9649    Z=              0.9256  Tot=              2.1734

 Test job not archived.
 1\1\GINC-SE128\SP\RHF\Aug-CC-pVDZ\C3F6O2S2\OHZDE\09-Apr-2025\0\\#t hf
 aug-cc-pvdz iop(5/13=1,5/36=2,99/5=2) pseudo=read geom=check guess=(re
 ad,tcheck) scf=(maxcycle=1)\\title\\0,1\C,0,-3.127545,0.198211,-0.1215
 96\O,0,-1.959877,-0.485637,-0.431736\F,0,-3.523622,-0.0505,1.124746\F,
 0,-4.051317,-0.240918,-0.96744\F,0,-2.982249,1.51177,-0.27709\C,0,-0.8
 1451,-0.229824,0.296687\S,0,0.432712,-1.328634,-0.424645\O,0,-0.702638
 ,0.537176,1.189119\S,0,2.062522,-0.910372,0.770311\C,0,2.846901,0.4604
 52,-0.17281\F,0,3.935782,0.811078,0.527871\F,0,3.229852,0.090973,-1.39

 Normal termination of Gaussian 16 at Wed Apr  9 00:28:10 2025.
