 Gaussian 16, Revision C.01,

 ----------------------------------------------------------------------
 #t hf aug-cc-pvdz symm=none int=(grid=ultrafine) guess=(read,tcheck) s
 table=(opt,rrhf)
 ----------------------------------------------------------------------
 -----
 title
 -----
 Symbolic Z-matrix:
 Charge =  0 Multiplicity = 1

 SCF Done:  E(RHF) =  -271.207996446     A.U. after   12 cycles

 1\1\GINC-SE159\Stability\RHF\Aug-CC-pVDZ\C5H12O1\OHZDE\08-Apr-2025\0\\
 #t hf aug-cc-pvdz symm=none int=(grid=ultrafine) guess=(read,tcheck) s
 table=(opt,rrhf)\\title\\0,1\C,0,2.928052,-0.378828,-0.122899\C,0,1.46
 9162,-0.384006,0.340667\H,0,3.476719,-1.235146,0.278633\H,0,3.446756,0
 .529228,0.201489\H,0,2.995264,-0.424803,-1.214382\C,0,0.664842,0.80344
 5,-0.199902\H,0,1.432381,-0.372035,1.437227\H,0,0.980248,-1.310006,0.0
 26182\C,0,-0.798495,0.791449,0.217472\H,0,0.710346,0.813088,-1.294988\
 H,0,1.111662,1.744825,0.143005\O,0,-1.423899,-0.356623,-0.333222\H,0,-

 Normal termination of Gaussian 16 at Tue Apr  8 22:42:57 2025.
 Gaussian 16:  ES64L-G16RevC.01  3-Jul-2019

 ----------------------------------------------------------------------
 #t hf aug-cc-pvdz iop(5/13=1,5/36=2,99/5=2) pseudo=read geom=check gue
 ss=(read,tcheck) scf=(maxcycle=1)
 ----------------------------------------------------------------------
 -----
 title
 -----
 Structure from the checkpoint file:  "BDE49_expt_1375_mol1.chk"
 Charge =  0 Multiplicity = 1

                         Standard orientation:
 ---------------------------------------------------------------------
 Center     Atomic      Atomic             Coordinates (Angstroms)
 Number     Number       Type             X           Y           Z
 ---------------------------------------------------------------------
      1          6           0        2.928052   -0.378828   -0.122899
      2          6           0        1.469162   -0.384006    0.340667
      3          1           0        3.476719   -1.235146    0.278633
      4          1           0        3.446756    0.529228    0.201489
      5          1           0        2.995264   -0.424803   -1.214382
      6          6           0        0.664842    0.803445   -0.199902
      7          1           0        1.432381   -0.372035    1.437227
      8          1           0        0.980248   -1.310006    0.026182
      9          6           0       -0.798495    0.791449    0.217472
     10          1           0        0.710346    0.813088   -1.294988
     11          1           0        1.111662    1.744825    0.143005
     12          8           0       -1.423899   -0.356623   -0.333222
     13          1           0       -1.305936    1.701954   -0.138687
     14          1           0       -0.884303    0.776093    1.316936
     15          6           0       -2.783753   -0.470642    0.025746
     16          1           0       -2.910798   -0.555965    1.115156
     17          1           0       -3.169969   -1.374653   -0.446541
     18          1           0       -3.370032    0.391897   -0.324752
 ---------------------------------------------------------------------

 SCF Done:  E(RHF) =  -272.541588554     A.U. after    2 cycles

 The electronic state is 1-A.
 Alpha  occ. eigenvalues --  -21.03653 -11.43217 -11.40187 -11.39619 -11.37108
 Alpha  occ. eigenvalues --  -11.33953  -1.74456  -1.21623  -1.06119  -0.96640
 Alpha  occ. eigenvalues --   -0.88949  -0.81562  -0.64886  -0.63370  -0.61585
 Alpha  occ. eigenvalues --   -0.58255  -0.57126  -0.55629  -0.50730  -0.49228
 Alpha  occ. eigenvalues --   -0.45530  -0.44375  -0.42103  -0.37710  -0.29319
 Alpha virt. eigenvalues --    0.04304   0.05014   0.05252   0.05603   0.05698
 Alpha virt. eigenvalues --    0.06286   0.06590   0.06823   0.07115   0.08293
 Alpha virt. eigenvalues --    0.08831   0.09679   0.12165   0.13486   0.14083

 Mulliken charges:
               1
     1  C   -3.934761
     2  C   -2.819516
     3  H    1.097765
     4  H    1.308755
     5  H    1.294976
     6  C   -2.708319
     7  H    1.429577
     8  H    1.572091
     9  C   -1.439214
    10  H    1.552941
    11  H    1.402756
    12  O   -2.840572
    13  H    1.345105
    14  H    1.682977
    15  C   -2.968767
    16  H    1.360195
    17  H    1.294435
    18  H    1.369576
 Sum of Mulliken charges =   0.00000

 Dipole moment (field-independent basis, Debye):
    X=             -0.2294    Y=              0.1090    Z=              0.1869  Tot=              0.3153

 Test job not archived.
 1\1\GINC-SE159\SP\RHF\Aug-CC-pVDZ\C5H12O1\OHZDE\08-Apr-2025\0\\#t hf a
 ug-cc-pvdz iop(5/13=1,5/36=2,99/5=2) pseudo=read geom=check guess=(rea
 d,tcheck) scf=(maxcycle=1)\\title\\0,1\C,0,2.928052,-0.378828,-0.12289
 9\C,0,1.469162,-0.384006,0.340667\H,0,3.476719,-1.235146,0.278633\H,0,
 3.446756,0.529228,0.201489\H,0,2.995264,-0.424803,-1.214382\C,0,0.6648
 42,0.803445,-0.199902\H,0,1.432381,-0.372035,1.437227\H,0,0.980248,-1.
 310006,0.026182\C,0,-0.798495,0.791449,0.217472\H,0,0.710346,0.813088,
 -1.294988\H,0,1.111662,1.744825,0.143005\O,0,-1.423899,-0.356623,-0.33

 Normal termination of Gaussian 16 at Tue Apr  8 22:43:02 2025.
