 Gaussian 16, Revision C.01,

 ----------------------------------------------------------------------
 #t hf aug-cc-pvdz symm=none int=(grid=ultrafine) guess=(read,tcheck) s
 table=(opt,rrhf)
 ----------------------------------------------------------------------
 -----
 title
 -----
 Symbolic Z-matrix:
 Charge =  0 Multiplicity = 1

 SCF Done:  E(RHF) =  -289.270428762     A.U. after   12 cycles

 1\1\GINC-SE343\Stability\RHF\Aug-CC-pVDZ\C6H13N1\OHZDE\08-Apr-2025\0\\
 #t hf aug-cc-pvdz symm=none int=(grid=ultrafine) guess=(read,tcheck) s
 table=(opt,rrhf)\\title\\0,1\C,0,-1.031195,0.,0.317439\C,0,-0.311645,-
 1.260575,-0.180419\C,0,1.172362,-1.268052,0.212364\C,0,1.888091,0.,-0.
 275066\C,0,1.172362,1.268052,0.212364\C,0,-0.311646,1.260575,-0.180418
 \N,0,-2.415163,0.,-0.17444\H,0,-2.909985,-0.813893,0.180375\H,0,-2.909
 984,0.813893,0.180374\H,0,-0.414669,-1.299973,-1.271376\H,0,-0.812734,
 -2.152128,0.215707\H,0,1.661487,-2.159547,-0.192857\H,0,1.261002,-1.33

 Normal termination of Gaussian 16 at Tue Apr  8 22:41:13 2025.
 Gaussian 16:  ES64L-G16RevC.01  3-Jul-2019

 ----------------------------------------------------------------------
 #t hf aug-cc-pvdz iop(5/13=1,5/36=2,99/5=2) pseudo=read geom=check gue
 ss=(read,tcheck) scf=(maxcycle=1)
 ----------------------------------------------------------------------
 -----
 title
 -----
 Structure from the checkpoint file:  "BDE49_expt_1291_mol1.chk"
 Charge =  0 Multiplicity = 1

                         Standard orientation:
 ---------------------------------------------------------------------
 Center     Atomic      Atomic             Coordinates (Angstroms)
 Number     Number       Type             X           Y           Z
 ---------------------------------------------------------------------
      1          6           0       -1.031195   -0.000000    0.317439
      2          6           0       -0.311645   -1.260575   -0.180419
      3          6           0        1.172362   -1.268052    0.212364
      4          6           0        1.888091    0.000000   -0.275066
      5          6           0        1.172362    1.268052    0.212364
      6          6           0       -0.311646    1.260575   -0.180418
      7          7           0       -2.415163   -0.000000   -0.174440
      8          1           0       -2.909985   -0.813893    0.180375
      9          1           0       -2.909984    0.813893    0.180374
     10          1           0       -0.414669   -1.299973   -1.271376
     11          1           0       -0.812734   -2.152128    0.215707
     12          1           0        1.661487   -2.159547   -0.192857
     13          1           0        1.261002   -1.335130    1.304471
     14          1           0        1.912632    0.000000   -1.372300
     15          1           0        2.930085    0.000000    0.061192
     16          1           0        1.661486    2.159547   -0.192857
     17          1           0        1.261002    1.335130    1.304471
     18          1           0       -0.812734    2.152128    0.215707
     19          1           0       -0.414669    1.299973   -1.271376
     20          1           0       -0.976752   -0.000000    1.421966
 ---------------------------------------------------------------------

 SCF Done:  E(RHF) =  -290.744504492     A.U. after    2 cycles

 The electronic state is 1-A.
 Alpha  occ. eigenvalues --  -15.72088 -11.43818 -11.43223 -11.41454 -11.37517
 Alpha  occ. eigenvalues --  -11.37102 -11.33262  -1.37377  -1.23279  -1.09724
 Alpha  occ. eigenvalues --   -1.04992  -0.88168  -0.85538  -0.77476  -0.65066
 Alpha  occ. eigenvalues --   -0.63500  -0.63092  -0.60855  -0.59315  -0.51962
 Alpha  occ. eigenvalues --   -0.51533  -0.47678  -0.46374  -0.45794  -0.43980
 Alpha  occ. eigenvalues --   -0.39028  -0.38102  -0.34688
 Alpha virt. eigenvalues --    0.04375   0.05126   0.05327   0.05358   0.05639
 Alpha virt. eigenvalues --    0.05785   0.06046   0.06181   0.06984   0.08383
 Alpha virt. eigenvalues --    0.08903   0.08973   0.09033   0.12922   0.13236

 Mulliken charges:
               1
     1  C    0.487301
     2  C   -2.696695
     3  C   -2.637240
     4  C   -2.784486
     5  C   -2.637240
     6  C   -2.696694
     7  N   -3.179557
     8  H    0.545533
     9  H    0.545534
    10  H    1.312095
    11  H    1.354561
    12  H    1.271077
    13  H    1.308201
    14  H    1.374189
    15  H    1.321905
    16  H    1.271078
    17  H    1.308202
    18  H    1.354562
    19  H    1.312094
    20  H    1.865581
 Sum of Mulliken charges =   0.00000

 Dipole moment (field-independent basis, Debye):
    X=             -0.0060    Y=              0.0000    Z=              0.9802  Tot=              0.9802

 Test job not archived.
 1\1\GINC-SE343\SP\RHF\Aug-CC-pVDZ\C6H13N1\OHZDE\08-Apr-2025\0\\#t hf a
 ug-cc-pvdz iop(5/13=1,5/36=2,99/5=2) pseudo=read geom=check guess=(rea
 d,tcheck) scf=(maxcycle=1)\\title\\0,1\C,0,-1.031195,0.,0.317439\C,0,-
 0.311645,-1.260575,-0.180419\C,0,1.172362,-1.268052,0.212364\C,0,1.888
 091,0.,-0.275066\C,0,1.172362,1.268052,0.212364\C,0,-0.311646,1.260575
 ,-0.180418\N,0,-2.415163,0.,-0.17444\H,0,-2.909985,-0.813893,0.180375\
 H,0,-2.909984,0.813893,0.180374\H,0,-0.414669,-1.299973,-1.271376\H,0,
 -0.812734,-2.152128,0.215707\H,0,1.661487,-2.159547,-0.192857\H,0,1.26

 Normal termination of Gaussian 16 at Tue Apr  8 22:41:20 2025.
