 Gaussian 16, Revision C.01,

 ----------------------------------------------------------------------
 #t hf aug-cc-pvdz symm=none int=(grid=ultrafine) guess=(read,tcheck) s
 table=(opt,rrhf)
 ----------------------------------------------------------------------
 -----
 title
 -----
 Symbolic Z-matrix:
 Charge =  0 Multiplicity = 1

 SCF Done:  E(RHF) =  -795.176075391     A.U. after   15 cycles
 Normal termination of Gaussian 16 at Wed Apr  9 00:45:04 2025.
 Gaussian 16:  ES64L-G16RevC.01  3-Jul-2019

 ----------------------------------------------------------------------
 #t hf aug-cc-pvdz iop(5/13=1,5/36=2,99/5=2) pseudo=read geom=check gue
 ss=(read,tcheck) scf=(maxcycle=1)
 ----------------------------------------------------------------------
 -----
 title
 -----
 Structure from the checkpoint file:  "BDE49_nonexpt_734_mol1.chk"
 Charge =  0 Multiplicity = 1

                         Standard orientation:
 ---------------------------------------------------------------------
 Center     Atomic      Atomic             Coordinates (Angstroms)
 Number     Number       Type             X           Y           Z
 ---------------------------------------------------------------------
      1          6           0       -0.540897   -0.343263    0.343909
      2          5           0        2.258266    0.259180   -0.250250
      3          9           0        3.415550   -0.210128   -0.699316
      4          9           0        1.965667    1.519811   -0.538781
      5          6           0       -1.074272    0.903578    0.694481
      6          6           0       -1.339122   -1.242493   -0.373375
      7          6           0       -2.368253    1.250308    0.316413
      8          6           0       -3.155770    0.350120   -0.398402
      9          6           0       -2.638669   -0.897801   -0.737874
     10          1           0       -3.244244   -1.605111   -1.293526
     11          1           0       -0.946235   -2.213484   -0.653590
     12          1           0       -2.763257    2.222823    0.587869
     13          1           0       -4.165716    0.618419   -0.686352
     14          1           0       -0.477683    1.609210    1.262350
     15         15           0        1.150494   -0.788205    0.924215
     16          1           0        1.319352   -2.014522    0.243222
 ---------------------------------------------------------------------

 SCF Done:  E(RHF) =  -797.248933756     A.U. after    2 cycles

 The electronic state is 1-A.
 Alpha  occ. eigenvalues -- -105.18579 -29.26400 -29.26271 -11.52453 -11.44241
 Alpha  occ. eigenvalues --  -11.43813 -11.41744 -11.41333 -11.37150  -7.71411
 Alpha  occ. eigenvalues --   -2.76410  -1.53256  -1.50014  -1.45970  -1.33434
 Alpha  occ. eigenvalues --   -1.09938  -1.09589  -1.07493  -0.87123  -0.85779
 Alpha  occ. eigenvalues --   -0.75821  -0.75429  -0.69528  -0.63364  -0.59081
 Alpha  occ. eigenvalues --   -0.57471  -0.51587  -0.50718  -0.50285  -0.45713
 Alpha  occ. eigenvalues --   -0.45346  -0.44790  -0.40925  -0.35100  -0.34273
 Alpha  occ. eigenvalues --   -0.33985  -0.33499  -0.25507  -0.13068  -0.02847
 Alpha virt. eigenvalues --    0.03127   0.04808   0.05104   0.05649   0.05759
 Alpha virt. eigenvalues --    0.05915   0.07084   0.08065   0.09534   0.10278
 Alpha virt. eigenvalues --    0.10596   0.10937   0.11587   0.12079   0.13040

 Mulliken charges:
               1
     1  C    2.850001
     2  B    0.518267
     3  F    0.347230
     4  F   -0.487955
     5  C   -3.600959
     6  C   -3.552544
     7  C   -0.726021
     8  C   -2.509517
     9  C   -0.288224
    10  H    1.519647
    11  H    1.903734
    12  H    1.542954
    13  H    1.486300
    14  H    1.918258
    15  P    0.488732
    16  H   -1.409905
 Sum of Mulliken charges =  -0.00000

 Dipole moment (field-independent basis, Debye):
    X=              0.1444    Y=              1.1738    Z=              1.4390  Tot=              1.8627

 Test job not archived.
 1\1\GINC-SE219\SP\RHF\Aug-CC-pVDZ\C6H6B1F2P1\OHZDE\09-Apr-2025\0\\#t h
 f aug-cc-pvdz iop(5/13=1,5/36=2,99/5=2) pseudo=read geom=check guess=(
 read,tcheck) scf=(maxcycle=1)\\title\\0,1\C,0,-0.540897,-0.343263,0.34
 3909\B,0,2.258266,0.25918,-0.25025\F,0,3.41555,-0.210128,-0.699316\F,0
 ,1.965667,1.519811,-0.538781\C,0,-1.074272,0.903578,0.694481\C,0,-1.33
 9122,-1.242493,-0.373375\C,0,-2.368253,1.250308,0.316413\C,0,-3.15577,
 0.35012,-0.398402\C,0,-2.638669,-0.897801,-0.737874\H,0,-3.244244,-1.6
 05111,-1.293526\H,0,-0.946235,-2.213484,-0.65359\H,0,-2.763257,2.22282

 Normal termination of Gaussian 16 at Wed Apr  9 00:45:13 2025.
