 Gaussian 16, Revision C.01,

 ----------------------------------------------------------------------
 #t hf aug-cc-pvdz symm=none int=(grid=ultrafine) guess=(read,tcheck) s
 table=(opt,rrhf)
 ----------------------------------------------------------------------
 -----
 title
 -----
 Symbolic Z-matrix:
 Charge =  0 Multiplicity = 1

 SCF Done:  E(RHF) =  -567.770982988     A.U. after   16 cycles
 Normal termination of Gaussian 16 at Wed Apr  9 00:35:58 2025.
 Gaussian 16:  ES64L-G16RevC.01  3-Jul-2019

 ----------------------------------------------------------------------
 #t hf aug-cc-pvdz iop(5/13=1,5/36=2,99/5=2) pseudo=read geom=check gue
 ss=(read,tcheck) scf=(maxcycle=1)
 ----------------------------------------------------------------------
 -----
 title
 -----
 Structure from the checkpoint file:  "BDE49_nonexpt_431_mol1.chk"
 Charge =  0 Multiplicity = 1

                         Standard orientation:
 ---------------------------------------------------------------------
 Center     Atomic      Atomic             Coordinates (Angstroms)
 Number     Number       Type             X           Y           Z
 ---------------------------------------------------------------------
      1          9           0        2.936344   -0.678110    0.000305
      2          9           0        2.194205    1.444105    0.000217
      3          5           0        1.889399    0.154278   -0.000271
      4          6           0        0.459304   -0.427010   -0.000154
      5          6           0       -0.717063    0.361014   -0.000081
      6          6           0       -1.975596   -0.250898    0.000007
      7          1           0       -2.879080    0.342655    0.000061
      8          6           0       -2.072386   -1.640231    0.000029
      9          6           0        0.315110   -1.823798   -0.000126
     10          1           0        1.212624   -2.431313   -0.000181
     11          6           0       -0.931588   -2.437397   -0.000038
     12          1           0       -1.014112   -3.517362   -0.000021
     13          1           0       -3.055463   -2.098461    0.000099
     14          8           0       -0.544374    1.705395   -0.000104
     15          6           0       -1.684890    2.554988   -0.000038
     16          1           0       -1.292373    3.569940   -0.000074
     17          1           0       -2.297882    2.403017    0.894667
     18          1           0       -2.298000    2.402999   -0.894660
 ---------------------------------------------------------------------

 SCF Done:  E(RHF) =  -570.152705409     A.U. after    2 cycles

 The electronic state is 1-A.
 Alpha  occ. eigenvalues --  -29.24153 -29.23686 -21.08265 -11.54644 -11.47630
 Alpha  occ. eigenvalues --  -11.44204 -11.42415 -11.41468 -11.41144 -11.37137
 Alpha  occ. eigenvalues --   -7.72018  -1.80153  -1.34127  -1.17717  -1.09668
 Alpha  occ. eigenvalues --   -1.05904  -0.99532  -0.87768  -0.84566  -0.72937
 Alpha  occ. eigenvalues --   -0.71600  -0.66560  -0.63924  -0.63293  -0.60471
 Alpha  occ. eigenvalues --   -0.59518  -0.54672  -0.54592  -0.50154  -0.47600
 Alpha  occ. eigenvalues --   -0.47041  -0.43464  -0.42169  -0.41935  -0.40180
 Alpha  occ. eigenvalues --   -0.34048  -0.32436  -0.31276  -0.27242  -0.24802
 Alpha virt. eigenvalues --    0.02956   0.04575   0.04829   0.04981   0.05228
 Alpha virt. eigenvalues --    0.05671   0.06396   0.07114   0.08001   0.08478
 Alpha virt. eigenvalues --    0.09650   0.09921   0.10298   0.12166   0.12440

 Mulliken charges:
               1
     1  F   -0.424331
     2  F   -0.967618
     3  B    0.084130
     4  C   -7.908935
     5  C    8.550077
     6  C   -4.374823
     7  H    1.935792
     8  C    0.008898
     9  C    3.208201
    10  H    2.029806
    11  C   -1.619242
    12  H    1.589127
    13  H    1.510134
    14  O   -4.202380
    15  C   -3.637855
    16  H    1.445153
    17  H    1.386878
    18  H    1.386987
 Sum of Mulliken charges =  -0.00000

 Dipole moment (field-independent basis, Debye):
    X=              0.5989    Y=              1.8173    Z=              0.0015  Tot=              1.9135

 Test job not archived.
 1\1\GINC-SE083\SP\RHF\Aug-CC-pVDZ\C7H7B1F2O1\OHZDE\09-Apr-2025\0\\#t h
 f aug-cc-pvdz iop(5/13=1,5/36=2,99/5=2) pseudo=read geom=check guess=(
 read,tcheck) scf=(maxcycle=1)\\title\\0,1\F,0,2.936344,-0.678109,0.000
 305\F,0,2.194205,1.444106,0.000217\B,0,1.889399,0.154279,-0.000271\C,0
 ,0.459304,-0.42701,-0.000154\C,0,-0.717063,0.361014,-0.000081\C,0,-1.9
 75596,-0.250898,0.000007\H,0,-2.87908,0.342655,0.000061\C,0,-2.072386,
 -1.640231,0.000029\C,0,0.31511,-1.823798,-0.000126\H,0,1.212624,-2.431
 313,-0.000181\C,0,-0.931588,-2.437397,-0.000038\H,0,-1.014111,-3.51736

 Normal termination of Gaussian 16 at Wed Apr  9 00:36:11 2025.
