 Gaussian 16, Revision C.01,

 ----------------------------------------------------------------------
 #t hf aug-cc-pvdz symm=none int=(grid=ultrafine) guess=(read,tcheck) s
 table=opt
 ----------------------------------------------------------------------
 -----
 title
 -----
 Symbolic Z-matrix:
 Charge =  0 Multiplicity = 2

 SCF Done:  E(UHF) =  -306.433609737     A.U. after   16 cycles
 Normal termination of Gaussian 16 at Tue Apr  8 22:50:59 2025.
 Gaussian 16:  ES64L-G16RevC.01  3-Jul-2019

 ----------------------------------------------------------------------
 #t hf aug-cc-pvdz iop(5/13=1,5/36=2,99/5=2) pseudo=read geom=check gue
 ss=(read,tcheck) scf=(maxcycle=1)
 ----------------------------------------------------------------------
 -----
 title
 -----
 Structure from the checkpoint file:  "BDE49_expt_169_mol2.chk"
 Charge =  0 Multiplicity = 2

                         Standard orientation:
 ---------------------------------------------------------------------
 Center     Atomic      Atomic             Coordinates (Angstroms)
 Number     Number       Type             X           Y           Z
 ---------------------------------------------------------------------
      1          6           0       -1.501442   -0.551170   -0.081630
      2          6           0       -0.319510   -0.605032    0.894766
      3          8           0       -1.759472    0.819119   -0.393718
      4          1           0       -2.381551   -1.017217    0.384801
      5          1           0       -1.244492   -1.120638   -0.983805
      6          1           0       -2.442740    0.848560   -1.069226
      7          6           0        0.978879   -0.142134    0.317950
      8          1           0       -0.567692   -0.000752    1.772315
      9          1           0       -0.213035   -1.644616    1.228515
     10          6           0        1.327103    1.302111    0.164032
     11          8           0        1.441794   -1.009660   -0.658743
     12          1           0        2.227773   -0.629701   -1.063879
     13          1           0        0.801356    1.762052   -0.687292
     14          1           0        2.405769    1.439094    0.011128
     15          1           0        1.045856    1.864904    1.056418
 ---------------------------------------------------------------------

 SCF Done:  E(UHF) =  -307.822059497     A.U. after    2 cycles

 The electronic state is 2-A.
 Alpha  occ. eigenvalues --  -21.08088 -21.06365 -11.43274 -11.41918 -11.38239
 Alpha  occ. eigenvalues --  -11.35509  -1.73510  -1.69868  -1.17555  -1.05953
 Alpha  occ. eigenvalues --   -0.90748  -0.78262  -0.66469  -0.64968  -0.60012
 Alpha  occ. eigenvalues --   -0.58466  -0.57982  -0.50953  -0.50389  -0.46350
 Alpha  occ. eigenvalues --   -0.43457  -0.41519  -0.38804  -0.31711  -0.22668
 Alpha virt. eigenvalues --    0.03809   0.05282   0.05675   0.05866   0.05975
 Alpha virt. eigenvalues --    0.06236   0.06955   0.07680   0.08428   0.11274
 Alpha virt. eigenvalues --    0.13237   0.14127   0.14277   0.14882   0.15444

  Beta  occ. eigenvalues --  -21.07664 -21.06380 -11.43055 -11.40334 -11.38409
  Beta  occ. eigenvalues --  -11.34981  -1.72174  -1.69640  -1.15510  -1.05202
  Beta  occ. eigenvalues --   -0.89195  -0.75347  -0.65886  -0.62748  -0.59290
  Beta  occ. eigenvalues --   -0.57878  -0.55068  -0.50576  -0.48519  -0.45571
  Beta  occ. eigenvalues --   -0.41157  -0.39974  -0.36507  -0.31636
  Beta virt. eigenvalues --    0.03836   0.05283   0.05654   0.05805   0.05895
  Beta virt. eigenvalues --    0.06238   0.06958   0.07673   0.08436   0.10801
  Beta virt. eigenvalues --    0.13082   0.13813   0.14286   0.14776   0.15005

 Mulliken charges and spin densities:
               1          2
     1  C   -1.172905   0.077792
     2  C   -2.846616  -0.384785
     3  O   -2.575906  -0.004401
     4  H    1.288158   0.002828
     5  H    1.478564  -0.012914
     6  H    0.836115   0.001724
     7  C    3.293330   1.600375
     8  H    1.427406  -0.004147
     9  H    1.393816  -0.005617
    10  C   -4.352718  -0.378815
    11  O   -3.532929   0.085252
    12  H    0.974575  -0.003320
    13  H    1.297225   0.028506
    14  H    1.189276   0.010275
    15  H    1.302611  -0.012755
 Sum of Mulliken charges =  -0.00000   1.00000

 Dipole moment (field-independent basis, Debye):
    X=             -0.2635    Y=              0.0949    Z=             -0.5840  Tot=              0.6477
                          Isotropic Fermi Contact Couplings
        Atom                 a.u.       MegaHertz       Gauss      10(-4) cm-1
     1  C(13)              0.03800      42.72040      15.24370      14.24999
     2  C(13)             -0.02523     -28.36841     -10.12255      -9.46268
     3  O(17)             -0.00232       1.40798       0.50240       0.46965
     4  H(1)              -0.00006      -0.27152      -0.09689      -0.09057
     5  H(1)              -0.00112      -4.99525      -1.78243      -1.66624
     6  H(1)               0.00013       0.58369       0.20828       0.19470
     7  C(13)              0.18956     213.10409      76.04084      71.08387
     8  H(1)               0.00239      10.66341       3.80497       3.55693

 Normal termination of Gaussian 16 at Tue Apr  8 22:51:04 2025.
