 Gaussian 16, Revision C.01,

 ----------------------------------------------------------------------
 #t hf aug-cc-pvdz symm=none int=(grid=ultrafine) guess=(read,tcheck) s
 table=(opt,rrhf)
 ----------------------------------------------------------------------
 -----
 title
 -----
 Symbolic Z-matrix:
 Charge =  0 Multiplicity = 1

 SCF Done:  E(RHF) =  -1063.65064513     A.U. after   17 cycles
 Normal termination of Gaussian 16 at Tue Apr  8 23:15:46 2025.
 Gaussian 16:  ES64L-G16RevC.01  3-Jul-2019

 ----------------------------------------------------------------------
 #t hf aug-cc-pvdz iop(5/13=1,5/36=2,99/5=2) pseudo=read geom=check gue
 ss=(read,tcheck) scf=(maxcycle=1)
 ----------------------------------------------------------------------
 -----
 title
 -----
 Structure from the checkpoint file:  "BDE49_expt_841_mol1.chk"
 Charge =  0 Multiplicity = 1

                         Standard orientation:
 ---------------------------------------------------------------------
 Center     Atomic      Atomic             Coordinates (Angstroms)
 Number     Number       Type             X           Y           Z
 ---------------------------------------------------------------------
      1          6           0       -2.407138    1.119220   -0.477218
      2          6           0       -1.016582    1.099433   -0.470545
      3          6           0       -0.322040   -0.028276   -0.004412
      4          6           0       -3.125765    0.026541    0.002693
      5          6           0       -2.445494   -1.096672    0.471698
      6          6           0       -1.057076   -1.131302    0.456676
      7          6           0        1.159271   -0.097128   -0.022369
      8         16           0        2.076955    1.356824    0.372304
      9         16           0        2.007601   -1.450616   -0.402867
     10          1           0        1.066835    2.126066    0.822894
     11          1           0       -2.929087    1.987644   -0.862233
     12          1           0       -4.209518    0.047736    0.006640
     13          1           0       -0.469622    1.943053   -0.873502
     14          1           0       -2.998659   -1.949785    0.847239
     15          1           0       -0.523896   -2.004948    0.808834
 ---------------------------------------------------------------------

 SCF Done:  E(RHF) =  -1065.37802378     A.U. after    2 cycles

 The electronic state is 1-A.
 Alpha  occ. eigenvalues --  -75.72519 -75.66749 -13.17523 -13.15405 -13.14979
 Alpha  occ. eigenvalues --  -13.05237 -13.03278 -12.98739 -11.53386 -11.50759
 Alpha  occ. eigenvalues --  -11.45436 -11.45299 -11.43157 -11.42496 -11.38457
 Alpha  occ. eigenvalues --   -8.06551  -8.00881  -1.39190  -1.25877  -1.11727
 Alpha  occ. eigenvalues --   -1.10908  -1.07901  -0.91201  -0.88206  -0.78453
 Alpha  occ. eigenvalues --   -0.72233  -0.65327  -0.61043  -0.60365  -0.59277
 Alpha  occ. eigenvalues --   -0.54039  -0.49435  -0.47521  -0.44971  -0.43319
 Alpha  occ. eigenvalues --   -0.40533  -0.34845  -0.32307  -0.23820  -0.21766
 Alpha virt. eigenvalues --    0.02272   0.04337   0.04809   0.04957   0.05432
 Alpha virt. eigenvalues --    0.06401   0.07254   0.07934   0.08869   0.09243
 Alpha virt. eigenvalues --    0.10217   0.11451   0.11968   0.12978   0.13358

 Mulliken charges:
               1
     1  C   -1.267802
     2  C   -2.139026
     3  C    4.653154
     4  C   -2.789957
     5  C   -1.159659
     6  C   -3.251840
     7  C   -3.100002
     8  S   -0.818342
     9  S    0.601589
    10  H    0.932524
    11  H    1.526578
    12  H    1.522900
    13  H    1.894880
    14  H    1.532625
    15  H    1.862379
 Sum of Mulliken charges =  -0.00000

 Dipole moment (field-independent basis, Debye):
    X=              0.4242    Y=             -0.5369    Z=             -0.2441  Tot=              0.7265

 Test job not archived.
 1\1\GINC-SE435\SP\RHF\Aug-CC-pVDZ\C7H6S2\OHZDE\08-Apr-2025\0\\#t hf au
 g-cc-pvdz iop(5/13=1,5/36=2,99/5=2) pseudo=read geom=check guess=(read
 ,tcheck) scf=(maxcycle=1)\\title\\0,1\C,0,-2.407138,1.11922,-0.477218\
 C,0,-1.016582,1.099433,-0.470545\C,0,-0.32204,-0.028276,-0.004412\C,0,
 -3.125765,0.026541,0.002693\C,0,-2.445494,-1.096672,0.471698\C,0,-1.05
 7076,-1.131302,0.456676\C,0,1.159271,-0.097128,-0.022369\S,0,2.076955,
 1.356824,0.372304\S,0,2.007601,-1.450616,-0.402867\H,0,1.066835,2.1260
 66,0.822894\H,0,-2.929087,1.987644,-0.862233\H,0,-4.209518,0.047736,0.

 Normal termination of Gaussian 16 at Tue Apr  8 23:15:53 2025.
