 Gaussian 16, Revision C.01,

 ----------------------------------------------------------------------
 #t hf aug-cc-pvdz symm=none int=(grid=ultrafine) guess=(read,tcheck) s
 table=(opt,rrhf)
 ----------------------------------------------------------------------
 -----
 title
 -----
 Symbolic Z-matrix:
 Charge =  0 Multiplicity = 1

 SCF Done:  E(RHF) =  -1201.07056647     A.U. after   16 cycles
 Normal termination of Gaussian 16 at Wed Apr  9 00:21:37 2025.
 Gaussian 16:  ES64L-G16RevC.01  3-Jul-2019

 ----------------------------------------------------------------------
 #t hf aug-cc-pvdz iop(5/13=1,5/36=2,99/5=2) pseudo=read geom=check gue
 ss=(read,tcheck) scf=(maxcycle=1)
 ----------------------------------------------------------------------
 -----
 title
 -----
 Structure from the checkpoint file:  "BDE49_nonexpt_2602_mol1.chk"
 Charge =  0 Multiplicity = 1

                         Standard orientation:
 ---------------------------------------------------------------------
 Center     Atomic      Atomic             Coordinates (Angstroms)
 Number     Number       Type             X           Y           Z
 ---------------------------------------------------------------------
      1         17           0        3.310378   -0.269204    0.999520
      2         16           0        2.378932    0.023832   -0.886761
      3          6           0        0.669960    0.113223   -0.474530
      4          6           0        0.070185    1.349627   -0.173678
      5          6           0       -1.283899    1.425727    0.086940
      6          6           0       -2.074638    0.265030    0.056311
      7          6           0       -0.123420   -1.039193   -0.499204
      8          1           0        0.336685   -1.993463   -0.724165
      9          6           0       -1.487541   -0.972312   -0.239720
     10          1           0       -2.078290   -1.877444   -0.269013
     11          1           0        0.681718    2.243011   -0.148705
     12          8           0       -3.388459    0.446563    0.324208
     13          6           0       -4.257122   -0.683217    0.319733
     14          1           0       -4.284830   -1.159867   -0.665381
     15          1           0       -5.244485   -0.294996    0.561191
     16          1           0       -3.959686   -1.416528    1.076059
     17          1           0       -1.763928    2.368633    0.317569
 ---------------------------------------------------------------------

 SCF Done:  E(RHF) =  -1203.13647925     A.U. after    2 cycles

 The electronic state is 1-A.
 Alpha  occ. eigenvalues --  -99.89003 -75.73944 -21.09448 -13.22648 -13.11432
 Alpha  occ. eigenvalues --  -13.09419 -11.54604 -11.48308 -11.45428 -11.44205
 Alpha  occ. eigenvalues --  -11.42969 -11.42097 -11.38659 -10.46031  -9.65825
 Alpha  occ. eigenvalues --   -9.65241  -9.65125  -8.07595  -1.80951  -1.36815
 Alpha  occ. eigenvalues --   -1.29326  -1.14694  -1.11954  -1.04700  -0.97870
 Alpha  occ. eigenvalues --   -0.89523  -0.83435  -0.71042  -0.66382  -0.64987
 Alpha  occ. eigenvalues --   -0.64023  -0.61022  -0.59804  -0.56514  -0.55509
 Alpha  occ. eigenvalues --   -0.53167  -0.52868  -0.51846  -0.47895  -0.43373
 Alpha  occ. eigenvalues --   -0.41126  -0.39120  -0.35362  -0.28766  -0.25094
 Alpha virt. eigenvalues --    0.02707   0.04311   0.04565   0.05055   0.05759
 Alpha virt. eigenvalues --    0.05974   0.06616   0.07595   0.08182   0.08955
 Alpha virt. eigenvalues --    0.09383   0.10294   0.11849   0.12743   0.13059

 Mulliken charges:
               1
     1  Cl  -0.327169
     2  S    0.505283
     3  C    3.319389
     4  C   -2.710309
     5  C   -3.589911
     6  C    4.947236
     7  C   -2.431339
     8  H    1.825133
     9  C   -2.976025
    10  H    1.932351
    11  H    1.841866
    12  O   -4.743451
    13  C   -3.719237
    14  H    1.376743
    15  H    1.421501
    16  H    1.380206
    17  H    1.947732
 Sum of Mulliken charges =  -0.00000

 Dipole moment (field-independent basis, Debye):
    X=             -4.8841    Y=              0.0348    Z=             -2.6424  Tot=              5.5532

 Test job not archived.
 1\1\GINC-SE187\SP\RHF\Aug-CC-pVDZ\C7H7Cl1O1S1\OHZDE\09-Apr-2025\0\\#t
 hf aug-cc-pvdz iop(5/13=1,5/36=2,99/5=2) pseudo=read geom=check guess=
 (read,tcheck) scf=(maxcycle=1)\\title\\0,1\Cl,0,3.310378,-0.269204,0.9
 9952\S,0,2.378932,0.023832,-0.886761\C,0,0.66996,0.113223,-0.47453\C,0
 ,0.070185,1.349627,-0.173678\C,0,-1.283899,1.425727,0.08694\C,0,-2.074
 638,0.26503,0.056311\C,0,-0.12342,-1.039193,-0.499204\H,0,0.336685,-1.
 993463,-0.724165\C,0,-1.487541,-0.972312,-0.23972\H,0,-2.07829,-1.8774
 44,-0.269013\H,0,0.681718,2.243011,-0.148705\O,0,-3.388459,0.446563,0.

 Normal termination of Gaussian 16 at Wed Apr  9 00:21:47 2025.
