 Gaussian 16, Revision C.01,

 ----------------------------------------------------------------------
 #t hf aug-cc-pvdz symm=none int=(grid=ultrafine) guess=(read,tcheck) s
 table=(opt,rrhf)
 ----------------------------------------------------------------------
 -----
 title
 -----
 Symbolic Z-matrix:
 Charge =  0 Multiplicity = 1

 SCF Done:  E(RHF) =  -600.417143530     A.U. after   12 cycles
 Normal termination of Gaussian 16 at Wed Apr  9 00:10:03 2025.
 Gaussian 16:  ES64L-G16RevC.01  3-Jul-2019

 ----------------------------------------------------------------------
 #t hf aug-cc-pvdz iop(5/13=1,5/36=2,99/5=2) pseudo=read geom=check gue
 ss=(read,tcheck) scf=(maxcycle=1)
 ----------------------------------------------------------------------
 -----
 title
 -----
 Structure from the checkpoint file:  "BDE49_nonexpt_2287_mol1.chk"
 Charge =  0 Multiplicity = 1

                         Standard orientation:
 ---------------------------------------------------------------------
 Center     Atomic      Atomic             Coordinates (Angstroms)
 Number     Number       Type             X           Y           Z
 ---------------------------------------------------------------------
      1          6           0        1.464029   -0.031765    0.031381
      2          8           0        0.102518   -0.306465    0.414612
      3          6           0        1.878262   -1.016827   -1.069665
      4          6           0        2.296992   -0.255921    1.296679
      5          1           0        3.360339   -0.093064    1.100462
      6          1           0        2.159879   -1.277317    1.658130
      7          1           0        1.977374    0.429831    2.084634
      8          6           0        1.603643    1.417606   -0.453466
      9          1           0        2.645282    1.643551   -0.697451
     10          1           0        1.275856    2.113468    0.322625
     11          1           0        1.005953    1.591233   -1.352805
     12         14           0       -1.364603   -0.041319   -0.299089
     13          1           0        1.749740   -2.044139   -0.720961
     14          1           0        2.926631   -0.873825   -1.346438
     15          1           0        1.267935   -0.878160   -1.965427
     16          6           0       -2.483732   -1.434564    0.252968
     17          1           0       -2.088659   -2.403596   -0.062931
     18          1           0       -3.486578   -1.321899   -0.170926
     19          1           0       -2.577365   -1.448519    1.342800
     20          6           0       -2.086899    1.616743    0.200276
     21          1           0       -2.190612    1.688189    1.287233
     22          1           0       -3.080624    1.748323   -0.240911
     23          1           0       -1.462180    2.449268   -0.133992
     24          1           0       -1.232450   -0.064786   -1.782734
 ---------------------------------------------------------------------

 SCF Done:  E(RHF) =  -602.137028342     A.U. after    2 cycles

 The electronic state is 1-A.
 Alpha  occ. eigenvalues --  -76.20543 -21.01722 -11.44941 -11.39445 -11.38939
 Alpha  occ. eigenvalues --  -11.34840 -11.33909 -11.33774  -5.54620  -2.21862
 Alpha  occ. eigenvalues --   -2.17962  -2.16887  -1.68865  -1.20160  -1.04776
 Alpha  occ. eigenvalues --   -1.01234  -1.00711  -1.00224  -0.79351  -0.67512
 Alpha  occ. eigenvalues --   -0.62110  -0.61439  -0.60347  -0.56232  -0.55616
 Alpha  occ. eigenvalues --   -0.54897  -0.54412  -0.53950  -0.53484  -0.51241
 Alpha  occ. eigenvalues --   -0.46499  -0.46199  -0.45282  -0.41845  -0.40285
 Alpha  occ. eigenvalues --   -0.33579  -0.31899
 Alpha virt. eigenvalues --    0.03653   0.05031   0.05173   0.05400   0.05498
 Alpha virt. eigenvalues --    0.05550   0.05939   0.06179   0.06531   0.07809
 Alpha virt. eigenvalues --    0.07888   0.08492   0.08899   0.09203   0.09404

 Mulliken charges:
               1
     1  C    4.369741
     2  O   -5.355402
     3  C   -4.256454
     4  C   -4.377106
     5  H    1.205744
     6  H    1.377642
     7  H    1.331307
     8  C   -4.488187
     9  H    1.127536
    10  H    1.376560
    11  H    1.268748
    12  Si   8.231497
    13  H    1.318865
    14  H    1.164940
    15  H    1.403220
    16  C   -5.398256
    17  H    1.243608
    18  H    1.221504
    19  H    1.267283
    20  C   -5.531775
    21  H    1.281804
    22  H    1.259055
    23  H    1.304247
    24  H   -2.346122
 Sum of Mulliken charges =  -0.00000

 Dipole moment (field-independent basis, Debye):
    X=              0.4581    Y=              0.0477    Z=              0.4787  Tot=              0.6643

 Test job not archived.
 1\1\GINC-SE364\SP\RHF\Aug-CC-pVDZ\C6H16O1Si1\OHZDE\09-Apr-2025\0\\#t h
 f aug-cc-pvdz iop(5/13=1,5/36=2,99/5=2) pseudo=read geom=check guess=(
 read,tcheck) scf=(maxcycle=1)\\title\\0,1\C,0,1.464029,-0.031765,0.031
 381\O,0,0.102518,-0.306465,0.414612\C,0,1.878262,-1.016827,-1.069665\C
 ,0,2.296992,-0.255921,1.296679\H,0,3.360339,-0.093064,1.100462\H,0,2.1
 59879,-1.277317,1.65813\H,0,1.977374,0.429831,2.084634\C,0,1.603643,1.
 417606,-0.453466\H,0,2.645282,1.643551,-0.697451\H,0,1.275856,2.113468
 ,0.322625\H,0,1.005953,1.591233,-1.352805\Si,0,-1.364603,-0.041319,-0.

 Normal termination of Gaussian 16 at Wed Apr  9 00:10:28 2025.
