 Gaussian 16, Revision C.01,

 ----------------------------------------------------------------------
 #t hf aug-cc-pvdz symm=none int=(grid=ultrafine) guess=(read,tcheck) s
 table=(opt,rrhf)
 ----------------------------------------------------------------------
 -----
 title
 -----
 Symbolic Z-matrix:
 Charge =  0 Multiplicity = 1

 SCF Done:  E(RHF) =  -439.155518023     A.U. after   13 cycles
 Normal termination of Gaussian 16 at Tue Apr  8 23:59:24 2025.
 Gaussian 16:  ES64L-G16RevC.01  3-Jul-2019

 ----------------------------------------------------------------------
 #t hf aug-cc-pvdz iop(5/13=1,5/36=2,99/5=2) pseudo=read geom=check gue
 ss=(read,tcheck) scf=(maxcycle=1)
 ----------------------------------------------------------------------
 -----
 title
 -----
 Structure from the checkpoint file:  "BDE49_nonexpt_2078_mol1.chk"
 Charge =  0 Multiplicity = 1

                         Standard orientation:
 ---------------------------------------------------------------------
 Center     Atomic      Atomic             Coordinates (Angstroms)
 Number     Number       Type             X           Y           Z
 ---------------------------------------------------------------------
      1         14           0       -1.630283    0.041800    0.000001
      2          7           0        0.087149   -0.469951    0.000009
      3          7           0        0.936914    0.438047   -0.000007
      4          6           0        2.321708   -0.053883   -0.000004
      5          1           0        2.820282    0.362424   -0.880528
      6          1           0        2.364909   -1.146775    0.000023
      7          1           0        2.820296    0.362471    0.880489
      8          1           0       -2.235110   -0.564259    1.205862
      9          1           0       -2.235125   -0.564344   -1.205809
     10          1           0       -1.809976    1.511898   -0.000049
 ---------------------------------------------------------------------

 SCF Done:  E(RHF) =  -440.012705602     A.U. after    2 cycles

 The electronic state is 1-A.
 Alpha  occ. eigenvalues --  -76.23204 -15.80107 -15.76204 -11.38674  -5.56837
 Alpha  occ. eigenvalues --   -2.21463  -2.18866  -2.18699  -1.51714  -1.10638
 Alpha  occ. eigenvalues --   -0.86241  -0.74062  -0.62608  -0.60985  -0.58250
 Alpha  occ. eigenvalues --   -0.49922  -0.48995  -0.47273  -0.44373  -0.30944
 Alpha virt. eigenvalues --    0.04132   0.04625   0.06122   0.06129   0.07256
 Alpha virt. eigenvalues --    0.07444   0.07569   0.09814   0.09951   0.11740
 Alpha virt. eigenvalues --    0.11890   0.14792   0.15166   0.16177   0.16642

 Mulliken charges:
               1
     1  Si   5.656013
     2  N   -1.133228
     3  N   -0.737303
     4  C   -3.094776
     5  H    1.345522
     6  H    1.336772
     7  H    1.345521
     8  H   -1.604111
     9  H   -1.604109
    10  H   -1.510301
 Sum of Mulliken charges =  -0.00000

 Dipole moment (field-independent basis, Debye):
    X=              0.6681    Y=              0.1930    Z=             -0.0000  Tot=              0.6954

 Test job not archived.
 1\1\GINC-SE361\SP\RHF\Aug-CC-pVDZ\C1H6N2Si1\OHZDE\08-Apr-2025\0\\#t hf
  aug-cc-pvdz iop(5/13=1,5/36=2,99/5=2) pseudo=read geom=check guess=(r
 ead,tcheck) scf=(maxcycle=1)\\title\\0,1\Si,0,-1.630283,0.0418,0.00000
 1\N,0,0.087149,-0.469951,0.000009\N,0,0.936914,0.438047,-0.000007\C,0,
 2.321708,-0.053883,-0.000004\H,0,2.820282,0.362424,-0.880528\H,0,2.364
 909,-1.146775,0.000023\H,0,2.820296,0.362471,0.880489\H,0,-2.23511,-0.
 564259,1.205862\H,0,-2.235125,-0.564344,-1.205809\H,0,-1.809976,1.5118
 98,-0.000049\\Version=ES64L-G16RevC.01\State=1-A\HF=-440.0127056\RMSD=

 Normal termination of Gaussian 16 at Tue Apr  8 23:59:27 2025.
