 Gaussian 16, Revision C.01,

 ----------------------------------------------------------------------
 #t hf aug-cc-pvdz symm=none int=(grid=ultrafine) guess=(read,tcheck) s
 table=(opt,rrhf)
 ----------------------------------------------------------------------
 -----
 title
 -----
 Symbolic Z-matrix:
 Charge =  0 Multiplicity = 1

 SCF Done:  E(RHF) =  -1245.96347467     A.U. after   13 cycles
 Normal termination of Gaussian 16 at Wed Apr  9 00:08:44 2025.
 Gaussian 16:  ES64L-G16RevC.01  3-Jul-2019

 ----------------------------------------------------------------------
 #t hf aug-cc-pvdz iop(5/13=1,5/36=2,99/5=2) pseudo=read geom=check gue
 ss=(read,tcheck) scf=(maxcycle=1)
 ----------------------------------------------------------------------
 -----
 title
 -----
 Structure from the checkpoint file:  "BDE49_nonexpt_229_mol1.chk"
 Charge =  0 Multiplicity = 1

                         Standard orientation:
 ---------------------------------------------------------------------
 Center     Atomic      Atomic             Coordinates (Angstroms)
 Number     Number       Type             X           Y           Z
 ---------------------------------------------------------------------
      1         17           0        1.299844    1.634103   -0.298083
      2          5           0        1.119447   -0.094359   -0.025547
      3         17           0        2.546192   -1.121608    0.060324
      4          8           0       -0.084140   -0.709052    0.074910
      5          6           0       -1.305246   -0.116276    0.294476
      6          8           0       -1.507988    0.748596    1.090946
      7          8           0       -2.185763   -0.721394   -0.490239
      8          6           0       -3.548394   -0.265260   -0.342120
      9          1           0       -3.622063    0.791175   -0.601318
     10          1           0       -3.885493   -0.414478    0.683849
     11          1           0       -4.127336   -0.873298   -1.031959
 ---------------------------------------------------------------------

 SCF Done:  E(RHF) =  -1247.80018470     A.U. after    2 cycles

 The electronic state is 1-A.
 Alpha  occ. eigenvalues --  -99.90791 -99.90566 -21.12538 -21.10232 -21.08036
 Alpha  occ. eigenvalues --  -11.57440 -11.43936 -10.48156 -10.47821  -9.68132
 Alpha  occ. eigenvalues --   -9.67781  -9.67612  -9.67397  -9.67344  -9.67181
 Alpha  occ. eigenvalues --   -7.75667  -1.94782  -1.78688  -1.70087  -1.38114
 Alpha  occ. eigenvalues --   -1.30740  -1.05376  -0.88087  -0.76176  -0.72227
 Alpha  occ. eigenvalues --   -0.69093  -0.65610  -0.63005  -0.60546  -0.59104
 Alpha  occ. eigenvalues --   -0.56477  -0.55085  -0.53320  -0.51647  -0.47336
 Alpha  occ. eigenvalues --   -0.44318  -0.42592  -0.35289  -0.33117
 Alpha virt. eigenvalues --    0.02931   0.04150   0.04583   0.04920   0.05681
 Alpha virt. eigenvalues --    0.06170   0.06607   0.07535   0.10243   0.11401
 Alpha virt. eigenvalues --    0.12866   0.13389   0.13891   0.15106   0.15492

 Mulliken charges:
               1
     1  Cl  -1.109713
     2  B    3.331051
     3  Cl  -1.157192
     4  O   -3.494735
     5  C    7.007618
     6  O   -2.474476
     7  O   -3.032260
     8  C   -3.028455
     9  H    1.300914
    10  H    1.300649
    11  H    1.356600
 Sum of Mulliken charges =   0.00000

 Dipole moment (field-independent basis, Debye):
    X=             -2.7920    Y=             -0.6488    Z=             -0.6795  Tot=              2.9459

 Test job not archived.
 1\1\GINC-SE069\SP\RHF\Aug-CC-pVDZ\C2H3B1Cl2O3\OHZDE\09-Apr-2025\0\\#t
 hf aug-cc-pvdz iop(5/13=1,5/36=2,99/5=2) pseudo=read geom=check guess=
 (read,tcheck) scf=(maxcycle=1)\\title\\0,1\Cl,0,1.299844,1.634103,-0.2
 98083\B,0,1.119447,-0.094359,-0.025547\Cl,0,2.546192,-1.121608,0.06032
 4\O,0,-0.08414,-0.709052,0.07491\C,0,-1.305246,-0.116276,0.294476\O,0,
 -1.507988,0.748596,1.090946\O,0,-2.185763,-0.721394,-0.490239\C,0,-3.5
 48394,-0.26526,-0.34212\H,0,-3.622063,0.791175,-0.601318\H,0,-3.885493
 ,-0.414478,0.683849\H,0,-4.127336,-0.873298,-1.031959\\Version=ES64L-G

 Normal termination of Gaussian 16 at Wed Apr  9 00:08:49 2025.
