 Gaussian 16, Revision C.01,

 ----------------------------------------------------------------------
 #t hf aug-cc-pvdz symm=none int=(grid=ultrafine) guess=(read,tcheck) s
 table=(opt,rrhf)
 ----------------------------------------------------------------------
 -----
 title
 -----
 Symbolic Z-matrix:
 Charge =  0 Multiplicity = 1

 SCF Done:  E(RHF) =  -490.421166395     A.U. after   13 cycles
 Normal termination of Gaussian 16 at Tue Apr  8 23:15:47 2025.
 Gaussian 16:  ES64L-G16RevC.01  3-Jul-2019

 ----------------------------------------------------------------------
 #t hf aug-cc-pvdz iop(5/13=1,5/36=2,99/5=2) pseudo=read geom=check gue
 ss=(read,tcheck) scf=(maxcycle=1)
 ----------------------------------------------------------------------
 -----
 title
 -----
 Structure from the checkpoint file:  "BDE49_expt_846_mol1.chk"
 Charge =  0 Multiplicity = 1

                         Standard orientation:
 ---------------------------------------------------------------------
 Center     Atomic      Atomic             Coordinates (Angstroms)
 Number     Number       Type             X           Y           Z
 ---------------------------------------------------------------------
      1         16           0        0.999475   -0.085389   -0.000001
      2          6           0       -0.699086    0.013791    0.000000
      3          7           0       -1.856091    0.005201    0.000001
      4          1           0        1.195550    1.247065    0.000002
 ---------------------------------------------------------------------

 SCF Done:  E(RHF) =  -491.040794365     A.U. after    2 cycles

 The electronic state is 1-A.
 Alpha  occ. eigenvalues --  -75.77056 -15.78091 -13.23606 -13.17828 -13.08481
 Alpha  occ. eigenvalues --  -11.45249  -8.11055  -1.33768  -1.18797  -0.70308
 Alpha  occ. eigenvalues --   -0.56411  -0.51198  -0.50567  -0.43818  -0.29029
 Alpha virt. eigenvalues --    0.01472   0.06459   0.07771   0.10596   0.11773
 Alpha virt. eigenvalues --    0.12833   0.13175   0.13795   0.15007   0.18906
 Alpha virt. eigenvalues --    0.19982   0.21275   0.22415   0.24506   0.27759

 Mulliken charges:
               1
     1  S    0.059367
     2  C    0.836452
     3  N   -2.014415
     4  H    1.118596
 Sum of Mulliken charges =  -0.00000

 Dipole moment (field-independent basis, Debye):
    X=              4.2503    Y=             -0.8325    Z=             -0.0000  Tot=              4.3310

 Test job not archived.
 1\1\GINC-SE043\SP\RHF\Aug-CC-pVDZ\C1H1N1S1\OHZDE\08-Apr-2025\0\\#t hf
 aug-cc-pvdz iop(5/13=1,5/36=2,99/5=2) pseudo=read geom=check guess=(re
 ad,tcheck) scf=(maxcycle=1)\\title\\0,1\S,0,0.999475,-0.085389,-0.0000
 01\C,0,-0.699086,0.013791,0.\N,0,-1.856091,0.005201,0.000001\H,0,1.195
 55,1.247065,0.000002\\Version=ES64L-G16RevC.01\State=1-A\HF=-491.04079
 44\RMSD=1.412e-01\Dipole=1.6721822,-0.3275377,-0.0000016\Quadrupole=-0
 .4646908,1.8473889,-1.3826982,-0.1781928,0.,0.0000076\PG=C01 [X(C1H1N1
 S1)]\\@

 Normal termination of Gaussian 16 at Tue Apr  8 23:15:49 2025.
