 Gaussian 16, Revision C.01,

 ----------------------------------------------------------------------
 #t hf aug-cc-pvdz symm=none int=(grid=ultrafine) guess=(read,tcheck) s
 table=(opt,rrhf)
 ----------------------------------------------------------------------
 -----
 title
 -----
 Symbolic Z-matrix:
 Charge =  0 Multiplicity = 1

 SCF Done:  E(RHF) =  -1814.47291909     A.U. after   14 cycles
 Normal termination of Gaussian 16 at Wed Apr  9 00:16:35 2025.
 Gaussian 16:  ES64L-G16RevC.01  3-Jul-2019

 ----------------------------------------------------------------------
 #t hf aug-cc-pvdz iop(5/13=1,5/36=2,99/5=2) pseudo=read geom=check gue
 ss=(read,tcheck) scf=(maxcycle=1)
 ----------------------------------------------------------------------
 -----
 title
 -----
 Structure from the checkpoint file:  "BDE49_nonexpt_2530_mol1.chk"
 Charge =  0 Multiplicity = 1

                         Standard orientation:
 ---------------------------------------------------------------------
 Center     Atomic      Atomic             Coordinates (Angstroms)
 Number     Number       Type             X           Y           Z
 ---------------------------------------------------------------------
      1         17           0       -2.399740    0.014077    0.206374
      2         16           0       -0.676200   -0.959653   -0.407858
      3          6           0        0.584749    0.048655    0.415412
      4         17           0        2.094347   -0.870626    0.110497
      5         17           0        0.710401    1.737158   -0.167099
      6          1           0        0.425566    0.092161    1.487151
 ---------------------------------------------------------------------

 SCF Done:  E(RHF) =  -1815.61309041     A.U. after    2 cycles

 The electronic state is 1-A.
 Alpha  occ. eigenvalues --  -99.92865 -99.92608 -99.91751 -75.77107 -13.17777
 Alpha  occ. eigenvalues --  -13.12392 -13.08835 -11.53227 -10.50164 -10.49763
 Alpha  occ. eigenvalues --  -10.49048  -9.69972  -9.69472  -9.69248  -9.69177
 Alpha  occ. eigenvalues --   -9.68851  -9.68826  -9.68728  -9.68093  -9.68076
 Alpha  occ. eigenvalues --   -8.10918  -1.44311  -1.34476  -1.30820  -1.14024
 Alpha  occ. eigenvalues --   -0.95368  -0.72794  -0.68753  -0.66065  -0.57257
 Alpha  occ. eigenvalues --   -0.57097  -0.54983  -0.53795  -0.52639  -0.51326
 Alpha  occ. eigenvalues --   -0.44037  -0.28686
 Alpha virt. eigenvalues --    0.01329   0.02681   0.04341   0.05891   0.07452
 Alpha virt. eigenvalues --    0.08733   0.09909   0.11948   0.13026   0.13364
 Alpha virt. eigenvalues --    0.14091   0.15012   0.15418   0.16088   0.17288

 Mulliken charges:
               1
     1  Cl  -0.422011
     2  S    1.579961
     3  C   -3.976561
     4  Cl   0.436056
     5  Cl   0.401732
     6  H    1.980823
 Sum of Mulliken charges =  -0.00000

 Dipole moment (field-independent basis, Debye):
    X=              0.5118    Y=             -2.7841    Z=             -0.5826  Tot=              2.8901

 Test job not archived.
 1\1\GINC-SE393\SP\RHF\Aug-CC-pVDZ\C1H1Cl3S1\OHZDE\09-Apr-2025\0\\#t hf
  aug-cc-pvdz iop(5/13=1,5/36=2,99/5=2) pseudo=read geom=check guess=(r
 ead,tcheck) scf=(maxcycle=1)\\title\\0,1\Cl,0,-2.39974,0.014077,0.2063
 74\S,0,-0.6762,-0.959653,-0.407858\C,0,0.584749,0.048655,0.415412\Cl,0
 ,2.094347,-0.870626,0.110497\Cl,0,0.710401,1.737158,-0.167099\H,0,0.42
 5566,0.092161,1.487151\\Version=ES64L-G16RevC.01\State=1-A\HF=-1815.61
 30904\RMSD=6.163e-02\Dipole=0.2013723,-1.0953531,-0.2292052\Quadrupole
 =-1.9422696,1.8102795,0.1319902,-0.2538332,0.7861095,2.2074148\PG=C01

 Normal termination of Gaussian 16 at Wed Apr  9 00:16:37 2025.
