 Gaussian 16, Revision C.01,

 ----------------------------------------------------------------------
 #t hf aug-cc-pvdz symm=none int=(grid=ultrafine) guess=(read,tcheck) s
 table=(opt,rrhf)
 ----------------------------------------------------------------------
 -----
 title
 -----
 Symbolic Z-matrix:
 Charge =  0 Multiplicity = 1

 SCF Done:  E(RHF) =  -576.158665034     A.U. after   14 cycles
 Normal termination of Gaussian 16 at Tue Apr  8 23:52:43 2025.
 Gaussian 16:  ES64L-G16RevC.01  3-Jul-2019

 ----------------------------------------------------------------------
 #t hf aug-cc-pvdz iop(5/13=1,5/36=2,99/5=2) pseudo=read geom=check gue
 ss=(read,tcheck) scf=(maxcycle=1)
 ----------------------------------------------------------------------
 -----
 title
 -----
 Structure from the checkpoint file:  "BDE49_nonexpt_1896_mol1.chk"
 Charge =  0 Multiplicity = 1

                         Standard orientation:
 ---------------------------------------------------------------------
 Center     Atomic      Atomic             Coordinates (Angstroms)
 Number     Number       Type             X           Y           Z
 ---------------------------------------------------------------------
      1         14           0       -2.599175    0.027966    0.000001
      2          6           0       -0.875010    0.819609   -0.000001
      3          6           0        0.186682   -0.273324   -0.000002
      4          8           0       -0.160930   -1.450611   -0.000000
      5          7           0        1.508156    0.087761   -0.000001
      6          1           0       -2.829593   -0.774963   -1.217928
      7          6           0        2.528925   -0.952565    0.000001
      8          1           0        2.036059   -1.920878   -0.000000
      9          1           0        3.163811   -0.865151    0.888733
     10          1           0        3.163815   -0.865151   -0.888728
     11          1           0       -3.577747    1.148309    0.000003
     12          1           0       -2.829590   -0.774964    1.217930
     13          6           0        2.007642    1.451989   -0.000000
     14          1           0        1.192393    2.169503   -0.000003
     15          1           0        2.626940    1.634241   -0.886326
     16          1           0        2.626933    1.634242    0.886331
     17          1           0       -0.771828    1.469796    0.875702
     18          1           0       -0.771831    1.469796   -0.875705
 ---------------------------------------------------------------------

 SCF Done:  E(RHF) =  -577.674725319     A.U. after    2 cycles

 The electronic state is 1-A.
 Alpha  occ. eigenvalues --  -76.20556 -21.01700 -15.74816 -11.50712 -11.41205
 Alpha  occ. eigenvalues --  -11.39236 -11.38119  -5.53997  -2.18169  -2.16312
 Alpha  occ. eigenvalues --   -2.16219  -1.70630  -1.42748  -1.11224  -1.04772
 Alpha  occ. eigenvalues --   -0.97161  -0.76346  -0.71722  -0.67885  -0.66333
 Alpha  occ. eigenvalues --   -0.62419  -0.60108  -0.55914  -0.54760  -0.52677
 Alpha  occ. eigenvalues --   -0.47764  -0.46288  -0.45756  -0.44347  -0.41277
 Alpha  occ. eigenvalues --   -0.29364  -0.28873
 Alpha virt. eigenvalues --    0.03094   0.04942   0.05014   0.05295   0.05508
 Alpha virt. eigenvalues --    0.05644   0.06697   0.07193   0.07407   0.08706
 Alpha virt. eigenvalues --    0.09526   0.10174   0.10751   0.11010   0.11540

 Mulliken charges:
               1
     1  Si   5.933945
     2  C   -4.058294
     3  C    5.096762
     4  O   -3.222583
     5  N   -3.113439
     6  H   -1.762835
     7  C   -3.643402
     8  H    1.460564
     9  H    1.428983
    10  H    1.428983
    11  H   -1.746254
    12  H   -1.762834
    13  C   -3.528649
    14  H    1.565676
    15  H    1.412397
    16  H    1.412395
    17  H    1.549292
    18  H    1.549291
 Sum of Mulliken charges =   0.00000

 Dipole moment (field-independent basis, Debye):
    X=              2.6098    Y=              1.7540    Z=             -0.0000  Tot=              3.1445

 Test job not archived.
 1\1\GINC-SE126\SP\RHF\Aug-CC-pVDZ\C4H11N1O1Si1\OHZDE\08-Apr-2025\0\\#t
  hf aug-cc-pvdz iop(5/13=1,5/36=2,99/5=2) pseudo=read geom=check guess
 =(read,tcheck) scf=(maxcycle=1)\\title\\0,1\Si,0,-2.599175,0.027966,0.
 000001\C,0,-0.87501,0.819609,-0.000001\C,0,0.186682,-0.273324,-0.00000
 2\O,0,-0.16093,-1.450611,0.\N,0,1.508156,0.087761,-0.000001\H,0,-2.829
 593,-0.774963,-1.217928\C,0,2.528925,-0.952565,0.000001\H,0,2.036059,-
 1.920878,0.\H,0,3.163811,-0.865151,0.888733\H,0,3.163815,-0.865151,-0.
 888728\H,0,-3.577747,1.148309,0.000003\H,0,-2.82959,-0.774964,1.21793\

 Normal termination of Gaussian 16 at Tue Apr  8 23:52:50 2025.
