 Gaussian 16, Revision C.01,

 ----------------------------------------------------------------------
 #t hf aug-cc-pvdz symm=none int=(grid=ultrafine) guess=(read,tcheck) s
 table=(opt,rrhf)
 ----------------------------------------------------------------------
 -----
 title
 -----
 Symbolic Z-matrix:
 Charge =  0 Multiplicity = 1

 SCF Done:  E(RHF) =  -407.375992295     A.U. after   12 cycles
 Normal termination of Gaussian 16 at Wed Apr  9 00:40:39 2025.
 Gaussian 16:  ES64L-G16RevC.01  3-Jul-2019

 ----------------------------------------------------------------------
 #t hf aug-cc-pvdz iop(5/13=1,5/36=2,99/5=2) pseudo=read geom=check gue
 ss=(read,tcheck) scf=(maxcycle=1)
 ----------------------------------------------------------------------
 -----
 title
 -----
 Structure from the checkpoint file:  "BDE49_nonexpt_626_mol1.chk"
 Charge =  0 Multiplicity = 1

                         Standard orientation:
 ---------------------------------------------------------------------
 Center     Atomic      Atomic             Coordinates (Angstroms)
 Number     Number       Type             X           Y           Z
 ---------------------------------------------------------------------
      1          8           0       -0.741920   -0.958926    0.027534
      2          5           0       -1.637790    0.067597    0.004328
      3          8           0       -2.700633    0.052954    0.872279
      4          6           0        0.384095   -1.019547   -0.860730
      5          6           0        1.685834   -1.093292   -0.068635
      6          1           0        0.371863   -0.157807   -1.531432
      7          6           0        1.976527    0.124350    0.821288
      8          1           0        2.503538   -1.228246   -0.788432
      9          1           0        1.661125   -1.996251    0.551093
     10          6           0        2.147323    1.443536    0.059303
     11          1           0        2.886067   -0.081998    1.395840
     12          1           0        1.171985    0.226388    1.557029
     13          1           0        2.932580    1.363567   -0.699889
     14          1           0        2.428755    2.251683    0.740108
     15          1           0        1.223922    1.743890   -0.441705
     16          1           0        0.268651   -1.922788   -1.467253
     17          1           0       -2.691990   -0.732472    1.426889
     18          8           0       -1.498243    1.118902   -0.864318
     19          1           0       -2.203852    1.762320   -0.755201
 ---------------------------------------------------------------------

 SCF Done:  E(RHF) =  -409.208208728     A.U. after    2 cycles

 The electronic state is 1-A.
 Alpha  occ. eigenvalues --  -21.05405 -21.05259 -21.01834 -11.44807 -11.40753
 Alpha  occ. eigenvalues --  -11.37441 -11.34417  -7.64988  -1.88427  -1.68642
 Alpha  occ. eigenvalues --   -1.65834  -1.21823  -1.05364  -0.92379  -0.81743
 Alpha  occ. eigenvalues --   -0.75424  -0.67294  -0.64588  -0.61742  -0.59264
 Alpha  occ. eigenvalues --   -0.55856  -0.53485  -0.52930  -0.51123  -0.50021
 Alpha  occ. eigenvalues --   -0.45944  -0.44669  -0.43361  -0.38056  -0.36512
 Alpha  occ. eigenvalues --   -0.35366  -0.33438
 Alpha virt. eigenvalues --    0.03650   0.04654   0.04910   0.05123   0.05736
 Alpha virt. eigenvalues --    0.05988   0.06249   0.06260   0.06682   0.07757
 Alpha virt. eigenvalues --    0.08868   0.08964   0.09620   0.10128   0.10490

 Mulliken charges:
               1
     1  O   -5.439409
     2  B    9.648057
     3  O   -3.870562
     4  C   -1.338108
     5  C   -3.038053
     6  H    2.187772
     7  C   -3.102995
     8  H    1.401452
     9  H    1.381739
    10  C   -3.791517
    11  H    1.280821
    12  H    1.547651
    13  H    1.245012
    14  H    1.179271
    15  H    1.480080
    16  H    1.265600
    17  H    1.071599
    18  O   -4.151002
    19  H    1.042592
 Sum of Mulliken charges =   0.00000

 Dipole moment (field-independent basis, Debye):
    X=              0.3396    Y=             -0.1837    Z=             -0.0640  Tot=              0.3914

 Test job not archived.
 1\1\GINC-SE366\SP\RHF\Aug-CC-pVDZ\C4H11B1O3\OHZDE\09-Apr-2025\0\\#t hf
  aug-cc-pvdz iop(5/13=1,5/36=2,99/5=2) pseudo=read geom=check guess=(r
 ead,tcheck) scf=(maxcycle=1)\\title\\0,1\O,0,-0.74192,-0.958926,0.0275
 34\B,0,-1.63779,0.067597,0.004328\O,0,-2.700633,0.052954,0.872279\C,0,
 0.384095,-1.019547,-0.86073\C,0,1.685834,-1.093292,-0.068635\H,0,0.371
 863,-0.157807,-1.531432\C,0,1.976527,0.12435,0.821288\H,0,2.503538,-1.
 228246,-0.788432\H,0,1.661125,-1.996251,0.551093\C,0,2.147323,1.443536
 ,0.059303\H,0,2.886067,-0.081998,1.39584\H,0,1.171985,0.226388,1.55702

 Normal termination of Gaussian 16 at Wed Apr  9 00:40:46 2025.
