 Gaussian 16, Revision C.01,

 ----------------------------------------------------------------------
 #t hf aug-cc-pvdz symm=none int=(grid=ultrafine) guess=(read,tcheck) s
 table=(opt,rrhf)
 ----------------------------------------------------------------------
 -----
 title
 -----
 Symbolic Z-matrix:
 Charge =  0 Multiplicity = 1

 SCF Done:  E(RHF) =  -643.087708369     A.U. after   15 cycles
 Normal termination of Gaussian 16 at Tue Apr  8 23:37:34 2025.
 Gaussian 16:  ES64L-G16RevC.01  3-Jul-2019

 ----------------------------------------------------------------------
 #t hf aug-cc-pvdz iop(5/13=1,5/36=2,99/5=2) pseudo=read geom=check gue
 ss=(read,tcheck) scf=(maxcycle=1)
 ----------------------------------------------------------------------
 -----
 title
 -----
 Structure from the checkpoint file:  "BDE49_nonexpt_1509_mol1.chk"
 Charge =  0 Multiplicity = 1

                         Standard orientation:
 ---------------------------------------------------------------------
 Center     Atomic      Atomic             Coordinates (Angstroms)
 Number     Number       Type             X           Y           Z
 ---------------------------------------------------------------------
      1          6           0       -1.784783    1.330000   -0.058705
      2          6           0       -2.628257    0.228356    0.050024
      3          6           0       -2.052173   -1.040271    0.096772
      4          7           0       -0.736510   -1.253244    0.045659
      5          6           0        0.071029   -0.186437   -0.050644
      6          6           0       -0.409641    1.123853   -0.113899
      7          1           0       -3.704634    0.342942    0.096001
      8          1           0       -2.676087   -1.926433    0.178144
      9          1           0        0.288652    1.947008   -0.199333
     10          1           0       -2.191500    2.334768   -0.100478
     11          7           0        2.622511    0.845741    0.212683
     12         15           0        1.857746   -0.624865   -0.216782
     13          1           0        1.902127   -1.371445    0.990837
     14          1           0        2.626717    1.155128    1.175372
     15          1           0        3.509472    1.010519   -0.238504
 ---------------------------------------------------------------------

 SCF Done:  E(RHF) =  -644.701335785     A.U. after    2 cycles

 The electronic state is 1-A.
 Alpha  occ. eigenvalues -- -105.18899 -15.74564 -15.73520 -11.48422 -11.44697
 Alpha  occ. eigenvalues --  -11.43569 -11.40904 -11.37565  -2.76866  -1.55887
 Alpha  occ. eigenvalues --   -1.51194  -1.44463  -1.42215  -1.18625  -1.17873
 Alpha  occ. eigenvalues --   -1.09432  -0.88848  -0.86917  -0.74500  -0.68361
 Alpha  occ. eigenvalues --   -0.65314  -0.62719  -0.59853  -0.55977  -0.54190
 Alpha  occ. eigenvalues --   -0.50563  -0.41626  -0.37429  -0.37004  -0.34528
 Alpha  occ. eigenvalues --   -0.27953  -0.23042  -0.01300
 Alpha virt. eigenvalues --    0.03699   0.05001   0.05405   0.05738   0.06568
 Alpha virt. eigenvalues --    0.06945   0.07892   0.09233   0.10311   0.10577
 Alpha virt. eigenvalues --    0.10953   0.12342   0.13329   0.13609   0.14065

 Mulliken charges:
               1
     1  C    0.393866
     2  C   -1.192063
     3  C   -0.842522
     4  N   -2.986378
     5  C   -0.942551
     6  C   -2.707187
     7  H    1.310106
     8  H    1.625627
     9  H    1.547217
    10  H    1.523019
    11  N   -2.541149
    12  P    4.217314
    13  H   -0.582620
    14  H    0.474683
    15  H    0.702636
 Sum of Mulliken charges =  -0.00000

 Dipole moment (field-independent basis, Debye):
    X=             -0.0734    Y=              1.4522    Z=              0.4403  Tot=              1.5193

 Test job not archived.
 1\1\GINC-SE102\SP\RHF\Aug-CC-pVDZ\C5H7N2P1\OHZDE\08-Apr-2025\0\\#t hf
 aug-cc-pvdz iop(5/13=1,5/36=2,99/5=2) pseudo=read geom=check guess=(re
 ad,tcheck) scf=(maxcycle=1)\\title\\0,1\C,0,-1.784783,1.33,-0.058705\C
 ,0,-2.628257,0.228356,0.050024\C,0,-2.052173,-1.040271,0.096772\N,0,-0
 .73651,-1.253244,0.045659\C,0,0.071029,-0.186437,-0.050644\C,0,-0.4096
 41,1.123853,-0.113899\H,0,-3.704634,0.342942,0.096001\H,0,-2.676087,-1
 .926433,0.178144\H,0,0.288652,1.947008,-0.199333\H,0,-2.1915,2.334768,
 -0.100478\N,0,2.622511,0.845741,0.212683\P,0,1.857746,-0.624865,-0.216

 Normal termination of Gaussian 16 at Tue Apr  8 23:37:40 2025.
