 Gaussian 16, Revision C.01,

 ----------------------------------------------------------------------
 #t hf aug-cc-pvdz symm=none int=(grid=ultrafine) guess=(read,tcheck) s
 table=(opt,rrhf)
 ----------------------------------------------------------------------
 -----
 title
 -----
 Symbolic Z-matrix:
 Charge =  0 Multiplicity = 1

 SCF Done:  E(RHF) =  -341.414758694     A.U. after   12 cycles
 Normal termination of Gaussian 16 at Wed Apr  9 00:32:27 2025.
 Gaussian 16:  ES64L-G16RevC.01  3-Jul-2019

 ----------------------------------------------------------------------
 #t hf aug-cc-pvdz iop(5/13=1,5/36=2,99/5=2) pseudo=read geom=check gue
 ss=(read,tcheck) scf=(maxcycle=1)
 ----------------------------------------------------------------------
 -----
 title
 -----
 Structure from the checkpoint file:  "BDE49_nonexpt_369_mol1.chk"
 Charge =  0 Multiplicity = 1

                         Standard orientation:
 ---------------------------------------------------------------------
 Center     Atomic      Atomic             Coordinates (Angstroms)
 Number     Number       Type             X           Y           Z
 ---------------------------------------------------------------------
      1          9           0        1.527061   -1.124989    0.057071
      2          9           0        1.527067    1.124986    0.057058
      3          5           0        0.826992   -0.000001   -0.061762
      4          6           0       -0.709276    0.000002   -0.363601
      5          6           0       -1.416887   -1.279638    0.120131
      6          1           0       -0.925853   -2.179151   -0.257265
      7          1           0       -2.459045   -1.297757   -0.211733
      8          1           0       -1.419287   -1.339438    1.213145
      9          6           0       -1.416883    1.279641    0.120142
     10          1           0       -0.755483    0.000007   -1.466717
     11          1           0       -1.419283    1.339431    1.213157
     12          1           0       -2.459040    1.297765   -0.211723
     13          1           0       -0.925847    2.179156   -0.257246
 ---------------------------------------------------------------------

 SCF Done:  E(RHF) =  -342.814598908     A.U. after    2 cycles

 The electronic state is 1-A.
 Alpha  occ. eigenvalues --  -29.25135 -29.25033 -11.40528 -11.39348 -11.34743
 Alpha  occ. eigenvalues --   -7.68883  -1.27111  -1.08415  -1.01038  -0.84761
 Alpha  occ. eigenvalues --   -0.73883  -0.65226  -0.61728  -0.55587  -0.53920
 Alpha  occ. eigenvalues --   -0.51293  -0.49819  -0.47484  -0.44947  -0.43794
 Alpha  occ. eigenvalues --   -0.42964  -0.33604  -0.31645  -0.25431
 Alpha virt. eigenvalues --    0.03295   0.03965   0.04913   0.05169   0.06351
 Alpha virt. eigenvalues --    0.06840   0.07153   0.07634   0.07758   0.10148
 Alpha virt. eigenvalues --    0.10225   0.13682   0.14260   0.14606   0.15523

 Mulliken charges:
               1
     1  F   -0.512844
     2  F   -0.512833
     3  B    2.205645
     4  C   -2.804923
     5  C   -3.600972
     6  H    1.335277
     7  H    1.227858
     8  H    1.230125
     9  C   -3.600996
    10  H    1.240405
    11  H    1.230120
    12  H    1.227859
    13  H    1.335278
 Sum of Mulliken charges =  -0.00000

 Dipole moment (field-independent basis, Debye):
    X=              1.9101    Y=             -0.0000    Z=              0.2084  Tot=              1.9215

 Test job not archived.
 1\1\GINC-SE127\SP\RHF\Aug-CC-pVDZ\C3H7B1F2\OHZDE\09-Apr-2025\0\\#t hf
 aug-cc-pvdz iop(5/13=1,5/36=2,99/5=2) pseudo=read geom=check guess=(re
 ad,tcheck) scf=(maxcycle=1)\\title\\0,1\F,0,-1.527061,1.12499,0.057071
 \F,0,-1.527067,-1.124985,0.057058\B,0,-0.826992,0.000001,-0.061762\C,0
 ,0.709276,-0.000002,-0.363601\C,0,1.416887,1.279638,0.120131\H,0,0.925
 854,2.179151,-0.257265\H,0,2.459045,1.297756,-0.211733\H,0,1.419287,1.
 339438,1.213145\C,0,1.416883,-1.279641,0.120142\H,0,0.755483,-0.000007
 ,-1.466717\H,0,1.419283,-1.339431,1.213157\H,0,2.45904,-1.297766,-0.21

 Normal termination of Gaussian 16 at Wed Apr  9 00:32:31 2025.
