 Gaussian 16, Revision C.01,

 ----------------------------------------------------------------------
 #t hf aug-cc-pvdz symm=none int=(grid=ultrafine) guess=(read,tcheck) s
 table=(opt,rrhf)
 ----------------------------------------------------------------------
 -----
 title
 -----
 Symbolic Z-matrix:
 Charge =  0 Multiplicity = 1

 SCF Done:  E(RHF) =  -716.048224015     A.U. after   16 cycles
 Normal termination of Gaussian 16 at Wed Apr  9 00:54:25 2025.
 Gaussian 16:  ES64L-G16RevC.01  3-Jul-2019

 ----------------------------------------------------------------------
 #t hf aug-cc-pvdz iop(5/13=1,5/36=2,99/5=2) pseudo=read geom=check gue
 ss=(read,tcheck) scf=(maxcycle=1)
 ----------------------------------------------------------------------
 -----
 title
 -----
 Structure from the checkpoint file:  "BDE49_nonexpt_998_mol1.chk"
 Charge =  0 Multiplicity = 1

                         Standard orientation:
 ---------------------------------------------------------------------
 Center     Atomic      Atomic             Coordinates (Angstroms)
 Number     Number       Type             X           Y           Z
 ---------------------------------------------------------------------
      1         16           0       -0.144587   -1.017312   -0.023464
      2          7           0        1.190345    0.262816   -0.005992
      3          8           0        0.897421    1.399668   -0.287800
      4          8           0        2.269459   -0.189376    0.310127
      5          8           0       -1.422612   -0.158022   -0.550329
      6          6           0       -2.156383    0.606122    0.442429
      7          1           0       -3.033989    0.981158   -0.081747
      8          1           0       -1.545506    1.436821    0.795049
      9          1           0       -2.455369   -0.035585    1.273510
 ---------------------------------------------------------------------

 SCF Done:  E(RHF) =  -717.636774382     A.U. after    2 cycles

 The electronic state is 1-A.
 Alpha  occ. eigenvalues --  -75.80398 -21.12282 -21.11990 -21.11636 -16.01811
 Alpha  occ. eigenvalues --  -13.28567 -13.21921 -13.14079 -11.43925  -8.13996
 Alpha  occ. eigenvalues --   -2.01379  -1.81506  -1.71973  -1.18154  -1.01464
 Alpha  occ. eigenvalues --   -0.87573  -0.72065  -0.68772  -0.65056  -0.63653
 Alpha  occ. eigenvalues --   -0.62592  -0.56007  -0.45310  -0.41898  -0.33819
 Alpha  occ. eigenvalues --   -0.33410  -0.31884  -0.28396
 Alpha virt. eigenvalues --    0.02824   0.05173   0.06113   0.06993   0.08934
 Alpha virt. eigenvalues --    0.10132   0.10437   0.13435   0.13938   0.14271
 Alpha virt. eigenvalues --    0.15284   0.16729   0.17217   0.19087   0.20792

 Mulliken charges:
               1
     1  S    1.949342
     2  N    4.253582
     3  O   -2.563898
     4  O   -2.577175
     5  O   -2.291535
     6  C   -2.670974
     7  H    1.162432
     8  H    1.345014
     9  H    1.393213
 Sum of Mulliken charges =   0.00000

 Dipole moment (field-independent basis, Debye):
    X=             -2.7364    Y=             -1.3439    Z=              0.3770  Tot=              3.0718

 Test job not archived.
 1\1\GINC-SE072\SP\RHF\Aug-CC-pVDZ\C1H3N1O3S1\OHZDE\09-Apr-2025\0\\#t h
 f aug-cc-pvdz iop(5/13=1,5/36=2,99/5=2) pseudo=read geom=check guess=(
 read,tcheck) scf=(maxcycle=1)\\title\\0,1\S,0,-0.144587,-1.017312,-0.0
 23464\N,0,1.190345,0.262816,-0.005992\O,0,0.897421,1.399668,-0.2878\O,
 0,2.269459,-0.189376,0.310127\O,0,-1.422612,-0.158022,-0.550329\C,0,-2
 .156383,0.606122,0.442429\H,0,-3.033989,0.981158,-0.081747\H,0,-1.5455
 06,1.436821,0.795049\H,0,-2.455369,-0.035585,1.27351\\Version=ES64L-G1
 6RevC.01\State=1-A\HF=-717.6367744\RMSD=7.314e-02\Dipole=-1.0765844,-0

 Normal termination of Gaussian 16 at Wed Apr  9 00:54:28 2025.
