 Gaussian 16, Revision C.01,

 ----------------------------------------------------------------------
 #t hf aug-cc-pvdz symm=none int=(grid=ultrafine) guess=(read,tcheck) s
 table=(opt,rrhf)
 ----------------------------------------------------------------------
 -----
 title
 -----
 Symbolic Z-matrix:
 Charge =  0 Multiplicity = 1

 SCF Done:  E(RHF) =  -598.126156375     A.U. after   13 cycles
 Normal termination of Gaussian 16 at Wed Apr  9 00:35:47 2025.
 Gaussian 16:  ES64L-G16RevC.01  3-Jul-2019

 ----------------------------------------------------------------------
 #t hf aug-cc-pvdz iop(5/13=1,5/36=2,99/5=2) pseudo=read geom=check gue
 ss=(read,tcheck) scf=(maxcycle=1)
 ----------------------------------------------------------------------
 -----
 title
 -----
 Structure from the checkpoint file:  "BDE49_nonexpt_482_mol1.chk"
 Charge =  0 Multiplicity = 1

                         Standard orientation:
 ---------------------------------------------------------------------
 Center     Atomic      Atomic             Coordinates (Angstroms)
 Number     Number       Type             X           Y           Z
 ---------------------------------------------------------------------
      1          1           0       -0.016717    1.622539    1.002595
      2          1           0       -0.016732    1.622595   -1.002504
      3          5           0       -0.081505    0.962336    0.000027
      4          6           0        1.245226    0.132393   -0.000006
      5          8           0        2.203667   -0.457755   -0.000030
      6         17           0       -1.450572   -0.305243    0.000003
 ---------------------------------------------------------------------

 SCF Done:  E(RHF) =  -598.964459780     A.U. after    2 cycles

 The electronic state is 1-A.
 Alpha  occ. eigenvalues --  -99.86364 -21.25295 -11.60894 -10.43517  -9.63462
 Alpha  occ. eigenvalues --   -9.62946  -9.62876  -7.63390  -1.87986  -1.30813
 Alpha  occ. eigenvalues --   -1.02388  -0.74937  -0.62596  -0.62526  -0.59667
 Alpha  occ. eigenvalues --   -0.53694  -0.52216  -0.47230  -0.43708
 Alpha virt. eigenvalues --    0.03212   0.03934   0.04504   0.04918   0.07994
 Alpha virt. eigenvalues --    0.08849   0.10833   0.11488   0.12663   0.13581
 Alpha virt. eigenvalues --    0.13966   0.14189   0.16982   0.17881   0.18473

 Mulliken charges:
               1
     1  H   -2.811967
     2  H   -2.811967
     3  B    8.465559
     4  C    0.279853
     5  O   -1.915815
     6  Cl  -1.205663
 Sum of Mulliken charges =  -0.00000

 Dipole moment (field-independent basis, Debye):
    X=              5.1201    Y=             -1.0332    Z=             -0.0001  Tot=              5.2233

 Test job not archived.
 1\1\GINC-SE070\SP\RHF\Aug-CC-pVDZ\C1H2B1Cl1O1\OHZDE\09-Apr-2025\0\\#t
 hf aug-cc-pvdz iop(5/13=1,5/36=2,99/5=2) pseudo=read geom=check guess=
 (read,tcheck) scf=(maxcycle=1)\\title\\0,1\H,0,-0.016717,1.622539,1.00
 2595\H,0,-0.016732,1.622595,-1.002504\B,0,-0.081505,0.962336,0.000027\
 C,0,1.245226,0.132393,-0.000006\O,0,2.203667,-0.457755,-0.00003\Cl,0,-
 1.450572,-0.305243,0.000003\\Version=ES64L-G16RevC.01\State=1-A\HF=-59
 8.9644598\RMSD=1.340e-01\Dipole=2.0143992,-0.4064926,-0.0000277\Quadru
 pole=3.2281095,-1.7258105,-1.5022989,-0.7957467,-0.0000597,-0.0000017\

 Normal termination of Gaussian 16 at Wed Apr  9 00:35:48 2025.
