 Gaussian 16, Revision C.01,

 ----------------------------------------------------------------------
 #t hf aug-cc-pvdz symm=none int=(grid=ultrafine) guess=(read,tcheck) s
 table=opt
 ----------------------------------------------------------------------
 -----
 title
 -----
 Symbolic Z-matrix:
 Charge =  0 Multiplicity = 2

 SCF Done:  E(UHF) =  -779.942011999     A.U. after   20 cycles
 Normal termination of Gaussian 16 at Tue Apr  8 23:58:23 2025.
 Gaussian 16:  ES64L-G16RevC.01  3-Jul-2019

 ----------------------------------------------------------------------
 #t hf aug-cc-pvdz iop(5/13=1,5/36=2,99/5=2) pseudo=read geom=check gue
 ss=(read,tcheck) scf=(maxcycle=1)
 ----------------------------------------------------------------------
 -----
 title
 -----
 Structure from the checkpoint file:  "BDE49_nonexpt_2053_mol2.chk"
 Charge =  0 Multiplicity = 2

                         Standard orientation:
 ---------------------------------------------------------------------
 Center     Atomic      Atomic             Coordinates (Angstroms)
 Number     Number       Type             X           Y           Z
 ---------------------------------------------------------------------
      1         14           0        2.212980    0.000379   -0.123554
      2          7           0        0.515503   -0.001019    0.120193
      3          6           0       -0.677672   -0.000658    0.048458
      4         16           0       -2.254078    0.000310   -0.024074
      5          1           0        2.769774    1.228072    0.491999
      6          1           0        2.771273   -1.227248    0.490844
 ---------------------------------------------------------------------

 SCF Done:  E(UHF) =  -780.704974875     A.U. after    2 cycles

 The electronic state is 2-A.
 Alpha  occ. eigenvalues --  -76.27999 -75.69566 -15.78404 -13.22172 -13.00912
 Alpha  occ. eigenvalues --  -13.00806 -11.54727  -8.03850  -5.61388  -2.26562
 Alpha  occ. eigenvalues --   -2.23036  -2.22127  -1.39609  -1.15401  -0.86858
 Alpha  occ. eigenvalues --   -0.64220  -0.56959  -0.56435  -0.54078  -0.49293
 Alpha  occ. eigenvalues --   -0.33358  -0.27534  -0.25115
 Alpha virt. eigenvalues --    0.03378   0.04194   0.05847   0.06752   0.06878
 Alpha virt. eigenvalues --    0.08572   0.09681   0.11236   0.11624   0.12990
 Alpha virt. eigenvalues --    0.13868   0.14595   0.15130   0.17048   0.17410

  Beta  occ. eigenvalues --  -76.27436 -75.69498 -15.78575 -13.22163 -13.00734
  Beta  occ. eigenvalues --  -13.00519 -11.54557  -8.03774  -5.60487  -2.25869
  Beta  occ. eigenvalues --   -2.22424  -2.18690  -1.39371  -1.15220  -0.84241
  Beta  occ. eigenvalues --   -0.62141  -0.56838  -0.55611  -0.53613  -0.48289
  Beta  occ. eigenvalues --   -0.28422  -0.27634
  Beta virt. eigenvalues --    0.02049   0.03742   0.04436   0.06062   0.06959
  Beta virt. eigenvalues --    0.08348   0.08867   0.10305   0.11304   0.12258
  Beta virt. eigenvalues --    0.13716   0.14560   0.15443   0.16062   0.18273

 Mulliken charges and spin densities:
               1          2
     1  Si   3.735864   1.032713
     2  N   -3.244406  -0.236183
     3  C    0.606099   0.078394
     4  S    1.600785   0.094244
     5  H   -1.349116   0.015446
     6  H   -1.349227   0.015385
 Sum of Mulliken charges =   0.00000   1.00000

 Dipole moment (field-independent basis, Debye):
    X=             -2.0352    Y=              0.0036    Z=             -0.6229  Tot=              2.1284
                          Isotropic Fermi Contact Couplings
        Atom                 a.u.       MegaHertz       Gauss      10(-4) cm-1
     1  Si(29)             0.57329    -509.49899    -181.80191    -169.95057
     2  N(14)              0.00904       2.92233       1.04276       0.97478
     3  C(13)              0.00853       9.59127       3.42240       3.19930
     4  S(33)              0.02895       9.94482       3.54856       3.31723
     5  H(1)               0.01062      47.47075      16.93874      15.83454
     6  H(1)               0.01062      47.44871      16.93088      15.82719
 --------------------------------------------------------
       Center         ----  Spin Dipole Couplings  ----

 1\1\GINC-SE335\SP\UHF\Aug-CC-pVDZ\C1H2N1S1Si1(2)\OHZDE\08-Apr-2025\0\\
 #t hf aug-cc-pvdz iop(5/13=1,5/36=2,99/5=2) pseudo=read geom=check gue
 ss=(read,tcheck) scf=(maxcycle=1)\\title\\0,2\Si,0,-2.21298,-0.000379,
 -0.123554\N,0,-0.515503,0.001019,0.120193\C,0,0.677672,0.000658,0.0484
 58\S,0,2.254078,-0.00031,-0.024074\H,0,-2.769774,-1.228072,0.491999\H,
 0,-2.771273,1.227248,0.490844\\Version=ES64L-G16RevC.01\State=2-A\HF=-
 780.7049749\S2=0.761431\S2-1=0.\S2A=0.750061\RMSD=2.325e-01\Dipole=0.8
 0071,-0.0014101,-0.245063\Quadrupole=7.088322,-3.6612679,-3.4270542,-0

 Normal termination of Gaussian 16 at Tue Apr  8 23:58:25 2025.
