 Gaussian 16, Revision C.01,

 ----------------------------------------------------------------------
 #t hf aug-cc-pvdz symm=none int=(grid=ultrafine) guess=(read,tcheck) s
 table=(opt,rrhf)
 ----------------------------------------------------------------------
 -----
 title
 -----
 Symbolic Z-matrix:
 Charge =  0 Multiplicity = 1

 SCF Done:  E(RHF) =  -374.622554988     A.U. after   12 cycles
 Normal termination of Gaussian 16 at Tue Apr  8 22:42:26 2025.
 Gaussian 16:  ES64L-G16RevC.01  3-Jul-2019

 ----------------------------------------------------------------------
 #t hf aug-cc-pvdz iop(5/13=1,5/36=2,99/5=2) pseudo=read geom=check gue
 ss=(read,tcheck) scf=(maxcycle=1)
 ----------------------------------------------------------------------
 -----
 title
 -----
 Structure from the checkpoint file:  "BDE49_expt_136_mol1.chk"
 Charge =  0 Multiplicity = 1

                         Standard orientation:
 ---------------------------------------------------------------------
 Center     Atomic      Atomic             Coordinates (Angstroms)
 Number     Number       Type             X           Y           Z
 ---------------------------------------------------------------------
      1          6           0        0.748250   -0.638664    0.000005
      2          6           0       -0.430557   -0.038140    0.000008
      3          9           0       -0.618294    1.266906    0.000001
      4          1           0        0.860840   -1.711709   -0.000003
      5          9           0        1.885520    0.077946   -0.000005
      6          9           0       -1.574670   -0.703459   -0.000005
 ---------------------------------------------------------------------

 SCF Done:  E(RHF) =  -375.979599333     A.U. after    2 cycles

 The electronic state is 1-A.
 Alpha  occ. eigenvalues --  -29.33682 -29.33538 -29.30762 -11.56316 -11.47327
 Alpha  occ. eigenvalues --   -1.36481  -1.09640  -0.87706  -0.78164  -0.67550
 Alpha  occ. eigenvalues --   -0.62975  -0.47670  -0.43223  -0.41599  -0.41385
 Alpha  occ. eigenvalues --   -0.35236  -0.32832  -0.30342  -0.25902  -0.18703
 Alpha virt. eigenvalues --    0.04667   0.09835   0.10539   0.11498   0.11768
 Alpha virt. eigenvalues --    0.12787   0.14187   0.15173   0.19587   0.22074
 Alpha virt. eigenvalues --    0.24309   0.24714   0.26366   0.27722   0.31442

 Mulliken charges:
               1
     1  C   -1.880019
     2  C   -1.830667
     3  F    0.835366
     4  H    1.468074
     5  F    0.758481
     6  F    0.648764
 Sum of Mulliken charges =  -0.00000

 Dipole moment (field-independent basis, Debye):
    X=             -0.7051    Y=              1.6047    Z=             -0.0001  Tot=              1.7528

 Test job not archived.
 1\1\GINC-SE038\SP\RHF\Aug-CC-pVDZ\C2H1F3\OHZDE\08-Apr-2025\0\\#t hf au
 g-cc-pvdz iop(5/13=1,5/36=2,99/5=2) pseudo=read geom=check guess=(read
 ,tcheck) scf=(maxcycle=1)\\title\\0,1\C,0,0.74825,-0.638664,0.000005\C
 ,0,-0.430557,-0.03814,0.000008\F,0,-0.618294,1.266906,0.000001\H,0,0.8
 60839,-1.711709,-0.000003\F,0,1.88552,0.077945,-0.000005\F,0,-1.57467,
 -0.703458,-0.000005\\Version=ES64L-G16RevC.01\State=1-A\HF=-375.979599
 3\RMSD=5.001e-01\Dipole=-0.2773888,0.631354,-0.0000251\Quadrupole=1.94
 69122,0.6000247,-2.5469368,0.302352,-0.0000075,0.0000269\PG=C01 [X(C2H

 Normal termination of Gaussian 16 at Tue Apr  8 22:42:28 2025.
