 Gaussian 16, Revision C.01,

 ----------------------------------------------------------------------
 #t hf aug-cc-pvdz symm=none int=(grid=ultrafine) guess=(read,tcheck) s
 table=opt
 ----------------------------------------------------------------------
 -----
 title
 -----
 Symbolic Z-matrix:
 Charge =  0 Multiplicity = 2

 SCF Done:  E(UHF) =  -428.525053469     A.U. after   14 cycles
 Normal termination of Gaussian 16 at Tue Apr  8 23:57:20 2025.
 Gaussian 16:  ES64L-G16RevC.01  3-Jul-2019

 ----------------------------------------------------------------------
 #t hf aug-cc-pvdz iop(5/13=1,5/36=2,99/5=2) pseudo=read geom=check gue
 ss=(read,tcheck) scf=(maxcycle=1)
 ----------------------------------------------------------------------
 -----
 title
 -----
 Structure from the checkpoint file:  "BDE49_nonexpt_2016_mol2.chk"
 Charge =  0 Multiplicity = 2

                         Standard orientation:
 ---------------------------------------------------------------------
 Center     Atomic      Atomic             Coordinates (Angstroms)
 Number     Number       Type             X           Y           Z
 ---------------------------------------------------------------------
      1         14           0       -1.133423   -0.139679   -0.100838
      2          6           0        0.612578    0.594527    0.099901
      3          9           0        1.571992   -0.417373   -0.066912
      4          1           0        0.743607    1.020778    1.101780
      5          1           0        0.809604    1.382156   -0.633604
      6          1           0       -1.369553   -1.204629    0.906299
      7          1           0       -2.139130    0.946402    0.040066
 ---------------------------------------------------------------------

 SCF Done:  E(UHF) =  -429.200163275     A.U. after    2 cycles

 The electronic state is 2-A.
 Alpha  occ. eigenvalues --  -76.23562 -29.25368 -11.42239  -5.57035  -2.20286
 Alpha  occ. eigenvalues --   -2.19060  -2.18011  -1.14407  -0.76574  -0.67380
 Alpha  occ. eigenvalues --   -0.63953  -0.51007  -0.48250  -0.36811  -0.28911
 Alpha  occ. eigenvalues --   -0.25306  -0.22881
 Alpha virt. eigenvalues --    0.03883   0.04873   0.05566   0.07153   0.07870
 Alpha virt. eigenvalues --    0.08635   0.09478   0.12911   0.13887   0.15583
 Alpha virt. eigenvalues --    0.15851   0.17016   0.17979   0.19519   0.21635

  Beta  occ. eigenvalues --  -76.22998 -29.25388 -11.42217  -5.56146  -2.19584
  Beta  occ. eigenvalues --   -2.18403  -2.14404  -1.13998  -0.72180  -0.67084
  Beta  occ. eigenvalues --   -0.63415  -0.50429  -0.47473  -0.36745  -0.25232
  Beta  occ. eigenvalues --   -0.22853
  Beta virt. eigenvalues --    0.03178   0.04173   0.05148   0.06100   0.07419
  Beta virt. eigenvalues --    0.08052   0.09728   0.10614   0.13214   0.14913
  Beta virt. eigenvalues --    0.16101   0.16738   0.17527   0.19999   0.21172

 Mulliken charges and spin densities:
               1          2
     1  Si   3.816321   1.002632
     2  C   -3.868030   0.013861
     3  F    0.163651  -0.023640
     4  H    1.376861   0.001297
     5  H    1.398898   0.010471
     6  H   -1.458415   0.002603
     7  H   -1.429286  -0.007224
 Sum of Mulliken charges =  -0.00000   1.00000

 Dipole moment (field-independent basis, Debye):
    X=              1.4011    Y=             -0.6894    Z=             -0.3909  Tot=              1.6097
                          Isotropic Fermi Contact Couplings
        Atom                 a.u.       MegaHertz       Gauss      10(-4) cm-1
     1  Si(29)             0.49358    -438.65809    -156.52412    -146.32059
     2  C(13)              0.00883       9.92226       3.54051       3.30971
     3  F(19)             -0.00016      -0.67339      -0.24028      -0.22462
     4  H(1)               0.00671      29.97636      10.69631       9.99904
     5  H(1)               0.00012       0.55512       0.19808       0.18517
     6  H(1)               0.00553      24.73785       8.82708       8.25166
     7  H(1)               0.00359      16.04686       5.72592       5.35266
 --------------------------------------------------------

 Normal termination of Gaussian 16 at Tue Apr  8 23:57:22 2025.
