 Gaussian 16, Revision C.01,

 ----------------------------------------------------------------------
 #t hf aug-cc-pvdz symm=none int=(grid=ultrafine) guess=(read,tcheck) s
 table=(opt,rrhf)
 ----------------------------------------------------------------------
 -----
 title
 -----
 Symbolic Z-matrix:
 Charge =  0 Multiplicity = 1

 SCF Done:  E(RHF) =  -729.253150733     A.U. after   13 cycles
 Normal termination of Gaussian 16 at Wed Apr  9 00:12:11 2025.
 Gaussian 16:  ES64L-G16RevC.01  3-Jul-2019

 ----------------------------------------------------------------------
 #t hf aug-cc-pvdz iop(5/13=1,5/36=2,99/5=2) pseudo=read geom=check gue
 ss=(read,tcheck) scf=(maxcycle=1)
 ----------------------------------------------------------------------
 -----
 title
 -----
 Structure from the checkpoint file:  "BDE49_nonexpt_2393_mol1.chk"
 Charge =  0 Multiplicity = 1

                         Standard orientation:
 ---------------------------------------------------------------------
 Center     Atomic      Atomic             Coordinates (Angstroms)
 Number     Number       Type             X           Y           Z
 ---------------------------------------------------------------------
      1         14           0       -1.941492   -0.854301    0.000001
      2         14           0       -0.648176    1.120588    0.000000
      3          1           0       -1.671433   -1.664932   -1.209774
      4          1           0       -3.378342   -0.478867    0.000000
      5          1           0       -1.671434   -1.664931    1.209776
      6          7           0        1.124450    0.782054   -0.000003
      7          1           0       -0.887940    1.959093    1.199326
      8          1           0       -0.887944    1.959095   -1.199323
      9          7           0        1.426006   -0.423672    0.000000
     10          6           0        2.874062   -0.674064    0.000000
     11          1           0        3.104952   -1.280139    0.880844
     12          1           0        3.444979    0.258514   -0.000001
     13          1           0        3.104953   -1.280142   -0.880841
 ---------------------------------------------------------------------

 SCF Done:  E(RHF) =  -730.268839682     A.U. after    2 cycles

 The electronic state is 1-A.
 Alpha  occ. eigenvalues --  -76.22906 -76.21643 -15.80103 -15.76351 -11.38861
 Alpha  occ. eigenvalues --   -5.56618  -5.55047  -2.20883  -2.18403  -2.17974
 Alpha  occ. eigenvalues --   -2.17101  -2.17080  -2.16141  -1.51857  -1.10689
 Alpha  occ. eigenvalues --   -0.86127  -0.78896  -0.70614  -0.62569  -0.61124
 Alpha  occ. eigenvalues --   -0.57393  -0.50350  -0.49600  -0.46920  -0.46640
 Alpha  occ. eigenvalues --   -0.44449  -0.36525  -0.30118
 Alpha virt. eigenvalues --    0.04052   0.04717   0.04981   0.06249   0.06881
 Alpha virt. eigenvalues --    0.07062   0.07701   0.08024   0.08376   0.08544
 Alpha virt. eigenvalues --    0.09778   0.10003   0.10484   0.10514   0.12078

 Mulliken charges:
               1
     1  Si   4.485133
     2  Si   4.473327
     3  H   -1.483366
     4  H   -1.552535
     5  H   -1.483368
     6  N   -1.828298
     7  H   -1.746754
     8  H   -1.746756
     9  N   -0.143952
    10  C   -3.104464
    11  H    1.393847
    12  H    1.343337
    13  H    1.393848
 Sum of Mulliken charges =  -0.00000

 Dipole moment (field-independent basis, Debye):
    X=              0.6740    Y=             -0.5942    Z=              0.0000  Tot=              0.8985

 Test job not archived.
 1\1\GINC-SE126\SP\RHF\Aug-CC-pVDZ\C1H8N2Si2\OHZDE\09-Apr-2025\0\\#t hf
  aug-cc-pvdz iop(5/13=1,5/36=2,99/5=2) pseudo=read geom=check guess=(r
 ead,tcheck) scf=(maxcycle=1)\\title\\0,1\Si,0,-1.941492,-0.854301,0.00
 0001\Si,0,-0.648176,1.120588,0.\H,0,-1.671433,-1.664932,-1.209774\H,0,
 -3.378342,-0.478867,0.\H,0,-1.671434,-1.664931,1.209776\N,0,1.12445,0.
 782054,-0.000003\H,0,-0.88794,1.959093,1.199326\H,0,-0.887944,1.959095
 ,-1.199323\N,0,1.426006,-0.423672,0.\C,0,2.874062,-0.674064,0.\H,0,3.1
 04952,-1.280139,0.880844\H,0,3.444979,0.258514,-0.000001\H,0,3.104953,

 Normal termination of Gaussian 16 at Wed Apr  9 00:12:15 2025.
