 Gaussian 16, Revision C.01,

 ----------------------------------------------------------------------
 #t hf aug-cc-pvdz symm=none int=(grid=ultrafine) guess=(read,tcheck) s
 table=(opt,rrhf)
 ----------------------------------------------------------------------
 -----
 title
 -----
 Symbolic Z-matrix:
 Charge =  0 Multiplicity = 1

 SCF Done:  E(RHF) =  -420.320310059     A.U. after   16 cycles
 Normal termination of Gaussian 16 at Tue Apr  8 23:22:11 2025.
 Gaussian 16:  ES64L-G16RevC.01  3-Jul-2019

 ----------------------------------------------------------------------
 #t hf aug-cc-pvdz iop(5/13=1,5/36=2,99/5=2) pseudo=read geom=check gue
 ss=(read,tcheck) scf=(maxcycle=1)
 ----------------------------------------------------------------------
 -----
 title
 -----
 Structure from the checkpoint file:  "BDE49_nonexpt_1174_mol1.chk"
 Charge =  0 Multiplicity = 1

                         Standard orientation:
 ---------------------------------------------------------------------
 Center     Atomic      Atomic             Coordinates (Angstroms)
 Number     Number       Type             X           Y           Z
 ---------------------------------------------------------------------
      1          9           0        2.645881    0.420683    0.000001
      2          8           0        1.766727   -0.709608   -0.000004
      3          6           0        0.464779   -0.270643   -0.000001
      4          6           0       -0.484037   -1.293459    0.000002
      5          6           0        0.061925    1.056910   -0.000003
      6          6           0       -1.311367    1.299906   -0.000001
      7          6           0       -1.821313   -0.916193    0.000003
      8          7           0       -2.249004    0.351300    0.000002
      9          1           0       -0.184852   -2.333485    0.000004
     10          1           0       -2.590333   -1.683076    0.000006
     11          1           0        0.779168    1.863030   -0.000005
     12          1           0       -1.667629    2.326026   -0.000002
 ---------------------------------------------------------------------

 SCF Done:  E(RHF) =  -422.093501010     A.U. after    2 cycles

 The electronic state is 1-A.
 Alpha  occ. eigenvalues --  -29.32389 -21.19393 -15.74675 -11.52630 -11.46901
 Alpha  occ. eigenvalues --  -11.46663 -11.43071 -11.40527  -1.86149  -1.45235
 Alpha  occ. eigenvalues --   -1.18563  -1.13648  -0.93023  -0.90234  -0.76237
 Alpha  occ. eigenvalues --   -0.70698  -0.67206  -0.61935  -0.60905  -0.60803
 Alpha  occ. eigenvalues --   -0.55013  -0.52372  -0.49889  -0.38774  -0.37732
 Alpha  occ. eigenvalues --   -0.36827  -0.36114  -0.28800  -0.23919
 Alpha virt. eigenvalues --    0.03270   0.05200   0.05860   0.06491   0.09160
 Alpha virt. eigenvalues --    0.10073   0.10455   0.10644   0.12553   0.12640
 Alpha virt. eigenvalues --    0.12976   0.13136   0.13596   0.14517   0.15081

 Mulliken charges:
               1
     1  F   -0.243544
     2  O   -2.380162
     3  C    5.149018
     4  C   -1.876679
     5  C   -2.383908
     6  C   -0.481552
     7  C   -0.474252
     8  N   -3.568259
     9  H    1.529031
    10  H    1.543117
    11  H    1.650241
    12  H    1.536948
 Sum of Mulliken charges =  -0.00000

 Dipole moment (field-independent basis, Debye):
    X=              2.2957    Y=              0.4890    Z=              0.0000  Tot=              2.3472

 Test job not archived.
 1\1\GINC-SE393\SP\RHF\Aug-CC-pVDZ\C5H4F1N1O1\OHZDE\08-Apr-2025\0\\#t h
 f aug-cc-pvdz iop(5/13=1,5/36=2,99/5=2) pseudo=read geom=check guess=(
 read,tcheck) scf=(maxcycle=1)\\title\\0,1\F,0,2.645881,0.420683,0.0000
 01\O,0,1.766727,-0.709608,-0.000004\C,0,0.464779,-0.270643,-0.000001\C
 ,0,-0.484037,-1.293459,0.000002\C,0,0.061925,1.05691,-0.000003\C,0,-1.
 311367,1.299906,-0.000001\C,0,-1.821313,-0.916193,0.000003\N,0,-2.2490
 04,0.3513,0.000002\H,0,-0.184852,-2.333485,0.000004\H,0,-2.590333,-1.6
 83076,0.000006\H,0,0.779168,1.86303,-0.000005\H,0,-1.667629,2.326026,-

 Normal termination of Gaussian 16 at Tue Apr  8 23:22:16 2025.
