 Gaussian 16, Revision C.01,

 ----------------------------------------------------------------------
 #t hf aug-cc-pvdz symm=none int=(grid=ultrafine) guess=(read,tcheck) s
 table=(opt,rrhf)
 ----------------------------------------------------------------------
 -----
 title
 -----
 Symbolic Z-matrix:
 Charge =  0 Multiplicity = 1

 SCF Done:  E(RHF) =  -450.728933563     A.U. after   12 cycles
 Normal termination of Gaussian 16 at Tue Apr  8 22:34:41 2025.
 Gaussian 16:  ES64L-G16RevC.01  3-Jul-2019

 ----------------------------------------------------------------------
 #t hf aug-cc-pvdz iop(5/13=1,5/36=2,99/5=2) pseudo=read geom=check gue
 ss=(read,tcheck) scf=(maxcycle=1)
 ----------------------------------------------------------------------
 -----
 title
 -----
 Structure from the checkpoint file:  "BDE49_expt_1050_mol1.chk"
 Charge =  0 Multiplicity = 1

                         Standard orientation:
 ---------------------------------------------------------------------
 Center     Atomic      Atomic             Coordinates (Angstroms)
 Number     Number       Type             X           Y           Z
 ---------------------------------------------------------------------
      1          6           0        0.417746    0.016815    0.007496
      2          6           0       -0.897902    0.770720   -0.084447
      3          9           0        1.456797    0.835247   -0.258716
      4          9           0        0.448899   -0.993062   -0.899481
      5          9           0        0.621882   -0.529279    1.216630
      6          8           0       -2.004813   -0.076019    0.109500
      7          1           0       -0.911117    1.282410   -1.055030
      8          1           0       -0.915415    1.521034    0.706486
      9          1           0       -2.002230   -0.736652   -0.591641
 ---------------------------------------------------------------------

 SCF Done:  E(RHF) =  -452.404286695     A.U. after    2 cycles

 The electronic state is 1-A.
 Alpha  occ. eigenvalues --  -29.31539 -29.31307 -29.31141 -21.10314 -11.60488
 Alpha  occ. eigenvalues --  -11.45069  -1.75102  -1.41457  -1.02925  -0.89363
 Alpha  occ. eigenvalues --   -0.88452  -0.73634  -0.66314  -0.58336  -0.49220
 Alpha  occ. eigenvalues --   -0.47163  -0.44361  -0.43354  -0.37765  -0.36487
 Alpha  occ. eigenvalues --   -0.36069  -0.29452  -0.25878  -0.25732  -0.21932
 Alpha virt. eigenvalues --    0.04381   0.05824   0.05933   0.10373   0.10815
 Alpha virt. eigenvalues --    0.11792   0.12404   0.14022   0.16377   0.17693
 Alpha virt. eigenvalues --    0.20378   0.21920   0.22092   0.24238   0.24673

 Mulliken charges:
               1
     1  C   -0.391594
     2  C   -1.811117
     3  F    0.418073
     4  F    0.418576
     5  F    0.467777
     6  O   -2.304993
     7  H    1.220517
     8  H    1.262845
     9  H    0.719918
 Sum of Mulliken charges =  -0.00000

 Dipole moment (field-independent basis, Debye):
    X=              1.2511    Y=             -0.7595    Z=             -0.3940  Tot=              1.5157

 Test job not archived.
 1\1\GINC-SE110\SP\RHF\Aug-CC-pVDZ\C2H3F3O1\OHZDE\08-Apr-2025\0\\#t hf
 aug-cc-pvdz iop(5/13=1,5/36=2,99/5=2) pseudo=read geom=check guess=(re
 ad,tcheck) scf=(maxcycle=1)\\title\\0,1\C,0,0.417746,0.016815,0.007496
 \C,0,-0.897902,0.77072,-0.084447\F,0,1.456797,0.835247,-0.258716\F,0,0
 .448899,-0.993062,-0.899481\F,0,0.621882,-0.529279,1.21663\O,0,-2.0048
 13,-0.07602,0.1095\H,0,-0.911118,1.28241,-1.05503\H,0,-0.915416,1.5210
 34,0.706486\H,0,-2.00223,-0.736653,-0.591641\\Version=ES64L-G16RevC.01
 \State=1-A\HF=-452.4042867\RMSD=1.952e-01\Dipole=0.4922321,-0.2988223,

 Normal termination of Gaussian 16 at Tue Apr  8 22:34:44 2025.
