 Gaussian 16, Revision C.01,

 ----------------------------------------------------------------------
 #t hf aug-cc-pvdz symm=none int=(grid=ultrafine) guess=(read,tcheck) s
 table=opt
 ----------------------------------------------------------------------
 -----
 title
 -----
 Symbolic Z-matrix:
 Charge =  0 Multiplicity = 2

 SCF Done:  E(UHF) =  -1184.18210998     A.U. after   17 cycles
 Normal termination of Gaussian 16 at Tue Apr  8 23:49:29 2025.
 Gaussian 16:  ES64L-G16RevC.01  3-Jul-2019

 ----------------------------------------------------------------------
 #t hf aug-cc-pvdz iop(5/13=1,5/36=2,99/5=2) pseudo=read geom=check gue
 ss=(read,tcheck) scf=(maxcycle=1)
 ----------------------------------------------------------------------
 -----
 title
 -----
 Structure from the checkpoint file:  "BDE49_nonexpt_1811_mol2.chk"
 Charge =  0 Multiplicity = 2

                         Standard orientation:
 ---------------------------------------------------------------------
 Center     Atomic      Atomic             Coordinates (Angstroms)
 Number     Number       Type             X           Y           Z
 ---------------------------------------------------------------------
      1          6           0       -0.700164   -0.429669    0.000075
      2         14           0        1.247445   -0.435467    0.000084
      3         17           0       -1.348971    1.245847   -0.000226
      4          9           0       -1.167329   -1.077033    1.091365
      5          9           0       -1.167320   -1.077421   -1.090988
      6          9           0        1.704501    0.382751    1.292166
      7          9           0        1.704510    0.382276   -1.292297
 ---------------------------------------------------------------------

 SCF Done:  E(UHF) =  -1186.07383037     A.U. after    2 cycles

 The electronic state is 2-A.
 Alpha  occ. eigenvalues --  -99.92350 -76.34242 -29.32990 -29.32946 -29.31514
 Alpha  occ. eigenvalues --  -29.31513 -11.56984 -10.49763  -9.69612  -9.68811
 Alpha  occ. eigenvalues --   -9.68724  -5.69610  -2.34458  -2.32108  -2.29137
 Alpha  occ. eigenvalues --   -1.43325  -1.22322  -0.98215  -0.87581  -0.76490
 Alpha  occ. eigenvalues --   -0.72901  -0.72656  -0.55410  -0.55060  -0.48749
 Alpha  occ. eigenvalues --   -0.48193  -0.43756  -0.42340  -0.41822  -0.38593
 Alpha  occ. eigenvalues --   -0.37730  -0.37162  -0.33092  -0.31589  -0.27540
 Alpha  occ. eigenvalues --   -0.25481  -0.25387
 Alpha virt. eigenvalues --    0.04696   0.06372   0.07333   0.07577   0.09363
 Alpha virt. eigenvalues --    0.11349   0.13304   0.14456   0.15762   0.16203
 Alpha virt. eigenvalues --    0.17088   0.18423   0.19450   0.21947   0.23380

  Beta  occ. eigenvalues --  -99.92304 -76.33641 -29.33015 -29.32971 -29.31227
  Beta  occ. eigenvalues --  -29.31225 -11.56520 -10.49714  -9.69446  -9.68758
  Beta  occ. eigenvalues --   -9.68698  -5.68583  -2.33791  -2.31499  -2.25925
  Beta  occ. eigenvalues --   -1.42734  -1.21712  -0.95108  -0.87336  -0.75275
  Beta  occ. eigenvalues --   -0.72467  -0.71293  -0.54979  -0.54175  -0.48540
  Beta  occ. eigenvalues --   -0.43676  -0.42351  -0.42276  -0.41523  -0.38181
  Beta  occ. eigenvalues --   -0.36948  -0.36662  -0.32989  -0.31428  -0.25631
  Beta  occ. eigenvalues --   -0.25475
  Beta virt. eigenvalues --    0.02629   0.05387   0.06678   0.07692   0.08473
  Beta virt. eigenvalues --    0.09625   0.11434   0.14535   0.15599   0.16277
  Beta virt. eigenvalues --    0.16458   0.18396   0.20168   0.20451   0.22171

 Mulliken charges and spin densities:
               1          2
     1  C   -1.008642   0.091562
     2  Si   2.429967   0.943173
     3  Cl  -0.553236   0.027996
     4  F    0.485491  -0.021107
     5  F    0.485491  -0.021106
     6  F   -0.919537  -0.010259
     7  F   -0.919535  -0.010258
 Sum of Mulliken charges =  -0.00000   1.00000

 Dipole moment (field-independent basis, Debye):
    X=              1.8605    Y=             -2.3662    Z=              0.0004  Tot=              3.0101
                          Isotropic Fermi Contact Couplings
        Atom                 a.u.       MegaHertz       Gauss      10(-4) cm-1
     1  C(13)              0.06618      74.40139      26.54826      24.81763
     2  Si(29)             0.56419    -501.41220    -178.91634    -167.25311
     3  Cl(35)             0.01759       7.71393       2.75252       2.57309
     4  F(19)             -0.00267     -11.23591      -4.00925      -3.74790
     5  F(19)             -0.00267     -11.23578      -4.00920      -3.74785
     6  F(19)              0.04524     190.35549      67.92357      63.49576
     7  F(19)              0.04524     190.35518      67.92346      63.49565
 --------------------------------------------------------

 Normal termination of Gaussian 16 at Tue Apr  8 23:49:32 2025.
