 Gaussian 16, Revision C.01,

 ----------------------------------------------------------------------
 #t hf aug-cc-pvdz symm=none int=(grid=ultrafine) guess=(read,tcheck) s
 table=(opt,rrhf)
 ----------------------------------------------------------------------
 -----
 title
 -----
 Symbolic Z-matrix:
 Charge =  0 Multiplicity = 1

 SCF Done:  E(RHF) =  -1403.33032083     A.U. after   10 cycles
 Normal termination of Gaussian 16 at Wed Apr  9 00:09:28 2025.
 Gaussian 16:  ES64L-G16RevC.01  3-Jul-2019

 ----------------------------------------------------------------------
 #t hf aug-cc-pvdz iop(5/13=1,5/36=2,99/5=2) pseudo=read geom=check gue
 ss=(read,tcheck) scf=(maxcycle=1)
 ----------------------------------------------------------------------
 -----
 title
 -----
 Structure from the checkpoint file:  "BDE49_nonexpt_230_mol1.chk"
 Charge =  0 Multiplicity = 1

                         Standard orientation:
 ---------------------------------------------------------------------
 Center     Atomic      Atomic             Coordinates (Angstroms)
 Number     Number       Type             X           Y           Z
 ---------------------------------------------------------------------
      1         17           0       -1.545552   -0.823758   -0.000003
      2          5           0       -0.000002   -0.000002    0.000029
      3         17           0        1.486176   -0.926600   -0.000003
      4         17           0        0.059377    1.750359   -0.000003
 ---------------------------------------------------------------------

 SCF Done:  E(RHF) =  -1404.16273922     A.U. after    2 cycles

 The electronic state is 1-A.
 Alpha  occ. eigenvalues --  -99.91867 -99.91852 -99.91852 -10.49298 -10.49298
 Alpha  occ. eigenvalues --  -10.48942  -9.69215  -9.69215  -9.68792  -9.68602
 Alpha  occ. eigenvalues --   -9.68602  -9.68441  -9.68440  -9.68440  -9.68384
 Alpha  occ. eigenvalues --   -7.76876  -1.45441  -1.31801  -1.31801  -0.83960
 Alpha  occ. eigenvalues --   -0.68472  -0.68472  -0.61762  -0.54317  -0.54317
 Alpha  occ. eigenvalues --   -0.53420  -0.53420  -0.50798
 Alpha virt. eigenvalues --    0.02934   0.03186   0.03885   0.04040   0.04040
 Alpha virt. eigenvalues --    0.09261   0.11692   0.11692   0.14232   0.16258
 Alpha virt. eigenvalues --    0.16258   0.17205   0.17226   0.17515   0.17515

 Mulliken charges:
               1
     1  Cl  -0.898393
     2  B    2.695177
     3  Cl  -0.898392
     4  Cl  -0.898392
 Sum of Mulliken charges =  -0.00000

 Dipole moment (field-independent basis, Debye):
    X=             -0.0000    Y=              0.0000    Z=              0.0000  Tot=              0.0000

 Test job not archived.
 1\1\GINC-SE150\SP\RHF\Aug-CC-pVDZ\B1Cl3\OHZDE\09-Apr-2025\0\\#t hf aug
 -cc-pvdz iop(5/13=1,5/36=2,99/5=2) pseudo=read geom=check guess=(read,
 tcheck) scf=(maxcycle=1)\\title\\0,1\Cl,0,1.533659,-0.845693,0.000003\
 B,0,0.000002,-0.000002,-0.000029\Cl,0,-1.499226,-0.905333,0.000003\Cl,
 0,-0.034434,1.751027,0.000003\\Version=ES64L-G16RevC.01\State=1-A\HF=-
 1404.1627392\RMSD=1.755e-02\Dipole=0.0000068,0.0000032,-0.0000153\Quad
 rupole=0.182137,0.1821302,-0.3642672,-0.0000164,0.,0.\PG=C01 [X(B1Cl3)
 ]\\@

 Normal termination of Gaussian 16 at Wed Apr  9 00:09:29 2025.
