 Gaussian 16, Revision C.01,

 ----------------------------------------------------------------------
 #t hf aug-cc-pvdz symm=none int=(grid=ultrafine) guess=(read,tcheck) s
 table=(opt,rrhf)
 ----------------------------------------------------------------------
 -----
 title
 -----
 Symbolic Z-matrix:
 Charge =  0 Multiplicity = 1

 SCF Done:  E(RHF) =  -266.889066527     A.U. after   13 cycles
 Normal termination of Gaussian 16 at Tue Apr  8 22:43:31 2025.
 Gaussian 16:  ES64L-G16RevC.01  3-Jul-2019

 ----------------------------------------------------------------------
 #t hf aug-cc-pvdz iop(5/13=1,5/36=2,99/5=2) pseudo=read geom=check gue
 ss=(read,tcheck) scf=(maxcycle=1)
 ----------------------------------------------------------------------
 -----
 title
 -----
 Structure from the checkpoint file:  "BDE49_expt_1442_mol1.chk"
 Charge =  0 Multiplicity = 1

                         Standard orientation:
 ---------------------------------------------------------------------
 Center     Atomic      Atomic             Coordinates (Angstroms)
 Number     Number       Type             X           Y           Z
 ---------------------------------------------------------------------
      1          6           0        0.563747    0.106740    0.000051
      2          8           0        1.677984   -0.667165   -0.000023
      3          8           0        0.612663    1.309897   -0.000008
      4          1           0        2.433060   -0.060290   -0.000060
      5          6           0       -0.691200   -0.736042    0.000016
      6          6           0       -1.971010    0.094606   -0.000013
      7          1           0       -0.639808   -1.397423    0.871325
      8          1           0       -0.639770   -1.397424   -0.871291
      9          1           0       -2.019901    0.738897    0.879676
     10          1           0       -2.848121   -0.556344   -0.000033
     11          1           0       -2.019861    0.738898   -0.879703
 ---------------------------------------------------------------------

 SCF Done:  E(RHF) =  -268.068727535     A.U. after    2 cycles

 The electronic state is 1-A.
 Alpha  occ. eigenvalues --  -21.12134 -21.05358 -11.52387 -11.42089 -11.37090
 Alpha  occ. eigenvalues --   -1.82668  -1.65240  -1.18743  -0.95855  -0.77602
 Alpha  occ. eigenvalues --   -0.65210  -0.64783  -0.60941  -0.53903  -0.52639
 Alpha  occ. eigenvalues --   -0.49691  -0.47809  -0.45109  -0.34053  -0.29849
 Alpha virt. eigenvalues --    0.03509   0.05497   0.05862   0.06272   0.06448
 Alpha virt. eigenvalues --    0.06977   0.11043   0.11735   0.11941   0.13256
 Alpha virt. eigenvalues --    0.14278   0.14940   0.16675   0.17301   0.18374

 Mulliken charges:
               1
     1  C    5.448240
     2  O   -2.974023
     3  O   -2.899317
     4  H    0.917127
     5  C   -3.560062
     6  C   -3.365763
     7  H    1.414539
     8  H    1.414489
     9  H    1.252890
    10  H    1.098968
    11  H    1.252913
 Sum of Mulliken charges =   0.00000

 Dipole moment (field-independent basis, Debye):
    X=             -0.0965    Y=             -1.1393    Z=             -0.0001  Tot=              1.1434

 Test job not archived.
 1\1\GINC-SE363\SP\RHF\Aug-CC-pVDZ\C3H6O2\OHZDE\08-Apr-2025\0\\#t hf au
 g-cc-pvdz iop(5/13=1,5/36=2,99/5=2) pseudo=read geom=check guess=(read
 ,tcheck) scf=(maxcycle=1)\\title\\0,1\C,0,0.563747,0.10674,0.000051\O,
 0,1.677984,-0.667165,-0.000023\O,0,0.612663,1.309897,-0.000008\H,0,2.4
 3306,-0.06029,-0.00006\C,0,-0.6912,-0.736042,0.000016\C,0,-1.97101,0.0
 94606,-0.000013\H,0,-0.639808,-1.397423,0.871325\H,0,-0.63977,-1.39742
 4,-0.871291\H,0,-2.019901,0.738897,0.879676\H,0,-2.848121,-0.556344,-0
 .000033\H,0,-2.019861,0.738898,-0.879703\\Version=ES64L-G16RevC.01\Sta

 Normal termination of Gaussian 16 at Tue Apr  8 22:43:33 2025.
