 Gaussian 16, Revision C.01,

 ----------------------------------------------------------------------
 #t hf aug-cc-pvdz symm=none int=(grid=ultrafine) guess=(read,tcheck) s
 table=(opt,rrhf)
 ----------------------------------------------------------------------
 -----
 title
 -----
 Symbolic Z-matrix:
 Charge =  0 Multiplicity = 1

 SCF Done:  E(RHF) =  -1248.86651541     A.U. after   15 cycles
 Normal termination of Gaussian 16 at Wed Apr  9 00:52:31 2025.
 Gaussian 16:  ES64L-G16RevC.01  3-Jul-2019

 ----------------------------------------------------------------------
 #t hf aug-cc-pvdz iop(5/13=1,5/36=2,99/5=2) pseudo=read geom=check gue
 ss=(read,tcheck) scf=(maxcycle=1)
 ----------------------------------------------------------------------
 -----
 title
 -----
 Structure from the checkpoint file:  "BDE49_nonexpt_913_mol1.chk"
 Charge =  0 Multiplicity = 1

                         Standard orientation:
 ---------------------------------------------------------------------
 Center     Atomic      Atomic             Coordinates (Angstroms)
 Number     Number       Type             X           Y           Z
 ---------------------------------------------------------------------
      1          9           0        0.382104    2.351472   -0.000177
      2          9           0        0.381370   -2.351284    0.000177
      3         16           0       -2.076312    0.000193    1.616395
      4         16           0       -2.076313   -0.000058   -1.616394
      5          5           0       -1.269030    0.000348   -0.000000
      6          6           0        1.053843    1.177394   -0.000090
      7          6           0        2.439400    1.209542   -0.000092
      8          6           0        3.128942   -0.000335   -0.000000
      9          6           0        2.439026   -1.209998    0.000091
     10          6           0        1.053479   -1.177418    0.000090
     11          6           0        0.306561    0.000103   -0.000000
     12          1           0        2.950705    2.163203   -0.000163
     13          1           0        4.212152   -0.000503   -0.000000
     14          1           0        2.950035   -2.163819    0.000163
     15          1           0       -3.362263    0.000000    1.221829
     16          1           0       -3.362263   -0.000192   -1.221829
 ---------------------------------------------------------------------

 SCF Done:  E(RHF) =  -1251.17849074     A.U. after    2 cycles

 The electronic state is 1-A.
 Alpha  occ. eigenvalues --  -75.70431 -75.70242 -29.29519 -29.29491 -13.18851
 Alpha  occ. eigenvalues --  -13.17212 -13.11903 -13.11076 -13.07289 -13.04735
 Alpha  occ. eigenvalues --  -11.55959 -11.50813 -11.47000 -11.42938 -11.42702
 Alpha  occ. eigenvalues --  -11.39995  -8.04250  -8.04238  -7.71118  -1.41446
 Alpha  occ. eigenvalues --   -1.22403  -1.19650  -1.14184  -1.10638  -0.95345
 Alpha  occ. eigenvalues --   -0.95238  -0.82382  -0.74413  -0.66909  -0.66340
 Alpha  occ. eigenvalues --   -0.65144  -0.60031  -0.55555  -0.52868  -0.51028
 Alpha  occ. eigenvalues --   -0.49344  -0.47496  -0.43801  -0.40880  -0.39468
 Alpha  occ. eigenvalues --   -0.39346  -0.34001  -0.32950  -0.30091  -0.26218
 Alpha  occ. eigenvalues --   -0.26081  -0.25598  -0.23082
 Alpha virt. eigenvalues --    0.02389   0.03404   0.04173   0.05034   0.05566
 Alpha virt. eigenvalues --    0.05846   0.06325   0.08979   0.09604   0.10944
 Alpha virt. eigenvalues --    0.11009   0.11269   0.11837   0.12209   0.12981

 Mulliken charges:
               1
     1  F    0.514913
     2  F    0.514755
     3  S   -3.166207
     4  S   -3.166212
     5  B    4.398932
     6  C    6.141351
     7  C   -5.374039
     8  C    0.227017
     9  C   -5.373690
    10  C    6.142082
    11  C   -7.449460
    12  H    1.720192
    13  H    1.460034
    14  H    1.720192
    15  H    0.845068
    16  H    0.845072
 Sum of Mulliken charges =  -0.00000

 Dipole moment (field-independent basis, Debye):
    X=             -0.7107    Y=             -0.0009    Z=              0.0000  Tot=              0.7107

 Test job not archived.
 1\1\GINC-SE253\SP\RHF\Aug-CC-pVDZ\C6H5B1F2S2\OHZDE\09-Apr-2025\0\\#t h
 f aug-cc-pvdz iop(5/13=1,5/36=2,99/5=2) pseudo=read geom=check guess=(
 read,tcheck) scf=(maxcycle=1)\\title\\0,1\F,0,0.382104,2.351472,-0.000
 177\F,0,0.38137,-2.351284,0.000177\S,0,-2.076312,0.000193,1.616395\S,0
 ,-2.076313,-0.000058,-1.616394\B,0,-1.26903,0.000348,0.\C,0,1.053843,1
 .177394,-0.00009\C,0,2.4394,1.209542,-0.000092\C,0,3.128942,-0.000335,
 0.\C,0,2.439026,-1.209998,0.000091\C,0,1.053479,-1.177418,0.00009\C,0,
 0.306561,0.000103,0.\H,0,2.950705,2.163203,-0.000163\H,0,4.212152,-0.0

 Normal termination of Gaussian 16 at Wed Apr  9 00:52:40 2025.
