 Gaussian 16, Revision C.01,

 ----------------------------------------------------------------------
 #t hf aug-cc-pvdz symm=none int=(grid=ultrafine) guess=(read,tcheck) s
 table=(opt,rrhf)
 ----------------------------------------------------------------------
 -----
 title
 -----
 Symbolic Z-matrix:
 Charge =  0 Multiplicity = 1

 SCF Done:  E(RHF) =  -760.416185420     A.U. after   15 cycles
 Normal termination of Gaussian 16 at Tue Apr  8 22:57:08 2025.
 Gaussian 16:  ES64L-G16RevC.01  3-Jul-2019

 ----------------------------------------------------------------------
 #t hf aug-cc-pvdz iop(5/13=1,5/36=2,99/5=2) pseudo=read geom=check gue
 ss=(read,tcheck) scf=(maxcycle=1)
 ----------------------------------------------------------------------
 -----
 title
 -----
 Structure from the checkpoint file:  "BDE49_expt_1822_mol1.chk"
 Charge =  0 Multiplicity = 1

                         Standard orientation:
 ---------------------------------------------------------------------
 Center     Atomic      Atomic             Coordinates (Angstroms)
 Number     Number       Type             X           Y           Z
 ---------------------------------------------------------------------
      1          7           0       -2.908287    0.264272    0.260251
      2          8           0       -2.482080    1.039956    1.042210
      3         16           0       -1.674641   -0.774026   -0.654983
      4          6           0       -0.085322   -0.192089    0.034165
      5          6           0        0.515793    0.953679   -0.796824
      6          6           0        1.851257    1.424980   -0.198238
      7          1           0       -0.193386    1.783816   -0.848947
      8          1           0        0.674044    0.605808   -1.824380
      9          6           0        2.841062    0.263251   -0.037333
     10          1           0        1.666116    1.882918    0.781514
     11          1           0        2.280145    2.207985   -0.831159
     12          6           0        2.231775   -0.878217    0.788218
     13          1           0        3.764936    0.615744    0.431510
     14          1           0        3.118871   -0.115899   -1.029167
     15          6           0        0.898594   -1.363521    0.194137
     16          1           0        2.062606   -0.532514    1.815760
     17          1           0        2.929937   -1.718464    0.853090
     18          1           0        1.084659   -1.820967   -0.784981
     19          1           0        0.457038   -2.137781    0.827184
     20          1           0       -0.355019    0.195714    1.025126
 ---------------------------------------------------------------------

 SCF Done:  E(RHF) =  -762.382231786     A.U. after    2 cycles

 The electronic state is 1-A.
 Alpha  occ. eigenvalues --  -75.70837 -21.15205 -15.90773 -13.16283 -13.11783
 Alpha  occ. eigenvalues --  -13.06843 -11.45836 -11.44882 -11.43093 -11.38982
 Alpha  occ. eigenvalues --  -11.38451 -11.35117  -8.04813  -1.89309  -1.34455
 Alpha  occ. eigenvalues --   -1.19419  -1.11302  -1.08844  -0.93280  -0.89587
 Alpha  occ. eigenvalues --   -0.84414  -0.79173  -0.66949  -0.64888  -0.62126
 Alpha  occ. eigenvalues --   -0.61966  -0.59324  -0.56747  -0.56234  -0.53587
 Alpha  occ. eigenvalues --   -0.50255  -0.49067  -0.48071  -0.46818  -0.44641
 Alpha  occ. eigenvalues --   -0.40719  -0.35258  -0.25424  -0.24982
 Alpha virt. eigenvalues --    0.03902   0.05155   0.05245   0.05322   0.05510
 Alpha virt. eigenvalues --    0.05702   0.05855   0.06408   0.07229   0.08576
 Alpha virt. eigenvalues --    0.08796   0.09295   0.11537   0.12084   0.12401

 Mulliken charges:
               1
     1  N    1.021607
     2  O   -1.964836
     3  S    1.197815
     4  C   -0.967005
     5  C   -3.243500
     6  C   -2.698869
     7  H    1.544725
     8  H    1.423088
     9  C   -2.692940
    10  H    1.353644
    11  H    1.311199
    12  C   -2.800098
    13  H    1.300914
    14  H    1.403440
    15  C   -3.590242
    16  H    1.367323
    17  H    1.307650
    18  H    1.395901
    19  H    1.429840
    20  H    1.900345
 Sum of Mulliken charges =   0.00000

 Dipole moment (field-independent basis, Debye):
    X=              2.3558    Y=             -0.5713    Z=             -0.4051  Tot=              2.4577

 Test job not archived.
 1\1\GINC-SE404\SP\RHF\Aug-CC-pVDZ\C6H11N1O1S1\OHZDE\08-Apr-2025\0\\#t
 hf aug-cc-pvdz iop(5/13=1,5/36=2,99/5=2) pseudo=read geom=check guess=
 (read,tcheck) scf=(maxcycle=1)\\title\\0,1\N,0,-2.908287,0.264272,0.26
 0251\O,0,-2.48208,1.039956,1.04221\S,0,-1.674641,-0.774026,-0.654983\C
 ,0,-0.085322,-0.192089,0.034165\C,0,0.515793,0.953679,-0.796824\C,0,1.
 851257,1.42498,-0.198238\H,0,-0.193386,1.783816,-0.848947\H,0,0.674044
 ,0.605808,-1.82438\C,0,2.841062,0.263251,-0.037333\H,0,1.666116,1.8829
 18,0.781514\H,0,2.280145,2.207985,-0.831159\C,0,2.231775,-0.878217,0.7

 Normal termination of Gaussian 16 at Tue Apr  8 22:57:18 2025.
