 Gaussian 16, Revision C.01,

 ----------------------------------------------------------------------
 #t hf aug-cc-pvdz symm=none int=(grid=ultrafine) guess=(read,tcheck) s
 table=opt
 ----------------------------------------------------------------------
 -----
 title
 -----
 Symbolic Z-matrix:
 Charge =  0 Multiplicity = 2

 SCF Done:  E(UHF) =  -578.875537382     A.U. after   16 cycles
 Normal termination of Gaussian 16 at Tue Apr  8 23:41:12 2025.
 Gaussian 16:  ES64L-G16RevC.01  3-Jul-2019

 ----------------------------------------------------------------------
 #t hf aug-cc-pvdz iop(5/13=1,5/36=2,99/5=2) pseudo=read geom=check gue
 ss=(read,tcheck) scf=(maxcycle=1)
 ----------------------------------------------------------------------
 -----
 title
 -----
 Structure from the checkpoint file:  "BDE49_nonexpt_164_mol2.chk"
 Charge =  0 Multiplicity = 2

                         Standard orientation:
 ---------------------------------------------------------------------
 Center     Atomic      Atomic             Coordinates (Angstroms)
 Number     Number       Type             X           Y           Z
 ---------------------------------------------------------------------
      1         17           0        1.512291   -0.218906    0.000000
      2          7           0       -1.157648    0.649770   -0.000002
      3          5           0        0.186125    0.955449   -0.000001
      4          6           0       -1.804902   -0.667083    0.000002
      5          1           0       -1.805117    1.425978   -0.000001
      6          1           0       -1.041318   -1.442708   -0.000019
      7          1           0       -2.430114   -0.792498   -0.888527
      8          1           0       -2.430079   -0.792512    0.888554
 ---------------------------------------------------------------------

 SCF Done:  E(UHF) =  -579.657783689     A.U. after    2 cycles

 The electronic state is 2-A.
 Alpha  occ. eigenvalues --  -99.88024 -15.73153 -11.40608 -10.45311  -9.65290
 Alpha  occ. eigenvalues --   -9.64820  -9.64553  -7.67134  -1.40933  -1.29679
 Alpha  occ. eigenvalues --   -1.00541  -0.78642  -0.64693  -0.61050  -0.60909
 Alpha  occ. eigenvalues --   -0.53728  -0.53493  -0.51816  -0.38980  -0.33096
 Alpha virt. eigenvalues --    0.02711   0.04025   0.04393   0.05411   0.07366
 Alpha virt. eigenvalues --    0.07397   0.08994   0.10364   0.13056   0.13509
 Alpha virt. eigenvalues --    0.14526   0.14758   0.15880   0.17011   0.17861

  Beta  occ. eigenvalues --  -99.87922 -15.73307 -11.40472 -10.45190  -9.65109
  Beta  occ. eigenvalues --   -9.64539  -9.64509  -7.65005  -1.40248  -1.29010
  Beta  occ. eigenvalues --   -0.99658  -0.76949  -0.61930  -0.61237  -0.59909
  Beta  occ. eigenvalues --   -0.53167  -0.52825  -0.50704  -0.39599
  Beta virt. eigenvalues --    0.02689   0.03538   0.04457   0.04475   0.07376
  Beta virt. eigenvalues --    0.07426   0.07851   0.09210   0.12124   0.13218
  Beta virt. eigenvalues --    0.14723   0.15028   0.15593   0.16539   0.17250

 Mulliken charges and spin densities:
               1          2
     1  Cl  -0.834089   0.065369
     2  N   -2.608760  -0.186574
     3  B    0.651177   1.083213
     4  C   -2.408659   0.021162
     5  H    1.334595   0.035814
     6  H    1.362578  -0.013722
     7  H    1.251579  -0.002631
     8  H    1.251577  -0.002631
 Sum of Mulliken charges =   0.00000   1.00000

 Dipole moment (field-independent basis, Debye):
    X=             -2.8534    Y=             -0.1650    Z=              0.0000  Tot=              2.8582
                          Isotropic Fermi Contact Couplings
        Atom                 a.u.       MegaHertz       Gauss      10(-4) cm-1
     1  Cl(35)             0.15772      69.15227      24.67525      23.06671
     2  N(14)              0.04014      12.96936       4.62779       4.32611
     3  B(11)              0.33603     481.98644     171.98475     160.77337
     4  C(13)              0.02254      25.33961       9.04180       8.45239
     5  H(1)               0.00484      21.62698       7.71705       7.21399
     6  H(1)              -0.00065      -2.88420      -1.02915      -0.96206
     7  H(1)              -0.00116      -5.20635      -1.85776      -1.73665
     8  H(1)              -0.00116      -5.20661      -1.85785      -1.73674

 1\1\GINC-SE073\SP\UHF\Aug-CC-pVDZ\C1H4B1Cl1N1(2)\OHZDE\08-Apr-2025\0\\
 #t hf aug-cc-pvdz iop(5/13=1,5/36=2,99/5=2) pseudo=read geom=check gue
 ss=(read,tcheck) scf=(maxcycle=1)\\title\\0,2\Cl,0,1.512291,-0.218906,
 0.\N,0,-1.157648,0.64977,-0.000002\B,0,0.186125,0.955449,-0.000001\C,0
 ,-1.804902,-0.667083,0.000002\H,0,-1.805117,1.425978,-0.000001\H,0,-1.
 041318,-1.442708,-0.000019\H,0,-2.430114,-0.792498,-0.888527\H,0,-2.43
 0079,-0.792512,0.888554\\Version=ES64L-G16RevC.01\State=2-A\HF=-579.65
 77837\S2=0.759057\S2-1=0.\S2A=0.75005\RMSD=4.691e-02\Dipole=-1.1226263

 Normal termination of Gaussian 16 at Tue Apr  8 23:41:15 2025.
