 Gaussian 16, Revision C.01,

 ----------------------------------------------------------------------
 #t hf aug-cc-pvdz symm=none int=(grid=ultrafine) guess=(read,tcheck) s
 table=(opt,rrhf)
 ----------------------------------------------------------------------
 -----
 title
 -----
 Symbolic Z-matrix:
 Charge =  0 Multiplicity = 1

 SCF Done:  E(RHF) =  -690.212791660     A.U. after   13 cycles

 1\1\GINC-SE072\Stability\RHF\Aug-CC-pVDZ\H6N2Si2\OHZDE\09-Apr-2025\0\\
 #t hf aug-cc-pvdz symm=none int=(grid=ultrafine) guess=(read,tcheck) s
 table=(opt,rrhf)\\title\\0,1\Si,0,1.684007,-0.420332,0.000004\Si,0,-0.
 212234,0.986894,0.000004\H,0,1.708264,-1.272098,1.210862\H,0,2.898668,
 0.433419,0.000013\H,0,1.708273,-1.272086,-1.210862\N,0,-1.764955,0.053
 105,-0.000005\H,0,-0.289301,1.853396,-1.200377\H,0,-0.289309,1.853386,
 1.200392\N,0,-1.629636,-1.184425,-0.000012\H,0,-2.57928,-1.608643,-0.0
 00015\\Version=ES64L-G16RevC.01\HF=-690.2127917\RMSD=2.180e-09\Dipole=

 Normal termination of Gaussian 16 at Wed Apr  9 00:11:34 2025.
 Gaussian 16:  ES64L-G16RevC.01  3-Jul-2019

 ----------------------------------------------------------------------
 #t hf aug-cc-pvdz iop(5/13=1,5/36=2,99/5=2) pseudo=read geom=check gue
 ss=(read,tcheck) scf=(maxcycle=1)
 ----------------------------------------------------------------------
 -----
 title
 -----
 Structure from the checkpoint file:  "BDE49_nonexpt_2392_mol1.chk"
 Charge =  0 Multiplicity = 1

                         Standard orientation:
 ---------------------------------------------------------------------
 Center     Atomic      Atomic             Coordinates (Angstroms)
 Number     Number       Type             X           Y           Z
 ---------------------------------------------------------------------
      1         14           0        1.684007   -0.420332    0.000004
      2         14           0       -0.212234    0.986894    0.000004
      3          1           0        1.708264   -1.272098    1.210862
      4          1           0        2.898668    0.433419    0.000013
      5          1           0        1.708273   -1.272086   -1.210862
      6          7           0       -1.764955    0.053105   -0.000005
      7          1           0       -0.289301    1.853396   -1.200377
      8          1           0       -0.289309    1.853386    1.200392
      9          7           0       -1.629636   -1.184425   -0.000012
     10          1           0       -2.579280   -1.608643   -0.000015
 ---------------------------------------------------------------------

 SCF Done:  E(RHF) =  -691.014348658     A.U. after    2 cycles

 The electronic state is 1-A.
 Alpha  occ. eigenvalues --  -76.23393 -76.21982 -15.81219 -15.77771  -5.57116
 Alpha  occ. eigenvalues --   -5.55394  -2.21143  -2.18902  -2.18388  -2.17454
 Alpha  occ. eigenvalues --   -2.17414  -2.16452  -1.49762  -0.96861  -0.79645
 Alpha  occ. eigenvalues --   -0.70736  -0.64050  -0.54049  -0.52815  -0.47580
 Alpha  occ. eigenvalues --   -0.47193  -0.46064  -0.37315  -0.30983
 Alpha virt. eigenvalues --    0.04116   0.04666   0.05571   0.06678   0.07392
 Alpha virt. eigenvalues --    0.07708   0.07977   0.08253   0.09535   0.09859
 Alpha virt. eigenvalues --    0.09927   0.10249   0.10755   0.13170   0.13655

 Mulliken charges:
               1
     1  Si   4.421726
     2  Si   4.480169
     3  H   -1.471139
     4  H   -1.519976
     5  H   -1.471139
     6  N   -1.263264
     7  H   -1.696659
     8  H   -1.696659
     9  N   -0.617313
    10  H    0.834253
 Sum of Mulliken charges =   0.00000

 Dipole moment (field-independent basis, Debye):
    X=             -0.1573    Y=             -0.3859    Z=             -0.0000  Tot=              0.4167

 Test job not archived.
 1\1\GINC-SE072\SP\RHF\Aug-CC-pVDZ\H6N2Si2\OHZDE\09-Apr-2025\0\\#t hf a
 ug-cc-pvdz iop(5/13=1,5/36=2,99/5=2) pseudo=read geom=check guess=(rea
 d,tcheck) scf=(maxcycle=1)\\title\\0,1\Si,0,1.684007,-0.420332,0.00000
 4\Si,0,-0.212234,0.986894,0.000004\H,0,1.708264,-1.272098,1.210862\H,0
 ,2.898668,0.433419,0.000013\H,0,1.708273,-1.272086,-1.210862\N,0,-1.76
 4955,0.053105,-0.000005\H,0,-0.289301,1.853396,-1.200377\H,0,-0.289309
 ,1.853386,1.200392\N,0,-1.629636,-1.184425,-0.000012\H,0,-2.57928,-1.6
 08643,-0.000015\\Version=ES64L-G16RevC.01\State=1-A\HF=-691.0143487\RM

 Normal termination of Gaussian 16 at Wed Apr  9 00:11:37 2025.
