 Gaussian 16, Revision C.01,

 ----------------------------------------------------------------------
 #t hf aug-cc-pvdz symm=none int=(grid=ultrafine) guess=(read,tcheck) s
 table=(opt,rrhf)
 ----------------------------------------------------------------------
 -----
 title
 -----
 Symbolic Z-matrix:
 Charge =  0 Multiplicity = 1

 SCF Done:  E(RHF) =  -1732.74257166     A.U. after   15 cycles
 Normal termination of Gaussian 16 at Wed Apr  9 00:54:41 2025.
 Gaussian 16:  ES64L-G16RevC.01  3-Jul-2019

 ----------------------------------------------------------------------
 #t hf aug-cc-pvdz iop(5/13=1,5/36=2,99/5=2) pseudo=read geom=check gue
 ss=(read,tcheck) scf=(maxcycle=1)
 ----------------------------------------------------------------------
 -----
 title
 -----
 Structure from the checkpoint file:  "BDE49_nonexpt_983_mol1.chk"
 Charge =  0 Multiplicity = 1

                         Standard orientation:
 ---------------------------------------------------------------------
 Center     Atomic      Atomic             Coordinates (Angstroms)
 Number     Number       Type             X           Y           Z
 ---------------------------------------------------------------------
      1         16           0        1.022015   -1.185062    0.024358
      2          7           0        2.374541    0.087685    0.036409
      3          8           0        2.204360    1.126094    0.607688
      4          8           0        3.341950   -0.326401   -0.561179
      5          8           0       -0.129081   -0.407877    0.943095
      6          6           0       -1.226499    0.193963    0.326038
      7          9           0       -1.911256    0.747095    1.324800
      8         17           0       -2.270149   -1.034703   -0.474741
      9         17           0       -0.774060    1.465588   -0.845310
 ---------------------------------------------------------------------

 SCF Done:  E(RHF) =  -1735.11220618     A.U. after    2 cycles

 The electronic state is 1-A.
 Alpha  occ. eigenvalues --  -99.93877 -99.93733 -75.83673 -29.34642 -21.16796
 Alpha  occ. eigenvalues --  -21.14474 -21.13603 -16.04579 -13.30959 -13.25268
 Alpha  occ. eigenvalues --  -13.17378 -11.62668 -10.51307 -10.51149  -9.71163
 Alpha  occ. eigenvalues --   -9.70954  -9.70316  -9.70276  -9.70223  -9.70105
 Alpha  occ. eigenvalues --   -8.17083  -2.03866  -1.89496  -1.74511  -1.43551
 Alpha  occ. eigenvalues --   -1.33701  -1.22088  -1.09851  -0.91207  -0.83559
 Alpha  occ. eigenvalues --   -0.77391  -0.75010  -0.71442  -0.70059  -0.64719
 Alpha  occ. eigenvalues --   -0.58861  -0.58397  -0.54877  -0.53121  -0.50711
 Alpha  occ. eigenvalues --   -0.47220  -0.44435  -0.36807  -0.35442  -0.34723
 Alpha  occ. eigenvalues --   -0.34177  -0.33400  -0.30617
 Alpha virt. eigenvalues --    0.01452   0.05046   0.06319   0.07147   0.07831
 Alpha virt. eigenvalues --    0.08743   0.10798   0.11264   0.12322   0.12582
 Alpha virt. eigenvalues --    0.13404   0.14333   0.15357   0.15603   0.16356

 Mulliken charges:
               1
     1  S    1.708644
     2  N    4.420066
     3  O   -2.663384
     4  O   -2.566231
     5  O   -1.970601
     6  C   -0.146957
     7  F    1.084436
     8  Cl   0.071255
     9  Cl   0.062772
 Sum of Mulliken charges =  -0.00000

 Dipole moment (field-independent basis, Debye):
    X=             -1.9666    Y=             -0.5430    Z=              3.5919  Tot=              4.1309

 Test job not archived.
 1\1\GINC-SE116\SP\RHF\Aug-CC-pVDZ\C1Cl2F1N1O3S1\OHZDE\09-Apr-2025\0\\#
 t hf aug-cc-pvdz iop(5/13=1,5/36=2,99/5=2) pseudo=read geom=check gues
 s=(read,tcheck) scf=(maxcycle=1)\\title\\0,1\S,0,1.022015,-1.185062,0.
 024358\N,0,2.374541,0.087685,0.036409\O,0,2.20436,1.126094,0.607688\O,
 0,3.34195,-0.326401,-0.561179\O,0,-0.129081,-0.407877,0.943095\C,0,-1.
 226499,0.193963,0.326038\F,0,-1.911256,0.747095,1.3248\Cl,0,-2.270149,
 -1.034703,-0.474741\Cl,0,-0.77406,1.465588,-0.84531\\Version=ES64L-G16
 RevC.01\State=1-A\HF=-1735.1122062\RMSD=5.927e-02\Dipole=-0.7737017,-0

 Normal termination of Gaussian 16 at Wed Apr  9 00:54:47 2025.
