 Gaussian 16, Revision C.01,

 ----------------------------------------------------------------------
 #t hf aug-cc-pvdz symm=none int=(grid=ultrafine) guess=(read,tcheck) s
 table=opt
 ----------------------------------------------------------------------
 -----
 title
 -----
 Symbolic Z-matrix:
 Charge =  0 Multiplicity = 2

 SCF Done:  E(UHF) =  -834.123243743     A.U. after   18 cycles
 Normal termination of Gaussian 16 at Tue Apr  8 22:40:47 2025.
 Gaussian 16:  ES64L-G16RevC.01  3-Jul-2019

 ----------------------------------------------------------------------
 #t hf aug-cc-pvdz iop(5/13=1,5/36=2,99/5=2) pseudo=read geom=check gue
 ss=(read,tcheck) scf=(maxcycle=1)
 ----------------------------------------------------------------------
 -----
 title
 -----
 Structure from the checkpoint file:  "BDE49_expt_130_mol2.chk"
 Charge =  0 Multiplicity = 2

                         Standard orientation:
 ---------------------------------------------------------------------
 Center     Atomic      Atomic             Coordinates (Angstroms)
 Number     Number       Type             X           Y           Z
 ---------------------------------------------------------------------
      1          6           0       -0.076291    0.433133    0.000891
      2          6           0        1.229225    0.100999   -0.604870
      3          9           0        0.043100    0.802557    1.287988
      4         17           0       -1.226999   -0.989792   -0.043835
      5          9           0       -0.644022    1.438956   -0.691466
      6          1           0        1.378813    0.130856   -1.676061
      7          9           0        1.996764   -0.742533    0.075159
 ---------------------------------------------------------------------

 SCF Done:  E(UHF) =  -835.703144199     A.U. after    2 cycles

 The electronic state is 2-A.
 Alpha  occ. eigenvalues --  -99.91656 -29.33179 -29.32893 -29.32710 -11.60807
 Alpha  occ. eigenvalues --  -11.48917 -10.49028  -9.69003  -9.68024  -9.67989
 Alpha  occ. eigenvalues --   -1.46265  -1.27827  -1.13361  -0.90358  -0.79684
 Alpha  occ. eigenvalues --   -0.76475  -0.71034  -0.57496  -0.54621  -0.52088
 Alpha  occ. eigenvalues --   -0.48278  -0.44390  -0.41996  -0.37179  -0.34725
 Alpha  occ. eigenvalues --   -0.32466  -0.29263  -0.25403  -0.23143
 Alpha virt. eigenvalues --    0.04421   0.07262   0.08371   0.10851   0.11515
 Alpha virt. eigenvalues --    0.11811   0.12481   0.13846   0.15104   0.15727
 Alpha virt. eigenvalues --    0.17988   0.20087   0.21465   0.24246   0.24808

  Beta  occ. eigenvalues --  -99.91533 -29.33180 -29.32661 -29.32477 -11.61027
  Beta  occ. eigenvalues --  -11.46535 -10.48897  -9.68556  -9.67921  -9.67881
  Beta  occ. eigenvalues --   -1.45037  -1.25230  -1.09208  -0.89981  -0.78232
  Beta  occ. eigenvalues --   -0.74356  -0.69504  -0.54552  -0.54127  -0.48242
  Beta  occ. eigenvalues --   -0.43768  -0.41943  -0.40268  -0.36339  -0.34180
  Beta  occ. eigenvalues --   -0.32191  -0.28755  -0.25302
  Beta virt. eigenvalues --    0.04413   0.05566   0.08563   0.09810   0.11019
  Beta virt. eigenvalues --    0.11874   0.12507   0.12693   0.13978   0.15355
  Beta virt. eigenvalues --    0.17447   0.18179   0.20813   0.21594   0.24396

 Mulliken charges and spin densities:
               1          2
     1  C   -1.305847  -0.251541
     2  C   -1.654271   1.099484
     3  F    0.707155  -0.014534
     4  Cl  -0.372064   0.069474
     5  F    0.617220  -0.009293
     6  H    1.340910  -0.060497
     7  F    0.666897   0.166907
 Sum of Mulliken charges =  -0.00000   1.00000

 Dipole moment (field-independent basis, Debye):
    X=              2.6091    Y=              2.4850    Z=              1.4918  Tot=              3.8998
                          Isotropic Fermi Contact Couplings
        Atom                 a.u.       MegaHertz       Gauss      10(-4) cm-1
     1  C(13)             -0.00894     -10.05264      -3.58703      -3.35320
     2  C(13)              0.16225     182.39991      65.08482      60.84206
     3  F(19)              0.00587      24.70146       8.81409       8.23952
     4  Cl(35)             0.04075      17.86545       6.37484       5.95927
     5  F(19)              0.00256      10.78284       3.84758       3.59677
     6  H(1)              -0.01493     -66.73495     -23.81269     -22.26038
     7  F(19)              0.02894     121.78256      43.45505      40.62229
 --------------------------------------------------------

 Normal termination of Gaussian 16 at Tue Apr  8 22:40:50 2025.
