 Gaussian 16, Revision C.01,

 ----------------------------------------------------------------------
 #t hf aug-cc-pvdz symm=none int=(grid=ultrafine) guess=(read,tcheck) s
 table=(opt,rrhf)
 ----------------------------------------------------------------------
 -----
 title
 -----
 Symbolic Z-matrix:
 Charge =  0 Multiplicity = 1

 SCF Done:  E(RHF) =  -510.276533321     A.U. after   14 cycles
 Normal termination of Gaussian 16 at Tue Apr  8 23:36:06 2025.
 Gaussian 16:  ES64L-G16RevC.01  3-Jul-2019

 ----------------------------------------------------------------------
 #t hf aug-cc-pvdz iop(5/13=1,5/36=2,99/5=2) pseudo=read geom=check gue
 ss=(read,tcheck) scf=(maxcycle=1)
 ----------------------------------------------------------------------
 -----
 title
 -----
 Structure from the checkpoint file:  "BDE49_nonexpt_1493_mol1.chk"
 Charge =  0 Multiplicity = 1

                         Standard orientation:
 ---------------------------------------------------------------------
 Center     Atomic      Atomic             Coordinates (Angstroms)
 Number     Number       Type             X           Y           Z
 ---------------------------------------------------------------------
      1          6           0        0.528709    0.154354    0.013365
      2          8           0        1.007056    1.267699    0.006368
      3          7           0        1.273591   -0.988091   -0.016478
      4          1           0        2.278692   -0.894717    0.020776
      5          1           0        0.867759   -1.895300    0.135979
      6         15           0       -1.346780   -0.057937   -0.119113
      7          1           0       -1.613356    0.772296    0.993147
      8          1           0       -1.475247   -1.264316    0.621003
 ---------------------------------------------------------------------

 SCF Done:  E(RHF) =  -511.194432765     A.U. after    2 cycles

 The electronic state is 1-A.
 Alpha  occ. eigenvalues -- -105.19803 -21.03838 -15.79046 -11.48882  -2.76988
 Alpha  occ. eigenvalues --   -1.71533  -1.47766  -1.46323  -1.44446  -1.34383
 Alpha  occ. eigenvalues --   -0.84778  -0.75915  -0.68906  -0.54621  -0.53574
 Alpha  occ. eigenvalues --   -0.40885  -0.33954  -0.26738  -0.19322  -0.04060
 Alpha virt. eigenvalues --    0.03432   0.05686   0.06107   0.08235   0.09149
 Alpha virt. eigenvalues --    0.10386   0.12314   0.13399   0.13932   0.14343
 Alpha virt. eigenvalues --    0.16884   0.17170   0.18030   0.20334   0.20745

 Mulliken charges:
               1
     1  C    2.690328
     2  O   -2.724538
     3  N   -2.652343
     4  H    0.685824
     5  H    0.797069
     6  P    2.346943
     7  H   -0.599644
     8  H   -0.543639
 Sum of Mulliken charges =   0.00000

 Dipole moment (field-independent basis, Debye):
    X=             -1.2347    Y=             -1.4666    Z=             -3.0217  Tot=              3.5785

 Test job not archived.
 1\1\GINC-SE060\SP\RHF\Aug-CC-pVDZ\C1H4N1O1P1\OHZDE\08-Apr-2025\0\\#t h
 f aug-cc-pvdz iop(5/13=1,5/36=2,99/5=2) pseudo=read geom=check guess=(
 read,tcheck) scf=(maxcycle=1)\\title\\0,1\C,0,0.528709,0.154354,0.0133
 65\O,0,1.007056,1.267699,0.006368\N,0,1.273591,-0.988091,-0.016478\H,0
 ,2.278692,-0.894717,0.020776\H,0,0.867759,-1.8953,0.135979\P,0,-1.3467
 8,-0.057937,-0.119113\H,0,-1.613356,0.772296,0.993147\H,0,-1.475247,-1
 .264316,0.621003\\Version=ES64L-G16RevC.01\State=1-A\HF=-511.1944328\R
 MSD=2.889e-01\Dipole=-0.4857697,-0.5770004,-1.1888242\Quadrupole=2.448

 Normal termination of Gaussian 16 at Tue Apr  8 23:36:09 2025.
