 Gaussian 16, Revision C.01,

 ----------------------------------------------------------------------
 #t hf aug-cc-pvdz symm=none int=(grid=ultrafine) guess=(read,tcheck) s
 table=(opt,rrhf)
 ----------------------------------------------------------------------
 -----
 title
 -----
 Symbolic Z-matrix:
 Charge =  0 Multiplicity = 1

 SCF Done:  E(RHF) =  -249.522251084     A.U. after   11 cycles
 Normal termination of Gaussian 16 at Wed Apr  9 00:54:28 2025.
 Gaussian 16:  ES64L-G16RevC.01  3-Jul-2019

 ----------------------------------------------------------------------
 #t hf aug-cc-pvdz iop(5/13=1,5/36=2,99/5=2) pseudo=read geom=check gue
 ss=(read,tcheck) scf=(maxcycle=1)
 ----------------------------------------------------------------------
 -----
 title
 -----
 Structure from the checkpoint file:  "BDE49_nonexpt_9_mol1.chk"
 Charge =  0 Multiplicity = 1

                         Standard orientation:
 ---------------------------------------------------------------------
 Center     Atomic      Atomic             Coordinates (Angstroms)
 Number     Number       Type             X           Y           Z
 ---------------------------------------------------------------------
      1          5           0        1.671965   -0.000716    0.000044
      2          5           0       -0.010620   -0.000057    0.000134
      3          9           0       -0.716139    1.127722   -0.000085
      4          9           0       -0.717008   -1.127291   -0.000016
      5          1           0        2.295744   -0.000021   -1.015269
      6          1           0        2.295849   -0.000003    1.015292
 ---------------------------------------------------------------------

 SCF Done:  E(RHF) =  -250.417672708     A.U. after    2 cycles

 The electronic state is 1-A.
 Alpha  occ. eigenvalues --  -29.25920 -29.25824  -7.68694  -7.62644  -1.13492
 Alpha  occ. eigenvalues --   -0.85683  -0.73779  -0.54121  -0.53350  -0.45969
 Alpha  occ. eigenvalues --   -0.44668  -0.44190  -0.33963  -0.33619  -0.24879
 Alpha virt. eigenvalues --    0.02138   0.02377   0.02547   0.06312   0.08312
 Alpha virt. eigenvalues --    0.08680   0.08741   0.10735   0.12716   0.12742
 Alpha virt. eigenvalues --    0.15008   0.19505   0.19578   0.20765   0.21678

 Mulliken charges:
               1
     1  B    3.666042
     2  B    0.678592
     3  F    0.058260
     4  F    0.058180
     5  H   -2.230449
     6  H   -2.230625
 Sum of Mulliken charges =  -0.00000

 Dipole moment (field-independent basis, Debye):
    X=             -2.1967    Y=             -0.0008    Z=             -0.0005  Tot=              2.1967

 Test job not archived.
 1\1\GINC-SE179\SP\RHF\Aug-CC-pVDZ\B2F2H2\OHZDE\09-Apr-2025\0\\#t hf au
 g-cc-pvdz iop(5/13=1,5/36=2,99/5=2) pseudo=read geom=check guess=(read
 ,tcheck) scf=(maxcycle=1)\\title\\0,1\B,0,1.671965,-0.000717,0.000044\
 B,0,-0.01062,-0.000057,0.000134\F,0,-0.716138,1.127723,-0.000085\F,0,-
 0.717009,-1.12729,-0.000016\H,0,2.295744,-0.000023,-1.015269\H,0,2.295
 849,-0.000005,1.015292\\Version=ES64L-G16RevC.01\State=1-A\HF=-250.417
 6727\RMSD=3.474e-01\Dipole=-0.8642606,-0.000323,-0.0002039\Quadrupole=
 -2.715516,4.6381034,-1.9225874,-0.0002536,-0.000049,-0.0001537\PG=C01

 Normal termination of Gaussian 16 at Wed Apr  9 00:54:30 2025.
