 Gaussian 16, Revision C.01,

 ----------------------------------------------------------------------
 #t hf aug-cc-pvdz symm=none int=(grid=ultrafine) guess=(read,tcheck) s
 table=(opt,rrhf)
 ----------------------------------------------------------------------
 -----
 title
 -----
 Symbolic Z-matrix:
 Charge =  0 Multiplicity = 1

 SCF Done:  E(RHF) =  -940.254698741     A.U. after   15 cycles
 Normal termination of Gaussian 16 at Tue Apr  8 23:45:43 2025.
 Gaussian 16:  ES64L-G16RevC.01  3-Jul-2019

 ----------------------------------------------------------------------
 #t hf aug-cc-pvdz iop(5/13=1,5/36=2,99/5=2) pseudo=read geom=check gue
 ss=(read,tcheck) scf=(maxcycle=1)
 ----------------------------------------------------------------------
 -----
 title
 -----
 Structure from the checkpoint file:  "BDE49_nonexpt_1698_mol1.chk"
 Charge =  0 Multiplicity = 1

                         Standard orientation:
 ---------------------------------------------------------------------
 Center     Atomic      Atomic             Coordinates (Angstroms)
 Number     Number       Type             X           Y           Z
 ---------------------------------------------------------------------
      1          6           0        0.654340    0.115282    0.081732
      2          6           0        1.269998   -1.085481    0.476310
      3          6           0        2.647554   -1.259930    0.377142
      4          6           0        3.446314   -0.232995   -0.123556
      5          6           0        2.859129    0.964410   -0.523602
      6          6           0        1.478970    1.133543   -0.421998
      7         15           0       -2.171188   -1.353832   -0.988327
      8          1           0        3.097973   -2.196330    0.687918
      9          1           0        4.519516   -0.367008   -0.202611
     10          1           0        3.474503    1.767130   -0.915315
     11          1           0        1.044439    2.075293   -0.740256
     12          1           0        0.666816   -1.901433    0.863047
     13         14           0       -1.213300    0.331490    0.236701
     14          6           0       -1.731494    2.043172   -0.352425
     15          1           0       -1.462649    2.212138   -1.398376
     16          1           0       -1.265094    2.828297    0.251755
     17          1           0       -2.815742    2.157331   -0.266430
     18          6           0       -1.753079    0.083200    2.025155
     19          1           0       -1.304131    0.846293    2.668376
     20          1           0       -1.447708   -0.895287    2.404967
     21          1           0       -2.840387    0.156361    2.123503
     22          1           0       -1.862184   -0.778481   -2.249000
     23          1           0       -3.481733   -0.804883   -0.949028
 ---------------------------------------------------------------------

 SCF Done:  E(RHF) =  -942.150802982     A.U. after    2 cycles

 The electronic state is 1-A.
 Alpha  occ. eigenvalues -- -105.16469 -76.20692 -11.51334 -11.43191 -11.42490
 Alpha  occ. eigenvalues --  -11.40734 -11.40441 -11.36026 -11.35329 -11.34976
 Alpha  occ. eigenvalues --   -5.54695  -2.72909  -2.19507  -2.18725  -2.16843
 Alpha  occ. eigenvalues --   -1.43195  -1.43161  -1.40873  -1.33413  -1.09275
 Alpha  occ. eigenvalues --   -1.08935  -1.05212  -1.01335  -0.85978  -0.85354
 Alpha  occ. eigenvalues --   -0.74743  -0.70953  -0.65330  -0.60868  -0.58450
 Alpha  occ. eigenvalues --   -0.57221  -0.56635  -0.56120  -0.54938  -0.54280
 Alpha  occ. eigenvalues --   -0.50836  -0.50065  -0.44671  -0.40182  -0.38194
 Alpha  occ. eigenvalues --   -0.33764  -0.32898  -0.25411  -0.14102  -0.02840
 Alpha virt. eigenvalues --    0.03095   0.04930   0.05188   0.05440   0.06030
 Alpha virt. eigenvalues --    0.06346   0.06478   0.06909   0.07313   0.07337
 Alpha virt. eigenvalues --    0.08480   0.08596   0.09273   0.09809   0.10292

 Mulliken charges:
               1
     1  C    0.881465
     2  C   -2.482542
     3  C   -1.513592
     4  C   -2.173492
     5  C   -2.148299
     6  C   -1.906541
     7  P    1.676862
     8  H    1.535861
     9  H    1.539586
    10  H    1.600462
    11  H    1.797310
    12  H    1.919132
    13  Si   5.592454
    14  C   -6.243763
    15  H    1.324022
    16  H    1.370365
    17  H    1.068750
    18  C   -5.853106
    19  H    0.987415
    20  H    1.254233
    21  H    1.278027
    22  H   -0.860638
    23  H   -0.643969
 Sum of Mulliken charges =   0.00000

 Dipole moment (field-independent basis, Debye):
    X=              0.6975    Y=             -5.6929    Z=              0.6238  Tot=              5.7693

 Test job not archived.
 1\1\GINC-SE343\SP\RHF\Aug-CC-pVDZ\C8H13P1Si1\OHZDE\08-Apr-2025\0\\#t h
 f aug-cc-pvdz iop(5/13=1,5/36=2,99/5=2) pseudo=read geom=check guess=(
 read,tcheck) scf=(maxcycle=1)\\title\\0,1\C,0,0.65434,0.115282,0.08173
 2\C,0,1.269998,-1.085481,0.47631\C,0,2.647554,-1.25993,0.377142\C,0,3.
 446314,-0.232995,-0.123556\C,0,2.859129,0.96441,-0.523602\C,0,1.47897,
 1.133543,-0.421998\P,0,-2.171188,-1.353832,-0.988327\H,0,3.097973,-2.1
 9633,0.687918\H,0,4.519516,-0.367008,-0.202611\H,0,3.474503,1.76713,-0
 .915315\H,0,1.044439,2.075293,-0.740256\H,0,0.666816,-1.901433,0.86304

 Normal termination of Gaussian 16 at Tue Apr  8 23:45:56 2025.
