 Gaussian 16, Revision C.01,

 ----------------------------------------------------------------------
 #t hf aug-cc-pvdz symm=none int=(grid=ultrafine) guess=(read,tcheck) s
 table=opt
 ----------------------------------------------------------------------
 -----
 title
 -----
 Symbolic Z-matrix:
 Charge =  0 Multiplicity = 2

 SCF Done:  E(UHF) =  -591.776888607     A.U. after   19 cycles
 Normal termination of Gaussian 16 at Tue Apr  8 23:31:06 2025.
 Gaussian 16:  ES64L-G16RevC.01  3-Jul-2019

 ----------------------------------------------------------------------
 #t hf aug-cc-pvdz iop(5/13=1,5/36=2,99/5=2) pseudo=read geom=check gue
 ss=(read,tcheck) scf=(maxcycle=1)
 ----------------------------------------------------------------------
 -----
 title
 -----
 Structure from the checkpoint file:  "BDE49_nonexpt_136_mol2.chk"
 Charge =  0 Multiplicity = 2

                         Standard orientation:
 ---------------------------------------------------------------------
 Center     Atomic      Atomic             Coordinates (Angstroms)
 Number     Number       Type             X           Y           Z
 ---------------------------------------------------------------------
      1          5           0        1.496598   -0.299612   -1.117809
      2         15           0        0.060474   -0.017695    0.034204
      3          8           0       -0.814468    1.295867   -0.263920
      4          8           0       -1.129224   -1.053735   -0.241843
      5          1           0       -0.380871    2.090975    0.067825
      6          1           0       -0.835601   -1.967003   -0.142129
      7          8           0        0.748812   -0.079808    1.344326
      8          1           0        2.385419    0.340913   -1.558208
 ---------------------------------------------------------------------

 SCF Done:  E(UHF) =  -592.987248740     A.U. after    2 cycles

 The electronic state is 2-A.
 Alpha  occ. eigenvalues -- -105.30229 -21.12276 -21.12209 -21.02667  -7.67902
 Alpha  occ. eigenvalues --   -2.92603  -1.98245  -1.88592  -1.80425  -1.56239
 Alpha  occ. eigenvalues --   -1.40208  -1.26130  -0.80162  -0.67949  -0.58505
 Alpha  occ. eigenvalues --   -0.57144  -0.44523  -0.44227  -0.38148  -0.35382
 Alpha  occ. eigenvalues --   -0.34224  -0.29067  -0.22277  -0.15549
 Alpha virt. eigenvalues --    0.02511   0.03645   0.03943   0.04667   0.07691
 Alpha virt. eigenvalues --    0.08307   0.10082   0.11363   0.13156   0.13871
 Alpha virt. eigenvalues --    0.14394   0.16540   0.20612   0.20721   0.22127

  Beta  occ. eigenvalues -- -105.30234 -21.12238 -21.12137 -21.02600  -7.66183
  Beta  occ. eigenvalues --   -2.92596  -1.98212  -1.88513  -1.80304  -1.55827
  Beta  occ. eigenvalues --   -1.39999  -1.25998  -0.76074  -0.66574  -0.58357
  Beta  occ. eigenvalues --   -0.56881  -0.44104  -0.43235  -0.35388  -0.34612
  Beta  occ. eigenvalues --   -0.28545  -0.24432  -0.16376
  Beta virt. eigenvalues --    0.02716   0.03230   0.03998   0.04414   0.07018
  Beta virt. eigenvalues --    0.08810   0.09560   0.10304   0.11726   0.13368
  Beta virt. eigenvalues --    0.14011   0.15913   0.17218   0.21072   0.21347

 Mulliken charges and spin densities:
               1          2
     1  B    0.737748   0.997072
     2  P    6.875616   0.024665
     3  O   -2.920869   0.013227
     4  O   -2.915281  -0.001384
     5  H    0.972712  -0.025292
     6  H    1.079901  -0.004023
     7  O   -2.648008   0.014294
     8  H   -1.181819  -0.018558
 Sum of Mulliken charges =  -0.00000   1.00000

 Dipole moment (field-independent basis, Debye):
    X=             -1.8269    Y=              0.7198    Z=             -1.7171  Tot=              2.6084
                          Isotropic Fermi Contact Couplings
        Atom                 a.u.       MegaHertz       Gauss      10(-4) cm-1
     1  B(11)              0.07477     107.24770      38.26865      35.77398
     2  P(31)              0.00131       2.38111       0.84964       0.79425
     3  O(17)              0.01593      -9.65583      -3.44544      -3.22084
     4  O(17)             -0.00560       3.39624       1.21186       1.13286
     5  H(1)              -0.00040      -1.78266      -0.63610      -0.59463
     6  H(1)               0.00021       0.93935       0.33518       0.31333
     7  O(17)              0.00298      -1.80428      -0.64381      -0.60184
     8  H(1)              -0.00981     -43.84854     -15.64625     -14.62630

 Normal termination of Gaussian 16 at Tue Apr  8 23:31:09 2025.
