 Gaussian 16, Revision C.01,

 ----------------------------------------------------------------------
 #t hf aug-cc-pvdz symm=none int=(grid=ultrafine) guess=(read,tcheck) s
 table=(opt,rrhf)
 ----------------------------------------------------------------------
 -----
 title
 -----
 Symbolic Z-matrix:
 Charge =  0 Multiplicity = 1

 SCF Done:  E(RHF) =  -589.429862866     A.U. after   13 cycles
 Normal termination of Gaussian 16 at Tue Apr  8 22:40:30 2025.
 Gaussian 16:  ES64L-G16RevC.01  3-Jul-2019

 ----------------------------------------------------------------------
 #t hf aug-cc-pvdz iop(5/13=1,5/36=2,99/5=2) pseudo=read geom=check gue
 ss=(read,tcheck) scf=(maxcycle=1)
 ----------------------------------------------------------------------
 -----
 title
 -----
 Structure from the checkpoint file:  "BDE49_expt_1275_mol1.chk"
 Charge =  0 Multiplicity = 1

                         Standard orientation:
 ---------------------------------------------------------------------
 Center     Atomic      Atomic             Coordinates (Angstroms)
 Number     Number       Type             X           Y           Z
 ---------------------------------------------------------------------
      1          6           0        0.104572   -0.585043    0.000000
      2          7           0       -0.715545    0.662708   -0.000000
      3          9           0        1.409044   -0.349530    0.000000
      4          9           0       -0.230556   -1.264344    1.087269
      5          9           0       -0.230556   -1.264344   -1.087269
      6          9           0       -0.230556    1.376404    1.092095
      7          9           0       -0.230556    1.376404   -1.092095
 ---------------------------------------------------------------------

 SCF Done:  E(RHF) =  -591.507826206     A.U. after    2 cycles

 The electronic state is 1-A'.
 Alpha  occ. eigenvalues --  -29.35860 -29.35816 -29.35526 -29.34032 -29.34006
 Alpha  occ. eigenvalues --  -15.93780 -11.63631  -1.65701  -1.37192  -1.00463
 Alpha  occ. eigenvalues --   -0.97546  -0.87239  -0.82354  -0.67282  -0.52433
 Alpha  occ. eigenvalues --   -0.49204  -0.48286  -0.47661  -0.45083  -0.41394
 Alpha  occ. eigenvalues --   -0.39212  -0.39107  -0.35504  -0.32851  -0.29857
 Alpha  occ. eigenvalues --   -0.29454  -0.25777  -0.25214  -0.22855
 Alpha virt. eigenvalues --    0.10009   0.10925   0.11895   0.13698   0.15379
 Alpha virt. eigenvalues --    0.17742   0.18189   0.20559   0.20734   0.22402
 Alpha virt. eigenvalues --    0.24699   0.24842   0.25876   0.28775   0.29238

 Mulliken charges:
               1
     1  C   -1.042120
     2  N   -0.946762
     3  F    0.700434
     4  F    0.704706
     5  F    0.704706
     6  F   -0.060482
     7  F   -0.060482
 Sum of Mulliken charges =   0.00000

 Dipole moment (field-independent basis, Debye):
    X=              2.1361    Y=             -0.2304    Z=              0.0000  Tot=              2.1485

 Test job not archived.
 1\1\GINC-SE165\SP\RHF\Aug-CC-pVDZ\C1F5N1\OHZDE\08-Apr-2025\0\\#t hf au
 g-cc-pvdz iop(5/13=1,5/36=2,99/5=2) pseudo=read geom=check guess=(read
 ,tcheck) scf=(maxcycle=1)\\title\\0,1\C,0,0.104572,-0.585043,0.\N,0,-0
 .715545,0.662708,0.\F,0,1.409044,-0.34953,0.\F,0,-0.230556,-1.264344,1
 .087269\F,0,-0.230556,-1.264344,-1.087269\F,0,-0.230556,1.376404,1.092
 095\F,0,-0.230556,1.376404,-1.092095\\Version=ES64L-G16RevC.01\State=1
 -A'\HF=-591.5078262\RMSD=3.171e-02\Dipole=0.8403929,-0.0906436,0.\Quad
 rupole=-1.8358247,0.943489,0.8923357,0.7302884,0.,0.\PG=CS [SG(C1F1N1)

 Normal termination of Gaussian 16 at Tue Apr  8 22:40:33 2025.
