 Gaussian 16, Revision C.01,

 ----------------------------------------------------------------------
 #t hf aug-cc-pvdz symm=none int=(grid=ultrafine) guess=(read,tcheck) s
 table=(opt,rrhf)
 ----------------------------------------------------------------------
 -----
 title
 -----
 Symbolic Z-matrix:
 Charge =  0 Multiplicity = 1

 SCF Done:  E(RHF) =  -1063.08776918     A.U. after   16 cycles
 Normal termination of Gaussian 16 at Tue Apr  8 23:13:35 2025.
 Gaussian 16:  ES64L-G16RevC.01  3-Jul-2019

 ----------------------------------------------------------------------
 #t hf aug-cc-pvdz iop(5/13=1,5/36=2,99/5=2) pseudo=read geom=check gue
 ss=(read,tcheck) scf=(maxcycle=1)
 ----------------------------------------------------------------------
 -----
 title
 -----
 Structure from the checkpoint file:  "BDE49_expt_533_mol1.chk"
 Charge =  0 Multiplicity = 1

                         Standard orientation:
 ---------------------------------------------------------------------
 Center     Atomic      Atomic             Coordinates (Angstroms)
 Number     Number       Type             X           Y           Z
 ---------------------------------------------------------------------
      1          6           0        2.293896    1.228592   -0.033648
      2          6           0        1.558812    0.050016    0.625142
      3          6           0        2.375058   -1.165281    0.176546
      4          7           0        3.380047   -0.700349   -0.662183
      5          7           0        3.457511    0.717675   -0.600260
      6          1           0        3.753612    1.161729   -1.462204
      7          1           0        4.270685   -1.179670   -0.600613
      8          6           0        0.056516    0.008178    0.365339
      9          8           0        2.244966   -2.321607    0.498679
     10          8           0        1.972176    2.389356   -0.087705
     11          1           0        1.724825    0.130192    1.708162
     12          6           0       -0.585449   -1.169413   -0.025438
     13          6           0       -1.962548   -1.193194   -0.234585
     14          6           0       -2.700397   -0.031923   -0.045352
     15          6           0       -2.084225    1.149364    0.353177
     16          6           0       -0.708990    1.163580    0.560384
     17          1           0       -0.225126    2.085880    0.852638
     18          1           0       -2.671573    2.046464    0.499833
     19          1           0       -0.018697   -2.082502   -0.148769
     20          1           0       -2.455431   -2.107791   -0.537593
     21         17           0       -4.437316   -0.056300   -0.306561
 ---------------------------------------------------------------------

 SCF Done:  E(RHF) =  -1066.02457924     A.U. after    2 cycles

 The electronic state is 1-A.
 Alpha  occ. eigenvalues --  -99.89629 -21.06988 -21.06895 -15.81657 -15.81154
 Alpha  occ. eigenvalues --  -11.55612 -11.55044 -11.53309 -11.48185 -11.46473
 Alpha  occ. eigenvalues --  -11.45925 -11.45543 -11.42866 -11.38787 -10.46967
 Alpha  occ. eigenvalues --   -9.67002  -9.66113  -9.65935  -1.76640  -1.73116
 Alpha  occ. eigenvalues --   -1.56392  -1.40848  -1.30125  -1.21220  -1.19115
 Alpha  occ. eigenvalues --   -1.11384  -1.06976  -0.90080  -0.89516  -0.83234
 Alpha  occ. eigenvalues --   -0.83067  -0.73089  -0.72653  -0.69815  -0.66628
 Alpha  occ. eigenvalues --   -0.65138  -0.60565  -0.60103  -0.59339  -0.58003
 Alpha  occ. eigenvalues --   -0.57220  -0.55220  -0.52743  -0.51814  -0.49993
 Alpha  occ. eigenvalues --   -0.48996  -0.48131  -0.46099  -0.40613  -0.35431
 Alpha  occ. eigenvalues --   -0.34538  -0.33096  -0.30868  -0.29736
 Alpha virt. eigenvalues --    0.02869   0.04590   0.04936   0.05504   0.05931
 Alpha virt. eigenvalues --    0.06813   0.07866   0.08181   0.08988   0.09345
 Alpha virt. eigenvalues --    0.09909   0.10455   0.10639   0.11006   0.11821

 Mulliken charges:
               1
     1  C    6.009336
     2  C   -6.472416
     3  C    6.271243
     4  N   -2.345355
     5  N   -2.305003
     6  H    0.794734
     7  H    0.781910
     8  C    5.641055
     9  O   -3.768627
    10  O   -3.521326
    11  H    1.310516
    12  C   -0.502042
    13  C   -2.214398
    14  C   -3.333417
    15  C   -2.340298
    16  C   -0.883845
    17  H    2.088781
    18  H    1.761742
    19  H    2.196172
    20  H    1.720222
    21  Cl  -0.888983
 Sum of Mulliken charges =   0.00000

 Dipole moment (field-independent basis, Debye):
    X=              3.4257    Y=              0.1437    Z=             -0.3602  Tot=              3.4476

 Test job not archived.
 1\1\GINC-SE253\SP\RHF\Aug-CC-pVDZ\C9H7Cl1N2O2\OHZDE\08-Apr-2025\0\\#t
 hf aug-cc-pvdz iop(5/13=1,5/36=2,99/5=2) pseudo=read geom=check guess=
 (read,tcheck) scf=(maxcycle=1)\\title\\0,1\C,0,2.293896,1.228592,-0.03
 3648\C,0,1.558812,0.050016,0.625142\C,0,2.375058,-1.165281,0.176546\N,
 0,3.380047,-0.700349,-0.662183\N,0,3.457511,0.717675,-0.60026\H,0,3.75
 3612,1.161729,-1.462204\H,0,4.270685,-1.17967,-0.600613\C,0,0.056516,0
 .008178,0.365339\O,0,2.244966,-2.321607,0.498679\O,0,1.972176,2.389356
 ,-0.087705\H,0,1.724825,0.130192,1.708162\C,0,-0.585449,-1.169413,-0.0

 Normal termination of Gaussian 16 at Tue Apr  8 23:13:53 2025.
