 Gaussian 16, Revision C.01,

 ----------------------------------------------------------------------
 #t hf aug-cc-pvdz symm=none int=(grid=ultrafine) guess=(read,tcheck) s
 table=(opt,rrhf)
 ----------------------------------------------------------------------
 -----
 title
 -----
 Symbolic Z-matrix:
 Charge =  0 Multiplicity = 1

 SCF Done:  E(RHF) =  -861.757880014     A.U. after   18 cycles
 Normal termination of Gaussian 16 at Tue Apr  8 23:34:10 2025.
 Gaussian 16:  ES64L-G16RevC.01  3-Jul-2019

 ----------------------------------------------------------------------
 #t hf aug-cc-pvdz iop(5/13=1,5/36=2,99/5=2) pseudo=read geom=check gue
 ss=(read,tcheck) scf=(maxcycle=1)
 ----------------------------------------------------------------------
 -----
 title
 -----
 Structure from the checkpoint file:  "BDE49_nonexpt_1353_mol1.chk"
 Charge =  0 Multiplicity = 1

                         Standard orientation:
 ---------------------------------------------------------------------
 Center     Atomic      Atomic             Coordinates (Angstroms)
 Number     Number       Type             X           Y           Z
 ---------------------------------------------------------------------
      1          6           0       -0.998355    2.314266   -0.572094
      2          1           0       -1.856982    2.987857   -0.573219
      3          1           0       -0.544004    2.344067   -1.568370
      4          1           0       -0.255584    2.703089    0.128685
      5          9           0        1.601151   -1.509582   -1.183054
      6          8           0        1.871591    1.579300    1.049005
      7         15           0        1.143583    0.067918   -1.027751
      8          6           0        2.864308   -0.599825    1.266250
      9          1           0        3.294580   -0.202128    2.185952
     10          1           0        3.657475   -0.917927    0.583770
     11          1           0        2.260832   -1.486058    1.480361
     12          6           0       -0.539325   -0.186443   -0.325628
     13          6           0        2.013330    0.461166    0.612637
     14          6           0       -1.417633    0.910745   -0.203140
     15          6           0       -0.963634   -1.474405    0.022127
     16          1           0       -0.286713   -2.310528   -0.100988
     17          6           0       -3.122632   -0.611540    0.638749
     18          1           0       -4.129008   -0.766553    1.011190
     19          6           0       -2.703914    0.668872    0.286468
     20          1           0       -3.390159    1.503370    0.386577
     21          6           0       -2.251637   -1.688156    0.503134
     22          1           0       -2.570316   -2.690200    0.766725
 ---------------------------------------------------------------------

 SCF Done:  E(RHF) =  -864.269463652     A.U. after    2 cycles

 The electronic state is 1-A.
 Alpha  occ. eigenvalues -- -105.24341 -29.27262 -21.07177 -11.52636 -11.49649
 Alpha  occ. eigenvalues --  -11.45542 -11.44311 -11.42138 -11.41817 -11.39679
 Alpha  occ. eigenvalues --  -11.38981 -11.36960  -2.83083  -1.72856  -1.58078
 Alpha  occ. eigenvalues --   -1.56170  -1.51659  -1.34630  -1.15219  -1.11431
 Alpha  occ. eigenvalues --   -1.08978  -0.99904  -0.89160  -0.85423  -0.80983
 Alpha  occ. eigenvalues --   -0.71902  -0.68655  -0.63298  -0.61407  -0.60288
 Alpha  occ. eigenvalues --   -0.60096  -0.57985  -0.56738  -0.55049  -0.53016
 Alpha  occ. eigenvalues --   -0.50334  -0.50025  -0.48636  -0.44693  -0.44405
 Alpha  occ. eigenvalues --   -0.38954  -0.35320  -0.33055  -0.32751  -0.32582
 Alpha  occ. eigenvalues --   -0.20942  -0.17310  -0.01116
 Alpha virt. eigenvalues --    0.03721   0.04857   0.05170   0.05539   0.06282
 Alpha virt. eigenvalues --    0.06606   0.06951   0.07259   0.07789   0.08559
 Alpha virt. eigenvalues --    0.08815   0.09674   0.09958   0.10757   0.11331

 Mulliken charges:
               1
     1  C   -5.404010
     2  H    1.105038
     3  H    1.371976
     4  H    1.340034
     5  F   -0.420044
     6  O   -3.110786
     7  P    3.339718
     8  C   -4.246738
     9  H    1.223228
    10  H    1.310814
    11  H    1.410897
    12  C    1.435142
    13  C    1.194266
    14  C    0.812351
    15  C   -3.307399
    16  H    2.251699
    17  C   -2.459161
    18  H    1.431914
    19  C   -1.088273
    20  H    1.724798
    21  C   -1.424523
    22  H    1.509059
 Sum of Mulliken charges =  -0.00000

 Dipole moment (field-independent basis, Debye):
    X=              0.5051    Y=             -3.8960    Z=             -0.8968  Tot=              4.0297

 Test job not archived.
 1\1\GINC-SE423\SP\RHF\Aug-CC-pVDZ\C9H10F1O1P1\OHZDE\08-Apr-2025\0\\#t
 hf aug-cc-pvdz iop(5/13=1,5/36=2,99/5=2) pseudo=read geom=check guess=
 (read,tcheck) scf=(maxcycle=1)\\title\\0,1\C,0,-0.998355,2.314266,-0.5
 72094\H,0,-1.856982,2.987857,-0.573219\H,0,-0.544004,2.344067,-1.56837
 \H,0,-0.255584,2.703089,0.128685\F,0,1.601151,-1.509582,-1.183054\O,0,
 1.871591,1.5793,1.049005\P,0,1.143583,0.067918,-1.027751\C,0,2.864308,
 -0.599825,1.26625\H,0,3.29458,-0.202128,2.185952\H,0,3.657475,-0.91792
 7,0.58377\H,0,2.260832,-1.486058,1.480361\C,0,-0.539325,-0.186443,-0.3

 Normal termination of Gaussian 16 at Tue Apr  8 23:34:26 2025.
