 Gaussian 16, Revision C.01,

 ----------------------------------------------------------------------
 #t hf aug-cc-pvdz symm=none int=(grid=ultrafine) guess=(read,tcheck) s
 table=(opt,rrhf)
 ----------------------------------------------------------------------
 -----
 title
 -----
 Symbolic Z-matrix:
 Charge =  0 Multiplicity = 1

 SCF Done:  E(RHF) =  -723.348324249     A.U. after   13 cycles
 Normal termination of Gaussian 16 at Tue Apr  8 23:28:06 2025.
 Gaussian 16:  ES64L-G16RevC.01  3-Jul-2019

 ----------------------------------------------------------------------
 #t hf aug-cc-pvdz iop(5/13=1,5/36=2,99/5=2) pseudo=read geom=check gue
 ss=(read,tcheck) scf=(maxcycle=1)
 ----------------------------------------------------------------------
 -----
 title
 -----
 Structure from the checkpoint file:  "BDE49_nonexpt_1268_mol1.chk"
 Charge =  0 Multiplicity = 1

                         Standard orientation:
 ---------------------------------------------------------------------
 Center     Atomic      Atomic             Coordinates (Angstroms)
 Number     Number       Type             X           Y           Z
 ---------------------------------------------------------------------
      1          6           0       -0.180516    0.782048   -0.089937
      2         15           0        1.397921   -0.059617    0.101252
      3          8           0        1.666945   -0.815736    1.335612
      4          8           0        2.438932    1.141295   -0.167349
      5          6           0       -1.385861   -0.158844    0.053955
      6          1           0       -0.204686    1.571752    0.667345
      7          6           0       -2.726858    0.573816   -0.071726
      8          1           0       -1.332302   -0.664780    1.023523
      9          1           0       -1.324124   -0.940767   -0.710082
     10          6           0       -3.930511   -0.361608    0.069440
     11          1           0       -2.770421    1.084589   -1.041088
     12          1           0       -2.781985    1.359781    0.690882
     13          1           0       -3.919848   -1.138398   -0.701246
     14          1           0       -4.872248    0.185591   -0.023277
     15          1           0       -3.930220   -0.861363    1.042843
     16          1           0       -0.173018    1.272873   -1.068584
     17          1           0        3.245982    1.025914    0.348773
     18          8           0        1.465240   -0.973558   -1.228303
     19          1           0        1.867581   -1.829431   -1.037945
 ---------------------------------------------------------------------

 SCF Done:  E(RHF) =  -725.307340556     A.U. after    2 cycles

 The electronic state is 1-A.
 Alpha  occ. eigenvalues -- -105.29224 -21.10827 -21.10683 -21.01523 -11.43137
 Alpha  occ. eigenvalues --  -11.40886 -11.38009 -11.35455  -2.91771  -1.95518
 Alpha  occ. eigenvalues --   -1.89601  -1.80238  -1.54308  -1.39304  -1.26355
 Alpha  occ. eigenvalues --   -1.23064  -1.06462  -0.91218  -0.83814  -0.69180
 Alpha  occ. eigenvalues --   -0.66484  -0.60295  -0.59499  -0.58691  -0.54925
 Alpha  occ. eigenvalues --   -0.53116  -0.51105  -0.47154  -0.46812  -0.46387
 Alpha  occ. eigenvalues --   -0.44637  -0.38685  -0.34314  -0.33296  -0.29151
 Alpha  occ. eigenvalues --   -0.24213  -0.14545
 Alpha virt. eigenvalues --    0.03792   0.04827   0.05467   0.05601   0.06259
 Alpha virt. eigenvalues --    0.06303   0.06390   0.07663   0.08158   0.09327
 Alpha virt. eigenvalues --    0.09814   0.10211   0.11314   0.12795   0.13958

 Mulliken charges:
               1
     1  C   -5.573146
     2  P   10.098724
     3  O   -3.004941
     4  O   -3.012097
     5  C   -1.936211
     6  H    1.299460
     7  C   -3.074387
     8  H    1.477135
     9  H    1.536564
    10  C   -4.363709
    11  H    1.379785
    12  H    1.392284
    13  H    1.313212
    14  H    1.094282
    15  H    1.318812
    16  H    1.289762
    17  H    0.886634
    18  O   -2.907949
    19  H    0.785788
 Sum of Mulliken charges =  -0.00000

 Dipole moment (field-independent basis, Debye):
    X=             -0.5142    Y=              1.2431    Z=             -2.2657  Tot=              2.6350

 Test job not archived.
 1\1\GINC-SE092\SP\RHF\Aug-CC-pVDZ\C4H11O3P1\OHZDE\08-Apr-2025\0\\#t hf
  aug-cc-pvdz iop(5/13=1,5/36=2,99/5=2) pseudo=read geom=check guess=(r
 ead,tcheck) scf=(maxcycle=1)\\title\\0,1\C,0,-0.180516,0.782048,-0.089
 937\P,0,1.397921,-0.059617,0.101252\O,0,1.666945,-0.815736,1.335612\O,
 0,2.438932,1.141295,-0.167349\C,0,-1.385861,-0.158844,0.053955\H,0,-0.
 204686,1.571752,0.667345\C,0,-2.726858,0.573816,-0.071726\H,0,-1.33230
 2,-0.66478,1.023523\H,0,-1.324124,-0.940767,-0.710082\C,0,-3.930511,-0
 .361608,0.06944\H,0,-2.770421,1.084589,-1.041088\H,0,-2.781985,1.35978

 Normal termination of Gaussian 16 at Tue Apr  8 23:28:15 2025.
