 Gaussian 16, Revision C.01,

 ----------------------------------------------------------------------
 #t hf aug-cc-pvdz symm=none int=(grid=ultrafine) guess=(read,tcheck) s
 table=(opt,rrhf)
 ----------------------------------------------------------------------
 -----
 title
 -----
 Symbolic Z-matrix:
 Charge =  0 Multiplicity = 1

 SCF Done:  E(RHF) =  -356.220666786     A.U. after   13 cycles
 Normal termination of Gaussian 16 at Wed Apr  9 00:33:20 2025.
 Gaussian 16:  ES64L-G16RevC.01  3-Jul-2019

 ----------------------------------------------------------------------
 #t hf aug-cc-pvdz iop(5/13=1,5/36=2,99/5=2) pseudo=read geom=check gue
 ss=(read,tcheck) scf=(maxcycle=1)
 ----------------------------------------------------------------------
 -----
 title
 -----
 Structure from the checkpoint file:  "BDE49_nonexpt_407_mol1.chk"
 Charge =  0 Multiplicity = 1

                         Standard orientation:
 ---------------------------------------------------------------------
 Center     Atomic      Atomic             Coordinates (Angstroms)
 Number     Number       Type             X           Y           Z
 ---------------------------------------------------------------------
      1          9           0        1.462523    1.248913    0.000072
      2          9           0        2.082126   -0.924785    0.000066
      3          5           0        1.107982   -0.021684   -0.000113
      4          6           0       -0.383368   -0.485884   -0.000062
      5          7           0       -1.316558    0.381322   -0.000036
      6          1           0       -0.604657   -1.566851   -0.000059
      7          6           0       -2.689364   -0.081111   -0.000002
      8          1           0       -3.196651    0.333615   -0.876564
      9          1           0       -3.196604    0.333611    0.876590
     10          1           0       -2.791548   -1.176396   -0.000002
 ---------------------------------------------------------------------

 SCF Done:  E(RHF) =  -357.624234367     A.U. after    2 cycles

 The electronic state is 1-A.
 Alpha  occ. eigenvalues --  -29.26094 -29.25373 -15.76788 -11.39891 -11.39758
 Alpha  occ. eigenvalues --   -7.70622  -1.40839  -1.16598  -1.01465  -0.83419
 Alpha  occ. eigenvalues --   -0.74320  -0.66866  -0.61596  -0.60549  -0.54538
 Alpha  occ. eigenvalues --   -0.51615  -0.45964  -0.45360  -0.40347  -0.38601
 Alpha  occ. eigenvalues --   -0.34076  -0.33276  -0.26417
 Alpha virt. eigenvalues --    0.03217   0.04405   0.04848   0.05846   0.06689
 Alpha virt. eigenvalues --    0.06770   0.07759   0.09100   0.10112   0.12120
 Alpha virt. eigenvalues --    0.13419   0.15001   0.15474   0.15575   0.17787

 Mulliken charges:
               1
     1  F   -0.577656
     2  F   -0.076935
     3  B    1.816621
     4  C   -2.356159
     5  N   -1.623139
     6  H    1.708883
     7  C   -2.850615
     8  H    1.355023
     9  H    1.355012
    10  H    1.248967
 Sum of Mulliken charges =   0.00000

 Dipole moment (field-independent basis, Debye):
    X=              1.2215    Y=             -0.2185    Z=              0.0004  Tot=              1.2409

 Test job not archived.
 1\1\GINC-SE099\SP\RHF\Aug-CC-pVDZ\C2H4B1F2N1\OHZDE\09-Apr-2025\0\\#t h
 f aug-cc-pvdz iop(5/13=1,5/36=2,99/5=2) pseudo=read geom=check guess=(
 read,tcheck) scf=(maxcycle=1)\\title\\0,1\F,0,1.462523,1.248913,0.0000
 72\F,0,2.082126,-0.924785,0.000066\B,0,1.107982,-0.021684,-0.000113\C,
 0,-0.383368,-0.485884,-0.000062\N,0,-1.316558,0.381322,-0.000036\H,0,-
 0.604657,-1.566851,-0.000059\C,0,-2.689364,-0.081111,-0.000002\H,0,-3.
 196651,0.333615,-0.876564\H,0,-3.196604,0.333611,0.87659\H,0,-2.791548
 ,-1.176396,-0.000002\\Version=ES64L-G16RevC.01\State=1-A\HF=-357.62423

 Normal termination of Gaussian 16 at Wed Apr  9 00:33:23 2025.
