 Gaussian 16, Revision C.01,

 ----------------------------------------------------------------------
 #t hf aug-cc-pvdz symm=none int=(grid=ultrafine) guess=(read,tcheck) s
 table=(opt,rrhf)
 ----------------------------------------------------------------------
 -----
 title
 -----
 Symbolic Z-matrix:
 Charge =  0 Multiplicity = 1

 SCF Done:  E(RHF) =  -2065.68459594     A.U. after   14 cycles
 Normal termination of Gaussian 16 at Wed Apr  9 00:16:36 2025.
 Gaussian 16:  ES64L-G16RevC.01  3-Jul-2019

 ----------------------------------------------------------------------
 #t hf aug-cc-pvdz iop(5/13=1,5/36=2,99/5=2) pseudo=read geom=check gue
 ss=(read,tcheck) scf=(maxcycle=1)
 ----------------------------------------------------------------------
 -----
 title
 -----
 Structure from the checkpoint file:  "BDE49_nonexpt_2532_mol1.chk"
 Charge =  0 Multiplicity = 1

                         Standard orientation:
 ---------------------------------------------------------------------
 Center     Atomic      Atomic             Coordinates (Angstroms)
 Number     Number       Type             X           Y           Z
 ---------------------------------------------------------------------
      1         17           0       -2.595266    0.051802    0.211087
      2         16           0       -0.984923   -1.077157   -0.484554
      3         14           0        0.580179    0.048275    0.466155
      4         17           0        2.265953   -1.046399    0.014215
      5         17           0        0.755273    1.960583   -0.265872
      6          1           0        0.394942    0.136913    1.916382
 ---------------------------------------------------------------------

 SCF Done:  E(RHF) =  -2066.78003905     A.U. after    2 cycles

 The electronic state is 1-A.
 Alpha  occ. eigenvalues --  -99.93016 -99.91690 -99.91192 -76.34411 -75.75712
 Alpha  occ. eigenvalues --  -13.14600 -13.11405 -13.09261 -10.50070 -10.49139
 Alpha  occ. eigenvalues --  -10.48660  -9.69818  -9.69224  -9.69086  -9.68989
 Alpha  occ. eigenvalues --   -9.68507  -9.68336  -9.68316  -9.67848  -9.67834
 Alpha  occ. eigenvalues --   -8.09585  -5.67917  -2.30053  -2.29324  -2.28906
 Alpha  occ. eigenvalues --   -1.36034  -1.33239  -1.30570  -1.09054  -0.80057
 Alpha  occ. eigenvalues --   -0.62407  -0.61170  -0.60547  -0.57789  -0.57356
 Alpha  occ. eigenvalues --   -0.55868  -0.55166  -0.53457  -0.52701  -0.38890
 Alpha  occ. eigenvalues --   -0.30999
 Alpha virt. eigenvalues --    0.01237   0.04245   0.04633   0.05264   0.06289
 Alpha virt. eigenvalues --    0.07642   0.09279   0.10600   0.11172   0.12050
 Alpha virt. eigenvalues --    0.12523   0.13063   0.13649   0.14118   0.14858

 Mulliken charges:
               1
     1  Cl  -0.428184
     2  S   -0.869841
     3  Si   4.894238
     4  Cl  -0.813571
     5  Cl  -0.826663
     6  H   -1.955978
 Sum of Mulliken charges =  -0.00000

 Dipole moment (field-independent basis, Debye):
    X=              0.2364    Y=             -2.8011    Z=             -1.1298  Tot=              3.0296

 Test job not archived.
 1\1\GINC-SE396\SP\RHF\Aug-CC-pVDZ\Cl3H1S1Si1\OHZDE\09-Apr-2025\0\\#t h
 f aug-cc-pvdz iop(5/13=1,5/36=2,99/5=2) pseudo=read geom=check guess=(
 read,tcheck) scf=(maxcycle=1)\\title\\0,1\Cl,0,-2.595266,0.051802,0.21
 1087\S,0,-0.984923,-1.077157,-0.484554\Si,0,0.580179,0.048275,0.466155
 \Cl,0,2.265953,-1.046399,0.014215\Cl,0,0.755273,1.960583,-0.265872\H,0
 ,0.394942,0.136913,1.916382\\Version=ES64L-G16RevC.01\State=1-A\HF=-20
 66.780039\RMSD=6.359e-02\Dipole=0.0929905,-1.10204,-0.4444948\Quadrupo
 le=-2.2276176,2.4232538,-0.1956362,0.7501386,1.1075277,2.5412682\PG=C0

 Normal termination of Gaussian 16 at Wed Apr  9 00:16:38 2025.
