 Gaussian 16, Revision C.01,

 ----------------------------------------------------------------------
 #t hf aug-cc-pvdz symm=none int=(grid=ultrafine) guess=(read,tcheck) s
 table=(opt,rrhf)
 ----------------------------------------------------------------------
 -----
 title
 -----
 Symbolic Z-matrix:
 Charge =  0 Multiplicity = 1

 SCF Done:  E(RHF) =  -976.901417370     A.U. after   13 cycles
 Normal termination of Gaussian 16 at Wed Apr  9 00:06:34 2025.
 Gaussian 16:  ES64L-G16RevC.01  3-Jul-2019

 ----------------------------------------------------------------------
 #t hf aug-cc-pvdz iop(5/13=1,5/36=2,99/5=2) pseudo=read geom=check gue
 ss=(read,tcheck) scf=(maxcycle=1)
 ----------------------------------------------------------------------
 -----
 title
 -----
 Structure from the checkpoint file:  "BDE49_nonexpt_2236_mol1.chk"
 Charge =  0 Multiplicity = 1

                         Standard orientation:
 ---------------------------------------------------------------------
 Center     Atomic      Atomic             Coordinates (Angstroms)
 Number     Number       Type             X           Y           Z
 ---------------------------------------------------------------------
      1          8           0       -0.029318   -0.707442    0.048743
      2          6           0        0.812533    0.280334   -0.186437
      3         14           0       -1.709622   -0.595218   -0.310402
      4          8           0        0.571803    1.356221   -0.634621
      5         17           0        2.466649   -0.204944    0.274555
      6          6           0       -2.519508    0.714147    0.731463
      7          1           0       -2.377686    0.516420    1.797083
      8          1           0       -3.595710    0.730052    0.531411
      9          1           0       -2.113606    1.701149    0.500664
     10          1           0       -2.170971   -1.953737    0.022238
     11          1           0       -1.838379   -0.333888   -1.756337
 ---------------------------------------------------------------------

 SCF Done:  E(RHF) =  -978.275567183     A.U. after    2 cycles

 The electronic state is 1-A.
 Alpha  occ. eigenvalues --  -99.91141 -76.26109 -21.11583 -21.09042 -11.57766
 Alpha  occ. eigenvalues --  -11.36864 -10.48496  -9.68359  -9.67568  -9.67473
 Alpha  occ. eigenvalues --   -5.59729  -2.25598  -2.22624  -2.21616  -1.85091
 Alpha  occ. eigenvalues --   -1.69355  -1.32689  -1.06186  -0.87504  -0.73578
 Alpha  occ. eigenvalues --   -0.68025  -0.63891  -0.61233  -0.58292  -0.57579
 Alpha  occ. eigenvalues --   -0.51748  -0.51159  -0.49057  -0.45895  -0.42725
 Alpha  occ. eigenvalues --   -0.37145  -0.34585
 Alpha virt. eigenvalues --    0.03132   0.04851   0.05193   0.05956   0.07211
 Alpha virt. eigenvalues --    0.07556   0.07757   0.08025   0.09431   0.10304
 Alpha virt. eigenvalues --    0.12145   0.12924   0.13274   0.13408   0.14781

 Mulliken charges:
               1
     1  O   -2.626925
     2  C    3.550316
     3  Si   6.107628
     4  O   -2.112795
     5  Cl  -0.079846
     6  C   -5.064261
     7  H    1.307451
     8  H    1.278424
     9  H    1.358613
    10  H   -1.870006
    11  H   -1.848601
 Sum of Mulliken charges =  -0.00000

 Dipole moment (field-independent basis, Debye):
    X=             -3.2842    Y=              0.1720    Z=              0.2452  Tot=              3.2979

 Test job not archived.
 1\1\GINC-SE334\SP\RHF\Aug-CC-pVDZ\C2H5Cl1O2Si1\OHZDE\09-Apr-2025\0\\#t
  hf aug-cc-pvdz iop(5/13=1,5/36=2,99/5=2) pseudo=read geom=check guess
 =(read,tcheck) scf=(maxcycle=1)\\title\\0,1\O,0,-0.029318,-0.707442,0.
 048743\C,0,0.812533,0.280334,-0.186437\Si,0,-1.709622,-0.595218,-0.310
 402\O,0,0.571803,1.356221,-0.634621\Cl,0,2.466649,-0.204944,0.274555\C
 ,0,-2.519508,0.714147,0.731463\H,0,-2.377686,0.51642,1.797083\H,0,-3.5
 9571,0.730052,0.531411\H,0,-2.113606,1.701149,0.500664\H,0,-2.170971,-
 1.953737,0.022238\H,0,-1.838379,-0.333888,-1.756337\\Version=ES64L-G16

 Normal termination of Gaussian 16 at Wed Apr  9 00:06:38 2025.
