 Gaussian 16, Revision C.01,

 ----------------------------------------------------------------------
 #t hf aug-cc-pvdz symm=none int=(grid=ultrafine) guess=(read,tcheck) s
 table=opt
 ----------------------------------------------------------------------
 -----
 title
 -----
 Symbolic Z-matrix:
 Charge =  0 Multiplicity = 2

 SCF Done:  E(UHF) =  -270.599627189     A.U. after   16 cycles

 1\1\GINC-SE453\Stability\UHF\Aug-CC-pVDZ\C5H11O1\OHZDE\08-Apr-2025\0\\
 #t hf aug-cc-pvdz symm=none int=(grid=ultrafine) guess=(read,tcheck) s
 table=opt\\title\\0,2\O,0,2.103957,0.021159,0.000003\C,0,0.963383,0.76
 8386,-0.000206\C,0,-0.369358,-0.011504,0.\C,0,-1.526791,0.999726,-0.00
 0301\H,0,-1.495093,1.643795,0.884748\H,0,-2.491711,0.485088,-0.000155\
 H,0,-1.495084,1.643277,-0.885727\C,0,-0.428341,-0.891539,1.259789\H,0,
 -0.416274,-0.282507,2.169819\H,0,0.429201,-1.568034,1.29485\H,0,-1.340
 773,-1.494428,1.272911\C,0,-0.428318,-0.892271,-1.259276\H,0,-0.416263

 Normal termination of Gaussian 16 at Tue Apr  8 22:57:11 2025.
 Gaussian 16:  ES64L-G16RevC.01  3-Jul-2019

 ----------------------------------------------------------------------
 #t hf aug-cc-pvdz iop(5/13=1,5/36=2,99/5=2) pseudo=read geom=check gue
 ss=(read,tcheck) scf=(maxcycle=1)
 ----------------------------------------------------------------------
 -----
 title
 -----
 Structure from the checkpoint file:  "BDE49_expt_1849_mol2.chk"
 Charge =  0 Multiplicity = 2

                         Standard orientation:
 ---------------------------------------------------------------------
 Center     Atomic      Atomic             Coordinates (Angstroms)
 Number     Number       Type             X           Y           Z
 ---------------------------------------------------------------------
      1          8           0        2.103957    0.021159    0.000003
      2          6           0        0.963383    0.768386   -0.000206
      3          6           0       -0.369358   -0.011504    0.000000
      4          6           0       -1.526791    0.999726   -0.000301
      5          1           0       -1.495093    1.643795    0.884748
      6          1           0       -2.491711    0.485088   -0.000155
      7          1           0       -1.495084    1.643277   -0.885727
      8          6           0       -0.428341   -0.891539    1.259789
      9          1           0       -0.416274   -0.282507    2.169819
     10          1           0        0.429201   -1.568034    1.294850
     11          1           0       -1.340773   -1.494428    1.272911
     12          6           0       -0.428318   -0.892271   -1.259276
     13          1           0       -0.416263   -0.283766   -2.169659
     14          1           0       -1.340735   -1.495189   -1.272050
     15          1           0        0.429241   -1.568764   -1.293942
     16          1           0        1.021212    1.456951   -0.869190
     17          1           0        1.021175    1.457514    0.868329
 ---------------------------------------------------------------------

 SCF Done:  E(UHF) =  -271.876458829     A.U. after    2 cycles

 The electronic state is 2-A.
 Alpha  occ. eigenvalues --  -21.10787 -11.43405 -11.40518 -11.38794 -11.38431
 Alpha  occ. eigenvalues --  -11.34839  -1.72127  -1.27168  -1.00784  -1.00474
 Alpha  occ. eigenvalues --   -0.95608  -0.77581  -0.66189  -0.64119  -0.60417
 Alpha  occ. eigenvalues --   -0.58648  -0.55233  -0.52706  -0.51254  -0.51081
 Alpha  occ. eigenvalues --   -0.45939  -0.43418  -0.42400  -0.39117  -0.32329
 Alpha virt. eigenvalues --    0.03824   0.05118   0.05417   0.05538   0.05858
 Alpha virt. eigenvalues --    0.05962   0.06634   0.06837   0.07430   0.08930
 Alpha virt. eigenvalues --    0.09342   0.11999   0.12720   0.13519   0.13741

  Beta  occ. eigenvalues --  -21.07069 -11.43673 -11.40528 -11.38798 -11.38432
  Beta  occ. eigenvalues --  -11.34862  -1.60646  -1.26509  -1.00766  -1.00456
  Beta  occ. eigenvalues --   -0.93866  -0.77114  -0.63940  -0.63401  -0.60140
  Beta  occ. eigenvalues --   -0.56883  -0.54885  -0.52005  -0.51208  -0.50030
  Beta  occ. eigenvalues --   -0.45074  -0.42624  -0.41736  -0.29557
  Beta virt. eigenvalues --    0.03844   0.05032   0.05422   0.05543   0.05859
  Beta virt. eigenvalues --    0.05960   0.06638   0.06725   0.07450   0.08918
  Beta virt. eigenvalues --    0.09329   0.11670   0.12036   0.12788   0.13536

 Mulliken charges and spin densities:
               1          2
     1  O   -2.137590   1.148392
     2  C   -0.545850  -0.352692
     3  C    2.126674   0.045011
     4  C   -4.296962   0.003766
     5  H    1.256567   0.000397
     6  H    1.157087  -0.000128
     7  H    1.256560   0.000398
     8  C   -4.483392   0.003605
     9  H    1.190960   0.000653
    10  H    1.283673  -0.008008
    11  H    1.259455  -0.000253
    12  C   -4.483438   0.003609
    13  H    1.190957   0.000653
    14  H    1.259456  -0.000253
    15  H    1.283688  -0.008008
    16  H    1.341080   0.081442
    17  H    1.341075   0.081416
 Sum of Mulliken charges =   0.00000   1.00000

 Dipole moment (field-independent basis, Debye):
    X=             -0.7485    Y=              0.3643    Z=             -0.0001  Tot=              0.8325
                          Isotropic Fermi Contact Couplings
        Atom                 a.u.       MegaHertz       Gauss      10(-4) cm-1
     1  O(17)              0.19357    -117.34038     -41.86997     -39.14054
     2  C(13)             -0.03144     -35.34702     -12.61269     -11.79050
     3  C(13)             -0.00230      -2.58028      -0.92071      -0.86069
     4  C(13)             -0.00148      -1.66327      -0.59350      -0.55481
     5  H(1)               0.00003       0.15133       0.05400       0.05048
     6  H(1)              -0.00017      -0.77325      -0.27591      -0.25793
     7  H(1)               0.00003       0.15124       0.05396       0.05045
     8  C(13)             -0.00132      -1.48403      -0.52954      -0.49502

 Normal termination of Gaussian 16 at Tue Apr  8 22:57:16 2025.
