 Gaussian 16, Revision C.01,

 ----------------------------------------------------------------------
 #t hf aug-cc-pvdz symm=none int=(grid=ultrafine) guess=(read,tcheck) s
 table=(opt,rrhf)
 ----------------------------------------------------------------------
 -----
 title
 -----
 Symbolic Z-matrix:
 Charge =  0 Multiplicity = 1

 SCF Done:  E(RHF) =  -611.909313186     A.U. after   15 cycles
 Normal termination of Gaussian 16 at Wed Apr  9 00:01:01 2025.
 Gaussian 16:  ES64L-G16RevC.01  3-Jul-2019

 ----------------------------------------------------------------------
 #t hf aug-cc-pvdz iop(5/13=1,5/36=2,99/5=2) pseudo=read geom=check gue
 ss=(read,tcheck) scf=(maxcycle=1)
 ----------------------------------------------------------------------
 -----
 title
 -----
 Structure from the checkpoint file:  "BDE49_nonexpt_2105_mol1.chk"
 Charge =  0 Multiplicity = 1

                         Standard orientation:
 ---------------------------------------------------------------------
 Center     Atomic      Atomic             Coordinates (Angstroms)
 Number     Number       Type             X           Y           Z
 ---------------------------------------------------------------------
      1         14           0       -0.079417    0.614619    0.588296
      2          7           0        1.249699   -0.580556   -0.009382
      3          8           0        2.351596   -0.092869   -0.252611
      4          8           0        0.984613   -1.776558   -0.114399
      5          6           0       -1.698180   -0.314957    0.639848
      6          6           0       -2.253276   -0.769247   -0.722616
      7          1           0       -2.420227    0.335575    1.151018
      8          1           0       -1.555452   -1.179849    1.295868
      9          1           0       -1.558991   -1.451713   -1.216669
     10          1           0       -2.433077    0.077086   -1.391268
     11          6           0        0.009294    2.063419   -0.578550
     12          1           0       -0.659671    2.862454   -0.245480
     13          1           0       -0.277625    1.779048   -1.593856
     14          1           0        1.028115    2.454129   -0.607076
     15          1           0       -3.203437   -1.295097   -0.599398
     16          1           0        0.407606    0.957723    1.940382
 ---------------------------------------------------------------------

 SCF Done:  E(RHF) =  -613.539328904     A.U. after    2 cycles

 The electronic state is 1-A.
 Alpha  occ. eigenvalues --  -76.25622 -21.08598 -21.08456 -15.94998 -11.41282
 Alpha  occ. eigenvalues --  -11.37517 -11.36654  -5.59606  -2.24105  -2.23625
 Alpha  occ. eigenvalues --   -2.22193  -1.96250  -1.67090  -1.17223  -1.07003
 Alpha  occ. eigenvalues --   -0.98063  -0.90698  -0.72871  -0.65225  -0.63949
 Alpha  occ. eigenvalues --   -0.61808  -0.60317  -0.58900  -0.57423  -0.56974
 Alpha  occ. eigenvalues --   -0.51727  -0.50601  -0.45778  -0.41204  -0.31203
 Alpha  occ. eigenvalues --   -0.30871  -0.30237
 Alpha virt. eigenvalues --    0.02621   0.04726   0.04828   0.05514   0.05919
 Alpha virt. eigenvalues --    0.06196   0.06934   0.07573   0.08008   0.08571
 Alpha virt. eigenvalues --    0.08950   0.10703   0.11015   0.12764   0.13681

 Mulliken charges:
               1
     1  Si   6.509404
     2  N    3.201532
     3  O   -2.407220
     4  O   -2.160461
     5  C   -4.360946
     6  C   -3.651473
     7  H    1.332141
     8  H    1.433319
     9  H    1.356438
    10  H    1.376143
    11  C   -5.237646
    12  H    1.280214
    13  H    1.316038
    14  H    1.333378
    15  H    1.162471
    16  H   -2.483332
 Sum of Mulliken charges =  -0.00000

 Dipole moment (field-independent basis, Debye):
    X=             -2.8775    Y=              1.7628    Z=              0.1545  Tot=              3.3780

 Test job not archived.
 1\1\GINC-SE080\SP\RHF\Aug-CC-pVDZ\C3H9N1O2Si1\OHZDE\09-Apr-2025\0\\#t
 hf aug-cc-pvdz iop(5/13=1,5/36=2,99/5=2) pseudo=read geom=check guess=
 (read,tcheck) scf=(maxcycle=1)\\title\\0,1\Si,0,0.079417,0.614619,-0.5
 88296\N,0,-1.249699,-0.580556,0.009382\O,0,-2.351596,-0.092869,0.25261
 1\O,0,-0.984613,-1.776558,0.114399\C,0,1.69818,-0.314957,-0.639848\C,0
 ,2.253276,-0.769247,0.722616\H,0,2.420227,0.335575,-1.151018\H,0,1.555
 452,-1.179849,-1.295868\H,0,1.558991,-1.451713,1.216669\H,0,2.433077,0
 .077086,1.391268\C,0,-0.009294,2.063419,0.57855\H,0,0.659671,2.862454,

 Normal termination of Gaussian 16 at Wed Apr  9 00:01:07 2025.
