 Gaussian 16, Revision C.01,

 ----------------------------------------------------------------------
 #t hf aug-cc-pvdz symm=none int=(grid=ultrafine) guess=(read,tcheck) s
 table=(opt,rrhf)
 ----------------------------------------------------------------------
 -----
 title
 -----
 Symbolic Z-matrix:
 Charge =  0 Multiplicity = 1

 SCF Done:  E(RHF) =  -405.184691719     A.U. after   11 cycles
 Normal termination of Gaussian 16 at Tue Apr  8 23:59:22 2025.
 Gaussian 16:  ES64L-G16RevC.01  3-Jul-2019

 ----------------------------------------------------------------------
 #t hf aug-cc-pvdz iop(5/13=1,5/36=2,99/5=2) pseudo=read geom=check gue
 ss=(read,tcheck) scf=(maxcycle=1)
 ----------------------------------------------------------------------
 -----
 title
 -----
 Structure from the checkpoint file:  "BDE49_nonexpt_2084_mol1.chk"
 Charge =  0 Multiplicity = 1

                         Standard orientation:
 ---------------------------------------------------------------------
 Center     Atomic      Atomic             Coordinates (Angstroms)
 Number     Number       Type             X           Y           Z
 ---------------------------------------------------------------------
      1         14           0       -1.066109    0.088766   -0.000000
      2          8           0        0.451077   -0.552576   -0.000000
      3          6           0        1.656901    0.200033    0.000001
      4          1           0        2.491232   -0.502976    0.000001
      5          1           0        1.733494    0.834065    0.891528
      6          1           0        1.733494    0.834065   -0.891527
      7          1           0       -1.996274   -1.056009   -0.000002
      8          1           0       -1.293226    0.934274   -1.199934
      9          1           0       -1.293227    0.934271    1.199935
 ---------------------------------------------------------------------

 SCF Done:  E(RHF) =  -405.869142107     A.U. after    2 cycles

 The electronic state is 1-A.
 Alpha  occ. eigenvalues --  -76.23312 -21.04435 -11.40985  -5.56952  -2.23689
 Alpha  occ. eigenvalues --   -2.18683  -2.18335  -1.69444  -0.98634  -0.74955
 Alpha  occ. eigenvalues --   -0.61069  -0.61005  -0.52941  -0.48286  -0.47331
 Alpha  occ. eigenvalues --   -0.36456  -0.34783
 Alpha virt. eigenvalues --    0.03464   0.05109   0.06157   0.06471   0.06823
 Alpha virt. eigenvalues --    0.07016   0.08103   0.09582   0.09700   0.13465
 Alpha virt. eigenvalues --    0.14488   0.16171   0.16862   0.17119   0.18371

 Mulliken charges:
               1
     1  Si   6.498896
     2  O   -2.930898
     3  C   -2.482725
     4  H    1.273785
     5  H    1.312106
     6  H    1.312106
     7  H   -1.624267
     8  H   -1.679501
     9  H   -1.679502
 Sum of Mulliken charges =  -0.00000

 Dipole moment (field-independent basis, Debye):
    X=              1.0256    Y=              0.0325    Z=              0.0000  Tot=              1.0261

 Test job not archived.
 1\1\GINC-SE457\SP\RHF\Aug-CC-pVDZ\C1H6O1Si1\OHZDE\08-Apr-2025\0\\#t hf
  aug-cc-pvdz iop(5/13=1,5/36=2,99/5=2) pseudo=read geom=check guess=(r
 ead,tcheck) scf=(maxcycle=1)\\title\\0,1\Si,0,-1.066109,0.088766,0.\O,
 0,0.451077,-0.552576,0.\C,0,1.656901,0.200033,0.000001\H,0,2.491232,-0
 .502976,0.000001\H,0,1.733494,0.834065,0.891528\H,0,1.733494,0.834065,
 -0.891527\H,0,-1.996275,-1.056009,-0.000002\H,0,-1.293226,0.934274,-1.
 199934\H,0,-1.293227,0.934271,1.199935\\Version=ES64L-G16RevC.01\State
 =1-A\HF=-405.8691421\RMSD=7.616e-02\Dipole=0.4034991,0.0127858,0.00000

 Normal termination of Gaussian 16 at Tue Apr  8 23:59:25 2025.
