 Gaussian 16, Revision C.01,

 ----------------------------------------------------------------------
 #t hf aug-cc-pvdz symm=none int=(grid=ultrafine) guess=(read,tcheck) s
 table=(opt,rrhf)
 ----------------------------------------------------------------------
 -----
 title
 -----
 Symbolic Z-matrix:
 Charge =  0 Multiplicity = 1

 SCF Done:  E(RHF) =  -311.411408392     A.U. after   13 cycles
 Normal termination of Gaussian 16 at Wed Apr  9 00:37:55 2025.
 Gaussian 16:  ES64L-G16RevC.01  3-Jul-2019

 ----------------------------------------------------------------------
 #t hf aug-cc-pvdz iop(5/13=1,5/36=2,99/5=2) pseudo=read geom=check gue
 ss=(read,tcheck) scf=(maxcycle=1)
 ----------------------------------------------------------------------
 -----
 title
 -----
 Structure from the checkpoint file:  "BDE49_nonexpt_553_mol1.chk"
 Charge =  0 Multiplicity = 1

                         Standard orientation:
 ---------------------------------------------------------------------
 Center     Atomic      Atomic             Coordinates (Angstroms)
 Number     Number       Type             X           Y           Z
 ---------------------------------------------------------------------
      1          6           0        1.301897    0.092950    0.000004
      2          5           0       -1.259447   -0.087198   -0.000008
      3          6           0       -2.425783   -1.151411    0.000003
      4          1           0       -3.073951   -0.997549   -0.871568
      5          1           0       -3.073945   -0.997540    0.871576
      6          1           0       -2.108107   -2.199330    0.000007
      7          8           0        1.377737    1.300035   -0.000003
      8          6           0        2.530735   -0.803311    0.000002
      9          6           0       -1.560184    1.454056   -0.000001
     10          1           0       -1.101822    1.944328   -0.865198
     11          1           0       -1.101816    1.944322    0.865197
     12          1           0       -2.631634    1.671532    0.000003
     13          1           0        2.537993   -1.448832   -0.883509
     14          1           0        2.537994   -1.448835    0.883510
     15          1           0        3.422710   -0.180904    0.000003
     16          7           0        0.085194   -0.599868   -0.000001
     17          1           0        0.191571   -1.606111    0.000001
 ---------------------------------------------------------------------

 SCF Done:  E(RHF) =  -312.880126913     A.U. after    2 cycles

 The electronic state is 1-A.
 Alpha  occ. eigenvalues --  -21.03361 -15.73612 -11.50470 -11.39463 -11.33442
 Alpha  occ. eigenvalues --  -11.31809  -7.60226  -1.71098  -1.38603  -1.13324
 Alpha  occ. eigenvalues --   -1.06493  -1.00302  -0.81699  -0.72780  -0.65224
 Alpha  occ. eigenvalues --   -0.61390  -0.59106  -0.56583  -0.55547  -0.52727
 Alpha  occ. eigenvalues --   -0.52349  -0.48879  -0.48527  -0.44841  -0.40407
 Alpha  occ. eigenvalues --   -0.34900  -0.28466
 Alpha virt. eigenvalues --    0.02795   0.03828   0.04598   0.04702   0.06341
 Alpha virt. eigenvalues --    0.06464   0.07249   0.07669   0.08645   0.08731
 Alpha virt. eigenvalues --    0.09072   0.09225   0.09723   0.10083   0.12716

 Mulliken charges:
               1
     1  C    6.240988
     2  B    6.731834
     3  C   -6.067708
     4  H    0.827264
     5  H    0.827279
     6  H    1.283982
     7  O   -3.259125
     8  C   -4.498605
     9  C   -6.640182
    10  H    1.112130
    11  H    1.112132
    12  H    0.872432
    13  H    1.270537
    14  H    1.270539
    15  H    1.194385
    16  N   -3.510541
    17  H    1.232661
 Sum of Mulliken charges =  -0.00000

 Dipole moment (field-independent basis, Debye):
    X=              0.1652    Y=             -1.8915    Z=             -0.0000  Tot=              1.8987

 Test job not archived.
 1\1\GINC-SE162\SP\RHF\Aug-CC-pVDZ\C4H10B1N1O1\OHZDE\09-Apr-2025\0\\#t
 hf aug-cc-pvdz iop(5/13=1,5/36=2,99/5=2) pseudo=read geom=check guess=
 (read,tcheck) scf=(maxcycle=1)\\title\\0,1\C,0,1.301897,0.09295,0.0000
 04\B,0,-1.259447,-0.087198,-0.000008\C,0,-2.425783,-1.151411,0.000003\
 H,0,-3.073951,-0.997549,-0.871568\H,0,-3.073945,-0.99754,0.871576\H,0,
 -2.108107,-2.19933,0.000007\O,0,1.377737,1.300035,-0.000003\C,0,2.5307
 35,-0.803311,0.000002\C,0,-1.560184,1.454056,-0.000001\H,0,-1.101822,1
 .944328,-0.865198\H,0,-1.101816,1.944322,0.865197\H,0,-2.631634,1.6715

 Normal termination of Gaussian 16 at Wed Apr  9 00:38:01 2025.
