 Gaussian 16, Revision C.01,

 ----------------------------------------------------------------------
 #t hf aug-cc-pvdz symm=none int=(grid=ultrafine) guess=(read,tcheck) s
 table=(opt,rrhf)
 ----------------------------------------------------------------------
 -----
 title
 -----
 Symbolic Z-matrix:
 Charge =  0 Multiplicity = 1

 SCF Done:  E(RHF) =  -612.086313167     A.U. after   16 cycles
 Normal termination of Gaussian 16 at Tue Apr  8 22:43:10 2025.
 Gaussian 16:  ES64L-G16RevC.01  3-Jul-2019

 ----------------------------------------------------------------------
 #t hf aug-cc-pvdz iop(5/13=1,5/36=2,99/5=2) pseudo=read geom=check gue
 ss=(read,tcheck) scf=(maxcycle=1)
 ----------------------------------------------------------------------
 -----
 title
 -----
 Structure from the checkpoint file:  "BDE49_expt_1097_mol1.chk"
 Charge =  0 Multiplicity = 1

                         Standard orientation:
 ---------------------------------------------------------------------
 Center     Atomic      Atomic             Coordinates (Angstroms)
 Number     Number       Type             X           Y           Z
 ---------------------------------------------------------------------
      1          6           0        3.278489   -1.550364    0.140694
      2          6           0        2.249359   -0.984774    0.891547
      3          6           0        3.799779   -0.867429   -0.954665
      4          6           0        3.287771    0.384880   -1.290911
      5          6           0        2.261667    0.949425   -0.538978
      6          6           0        1.728500    0.269489    0.562341
      7          1           0        1.854857   -1.521367    1.748836
      8          1           0        3.689525    0.925258   -2.140850
      9          1           0        1.867093    1.924191   -0.803523
     10          1           0        3.671928   -2.523324    0.413606
     11          1           0        4.599498   -1.305617   -1.540926
     12          6           0       -0.566417    1.347259    0.542947
     13          8           0       -0.618684    2.494474    0.141549
     14          6           0       -1.645164    0.366205    0.194106
     15          6           0        0.624217    0.902029    1.396066
     16          1           0        0.997705    1.809201    1.877167
     17          1           0        0.310479    0.211742    2.181597
     18          6           0       -1.596187   -0.986177    0.553931
     19          6           0       -2.749062    0.837711   -0.530708
     20          6           0       -3.782283   -0.020594   -0.880847
     21          6           0       -2.629727   -1.848140    0.196976
     22          6           0       -3.724425   -1.366963   -0.517243
     23          1           0       -4.633152    0.355160   -1.437745
     24          1           0       -4.530119   -2.038748   -0.791734
     25          1           0       -2.769676    1.884909   -0.805550
     26          1           0       -0.747998   -1.377938    1.099885
     27          1           0       -2.579772   -2.894594    0.475323
 ---------------------------------------------------------------------

 SCF Done:  E(RHF) =  -614.969049572     A.U. after    2 cycles

 The electronic state is 1-A.
 Alpha  occ. eigenvalues --  -21.04801 -11.53456 -11.52213 -11.50949 -11.45648
 Alpha  occ. eigenvalues --  -11.44794 -11.43889 -11.43698 -11.42479 -11.42160
 Alpha  occ. eigenvalues --  -11.41704 -11.41091 -11.40766 -11.37587 -11.36470
 Alpha  occ. eigenvalues --   -1.71017  -1.36054  -1.34191  -1.17210  -1.11400
 Alpha  occ. eigenvalues --   -1.10130  -1.09249  -1.02607  -0.90693  -0.87246
 Alpha  occ. eigenvalues --   -0.86650  -0.84121  -0.77586  -0.71992  -0.70492
 Alpha  occ. eigenvalues --   -0.65525  -0.64741  -0.63187  -0.60194  -0.58903
 Alpha  occ. eigenvalues --   -0.58230  -0.57895  -0.55793  -0.54182  -0.52137
 Alpha  occ. eigenvalues --   -0.50245  -0.49098  -0.46082  -0.45622  -0.44885
 Alpha  occ. eigenvalues --   -0.43893  -0.42088  -0.34057  -0.33177  -0.32826
 Alpha  occ. eigenvalues --   -0.32134  -0.27871
 Alpha virt. eigenvalues --    0.03192   0.04464   0.04642   0.05002   0.05216
 Alpha virt. eigenvalues --    0.05728   0.06254   0.06649   0.06927   0.07578
 Alpha virt. eigenvalues --    0.08058   0.08405   0.08946   0.10051   0.10772

 Mulliken charges:
               1
     1  C   -1.581056
     2  C   -2.617754
     3  C   -3.080368
     4  C   -1.903198
     5  C   -2.846188
     6  C    5.535924
     7  H    1.952918
     8  H    1.557561
     9  H    1.936726
    10  H    1.512325
    11  H    1.571437
    12  C    5.194203
    13  O   -4.293163
    14  C    3.253322
    15  C   -6.445791
    16  H    0.933087
    17  H    1.372508
    18  C    0.672069
    19  C   -3.691692
    20  C   -1.487148
    21  C   -2.836902
    22  C   -3.380233
    23  H    1.478414
    24  H    1.544181
    25  H    1.816203
    26  H    2.364799
    27  H    1.467814
 Sum of Mulliken charges =  -0.00000

 Dipole moment (field-independent basis, Debye):
    X=             -0.2226    Y=             -1.3591    Z=             -0.0782  Tot=              1.3795

 Test job not archived.
 1\1\GINC-SE368\SP\RHF\Aug-CC-pVDZ\C14H12O1\OHZDE\08-Apr-2025\0\\#t hf
 aug-cc-pvdz iop(5/13=1,5/36=2,99/5=2) pseudo=read geom=check guess=(re
 ad,tcheck) scf=(maxcycle=1)\\title\\0,1\C,0,-3.278489,-1.550364,-0.140
 694\C,0,-2.249359,-0.984774,-0.891547\C,0,-3.799779,-0.867429,0.954665
 \C,0,-3.287771,0.38488,1.290911\C,0,-2.261667,0.949425,0.538978\C,0,-1
 .7285,0.269489,-0.562341\H,0,-1.854857,-1.521367,-1.748836\H,0,-3.6895
 25,0.925258,2.14085\H,0,-1.867093,1.924191,0.803523\H,0,-3.671928,-2.5
 23324,-0.413606\H,0,-4.599498,-1.305617,1.540926\C,0,0.566417,1.347259

 Normal termination of Gaussian 16 at Tue Apr  8 22:43:33 2025.
