 Gaussian 16, Revision C.01,

 ----------------------------------------------------------------------
 #t hf aug-cc-pvdz symm=none int=(grid=ultrafine) guess=(read,tcheck) s
 table=(opt,rrhf)
 ----------------------------------------------------------------------
 -----
 title
 -----
 Symbolic Z-matrix:
 Charge =  0 Multiplicity = 1

 SCF Done:  E(RHF) =  -391.427601976     A.U. after   11 cycles
 Normal termination of Gaussian 16 at Wed Apr  9 00:47:54 2025.
 Gaussian 16:  ES64L-G16RevC.01  3-Jul-2019

 ----------------------------------------------------------------------
 #t hf aug-cc-pvdz iop(5/13=1,5/36=2,99/5=2) pseudo=read geom=check gue
 ss=(read,tcheck) scf=(maxcycle=1)
 ----------------------------------------------------------------------
 -----
 title
 -----
 Structure from the checkpoint file:  "BDE49_nonexpt_840_mol1.chk"
 Charge =  0 Multiplicity = 1

                         Standard orientation:
 ---------------------------------------------------------------------
 Center     Atomic      Atomic             Coordinates (Angstroms)
 Number     Number       Type             X           Y           Z
 ---------------------------------------------------------------------
      1         14           0        1.171548   -0.064745   -0.000000
      2          5           0       -0.763372    0.554755    0.000004
      3          8           0       -1.746536   -0.374801   -0.000001
      4          1           0       -1.050026    1.721477   -0.000000
      5          1           0       -2.635026   -0.001126   -0.000003
      6          1           0        1.322118   -1.540775   -0.000004
      7          1           0        1.875204    0.475739    1.193773
      8          1           0        1.875201    0.475745   -1.193772
 ---------------------------------------------------------------------

 SCF Done:  E(RHF) =  -392.021639976     A.U. after    2 cycles

 The electronic state is 1-A.
 Alpha  occ. eigenvalues --  -76.19597 -21.07870  -7.63144  -5.53165  -2.15719
 Alpha  occ. eigenvalues --   -2.15221  -2.15119  -1.74792  -0.83090  -0.70693
 Alpha  occ. eigenvalues --   -0.63402  -0.46540  -0.46066  -0.43973  -0.43519
 Alpha  occ. eigenvalues --   -0.35423
 Alpha virt. eigenvalues --    0.02962   0.04426   0.04629   0.04833   0.08034
 Alpha virt. eigenvalues --    0.08659   0.08795   0.09849   0.10018   0.10496
 Alpha virt. eigenvalues --    0.11165   0.11409   0.13155   0.16562   0.17884

 Mulliken charges:
               1
     1  Si   5.716083
     2  B    3.030259
     3  O   -3.160315
     4  H   -2.084951
     5  H    1.243902
     6  H   -1.546278
     7  H   -1.599351
     8  H   -1.599350
 Sum of Mulliken charges =  -0.00000

 Dipole moment (field-independent basis, Debye):
    X=             -1.9698    Y=              0.1187    Z=             -0.0000  Tot=              1.9734

 Test job not archived.
 1\1\GINC-SE227\SP\RHF\Aug-CC-pVDZ\B1H5O1Si1\OHZDE\09-Apr-2025\0\\#t hf
  aug-cc-pvdz iop(5/13=1,5/36=2,99/5=2) pseudo=read geom=check guess=(r
 ead,tcheck) scf=(maxcycle=1)\\title\\0,1\Si,0,1.171548,-0.064745,0.\B,
 0,-0.763372,0.554755,0.000004\O,0,-1.746536,-0.374801,-0.000001\H,0,-1
 .050026,1.721477,0.\H,0,-2.635026,-0.001125,-0.000003\H,0,1.322117,-1.
 540775,-0.000004\H,0,1.875204,0.475739,1.193773\H,0,1.875201,0.475745,
 -1.193772\\Version=ES64L-G16RevC.01\State=1-A\HF=-392.02164\RMSD=1.297
 e-01\Dipole=-0.7749972,0.046709,-0.0000008\Quadrupole=1.9972975,-2.085

 Normal termination of Gaussian 16 at Wed Apr  9 00:47:56 2025.
