 Gaussian 16, Revision C.01,

 ----------------------------------------------------------------------
 #t hf aug-cc-pvdz symm=none int=(grid=ultrafine) guess=(read,tcheck) s
 table=(opt,rrhf)
 ----------------------------------------------------------------------
 -----
 title
 -----
 Symbolic Z-matrix:
 Charge =  0 Multiplicity = 1

 SCF Done:  E(RHF) =  -705.143019457     A.U. after   15 cycles
 Normal termination of Gaussian 16 at Tue Apr  8 23:38:57 2025.
 Gaussian 16:  ES64L-G16RevC.01  3-Jul-2019

 ----------------------------------------------------------------------
 #t hf aug-cc-pvdz iop(5/13=1,5/36=2,99/5=2) pseudo=read geom=check gue
 ss=(read,tcheck) scf=(maxcycle=1)
 ----------------------------------------------------------------------
 -----
 title
 -----
 Structure from the checkpoint file:  "BDE49_nonexpt_1526_mol1.chk"
 Charge =  0 Multiplicity = 1

                         Standard orientation:
 ---------------------------------------------------------------------
 Center     Atomic      Atomic             Coordinates (Angstroms)
 Number     Number       Type             X           Y           Z
 ---------------------------------------------------------------------
      1          7           0       -2.235428   -0.152461    0.134618
      2          6           0       -2.017778   -1.087432    1.231497
      3          6           0        0.555410   -0.024476   -0.504764
      4          6           0       -2.890617    1.086466    0.542982
      5          1           0       -3.060446    1.719364   -0.329543
      6          1           0       -3.862619    0.858402    0.994779
      7          1           0       -2.306241    1.661300    1.278710
      8          1           0       -1.694665   -2.054118    0.840422
      9          1           0       -2.956656   -1.238752    1.775356
     10          1           0       -1.259559   -0.739273    1.949105
     11          6           0        1.107214    1.225457   -0.186654
     12          6           0        1.340710   -1.167544   -0.302876
     13          6           0        2.634651   -1.066263    0.204759
     14          6           0        3.161157    0.181736    0.530952
     15          6           0        2.393518    1.328955    0.335998
     16          1           0        2.802145    2.303773    0.578890
     17          1           0        0.527017    2.126400   -0.361233
     18          1           0        3.229758   -1.961443    0.349579
     19          1           0        4.166680    0.260963    0.928894
     20          1           0        0.939406   -2.145559   -0.547533
     21         15           0       -1.162987   -0.074769   -1.201552
     22          1           0       -1.137606   -1.463701   -1.487840
 ---------------------------------------------------------------------

 SCF Done:  E(RHF) =  -707.124070019     A.U. after    2 cycles

 The electronic state is 1-A.
 Alpha  occ. eigenvalues -- -105.18840 -15.70733 -11.51474 -11.43169 -11.42789
 Alpha  occ. eigenvalues --  -11.40830 -11.40597 -11.38737 -11.38187 -11.36223
 Alpha  occ. eigenvalues --   -2.76488  -1.57442  -1.49643  -1.46720  -1.32807
 Alpha  occ. eigenvalues --   -1.28976  -1.09174  -1.07613  -1.03224  -0.88672
 Alpha  occ. eigenvalues --   -0.86250  -0.83172  -0.73031  -0.68506  -0.62920
 Alpha  occ. eigenvalues --   -0.62194  -0.58808  -0.58313  -0.57793  -0.56449
 Alpha  occ. eigenvalues --   -0.54258  -0.50402  -0.49581  -0.49230  -0.44670
 Alpha  occ. eigenvalues --   -0.34952  -0.33194  -0.33003  -0.26272  -0.23452
 Alpha  occ. eigenvalues --   -0.01321
 Alpha virt. eigenvalues --    0.03546   0.05077   0.05191   0.05398   0.06040
 Alpha virt. eigenvalues --    0.06655   0.06776   0.06931   0.07322   0.07903
 Alpha virt. eigenvalues --    0.08330   0.08942   0.10485   0.11210   0.11398

 Mulliken charges:
               1
     1  N   -1.911362
     2  C   -3.859213
     3  C    3.551542
     4  C   -3.573562
     5  H    1.439857
     6  H    1.343202
     7  H    1.449853
     8  H    1.567710
     9  H    1.333493
    10  H    1.573993
    11  C   -4.410822
    12  C   -4.187948
    13  C   -0.609300
    14  C   -2.585039
    15  C   -0.887169
    16  H    1.597287
    17  H    1.869320
    18  H    1.480410
    19  H    1.438322
    20  H    1.943966
    21  P    2.786345
    22  H   -1.350885
 Sum of Mulliken charges =  -0.00000

 Dipole moment (field-independent basis, Debye):
    X=              0.1992    Y=              0.0948    Z=              1.3798  Tot=              1.3973

 Test job not archived.
 1\1\GINC-SE453\SP\RHF\Aug-CC-pVDZ\C8H12N1P1\OHZDE\08-Apr-2025\0\\#t hf
  aug-cc-pvdz iop(5/13=1,5/36=2,99/5=2) pseudo=read geom=check guess=(r
 ead,tcheck) scf=(maxcycle=1)\\title\\0,1\N,0,-2.235428,-0.152461,0.134
 618\C,0,-2.017778,-1.087432,1.231497\C,0,0.55541,-0.024476,-0.504764\C
 ,0,-2.890617,1.086466,0.542982\H,0,-3.060446,1.719364,-0.329543\H,0,-3
 .862619,0.858402,0.994779\H,0,-2.306241,1.6613,1.27871\H,0,-1.694665,-
 2.054118,0.840422\H,0,-2.956656,-1.238752,1.775356\H,0,-1.259559,-0.73
 9273,1.949105\C,0,1.107214,1.225457,-0.186654\C,0,1.34071,-1.167544,-0

 Normal termination of Gaussian 16 at Tue Apr  8 23:39:11 2025.
