 Gaussian 16, Revision C.01,

 ----------------------------------------------------------------------
 #t hf aug-cc-pvdz symm=none int=(grid=ultrafine) guess=(read,tcheck) s
 table=(opt,rrhf)
 ----------------------------------------------------------------------
 -----
 title
 -----
 Symbolic Z-matrix:
 Charge =  0 Multiplicity = 1

 SCF Done:  E(RHF) =  -254.381829084     A.U. after   12 cycles
 Normal termination of Gaussian 16 at Wed Apr  9 00:29:46 2025.
 Gaussian 16:  ES64L-G16RevC.01  3-Jul-2019

 ----------------------------------------------------------------------
 #t hf aug-cc-pvdz iop(5/13=1,5/36=2,99/5=2) pseudo=read geom=check gue
 ss=(read,tcheck) scf=(maxcycle=1)
 ----------------------------------------------------------------------
 -----
 title
 -----
 Structure from the checkpoint file:  "BDE49_nonexpt_324_mol1.chk"
 Charge =  0 Multiplicity = 1

                         Standard orientation:
 ---------------------------------------------------------------------
 Center     Atomic      Atomic             Coordinates (Angstroms)
 Number     Number       Type             X           Y           Z
 ---------------------------------------------------------------------
      1          6           0       -0.768775   -0.792502    0.000005
      2          5           0        0.611291   -0.022640    0.000013
      3          8           0        0.730668    1.345421   -0.000005
      4          8           0        1.767038   -0.749833   -0.000001
      5          6           0       -2.032997    0.080315   -0.000004
      6          1           0       -0.777468   -1.464546    0.867210
      7          1           0       -0.777460   -1.464552   -0.867196
      8          1           0       -2.079216    0.725593    0.884423
      9          1           0       -2.945229   -0.521776   -0.000007
     10          1           0       -2.079207    0.725588   -0.884435
     11          1           0        2.545041   -0.181734   -0.000009
     12          1           0       -0.113928    1.803040   -0.000010
 ---------------------------------------------------------------------

 SCF Done:  E(RHF) =  -255.520450797     A.U. after    2 cycles

 The electronic state is 1-A.
 Alpha  occ. eigenvalues --  -21.05720 -21.04595 -11.39317 -11.33493  -7.62279
 Alpha  occ. eigenvalues --   -1.81178  -1.64705  -1.15756  -0.91639  -0.73056
 Alpha  occ. eigenvalues --   -0.63696  -0.61148  -0.60772  -0.51049  -0.49985
 Alpha  occ. eigenvalues --   -0.49369  -0.45053  -0.41401  -0.35889  -0.35882
 Alpha virt. eigenvalues --    0.03097   0.04550   0.04923   0.05062   0.06762
 Alpha virt. eigenvalues --    0.07366   0.07757   0.08358   0.08546   0.09555
 Alpha virt. eigenvalues --    0.10103   0.13955   0.15028   0.16506   0.16866

 Mulliken charges:
               1
     1  C   -4.545947
     2  B    7.672735
     3  O   -3.768203
     4  O   -4.042901
     5  C   -3.912538
     6  H    1.372392
     7  H    1.372367
     8  H    1.088360
     9  H    1.145296
    10  H    1.088365
    11  H    1.042622
    12  H    1.487452
 Sum of Mulliken charges =  -0.00000

 Dipole moment (field-independent basis, Debye):
    X=             -0.6999    Y=              0.6777    Z=              0.0000  Tot=              0.9743

 Test job not archived.
 1\1\GINC-SE247\SP\RHF\Aug-CC-pVDZ\C2H7B1O2\OHZDE\09-Apr-2025\0\\#t hf
 aug-cc-pvdz iop(5/13=1,5/36=2,99/5=2) pseudo=read geom=check guess=(re
 ad,tcheck) scf=(maxcycle=1)\\title\\0,1\C,0,-0.768775,-0.792502,0.0000
 05\B,0,0.611291,-0.02264,0.000013\O,0,0.730668,1.345421,-0.000005\O,0,
 1.767038,-0.749833,-0.000001\C,0,-2.032997,0.080316,-0.000004\H,0,-0.7
 77468,-1.464546,0.86721\H,0,-0.77746,-1.464552,-0.867196\H,0,-2.079216
 ,0.725594,0.884423\H,0,-2.945229,-0.521775,-0.000007\H,0,-2.079207,0.7
 25589,-0.884435\H,0,2.545041,-0.181734,-0.000009\H,0,-0.113927,1.80304

 Normal termination of Gaussian 16 at Wed Apr  9 00:29:49 2025.
