 Gaussian 16, Revision C.01,

 ----------------------------------------------------------------------
 #t hf aug-cc-pvdz symm=none int=(grid=ultrafine) guess=(read,tcheck) s
 table=(opt,rrhf)
 ----------------------------------------------------------------------
 -----
 title
 -----
 Symbolic Z-matrix:
 Charge =  0 Multiplicity = 1

 SCF Done:  E(RHF) =  -762.053622984     A.U. after   16 cycles
 Normal termination of Gaussian 16 at Tue Apr  8 23:07:18 2025.
 Gaussian 16:  ES64L-G16RevC.01  3-Jul-2019

 ----------------------------------------------------------------------
 #t hf aug-cc-pvdz iop(5/13=1,5/36=2,99/5=2) pseudo=read geom=check gue
 ss=(read,tcheck) scf=(maxcycle=1)
 ----------------------------------------------------------------------
 -----
 title
 -----
 Structure from the checkpoint file:  "BDE49_expt_1899_mol1.chk"
 Charge =  0 Multiplicity = 1

                         Standard orientation:
 ---------------------------------------------------------------------
 Center     Atomic      Atomic             Coordinates (Angstroms)
 Number     Number       Type             X           Y           Z
 ---------------------------------------------------------------------
      1          6           0        0.750024    0.208419   -0.373206
      2          8           0        0.078796    1.200365   -0.382116
      3          8           0        0.250992   -1.061958   -0.595883
      4          8           0       -1.152513   -1.037583   -0.893908
      5          6           0       -1.924548   -1.040292    0.263074
      6          8           0       -1.468052   -1.026663    1.364434
      7          6           0        2.217462    0.139671   -0.135897
      8          6           0        2.933545   -1.063462   -0.117371
      9          6           0        4.305255   -1.045320    0.111266
     10          6           0        4.965199    0.164675    0.320753
     11          6           0        4.252519    1.363246    0.303496
     12          6           0        2.881890    1.352835    0.076597
     13          1           0        2.307997    2.270717    0.060718
     14          1           0        2.419348   -2.001655   -0.276348
     15          1           0        4.859720   -1.976330    0.127351
     16          1           0        6.034654    0.173344    0.498777
     17          1           0        4.765249    2.303779    0.467809
     18          6           0       -3.380196   -1.051911   -0.144870
     19          6           0       -4.060568    0.342706   -0.065816
     20          1           0       -3.878431   -1.741884    0.541061
     21          1           0       -3.471588   -1.446302   -1.158978
     22          6           0       -3.474115    1.326364   -1.087166
     23          1           0       -2.424630    1.546511   -0.876542
     24          1           0       -4.028530    2.268680   -1.065884
     25          1           0       -3.534124    0.926544   -2.103722
     26          6           0       -4.046361    0.921223    1.354957
     27          1           0       -5.105974    0.155011   -0.339819
     28          1           0       -4.623105    1.849541    1.388453
     29          1           0       -3.029795    1.144407    1.686381
     30          1           0       -4.485214    0.225418    2.075636
 ---------------------------------------------------------------------

 SCF Done:  E(RHF) =  -765.493784340     A.U. after    2 cycles

 The electronic state is 1-A.
 Alpha  occ. eigenvalues --  -21.14679 -21.14330 -21.06668 -21.06494 -11.56238
 Alpha  occ. eigenvalues --  -11.54838 -11.53352 -11.45267 -11.45072 -11.44414
 Alpha  occ. eigenvalues --  -11.43198 -11.42390 -11.41231 -11.38272 -11.38034
 Alpha  occ. eigenvalues --  -11.35131  -2.02902  -1.75303  -1.70864  -1.51131
 Alpha  occ. eigenvalues --   -1.35407  -1.26050  -1.13021  -1.10808  -1.05878
 Alpha  occ. eigenvalues --   -0.99795  -0.92900  -0.88037  -0.84779  -0.80027
 Alpha  occ. eigenvalues --   -0.75016  -0.72212  -0.67839  -0.67707  -0.64205
 Alpha  occ. eigenvalues --   -0.63440  -0.62205  -0.60075  -0.59686  -0.59169
 Alpha  occ. eigenvalues --   -0.56153  -0.55617  -0.54512  -0.52856  -0.52257
 Alpha  occ. eigenvalues --   -0.50826  -0.48649  -0.48116  -0.46523  -0.45495
 Alpha  occ. eigenvalues --   -0.43991  -0.42676  -0.42315  -0.35815  -0.34954
 Alpha  occ. eigenvalues --   -0.34224  -0.33274  -0.30611  -0.29778
 Alpha virt. eigenvalues --    0.03126   0.04653   0.04940   0.05088   0.05449
 Alpha virt. eigenvalues --    0.05741   0.05928   0.06093   0.06107   0.07354
 Alpha virt. eigenvalues --    0.07528   0.08424   0.08975   0.09229   0.09571

 Mulliken charges:
               1
     1  C    3.905225
     2  O   -4.074172
     3  O   -2.182881
     4  O   -2.436294
     5  C    7.173215
     6  O   -3.624798
     7  C    4.253581
     8  C   -1.064557
     9  C   -1.409287
    10  C   -3.145619
    11  C   -1.327314
    12  C   -3.004547
    13  H    1.730356
    14  H    2.018136
    15  H    1.493985
    16  H    1.542566
    17  H    1.489759
    18  C   -4.005294
    19  C   -1.174108
    20  H    1.262810
    21  H    1.482306
    22  C   -4.292972
    23  H    1.717807
    24  H    1.168146
    25  H    1.272101
    26  C   -4.179784
    27  H    1.580470
    28  H    1.195930
    29  H    1.403581
    30  H    1.231652
 Sum of Mulliken charges =  -0.00000

 Dipole moment (field-independent basis, Debye):
    X=              0.7356    Y=             -0.2753    Z=             -0.4690  Tot=              0.9148

 Test job not archived.
 1\1\GINC-SE150\SP\RHF\Aug-CC-pVDZ\C12H14O4\OHZDE\08-Apr-2025\0\\#t hf
 aug-cc-pvdz iop(5/13=1,5/36=2,99/5=2) pseudo=read geom=check guess=(re
 ad,tcheck) scf=(maxcycle=1)\\title\\0,1\C,0,0.750024,0.208419,-0.37320
 6\O,0,0.078796,1.200365,-0.382116\O,0,0.250992,-1.061958,-0.595883\O,0
 ,-1.152513,-1.037583,-0.893908\C,0,-1.924548,-1.040292,0.263074\O,0,-1
 .468052,-1.026663,1.364434\C,0,2.217462,0.139671,-0.135897\C,0,2.93354
 5,-1.063462,-0.117371\C,0,4.305255,-1.04532,0.111266\C,0,4.965199,0.16
 4675,0.320753\C,0,4.252519,1.363246,0.303496\C,0,2.88189,1.352835,0.07

 Normal termination of Gaussian 16 at Tue Apr  8 23:07:52 2025.
