 Gaussian 16, Revision C.01,

 ----------------------------------------------------------------------
 #t hf aug-cc-pvdz symm=none int=(grid=ultrafine) guess=(read,tcheck) s
 table=(opt,rrhf)
 ----------------------------------------------------------------------
 -----
 title
 -----
 Symbolic Z-matrix:
 Charge =  0 Multiplicity = 1

 SCF Done:  E(RHF) =  -2519.58939620     A.U. after   12 cycles
 Normal termination of Gaussian 16 at Tue Apr  8 23:00:42 2025.
 Gaussian 16:  ES64L-G16RevC.01  3-Jul-2019

 ----------------------------------------------------------------------
 #t hf aug-cc-pvdz iop(5/13=1,5/36=2,99/5=2) pseudo=read geom=check gue
 ss=(read,tcheck) scf=(maxcycle=1)
 ----------------------------------------------------------------------
 -----
 title
 -----
 Structure from the checkpoint file:  "BDE49_expt_1949_mol1.chk"
 Charge =  0 Multiplicity = 1

                         Standard orientation:
 ---------------------------------------------------------------------
 Center     Atomic      Atomic             Coordinates (Angstroms)
 Number     Number       Type             X           Y           Z
 ---------------------------------------------------------------------
      1         15           0        0.535608    1.016277   -0.000465
      2         15           0       -0.535608   -1.016277   -0.000465
      3         17           0       -0.535608    1.792345    1.625501
      4         17           0       -0.537043    1.793172   -1.625090
      5         17           0        0.535608   -1.792345    1.625501
      6         17           0        0.537043   -1.793172   -1.625090
 ---------------------------------------------------------------------

 SCF Done:  E(RHF) =  -2520.92390157     A.U. after    2 cycles

 The electronic state is 1-A.
 Alpha  occ. eigenvalues -- -105.30387-105.29638 -99.92271 -99.92269 -99.92267
 Alpha  occ. eigenvalues --  -99.92262 -10.49592 -10.49582 -10.49546 -10.49525
 Alpha  occ. eigenvalues --   -9.69423  -9.69396  -9.69352  -9.69319  -9.68740
 Alpha  occ. eigenvalues --   -9.68730  -9.68680  -9.68650  -9.68624  -9.68622
 Alpha  occ. eigenvalues --   -9.68619  -9.68608  -2.88292  -2.87619  -1.61737
 Alpha  occ. eigenvalues --   -1.57401  -1.56387  -1.55673  -1.54739  -1.41439
 Alpha  occ. eigenvalues --   -1.28232  -1.26432  -1.24565  -1.23826  -0.80033
 Alpha  occ. eigenvalues --   -0.69078  -0.58885  -0.57644  -0.57054  -0.56912
 Alpha  occ. eigenvalues --   -0.55885  -0.55759  -0.54289  -0.52303  -0.47551
 Alpha  occ. eigenvalues --   -0.47220  -0.30466  -0.20554   0.03092
 Alpha virt. eigenvalues --    0.06607   0.07271   0.07392   0.08396   0.10252
 Alpha virt. eigenvalues --    0.11116   0.11752   0.12926   0.13115   0.13529
 Alpha virt. eigenvalues --    0.13734   0.14046   0.14078   0.15606   0.16056

 Mulliken charges:
               1
     1  P    2.234902
     2  P    2.234902
     3  Cl  -1.117455
     4  Cl  -1.117447
     5  Cl  -1.117455
     6  Cl  -1.117447
 Sum of Mulliken charges =  -0.00000

 Dipole moment (field-independent basis, Debye):
    X=             -0.0000    Y=             -0.0000    Z=             -0.0019  Tot=              0.0019

 Test job not archived.
 1\1\GINC-SE109\SP\RHF\Aug-CC-pVDZ\Cl4P2\OHZDE\08-Apr-2025\0\\#t hf aug
 -cc-pvdz iop(5/13=1,5/36=2,99/5=2) pseudo=read geom=check guess=(read,
 tcheck) scf=(maxcycle=1)\\title\\0,1\P,0,0.535608,1.016277,-0.000465\P
 ,0,-0.535608,-1.016277,-0.000465\Cl,0,-0.535608,1.792345,1.625501\Cl,0
 ,-0.537043,1.793172,-1.62509\Cl,0,0.535608,-1.792345,1.625501\Cl,0,0.5
 37043,-1.793172,-1.62509\\Version=ES64L-G16RevC.01\State=1-A\HF=-2520.
 9239016\RMSD=1.300e-01\Dipole=0.,0.,-0.0007507\Quadrupole=2.4360834,-2
 .506166,0.0700827,0.3701714,0.,0.\PG=C02 [X(Cl4P2)]\\@

 Normal termination of Gaussian 16 at Tue Apr  8 23:00:45 2025.
