 Gaussian 16, Revision C.01,

 ----------------------------------------------------------------------
 #t hf aug-cc-pvdz symm=none int=(grid=ultrafine) guess=(read,tcheck) s
 table=(opt,rrhf)
 ----------------------------------------------------------------------
 -----
 title
 -----
 Symbolic Z-matrix:
 Charge =  0 Multiplicity = 1

 SCF Done:  E(RHF) =  -478.920488933     A.U. after   12 cycles
 Normal termination of Gaussian 16 at Wed Apr  9 00:07:27 2025.
 Gaussian 16:  ES64L-G16RevC.01  3-Jul-2019

 ----------------------------------------------------------------------
 #t hf aug-cc-pvdz iop(5/13=1,5/36=2,99/5=2) pseudo=read geom=check gue
 ss=(read,tcheck) scf=(maxcycle=1)
 ----------------------------------------------------------------------
 -----
 title
 -----
 Structure from the checkpoint file:  "BDE49_nonexpt_2266_mol1.chk"
 Charge =  0 Multiplicity = 1

                         Standard orientation:
 ---------------------------------------------------------------------
 Center     Atomic      Atomic             Coordinates (Angstroms)
 Number     Number       Type             X           Y           Z
 ---------------------------------------------------------------------
      1          6           0        1.307798    0.376179   -0.000006
      2          8           0        1.590531   -0.790143    0.000018
      3          8           0        0.053674    0.857829   -0.000013
      4          1           0        2.038274    1.196558   -0.000007
      5         14           0       -1.288573   -0.191709   -0.000000
      6          1           0       -2.433003    0.735162   -0.000010
      7          1           0       -1.282834   -1.023166    1.217219
      8          1           0       -1.282836   -1.023194   -1.217200
 ---------------------------------------------------------------------

 SCF Done:  E(RHF) =  -479.856831077     A.U. after    2 cycles

 The electronic state is 1-A.
 Alpha  occ. eigenvalues --  -76.25813 -21.09756 -21.07114 -11.51909  -5.59217
 Alpha  occ. eigenvalues --   -2.25027  -2.21105  -2.20903  -1.82083  -1.65855
 Alpha  occ. eigenvalues --   -0.89938  -0.75127  -0.66667  -0.57403  -0.55837
 Alpha  occ. eigenvalues --   -0.49405  -0.48478  -0.41370  -0.35858  -0.32139
 Alpha virt. eigenvalues --    0.03517   0.05045   0.06032   0.06227   0.07476
 Alpha virt. eigenvalues --    0.09243   0.09596   0.11074   0.12073   0.13880
 Alpha virt. eigenvalues --    0.14604   0.15288   0.16213   0.17771   0.18856

 Mulliken charges:
               1
     1  C    2.474567
     2  O   -2.366241
     3  O   -2.953751
     4  H    1.664923
     5  Si   6.073266
     6  H   -1.629541
     7  H   -1.631610
     8  H   -1.631612
 Sum of Mulliken charges =  -0.00000

 Dipole moment (field-independent basis, Debye):
    X=             -0.3997    Y=              0.9311    Z=             -0.0000  Tot=              1.0133

 Test job not archived.
 1\1\GINC-SE069\SP\RHF\Aug-CC-pVDZ\C1H4O2Si1\OHZDE\09-Apr-2025\0\\#t hf
  aug-cc-pvdz iop(5/13=1,5/36=2,99/5=2) pseudo=read geom=check guess=(r
 ead,tcheck) scf=(maxcycle=1)\\title\\0,1\C,0,1.307798,0.376179,-0.0000
 06\O,0,1.590531,-0.790143,0.000018\O,0,0.053674,0.857829,-0.000013\H,0
 ,2.038274,1.196558,-0.000007\Si,0,-1.288573,-0.191709,0.\H,0,-2.433003
 ,0.735162,-0.00001\H,0,-1.282834,-1.023166,1.217219\H,0,-1.282836,-1.0
 23194,-1.2172\\Version=ES64L-G16RevC.01\State=1-A\HF=-479.8568311\RMSD
 =7.606e-02\Dipole=-0.1572592,0.3663317,-0.0000036\Quadrupole=0.6056471

 Normal termination of Gaussian 16 at Wed Apr  9 00:07:29 2025.
