 Gaussian 16, Revision C.01,

 ----------------------------------------------------------------------
 #t hf aug-cc-pvdz symm=none int=(grid=ultrafine) guess=(read,tcheck) s
 table=opt
 ----------------------------------------------------------------------
 -----
 title
 -----
 Symbolic Z-matrix:
 Charge =  0 Multiplicity = 2

 SCF Done:  E(UHF) =  -984.319517069     A.U. after   18 cycles
 Normal termination of Gaussian 16 at Wed Apr  9 00:19:11 2025.
 Gaussian 16:  ES64L-G16RevC.01  3-Jul-2019

 ----------------------------------------------------------------------
 #t hf aug-cc-pvdz iop(5/13=1,5/36=2,99/5=2) pseudo=read geom=check gue
 ss=(read,tcheck) scf=(maxcycle=1)
 ----------------------------------------------------------------------
 -----
 title
 -----
 Structure from the checkpoint file:  "BDE49_nonexpt_2579_mol2.chk"
 Charge =  0 Multiplicity = 2

                         Standard orientation:
 ---------------------------------------------------------------------
 Center     Atomic      Atomic             Coordinates (Angstroms)
 Number     Number       Type             X           Y           Z
 ---------------------------------------------------------------------
      1         16           0        1.687826    0.222074   -0.000009
      2         16           0       -0.354970   -0.205874    0.000002
      3          8           0       -0.639824   -0.852084    1.263291
      4          6           0       -1.177189    1.390363    0.000001
      5          8           0       -0.639837   -0.852091   -1.263279
      6          1           0       -0.889166    1.928707    0.900668
      7          1           0       -2.246942    1.174607    0.000007
      8          1           0       -0.889175    1.928702   -0.900671
 ---------------------------------------------------------------------

 SCF Done:  E(UHF) =  -985.601327615     A.U. after    2 cycles

 The electronic state is 2-A.
 Alpha  occ. eigenvalues --  -75.91530 -75.76357 -21.06868 -21.06847 -13.53871
 Alpha  occ. eigenvalues --  -13.40848 -13.33535 -13.14371 -13.09892 -13.08269
 Alpha  occ. eigenvalues --  -11.44001  -8.26525  -8.10059  -1.85081  -1.66838
 Alpha  occ. eigenvalues --   -1.21471  -1.12569  -0.89315  -0.66016  -0.64574
 Alpha  occ. eigenvalues --   -0.60688  -0.55441  -0.48978  -0.42504  -0.40083
 Alpha  occ. eigenvalues --   -0.37654  -0.35260  -0.32563  -0.31121
 Alpha virt. eigenvalues --    0.01941   0.05220   0.05335   0.06033   0.09008
 Alpha virt. eigenvalues --    0.12404   0.12501   0.12650   0.13575   0.13973
 Alpha virt. eigenvalues --    0.14891   0.15711   0.16328   0.19140   0.19536

  Beta  occ. eigenvalues --  -75.91568 -75.75349 -21.06738 -21.06718 -13.53923
  Beta  occ. eigenvalues --  -13.40906 -13.33659 -13.13785 -13.07685 -13.03829
  Beta  occ. eigenvalues --  -11.44020  -8.26576  -8.08935  -1.84925  -1.66524
  Beta  occ. eigenvalues --   -1.18614  -1.07436  -0.87425  -0.65653  -0.64521
  Beta  occ. eigenvalues --   -0.60548  -0.54876  -0.46632  -0.41590  -0.39764
  Beta  occ. eigenvalues --   -0.37215  -0.34222  -0.29584
  Beta virt. eigenvalues --    0.00489   0.02045   0.05393   0.05586   0.06205
  Beta virt. eigenvalues --    0.09121   0.12565   0.12762   0.13683   0.14083
  Beta virt. eigenvalues --    0.14502   0.14949   0.15775   0.16529   0.19709

 Mulliken charges and spin densities:
               1          2
     1  S    0.388332   1.051935
     2  S    4.978355  -0.066942
     3  O   -2.417352   0.020746
     4  C   -4.495506  -0.024357
     5  O   -2.417357   0.020746
     6  H    1.313802  -0.001488
     7  H    1.335922   0.000848
     8  H    1.313802  -0.001488
 Sum of Mulliken charges =   0.00000   1.00000

 Dipole moment (field-independent basis, Debye):
    X=              1.6102    Y=              1.8144    Z=             -0.0000  Tot=              2.4259
                          Isotropic Fermi Contact Couplings
        Atom                 a.u.       MegaHertz       Gauss      10(-4) cm-1
     1  S(33)              0.25851      88.79266      31.68343      29.61804
     2  S(33)             -0.04616     -15.85534      -5.65758      -5.28877
     3  O(17)              0.00883      -5.35216      -1.90978      -1.78529
     4  C(13)             -0.00379      -4.26598      -1.52221      -1.42298
     5  O(17)              0.00883      -5.35210      -1.90976      -1.78527
     6  H(1)               0.00010       0.45452       0.16219       0.15161
     7  H(1)              -0.00034      -1.52302      -0.54345      -0.50803
     8  H(1)               0.00010       0.45452       0.16219       0.15161

 Normal termination of Gaussian 16 at Wed Apr  9 00:19:15 2025.
