 Gaussian 16, Revision C.01,

 ----------------------------------------------------------------------
 #t hf aug-cc-pvdz symm=none int=(grid=ultrafine) guess=(read,tcheck) s
 table=(opt,rrhf)
 ----------------------------------------------------------------------
 -----
 title
 -----
 Symbolic Z-matrix:
 Charge =  0 Multiplicity = 1

 SCF Done:  E(RHF) =  -457.404320832     A.U. after   16 cycles
 Normal termination of Gaussian 16 at Tue Apr  8 22:38:34 2025.
 Gaussian 16:  ES64L-G16RevC.01  3-Jul-2019

 ----------------------------------------------------------------------
 #t hf aug-cc-pvdz iop(5/13=1,5/36=2,99/5=2) pseudo=read geom=check gue
 ss=(read,tcheck) scf=(maxcycle=1)
 ----------------------------------------------------------------------
 -----
 title
 -----
 Structure from the checkpoint file:  "BDE49_expt_1133_mol1.chk"
 Charge =  0 Multiplicity = 1

                         Standard orientation:
 ---------------------------------------------------------------------
 Center     Atomic      Atomic             Coordinates (Angstroms)
 Number     Number       Type             X           Y           Z
 ---------------------------------------------------------------------
      1          6           0       -1.233557    0.395227   -0.000026
      2          8           0       -1.724574    1.499961   -0.000003
      3          8           0       -1.970013   -0.737407   -0.000006
      4          6           0        0.231806    0.120841   -0.000011
      5          6           0       -3.394976   -0.550334    0.000014
      6          1           0       -3.820354   -1.551528    0.000027
      7          1           0       -3.708597    0.000863   -0.887947
      8          1           0       -3.708571    0.000875    0.887976
      9          6           0        0.751113   -1.178264   -0.000010
     10          6           0        1.100468    1.217090    0.000001
     11          6           0        2.475804    1.016719    0.000013
     12          6           0        2.991316   -0.279221    0.000014
     13          6           0        2.128521   -1.374344    0.000002
     14          1           0        2.529676   -2.381389    0.000003
     15          1           0        0.074124   -2.022039   -0.000019
     16          1           0        3.146331    1.868399    0.000022
     17          1           0        4.064328   -0.435498    0.000024
     18          1           0        0.676787    2.213614    0.000000
 ---------------------------------------------------------------------

 SCF Done:  E(RHF) =  -459.473159379     A.U. after    2 cycles

 The electronic state is 1-A.
 Alpha  occ. eigenvalues --  -21.09011 -21.04455 -11.53422 -11.52403 -11.44312
 Alpha  occ. eigenvalues --  -11.43976 -11.42341 -11.41815 -11.41467 -11.37419
 Alpha  occ. eigenvalues --   -1.84256  -1.65921  -1.34863  -1.12861  -1.10139
 Alpha  occ. eigenvalues --   -1.02005  -0.90262  -0.87032  -0.77563  -0.72113
 Alpha  occ. eigenvalues --   -0.67339  -0.63324  -0.62761  -0.59867  -0.58955
 Alpha  occ. eigenvalues --   -0.55668  -0.54455  -0.53758  -0.48384  -0.46845
 Alpha  occ. eigenvalues --   -0.45421  -0.41567  -0.34036  -0.33582  -0.31761
 Alpha  occ. eigenvalues --   -0.29628
 Alpha virt. eigenvalues --    0.03145   0.04728   0.05004   0.05593   0.06465
 Alpha virt. eigenvalues --    0.06663   0.06963   0.07550   0.09306   0.09971
 Alpha virt. eigenvalues --    0.10891   0.11175   0.12796   0.13100   0.13637

 Mulliken charges:
               1
     1  C    5.097770
     2  O   -3.588376
     3  O   -3.818995
     4  C    2.686459
     5  C   -3.119244
     6  H    1.417829
     7  H    1.342685
     8  H    1.342675
     9  C   -0.647243
    10  C   -3.117972
    11  C   -1.322576
    12  C   -3.064181
    13  C   -1.361451
    14  H    1.490846
    15  H    1.960989
    16  H    1.466066
    17  H    1.532518
    18  H    1.702201
 Sum of Mulliken charges =  -0.00000

 Dipole moment (field-independent basis, Debye):
    X=              0.3667    Y=             -1.3369    Z=              0.0000  Tot=              1.3863

 Test job not archived.
 1\1\GINC-SE340\SP\RHF\Aug-CC-pVDZ\C8H8O2\OHZDE\08-Apr-2025\0\\#t hf au
 g-cc-pvdz iop(5/13=1,5/36=2,99/5=2) pseudo=read geom=check guess=(read
 ,tcheck) scf=(maxcycle=1)\\title\\0,1\C,0,-1.233557,0.395227,-0.000026
 \O,0,-1.724574,1.499961,-0.000003\O,0,-1.970013,-0.737407,-0.000006\C,
 0,0.231806,0.120841,-0.000011\C,0,-3.394976,-0.550334,0.000014\H,0,-3.
 820354,-1.551528,0.000027\H,0,-3.708597,0.000863,-0.887947\H,0,-3.7085
 71,0.000875,0.887976\C,0,0.751113,-1.178264,-0.00001\C,0,1.100468,1.21
 709,0.000001\C,0,2.475804,1.016719,0.000013\C,0,2.991316,-0.279221,0.0

 Normal termination of Gaussian 16 at Tue Apr  8 22:38:42 2025.
