 Gaussian 16, Revision C.01,

 ----------------------------------------------------------------------
 #t hf aug-cc-pvdz symm=none int=(grid=ultrafine) guess=(read,tcheck) s
 table=(opt,rrhf)
 ----------------------------------------------------------------------
 -----
 title
 -----
 Symbolic Z-matrix:
 Charge =  0 Multiplicity = 1

 SCF Done:  E(RHF) =  -650.767758637     A.U. after   15 cycles
 Normal termination of Gaussian 16 at Wed Apr  9 00:05:31 2025.
 Gaussian 16:  ES64L-G16RevC.01  3-Jul-2019

 ----------------------------------------------------------------------
 #t hf aug-cc-pvdz iop(5/13=1,5/36=2,99/5=2) pseudo=read geom=check gue
 ss=(read,tcheck) scf=(maxcycle=1)
 ----------------------------------------------------------------------
 -----
 title
 -----
 Structure from the checkpoint file:  "BDE49_nonexpt_2189_mol1.chk"
 Charge =  0 Multiplicity = 1

                         Standard orientation:
 ---------------------------------------------------------------------
 Center     Atomic      Atomic             Coordinates (Angstroms)
 Number     Number       Type             X           Y           Z
 ---------------------------------------------------------------------
      1          6           0       -2.189081    1.015900    0.003678
      2          6           0       -2.066597   -0.384384    0.007702
      3          6           0       -0.786941   -0.951798    0.005235
      4          6           0       -1.051427    1.810511   -0.003648
      5          6           0        0.225802    1.251825   -0.006712
      6          6           0        0.344043   -0.139459   -0.002051
      7          1           0       -3.174057    1.470101    0.012176
      8          1           0       -0.651872   -2.027248    0.013839
      9          1           0       -1.157475    2.889720   -0.008203
     10          1           0        1.103993    1.886357   -0.013959
     11          8           0        1.557735   -0.777531   -0.006713
     12         14           0        3.100193   -0.164782    0.001420
     13          7           0       -3.198004   -1.195113    0.074621
     14          1           0       -4.049598   -0.776708   -0.268683
     15          1           0       -3.075275   -2.139619   -0.258689
     16          1           0        3.976775   -1.349388   -0.001282
     17          1           0        3.342684    0.657234    1.209100
     18          1           0        3.351473    0.666952   -1.198046
 ---------------------------------------------------------------------

 SCF Done:  E(RHF) =  -652.598322102     A.U. after    2 cycles

 The electronic state is 1-A.
 Alpha  occ. eigenvalues --  -76.24374 -21.06610 -15.75958 -11.52763 -11.47284
 Alpha  occ. eigenvalues --  -11.43988 -11.40036 -11.39766 -11.36149  -5.57887
 Alpha  occ. eigenvalues --   -2.24644  -2.19873  -2.19365  -1.73594  -1.40210
 Alpha  occ. eigenvalues --   -1.24991  -1.07953  -1.04942  -0.86827  -0.85843
 Alpha  occ. eigenvalues --   -0.75499  -0.70056  -0.67790  -0.64918  -0.58525
 Alpha  occ. eigenvalues --   -0.57224  -0.56177  -0.55572  -0.50714  -0.48757
 Alpha  occ. eigenvalues --   -0.47032  -0.45555  -0.44985  -0.39766  -0.37412
 Alpha  occ. eigenvalues --   -0.29890  -0.26962
 Alpha virt. eigenvalues --    0.03422   0.04735   0.04904   0.05261   0.06353
 Alpha virt. eigenvalues --    0.06763   0.06953   0.07545   0.08899   0.09256
 Alpha virt. eigenvalues --    0.10110   0.11199   0.11942   0.12256   0.13205

 Mulliken charges:
               1
     1  C   -3.116413
     2  C    3.667143
     3  C   -3.394014
     4  C    0.379679
     5  C   -4.493123
     6  C    6.509717
     7  H    1.708565
     8  H    1.876748
     9  H    1.469128
    10  H    1.985284
    11  O   -4.882269
    12  Si   6.420068
    13  N   -4.027328
    14  H    0.629931
    15  H    0.642276
    16  H   -1.857992
    17  H   -1.758520
    18  H   -1.758882
 Sum of Mulliken charges =  -0.00000

 Dipole moment (field-independent basis, Debye):
    X=             -1.4127    Y=             -0.7186    Z=             -0.7476  Tot=              1.7524

 Test job not archived.
 1\1\GINC-SE252\SP\RHF\Aug-CC-pVDZ\C6H9N1O1Si1\OHZDE\09-Apr-2025\0\\#t
 hf aug-cc-pvdz iop(5/13=1,5/36=2,99/5=2) pseudo=read geom=check guess=
 (read,tcheck) scf=(maxcycle=1)\\title\\0,1\C,0,2.189081,1.0159,-0.0036
 78\C,0,2.066597,-0.384384,-0.007702\C,0,0.786941,-0.951798,-0.005235\C
 ,0,1.051427,1.810511,0.003648\C,0,-0.225802,1.251825,0.006712\C,0,-0.3
 44043,-0.139459,0.002051\H,0,3.174057,1.470101,-0.012176\H,0,0.651872,
 -2.027248,-0.013839\H,0,1.157475,2.88972,0.008203\H,0,-1.103993,1.8863
 57,0.013959\O,0,-1.557735,-0.777531,0.006713\Si,0,-3.100193,-0.164782,

 Normal termination of Gaussian 16 at Wed Apr  9 00:05:39 2025.
