 Gaussian 16, Revision C.01,

 ----------------------------------------------------------------------
 #t hf aug-cc-pvdz symm=none int=(grid=ultrafine) guess=(read,tcheck) s
 table=(opt,rrhf)
 ----------------------------------------------------------------------
 -----
 title
 -----
 Symbolic Z-matrix:
 Charge =  0 Multiplicity = 1

 SCF Done:  E(RHF) =  -291.877219941     A.U. after   14 cycles
 Normal termination of Gaussian 16 at Tue Apr  8 23:20:57 2025.
 Gaussian 16:  ES64L-G16RevC.01  3-Jul-2019

 ----------------------------------------------------------------------
 #t hf aug-cc-pvdz iop(5/13=1,5/36=2,99/5=2) pseudo=read geom=check gue
 ss=(read,tcheck) scf=(maxcycle=1)
 ----------------------------------------------------------------------
 -----
 title
 -----
 Structure from the checkpoint file:  "BDE49_nonexpt_1125_mol1.chk"
 Charge =  0 Multiplicity = 1

                         Standard orientation:
 ---------------------------------------------------------------------
 Center     Atomic      Atomic             Coordinates (Angstroms)
 Number     Number       Type             X           Y           Z
 ---------------------------------------------------------------------
      1          9           0        1.701242   -0.663683    0.392214
      2          8           0        1.068594    0.054378   -0.701641
      3          6           0        0.168250    0.968175   -0.084849
      4          6           0       -1.004699    0.302914    0.625017
      5          1           0        0.729876    1.635592    0.576666
      6          6           0       -1.836508   -0.600290   -0.287889
      7          1           0       -1.627039    1.100353    1.047116
      8          1           0       -0.614607   -0.269038    1.471027
      9          1           0       -2.277395   -0.033655   -1.114248
     10          1           0       -2.652030   -1.070794    0.266270
     11          1           0       -0.162306    1.542577   -0.960472
     12          1           0       -1.218691   -1.391706   -0.716830
 ---------------------------------------------------------------------

 SCF Done:  E(RHF) =  -293.121119312     A.U. after    2 cycles

 The electronic state is 1-A.
 Alpha  occ. eigenvalues --  -29.27654 -21.14748 -11.45442 -11.40451 -11.36247
 Alpha  occ. eigenvalues --   -1.79456  -1.19555  -0.99846  -0.86610  -0.70862
 Alpha  occ. eigenvalues --   -0.65913  -0.63358  -0.56810  -0.53567  -0.50979
 Alpha  occ. eigenvalues --   -0.48606  -0.46523  -0.42050  -0.34064  -0.25353
 Alpha  occ. eigenvalues --   -0.21105
 Alpha virt. eigenvalues --    0.03941   0.05252   0.05497   0.05863   0.06327
 Alpha virt. eigenvalues --    0.06774   0.07525   0.10572   0.12949   0.13994
 Alpha virt. eigenvalues --    0.14537   0.14983   0.15857   0.17390   0.17937

 Mulliken charges:
               1
     1  F   -0.151716
     2  O   -1.429375
     3  C   -1.098327
     4  C   -3.021132
     5  H    1.343084
     6  C   -3.562803
     7  H    1.353183
     8  H    1.336369
     9  H    1.240147
    10  H    1.151360
    11  H    1.468860
    12  H    1.370350
 Sum of Mulliken charges =   0.00000

 Dipole moment (field-independent basis, Debye):
    X=             -0.2553    Y=             -0.1152    Z=              1.0134  Tot=              1.0514

 Test job not archived.
 1\1\GINC-SE105\SP\RHF\Aug-CC-pVDZ\C3H7F1O1\OHZDE\08-Apr-2025\0\\#t hf
 aug-cc-pvdz iop(5/13=1,5/36=2,99/5=2) pseudo=read geom=check guess=(re
 ad,tcheck) scf=(maxcycle=1)\\title\\0,1\F,0,1.701242,-0.663683,0.39221
 4\O,0,1.068594,0.054378,-0.701641\C,0,0.16825,0.968175,-0.084849\C,0,-
 1.004699,0.302914,0.625017\H,0,0.729876,1.635592,0.576666\C,0,-1.83650
 8,-0.60029,-0.287889\H,0,-1.627039,1.100353,1.047116\H,0,-0.614607,-0.
 269038,1.471027\H,0,-2.277395,-0.033655,-1.114248\H,0,-2.65203,-1.0707
 94,0.26627\H,0,-0.162306,1.542577,-0.960472\H,0,-1.218691,-1.391706,-0

 Normal termination of Gaussian 16 at Tue Apr  8 23:21:00 2025.
