 Gaussian 16, Revision C.01,

 ----------------------------------------------------------------------
 #t hf aug-cc-pvdz symm=none int=(grid=ultrafine) guess=(read,tcheck) s
 table=opt
 ----------------------------------------------------------------------
 -----
 title
 -----
 Symbolic Z-matrix:
 Charge =  0 Multiplicity = 2

 SCF Done:  E(UHF) =  -1106.81057092     A.U. after   19 cycles
 Normal termination of Gaussian 16 at Tue Apr  8 23:50:24 2025.
 Gaussian 16:  ES64L-G16RevC.01  3-Jul-2019

 ----------------------------------------------------------------------
 #t hf aug-cc-pvdz iop(5/13=1,5/36=2,99/5=2) pseudo=read geom=check gue
 ss=(read,tcheck) scf=(maxcycle=1)
 ----------------------------------------------------------------------
 -----
 title
 -----
 Structure from the checkpoint file:  "BDE49_nonexpt_186_mol2.chk"
 Charge =  0 Multiplicity = 2

                         Standard orientation:
 ---------------------------------------------------------------------
 Center     Atomic      Atomic             Coordinates (Angstroms)
 Number     Number       Type             X           Y           Z
 ---------------------------------------------------------------------
      1         17           0       -2.368016   -0.016375   -0.054181
      2          5           0       -0.840002   -0.551417   -0.591644
      3         16           0        0.784232    0.071105    0.108123
      4          8           0        0.829894    1.501511    0.207546
      5          8           0        1.036895   -0.807049    1.230951
      6          8           0        1.852701   -0.305349   -1.056136
      7          1           0        2.152660   -1.215118   -0.909554
 ---------------------------------------------------------------------

 SCF Done:  E(UHF) =  -1108.31297911     A.U. after    2 cycles

 The electronic state is 2-A.
 Alpha  occ. eigenvalues --  -99.95431 -75.93088 -21.14775 -21.08024 -21.07864
 Alpha  occ. eigenvalues --  -13.55984 -13.44886 -13.37579 -10.52660  -9.72596
 Alpha  occ. eigenvalues --   -9.72185  -9.71910  -8.28164  -7.75723  -1.91928
 Alpha  occ. eigenvalues --   -1.73324  -1.68377  -1.40659  -1.03277  -0.82543
 Alpha  occ. eigenvalues --   -0.69266  -0.64712  -0.62460  -0.59742  -0.57754
 Alpha  occ. eigenvalues --   -0.48489  -0.46432  -0.45225  -0.42005  -0.39858
 Alpha  occ. eigenvalues --   -0.38301  -0.32929
 Alpha virt. eigenvalues --    0.00223   0.02535   0.02846   0.04085   0.04978
 Alpha virt. eigenvalues --    0.08676   0.11427   0.12564   0.14207   0.14604
 Alpha virt. eigenvalues --    0.15243   0.15839   0.16505   0.17014   0.18095

  Beta  occ. eigenvalues --  -99.95366 -75.93022 -21.14806 -21.07983 -21.07679
  Beta  occ. eigenvalues --  -13.55976 -13.44874 -13.37245 -10.52586  -9.72533
  Beta  occ. eigenvalues --   -9.71977  -9.71851  -8.28068  -7.73603  -1.91765
  Beta  occ. eigenvalues --   -1.73268  -1.68094  -1.39799  -1.01665  -0.80084
  Beta  occ. eigenvalues --   -0.68388  -0.64174  -0.59897  -0.59596  -0.57150
  Beta  occ. eigenvalues --   -0.47093  -0.45929  -0.41992  -0.40160  -0.39200
  Beta  occ. eigenvalues --   -0.38019
  Beta virt. eigenvalues --   -0.00075   0.02427   0.02718   0.04290   0.04605
  Beta virt. eigenvalues --    0.05154   0.09457   0.11770   0.12956   0.14290
  Beta virt. eigenvalues --    0.14814   0.15487   0.15882   0.16618   0.17406

 Mulliken charges and spin densities:
               1          2
     1  Cl  -0.769820   0.050519
     2  B    1.206775   0.908684
     3  S    6.141861  -0.032347
     4  O   -2.613080   0.054813
     5  O   -2.448709   0.023285
     6  O   -2.414485  -0.010762
     7  H    0.897458   0.005808
 Sum of Mulliken charges =  -0.00000   1.00000

 Dipole moment (field-independent basis, Debye):
    X=              0.2731    Y=             -0.8904    Z=             -0.9267  Tot=              1.3138
                          Isotropic Fermi Contact Couplings
        Atom                 a.u.       MegaHertz       Gauss      10(-4) cm-1
     1  Cl(35)             0.07272      31.88668      11.37796      10.63625
     2  B(11)              0.22862     327.92301     117.01108     109.38334
     3  S(33)              0.18678      64.15229      22.89113      21.39890
     4  O(17)              0.01252      -7.58942      -2.70809      -2.53156
     5  O(17)              0.00233      -1.40945      -0.50293      -0.47014
     6  O(17)             -0.00495       3.00194       1.07117       1.00134
     7  H(1)               0.00014       0.62064       0.22146       0.20702
 --------------------------------------------------------

 1\1\GINC-SE435\SP\UHF\Aug-CC-pVDZ\B1Cl1H1O3S1(2)\OHZDE\08-Apr-2025\0\\
 #t hf aug-cc-pvdz iop(5/13=1,5/36=2,99/5=2) pseudo=read geom=check gue
 ss=(read,tcheck) scf=(maxcycle=1)\\title\\0,2\Cl,0,-2.368016,-0.016375
 ,-0.054181\B,0,-0.840002,-0.551417,-0.591644\S,0,0.784232,0.071105,0.1
 08123\O,0,0.829894,1.501511,0.207546\O,0,1.036895,-0.807049,1.230951\O
 ,0,1.852701,-0.305349,-1.056136\H,0,2.15266,-1.215118,-0.909554\\Versi
 on=ES64L-G16RevC.01\State=2-A\HF=-1108.3129791\S2=0.758101\S2-1=0.\S2A
 =0.750036\RMSD=5.192e-02\Dipole=0.1074533,-0.3502988,-0.3646067\Quadru

 Normal termination of Gaussian 16 at Tue Apr  8 23:50:27 2025.
