 Gaussian 16, Revision C.01,

 ----------------------------------------------------------------------
 #t hf aug-cc-pvdz symm=none int=(grid=ultrafine) guess=(read,tcheck) s
 table=(opt,rrhf)
 ----------------------------------------------------------------------
 -----
 title
 -----
 Symbolic Z-matrix:
 Charge =  0 Multiplicity = 1

 SCF Done:  E(RHF) =  -408.377772498     A.U. after   11 cycles
 Normal termination of Gaussian 16 at Tue Apr  8 23:49:25 2025.
 Gaussian 16:  ES64L-G16RevC.01  3-Jul-2019

 ----------------------------------------------------------------------
 #t hf aug-cc-pvdz iop(5/13=1,5/36=2,99/5=2) pseudo=read geom=check gue
 ss=(read,tcheck) scf=(maxcycle=1)
 ----------------------------------------------------------------------
 -----
 title
 -----
 Structure from the checkpoint file:  "BDE49_nonexpt_1829_mol1.chk"
 Charge =  0 Multiplicity = 1

                         Standard orientation:
 ---------------------------------------------------------------------
 Center     Atomic      Atomic             Coordinates (Angstroms)
 Number     Number       Type             X           Y           Z
 ---------------------------------------------------------------------
      1          6           0       -1.098813   -0.475693   -0.446333
      2         14           0        0.677614   -0.622728    0.178386
      3          6           0       -1.929236    0.641025    0.211070
      4          1           0       -1.994741    0.505244    1.294711
      5          1           0       -2.951434    0.662588   -0.178151
      6          1           0       -1.493071    1.627953    0.031181
      7          6           0        1.682896    0.934327   -0.150794
      8          1           0        1.330570   -1.779817   -0.488324
      9          1           0        0.661083   -0.894371    1.640598
     10          1           0        1.725415    1.156683   -1.221102
     11          1           0        2.709578    0.815274    0.206439
     12          1           0        1.253277    1.802281    0.357084
     13          1           0       -1.587563   -1.444671   -0.290250
     14          1           0       -1.068800   -0.330925   -1.533248
 ---------------------------------------------------------------------

 SCF Done:  E(RHF) =  -409.181633002     A.U. after    2 cycles

 The electronic state is 1-A.
 Alpha  occ. eigenvalues --  -76.19431 -11.39049 -11.34458 -11.34163  -5.53177
 Alpha  occ. eigenvalues --   -2.17324  -2.16097  -2.15417  -1.14763  -1.03097
 Alpha  occ. eigenvalues --   -0.88820  -0.70605  -0.60725  -0.57658  -0.55621
 Alpha  occ. eigenvalues --   -0.54570  -0.49860  -0.48616  -0.44514  -0.41258
 Alpha  occ. eigenvalues --   -0.37542
 Alpha virt. eigenvalues --    0.03464   0.05029   0.05549   0.05761   0.06400
 Alpha virt. eigenvalues --    0.06660   0.06831   0.07082   0.07914   0.08669
 Alpha virt. eigenvalues --    0.09382   0.10536   0.12001   0.13471   0.14080

 Mulliken charges:
               1
     1  C   -4.180607
     2  Si   6.168554
     3  C   -3.490080
     4  H    1.282938
     5  H    1.151193
     6  H    1.351059
     7  C   -5.013390
     8  H   -1.936575
     9  H   -1.922084
    10  H    1.266682
    11  H    1.256796
    12  H    1.328133
    13  H    1.357093
    14  H    1.380290
 Sum of Mulliken charges =   0.00000

 Dipole moment (field-independent basis, Debye):
    X=             -0.4167    Y=              0.6874    Z=             -0.4695  Tot=              0.9309

 Test job not archived.
 1\1\GINC-SE367\SP\RHF\Aug-CC-pVDZ\C3H10Si1\OHZDE\08-Apr-2025\0\\#t hf
 aug-cc-pvdz iop(5/13=1,5/36=2,99/5=2) pseudo=read geom=check guess=(re
 ad,tcheck) scf=(maxcycle=1)\\title\\0,1\C,0,-1.098813,-0.475693,-0.446
 333\Si,0,0.677614,-0.622728,0.178386\C,0,-1.929236,0.641025,0.21107\H,
 0,-1.994741,0.505244,1.294711\H,0,-2.951434,0.662587,-0.178151\H,0,-1.
 493072,1.627953,0.031181\C,0,1.682896,0.934327,-0.150794\H,0,1.33057,-
 1.779817,-0.488324\H,0,0.661083,-0.894371,1.640598\H,0,1.725415,1.1566
 83,-1.221102\H,0,2.709578,0.815274,0.206439\H,0,1.253276,1.802281,0.35

 Normal termination of Gaussian 16 at Tue Apr  8 23:49:28 2025.
