 Gaussian 16, Revision C.01,

 ----------------------------------------------------------------------
 #t hf aug-cc-pvdz symm=none int=(grid=ultrafine) guess=(read,tcheck) s
 table=(opt,rrhf)
 ----------------------------------------------------------------------
 -----
 title
 -----
 Symbolic Z-matrix:
 Charge =  0 Multiplicity = 1

 SCF Done:  E(RHF) =  -662.758471095     A.U. after   14 cycles
 Normal termination of Gaussian 16 at Tue Apr  8 23:19:51 2025.
 Gaussian 16:  ES64L-G16RevC.01  3-Jul-2019

 ----------------------------------------------------------------------
 #t hf aug-cc-pvdz iop(5/13=1,5/36=2,99/5=2) pseudo=read geom=check gue
 ss=(read,tcheck) scf=(maxcycle=1)
 ----------------------------------------------------------------------
 -----
 title
 -----
 Structure from the checkpoint file:  "BDE49_nonexpt_1111_mol1.chk"
 Charge =  0 Multiplicity = 1

                         Standard orientation:
 ---------------------------------------------------------------------
 Center     Atomic      Atomic             Coordinates (Angstroms)
 Number     Number       Type             X           Y           Z
 ---------------------------------------------------------------------
      1          9           0       -1.786838   -0.000001   -0.565750
      2          8           0       -1.125457   -0.000000    0.718200
      3         14           0        0.515488    0.000000    0.399051
      4          9           0        0.931314   -1.271473   -0.442915
      5          9           0        0.931312    1.271473   -0.442914
      6          1           0        1.104730    0.000000    1.731892
 ---------------------------------------------------------------------

 SCF Done:  E(RHF) =  -664.218174203     A.U. after    2 cycles

 The electronic state is 1-A.
 Alpha  occ. eigenvalues --  -76.33608 -29.32902 -29.31294 -29.31294 -21.17153
 Alpha  occ. eigenvalues --   -5.69652  -2.35045  -2.34222  -2.30698  -1.78371
 Alpha  occ. eigenvalues --   -0.96726  -0.73763  -0.73348  -0.59912  -0.59399
 Alpha  occ. eigenvalues --   -0.54509  -0.44009  -0.39689  -0.38402  -0.37985
 Alpha  occ. eigenvalues --   -0.37500  -0.36028  -0.31312  -0.27107  -0.25463
 Alpha virt. eigenvalues --    0.05089   0.06658   0.07293   0.07917   0.13624
 Alpha virt. eigenvalues --    0.15575   0.18516   0.19301   0.22476   0.23373
 Alpha virt. eigenvalues --    0.23896   0.25788   0.25936   0.26020   0.28755

 Mulliken charges:
               1
     1  F    0.020140
     2  O   -0.984008
     3  Si   4.797768
     4  F   -0.963443
     5  F   -0.963444
     6  H   -1.907013
 Sum of Mulliken charges =  -0.00000

 Dipole moment (field-independent basis, Debye):
    X=              0.6296    Y=              0.0000    Z=             -3.2747  Tot=              3.3347

 Test job not archived.
 1\1\GINC-SE460\SP\RHF\Aug-CC-pVDZ\F3H1O1Si1\OHZDE\08-Apr-2025\0\\#t hf
  aug-cc-pvdz iop(5/13=1,5/36=2,99/5=2) pseudo=read geom=check guess=(r
 ead,tcheck) scf=(maxcycle=1)\\title\\0,1\F,0,-1.786838,0.,-0.56575\O,0
 ,-1.125457,0.,0.7182\Si,0,0.515488,0.,0.399051\F,0,0.931314,-1.271473,
 -0.442915\F,0,0.931313,1.271473,-0.442914\H,0,1.10473,0.,1.731892\\Ver
 sion=ES64L-G16RevC.01\State=1-A\HF=-664.2181742\RMSD=6.012e-02\Dipole=
 0.2477119,0.0000006,-1.2883739\Quadrupole=0.6469803,1.4739071,-2.12088
 73,0.,0.1099377,0.0000008\PG=C01 [X(F3H1O1Si1)]\\@

 Normal termination of Gaussian 16 at Tue Apr  8 23:19:53 2025.
