 Gaussian 16, Revision C.01,

 ----------------------------------------------------------------------
 #t hf aug-cc-pvdz symm=none int=(grid=ultrafine) guess=(read,tcheck) s
 table=(opt,rrhf)
 ----------------------------------------------------------------------
 -----
 title
 -----
 Symbolic Z-matrix:
 Charge =  0 Multiplicity = 1

 SCF Done:  E(RHF) =  -874.306838945     A.U. after   13 cycles
 Normal termination of Gaussian 16 at Wed Apr  9 00:26:47 2025.
 Gaussian 16:  ES64L-G16RevC.01  3-Jul-2019

 ----------------------------------------------------------------------
 #t hf aug-cc-pvdz iop(5/13=1,5/36=2,99/5=2) pseudo=read geom=check gue
 ss=(read,tcheck) scf=(maxcycle=1)
 ----------------------------------------------------------------------
 -----
 title
 -----
 Structure from the checkpoint file:  "BDE49_nonexpt_2740_mol1.chk"
 Charge =  0 Multiplicity = 1

                         Standard orientation:
 ---------------------------------------------------------------------
 Center     Atomic      Atomic             Coordinates (Angstroms)
 Number     Number       Type             X           Y           Z
 ---------------------------------------------------------------------
      1         16           0       -1.589808   -0.529521    0.149576
      2         16           0       -0.181380    0.963806   -0.239113
      3          6           0        1.367429    0.304813    0.505572
      4          6           0        1.987409   -0.871362   -0.236260
      5          1           0        1.163538    0.065703    1.550396
      6          1           0        2.028845    1.177600    0.488565
      7          1           0        1.320498   -1.736479   -0.226046
      8          1           0        2.924437   -1.169647    0.244385
      9          1           0        2.201588   -0.614320   -1.276092
     10          1           0       -1.428917   -1.272125   -0.964489
 ---------------------------------------------------------------------

 SCF Done:  E(RHF) =  -875.176810863     A.U. after    2 cycles

 The electronic state is 1-A.
 Alpha  occ. eigenvalues --  -75.71267 -75.70394 -13.14385 -13.11996 -13.08973
 Alpha  occ. eigenvalues --  -13.08008 -13.04042 -13.03778 -11.42450 -11.37305
 Alpha  occ. eigenvalues --   -8.04996  -8.04249  -1.25961  -1.12973  -0.99141
 Alpha  occ. eigenvalues --   -0.85638  -0.63962  -0.59367  -0.53052  -0.52473
 Alpha  occ. eigenvalues --   -0.49653  -0.42512  -0.35117  -0.25565  -0.24592
 Alpha virt. eigenvalues --    0.02900   0.03529   0.04966   0.05637   0.06892
 Alpha virt. eigenvalues --    0.07093   0.08011   0.09945   0.12652   0.12980
 Alpha virt. eigenvalues --    0.14069   0.14759   0.14802   0.15759   0.16527

 Mulliken charges:
               1
     1  S   -1.253939
     2  S    0.308756
     3  C   -3.702312
     4  C   -3.404203
     5  H    1.500320
     6  H    1.523356
     7  H    1.264027
     8  H    1.226088
     9  H    1.331468
    10  H    1.206439
 Sum of Mulliken charges =  -0.00000

 Dipole moment (field-independent basis, Debye):
    X=             -0.0803    Y=              0.8153    Z=              0.6891  Tot=              1.0705

 Test job not archived.
 1\1\GINC-SE039\SP\RHF\Aug-CC-pVDZ\C2H6S2\OHZDE\09-Apr-2025\0\\#t hf au
 g-cc-pvdz iop(5/13=1,5/36=2,99/5=2) pseudo=read geom=check guess=(read
 ,tcheck) scf=(maxcycle=1)\\title\\0,1\S,0,-1.589808,-0.529521,0.149576
 \S,0,-0.18138,0.963806,-0.239113\C,0,1.367429,0.304813,0.505572\C,0,1.
 987409,-0.871362,-0.23626\H,0,1.163538,0.065703,1.550396\H,0,2.028845,
 1.1776,0.488565\H,0,1.320499,-1.736479,-0.226046\H,0,2.924437,-1.16964
 6,0.244385\H,0,2.201588,-0.61432,-1.276092\H,0,-1.428917,-1.272125,-0.
 964489\\Version=ES64L-G16RevC.01\State=1-A\HF=-875.1768109\RMSD=1.550e

 Normal termination of Gaussian 16 at Wed Apr  9 00:26:54 2025.
