 Gaussian 16, Revision C.01,

 ----------------------------------------------------------------------
 #t hf aug-cc-pvdz symm=none int=(grid=ultrafine) guess=(read,tcheck) s
 table=(opt,rrhf)
 ----------------------------------------------------------------------
 -----
 title
 -----
 Symbolic Z-matrix:
 Charge =  0 Multiplicity = 1

 SCF Done:  E(RHF) =  -1198.93272869     A.U. after   13 cycles
 Normal termination of Gaussian 16 at Wed Apr  9 00:16:33 2025.
 Gaussian 16:  ES64L-G16RevC.01  3-Jul-2019

 ----------------------------------------------------------------------
 #t hf aug-cc-pvdz iop(5/13=1,5/36=2,99/5=2) pseudo=read geom=check gue
 ss=(read,tcheck) scf=(maxcycle=1)
 ----------------------------------------------------------------------
 -----
 title
 -----
 Structure from the checkpoint file:  "BDE49_nonexpt_2535_mol1.chk"
 Charge =  0 Multiplicity = 1

                         Standard orientation:
 ---------------------------------------------------------------------
 Center     Atomic      Atomic             Coordinates (Angstroms)
 Number     Number       Type             X           Y           Z
 ---------------------------------------------------------------------
      1         17           0        1.656768   -0.419673   -0.000013
      2         16           0        0.031635    0.897211    0.000023
      3         15           0       -1.599743   -0.498170   -0.000103
      4          1           0       -2.338094    0.126470   -1.037290
      5          1           0       -2.336970    0.125149    1.038689
 ---------------------------------------------------------------------

 SCF Done:  E(RHF) =  -1199.58904712     A.U. after    2 cycles

 The electronic state is 1-A.
 Alpha  occ. eigenvalues -- -105.22698 -99.90959 -75.74845 -13.12962 -13.09056
 Alpha  occ. eigenvalues --  -13.06362 -10.48043  -9.67739  -9.67113  -9.67057
 Alpha  occ. eigenvalues --   -8.08548  -2.79617  -1.48218  -1.48105  -1.46776
 Alpha  occ. eigenvalues --   -1.32264  -1.03717  -0.73989  -0.55882  -0.55244
 Alpha  occ. eigenvalues --   -0.53608  -0.30170  -0.26188  -0.22056  -0.05893
 Alpha virt. eigenvalues --    0.03833   0.04329   0.06147   0.07417   0.10240
 Alpha virt. eigenvalues --    0.10690   0.12660   0.14146   0.14538   0.16030
 Alpha virt. eigenvalues --    0.17729   0.18723   0.18889   0.20626   0.22429

 Mulliken charges:
               1
     1  Cl  -0.305475
     2  S   -1.277151
     3  P    2.395801
     4  H   -0.406582
     5  H   -0.406594
 Sum of Mulliken charges =   0.00000

 Dipole moment (field-independent basis, Debye):
    X=             -5.1906    Y=             -3.9091    Z=             -0.0035  Tot=              6.4979

 Test job not archived.
 1\1\GINC-SE333\SP\RHF\Aug-CC-pVDZ\Cl1H2P1S1\OHZDE\09-Apr-2025\0\\#t hf
  aug-cc-pvdz iop(5/13=1,5/36=2,99/5=2) pseudo=read geom=check guess=(r
 ead,tcheck) scf=(maxcycle=1)\\title\\0,1\Cl,0,1.656768,-0.419673,-0.00
 0013\S,0,0.031635,0.897211,0.000023\P,0,-1.599743,-0.49817,-0.000103\H
 ,0,-2.338094,0.12647,-1.03729\H,0,-2.33697,0.125149,1.038689\\Version=
 ES64L-G16RevC.01\State=1-A\HF=-1199.5890471\RMSD=2.526e-01\Dipole=-2.0
 421335,-1.5379553,-0.0013938\Quadrupole=-0.7622842,0.2445862,0.517698,
 5.4468453,0.0056871,-0.0021405\PG=C01 [X(Cl1H2P1S1)]\\@

 Normal termination of Gaussian 16 at Wed Apr  9 00:16:34 2025.
