 Gaussian 16, Revision C.01,

 ----------------------------------------------------------------------
 #t hf aug-cc-pvdz symm=none int=(grid=ultrafine) guess=(read,tcheck) s
 table=(opt,rrhf)
 ----------------------------------------------------------------------
 -----
 title
 -----
 Symbolic Z-matrix:
 Charge =  0 Multiplicity = 1

 SCF Done:  E(RHF) =  -581.340695512     A.U. after    9 cycles
 Normal termination of Gaussian 16 at Tue Apr  8 22:59:36 2025.
 Gaussian 16:  ES64L-G16RevC.01  3-Jul-2019

 ----------------------------------------------------------------------
 #t hf aug-cc-pvdz iop(5/13=1,5/36=2,99/5=2) pseudo=read geom=check gue
 ss=(read,tcheck) scf=(maxcycle=1)
 ----------------------------------------------------------------------
 -----
 title
 -----
 Structure from the checkpoint file:  "BDE49_expt_1938_mol1.chk"
 Charge =  0 Multiplicity = 1

                         Standard orientation:
 ---------------------------------------------------------------------
 Center     Atomic      Atomic             Coordinates (Angstroms)
 Number     Number       Type             X           Y           Z
 ---------------------------------------------------------------------
      1         14           0        1.178156    0.000000   -0.000001
      2         14           0       -1.178156   -0.000000    0.000001
      3          1           0        1.693928    1.270461   -0.565073
      4          1           0        1.693928   -1.124613   -0.817693
      5          1           0        1.693898   -0.145853    1.382799
      6          1           0       -1.693902    0.145852   -1.382798
      7          1           0       -1.693926    1.124613    0.817693
      8          1           0       -1.693926   -1.270460    0.565075
 ---------------------------------------------------------------------

 SCF Done:  E(RHF) =  -581.681176503     A.U. after    2 cycles

 The electronic state is 1-A.
 Alpha  occ. eigenvalues --  -76.21828 -76.21789  -5.55256  -5.55244  -2.17382
 Alpha  occ. eigenvalues --   -2.17382  -2.17168  -2.17168  -2.16649  -2.15845
 Alpha  occ. eigenvalues --   -0.81795  -0.72265  -0.48615  -0.48614  -0.46169
 Alpha  occ. eigenvalues --   -0.46168  -0.34871
 Alpha virt. eigenvalues --    0.04246   0.04274   0.06616   0.06616   0.07667
 Alpha virt. eigenvalues --    0.07667   0.08033   0.09595   0.09595   0.09959
 Alpha virt. eigenvalues --    0.09959   0.10014   0.14353   0.14360   0.14360

 Mulliken charges:
               1
     1  Si   4.420124
     2  Si   4.420127
     3  H   -1.473380
     4  H   -1.473381
     5  H   -1.473364
     6  H   -1.473366
     7  H   -1.473381
     8  H   -1.473380
 Sum of Mulliken charges =  -0.00000

 Dipole moment (field-independent basis, Debye):
    X=             -0.0000    Y=             -0.0000    Z=             -0.0000  Tot=              0.0000

 Test job not archived.
 1\1\GINC-SE331\SP\RHF\Aug-CC-pVDZ\H6Si2\OHZDE\08-Apr-2025\0\\#t hf aug
 -cc-pvdz iop(5/13=1,5/36=2,99/5=2) pseudo=read geom=check guess=(read,
 tcheck) scf=(maxcycle=1)\\title\\0,1\Si,0,1.178156,0.,-0.000001\Si,0,-
 1.178156,0.,0.000001\H,0,1.693928,1.26476,-0.577719\H,0,1.693928,-1.13
 2715,-0.806433\H,0,1.693898,-0.132051,1.384185\H,0,-1.693902,0.13205,-
 1.384184\H,0,-1.693926,1.132715,0.806433\H,0,-1.693926,-1.264759,0.577
 721\\Version=ES64L-G16RevC.01\State=1-A\HF=-581.6811765\RMSD=1.336e-01
 \Dipole=-0.0000001,-0.0000001,-0.0000004\Quadrupole=-0.7589155,0.37946

 Normal termination of Gaussian 16 at Tue Apr  8 22:59:38 2025.
