 Gaussian 16, Revision C.01,

 ----------------------------------------------------------------------
 #t hf aug-cc-pvdz symm=none int=(grid=ultrafine) guess=(read,tcheck) s
 table=(opt,rrhf)
 ----------------------------------------------------------------------
 -----
 title
 -----
 Symbolic Z-matrix:
 Charge =  0 Multiplicity = 1

 SCF Done:  E(RHF) =  -178.103456518     A.U. after   11 cycles
 Normal termination of Gaussian 16 at Tue Apr  8 22:30:17 2025.
 Gaussian 16:  ES64L-G16RevC.01  3-Jul-2019

 ----------------------------------------------------------------------
 #t hf aug-cc-pvdz iop(5/13=1,5/36=2,99/5=2) pseudo=read geom=check gue
 ss=(read,tcheck) scf=(maxcycle=1)
 ----------------------------------------------------------------------
 -----
 title
 -----
 Structure from the checkpoint file:  "BDE49_expt_1009_mol1.chk"
 Charge =  0 Multiplicity = 1

                         Standard orientation:
 ---------------------------------------------------------------------
 Center     Atomic      Atomic             Coordinates (Angstroms)
 Number     Number       Type             X           Y           Z
 ---------------------------------------------------------------------
      1          6           0       -0.107832    0.549824   -0.000000
      2          6           0        1.193511   -0.222819   -0.000000
      3          9           0       -1.186905   -0.341279   -0.000000
      4          1           0       -0.202589    1.179062   -0.890254
      5          1           0       -0.202590    1.179061    0.890254
      6          1           0        1.264965   -0.857490   -0.886193
      7          1           0        1.264965   -0.857491    0.886194
      8          1           0        2.043323    0.466339    0.000001
 ---------------------------------------------------------------------

 SCF Done:  E(RHF) =  -178.856354628     A.U. after    2 cycles

 The electronic state is 1-A.
 Alpha  occ. eigenvalues --  -29.24147 -11.44841 -11.37300  -1.21965  -0.95072
 Alpha  occ. eigenvalues --   -0.68437  -0.66029  -0.56590  -0.52390  -0.51828
 Alpha  occ. eigenvalues --   -0.35620  -0.24280  -0.24095
 Alpha virt. eigenvalues --    0.03988   0.05434   0.05834   0.06358   0.07152
 Alpha virt. eigenvalues --    0.12004   0.12764   0.13940   0.14244   0.15552
 Alpha virt. eigenvalues --    0.18007   0.18283   0.21359   0.24802   0.28502

 Mulliken charges:
               1
     1  C   -2.826379
     2  C   -3.760127
     3  F    0.283184
     4  H    1.329364
     5  H    1.329365
     6  H    1.211960
     7  H    1.211959
     8  H    1.220673
 Sum of Mulliken charges =  -0.00000

 Dipole moment (field-independent basis, Debye):
    X=             -0.6605    Y=             -0.4586    Z=             -0.0000  Tot=              0.8041

 Test job not archived.
 1\1\GINC-SE072\SP\RHF\Aug-CC-pVDZ\C2H5F1\OHZDE\08-Apr-2025\0\\#t hf au
 g-cc-pvdz iop(5/13=1,5/36=2,99/5=2) pseudo=read geom=check guess=(read
 ,tcheck) scf=(maxcycle=1)\\title\\0,1\C,0,-0.107832,0.549824,0.\C,0,1.
 193511,-0.222819,0.\F,0,-1.186905,-0.341279,0.\H,0,-0.202589,1.179062,
 -0.890254\H,0,-0.20259,1.179061,0.890254\H,0,1.264965,-0.85749,-0.8861
 93\H,0,1.264965,-0.857491,0.886194\H,0,2.043323,0.466339,0.000001\\Ver
 sion=ES64L-G16RevC.01\State=1-A\HF=-178.8563546\RMSD=1.702e-01\Dipole=
 -0.2598741,-0.1804283,-0.0000002\Quadrupole=-0.1481837,-0.2328878,0.38

 Normal termination of Gaussian 16 at Tue Apr  8 22:30:19 2025.
