 Gaussian 16, Revision C.01,

 ----------------------------------------------------------------------
 #t hf aug-cc-pvdz symm=none int=(grid=ultrafine) guess=(read,tcheck) s
 table=(opt,rrhf)
 ----------------------------------------------------------------------
 -----
 title
 -----
 Symbolic Z-matrix:
 Charge =  0 Multiplicity = 1

 SCF Done:  E(RHF) =  -673.484367235     A.U. after   17 cycles
 Normal termination of Gaussian 16 at Wed Apr  9 00:01:36 2025.
 Gaussian 16:  ES64L-G16RevC.01  3-Jul-2019

 ----------------------------------------------------------------------
 #t hf aug-cc-pvdz iop(5/13=1,5/36=2,99/5=2) pseudo=read geom=check gue
 ss=(read,tcheck) scf=(maxcycle=1)
 ----------------------------------------------------------------------
 -----
 title
 -----
 Structure from the checkpoint file:  "BDE49_nonexpt_2083_mol1.chk"
 Charge =  0 Multiplicity = 1

                         Standard orientation:
 ---------------------------------------------------------------------
 Center     Atomic      Atomic             Coordinates (Angstroms)
 Number     Number       Type             X           Y           Z
 ---------------------------------------------------------------------
      1          6           0        1.251483    0.116358   -0.000001
      2         14           0        2.619563   -1.171292    0.000002
      3          6           0       -0.141821   -0.228001   -0.000001
      4          6           0       -0.596333   -1.573493   -0.000001
      5          1           0        0.128473   -2.380354   -0.000002
      6          6           0       -1.937060   -1.876366   -0.000001
      7          1           0       -2.257752   -2.911999   -0.000002
      8          6           0       -2.902508   -0.845491   -0.000000
      9          1           0       -3.957257   -1.095926   -0.000000
     10          6           0       -2.502658    0.468140   -0.000000
     11          1           0       -3.237971    1.266169    0.000001
     12          6           0       -1.126245    0.812634   -0.000000
     13          6           0       -0.701379    2.166891   -0.000000
     14          1           0       -1.453277    2.949371    0.000001
     15          6           0        0.632843    2.482219   -0.000000
     16          1           0        0.951383    3.518596   -0.000000
     17          6           0        1.603885    1.454557   -0.000001
     18          1           0        2.652047    1.735342   -0.000001
     19          1           0        2.551657   -2.046021   -1.195869
     20          1           0        2.551655   -2.046015    1.195877
     21          1           0        3.915922   -0.455764   -0.000000
 ---------------------------------------------------------------------

 SCF Done:  E(RHF) =  -675.488082061     A.U. after    2 cycles

 The electronic state is 1-A.
 Alpha  occ. eigenvalues --  -76.21443 -11.52385 -11.49521 -11.45330 -11.44065
 Alpha  occ. eigenvalues --  -11.43013 -11.42095 -11.41754 -11.41301 -11.39401
 Alpha  occ. eigenvalues --  -11.36440  -5.54952  -2.20096  -2.18764  -2.17048
 Alpha  occ. eigenvalues --   -1.39546  -1.23916  -1.14471  -1.08214  -1.04614
 Alpha  occ. eigenvalues --   -0.89680  -0.87543  -0.85642  -0.76114  -0.72517
 Alpha  occ. eigenvalues --   -0.69377  -0.67270  -0.60866  -0.58190  -0.55162
 Alpha  occ. eigenvalues --   -0.53998  -0.53644  -0.53266  -0.47628  -0.47144
 Alpha  occ. eigenvalues --   -0.46823  -0.44529  -0.42331  -0.38445  -0.38255
 Alpha  occ. eigenvalues --   -0.31652  -0.28265
 Alpha virt. eigenvalues --    0.03212   0.04462   0.04749   0.05769   0.05907
 Alpha virt. eigenvalues --    0.06489   0.06560   0.06956   0.07146   0.08224
 Alpha virt. eigenvalues --    0.08862   0.09529   0.10122   0.11020   0.11049

 Mulliken charges:
               1
     1  C   -1.414951
     2  Si   6.279224
     3  C    5.807674
     4  C   -1.818516
     5  H    1.965814
     6  C   -4.371059
     7  H    1.468123
     8  C   -3.822424
     9  H    1.522714
    10  C   -2.627533
    11  H    1.706317
    12  C    6.836543
    13  C   -2.673807
    14  H    1.753336
    15  C   -3.185650
    16  H    1.547127
    17  C   -5.361514
    18  H    1.940546
    19  H   -1.829932
    20  H   -1.829933
    21  H   -1.892102
 Sum of Mulliken charges =   0.00000

 Dipole moment (field-independent basis, Debye):
    X=             -1.1017    Y=              0.9374    Z=              0.0000  Tot=              1.4465

 Test job not archived.
 1\1\GINC-SE455\SP\RHF\Aug-CC-pVDZ\C10H10Si1\OHZDE\09-Apr-2025\0\\#t hf
  aug-cc-pvdz iop(5/13=1,5/36=2,99/5=2) pseudo=read geom=check guess=(r
 ead,tcheck) scf=(maxcycle=1)\\title\\0,1\C,0,1.251483,0.116358,-0.0000
 01\Si,0,2.619563,-1.171292,0.000002\C,0,-0.141821,-0.228001,-0.000001\
 C,0,-0.596333,-1.573493,-0.000001\H,0,0.128473,-2.380354,-0.000002\C,0
 ,-1.93706,-1.876366,-0.000001\H,0,-2.257752,-2.911999,-0.000002\C,0,-2
 .902508,-0.845491,0.\H,0,-3.957257,-1.095927,0.\C,0,-2.502658,0.46814,
 0.\H,0,-3.237971,1.266168,0.000001\C,0,-1.126245,0.812634,0.\C,0,-0.70

 Normal termination of Gaussian 16 at Wed Apr  9 00:01:48 2025.
