 Gaussian 16, Revision C.01,

 ----------------------------------------------------------------------
 #t hf aug-cc-pvdz symm=none int=(grid=ultrafine) guess=(read,tcheck) s
 table=(opt,rrhf)
 ----------------------------------------------------------------------
 -----
 title
 -----
 Symbolic Z-matrix:
 Charge =  0 Multiplicity = 1

 SCF Done:  E(RHF) =  -1317.95771632     A.U. after   13 cycles
 Normal termination of Gaussian 16 at Wed Apr  9 00:49:29 2025.
 Gaussian 16:  ES64L-G16RevC.01  3-Jul-2019

 ----------------------------------------------------------------------
 #t hf aug-cc-pvdz iop(5/13=1,5/36=2,99/5=2) pseudo=read geom=check gue
 ss=(read,tcheck) scf=(maxcycle=1)
 ----------------------------------------------------------------------
 -----
 title
 -----
 Structure from the checkpoint file:  "BDE49_nonexpt_880_mol1.chk"
 Charge =  0 Multiplicity = 1

                         Standard orientation:
 ---------------------------------------------------------------------
 Center     Atomic      Atomic             Coordinates (Angstroms)
 Number     Number       Type             X           Y           Z
 ---------------------------------------------------------------------
      1          9           0        2.348635   -0.190696    0.000011
      2         16           0        0.975940   -1.155502   -0.000010
      3          5           0       -0.354367    0.059506   -0.000025
      4         16           0       -2.055612   -0.594530    0.000008
      5         16           0       -0.099322    1.845936    0.000002
      6          1           0        1.245265    1.790083    0.000003
      7          1           0       -1.747238   -1.905805    0.000010
 ---------------------------------------------------------------------

 SCF Done:  E(RHF) =  -1319.07659175     A.U. after    2 cycles

 The electronic state is 1-A.
 Alpha  occ. eigenvalues --  -75.77507 -75.71811 -75.71029 -29.28943 -13.22896
 Alpha  occ. eigenvalues --  -13.18901 -13.17834 -13.15540 -13.12076 -13.10257
 Alpha  occ. eigenvalues --  -13.09496 -13.05514 -13.04777  -8.11432  -8.05776
 Alpha  occ. eigenvalues --   -8.04903  -7.69676  -1.29154  -1.16220  -1.12095
 Alpha  occ. eigenvalues --   -0.75140  -0.64075  -0.57039  -0.49187  -0.45587
 Alpha  occ. eigenvalues --   -0.43752  -0.36718  -0.35575  -0.33002  -0.27758
 Alpha  occ. eigenvalues --   -0.26743  -0.20669
 Alpha virt. eigenvalues --    0.01359   0.02369   0.02653   0.04123   0.08691
 Alpha virt. eigenvalues --    0.09808   0.10107   0.10608   0.11931   0.12749
 Alpha virt. eigenvalues --    0.14137   0.15033   0.15994   0.16008   0.16438

 Mulliken charges:
               1
     1  F   -0.449591
     2  S   -0.940708
     3  B    4.011843
     4  S   -2.324509
     5  S   -2.177494
     6  H    0.926636
     7  H    0.953823
 Sum of Mulliken charges =  -0.00000

 Dipole moment (field-independent basis, Debye):
    X=              1.0727    Y=              1.9826    Z=              0.0002  Tot=              2.2542

 Test job not archived.
 1\1\GINC-SE184\SP\RHF\Aug-CC-pVDZ\B1F1H2S3\OHZDE\09-Apr-2025\0\\#t hf
 aug-cc-pvdz iop(5/13=1,5/36=2,99/5=2) pseudo=read geom=check guess=(re
 ad,tcheck) scf=(maxcycle=1)\\title\\0,1\F,0,-2.348635,-0.190696,-0.000
 011\S,0,-0.97594,-1.155502,0.00001\B,0,0.354367,0.059506,0.000025\S,0,
 2.055612,-0.59453,-0.000008\S,0,0.099322,1.845936,-0.000002\H,0,-1.245
 265,1.790083,-0.000003\H,0,1.747238,-1.905805,-0.00001\\Version=ES64L-
 G16RevC.01\State=1-A\HF=-1319.0765918\RMSD=9.406e-02\Dipole=-0.422038,
 0.7800265,-0.0000731\Quadrupole=6.3298502,0.6914459,-7.0212961,0.97167

 Normal termination of Gaussian 16 at Wed Apr  9 00:49:32 2025.
