 Gaussian 16, Revision C.01,

 ----------------------------------------------------------------------
 #t hf aug-cc-pvdz symm=none int=(grid=ultrafine) guess=(read,tcheck) s
 table=(opt,rrhf)
 ----------------------------------------------------------------------
 -----
 title
 -----
 Symbolic Z-matrix:
 Charge =  0 Multiplicity = 1

 SCF Done:  E(RHF) =  -402.879193050     A.U. after   15 cycles

 1\1\GINC-SE454\Stability\RHF\Aug-CC-pVDZ\C9H13N1\OHZDE\08-Apr-2025\0\\
 #t hf aug-cc-pvdz symm=none int=(grid=ultrafine) guess=(read,tcheck) s
 table=(opt,rrhf)\\title\\0,1\C,0,0.077898,0.003179,-0.035008\C,0,0.794
 734,-1.200006,-0.00446\C,0,2.18745,-1.207974,0.015396\C,0,2.897078,-0.
 009716,0.004848\C,0,2.197725,1.193658,-0.019766\C,0,0.8043,1.199919,-0
 .036671\N,0,-1.927819,1.333607,-0.495749\H,0,2.717501,-2.154055,0.0370
 36\H,0,3.981309,-0.015057,0.017086\H,0,2.736742,2.135053,-0.024307\H,0
 ,0.260536,2.135415,-0.048183\H,0,0.270279,-2.147959,0.005875\C,0,-1.46

 Normal termination of Gaussian 16 at Tue Apr  8 22:42:42 2025.
 Gaussian 16:  ES64L-G16RevC.01  3-Jul-2019

 ----------------------------------------------------------------------
 #t hf aug-cc-pvdz iop(5/13=1,5/36=2,99/5=2) pseudo=read geom=check gue
 ss=(read,tcheck) scf=(maxcycle=1)
 ----------------------------------------------------------------------
 -----
 title
 -----
 Structure from the checkpoint file:  "BDE49_expt_1294_mol1.chk"
 Charge =  0 Multiplicity = 1

                         Standard orientation:
 ---------------------------------------------------------------------
 Center     Atomic      Atomic             Coordinates (Angstroms)
 Number     Number       Type             X           Y           Z
 ---------------------------------------------------------------------
      1          6           0        0.077898    0.003179   -0.035008
      2          6           0        0.794734   -1.200006   -0.004460
      3          6           0        2.187450   -1.207974    0.015396
      4          6           0        2.897078   -0.009716    0.004848
      5          6           0        2.197725    1.193658   -0.019766
      6          6           0        0.804300    1.199919   -0.036671
      7          7           0       -1.927819    1.333607   -0.495749
      8          1           0        2.717501   -2.154055    0.037036
      9          1           0        3.981309   -0.015057    0.017086
     10          1           0        2.736742    2.135053   -0.024307
     11          1           0        0.260536    2.135415   -0.048183
     12          1           0        0.270279   -2.147959    0.005875
     13          6           0       -1.460437    0.020266   -0.007074
     14          1           0       -1.724311    1.425995   -1.487985
     15          1           0       -2.937612    1.387912   -0.398846
     16          6           0       -1.936224   -0.110639    1.454032
     17          1           0       -1.552165    0.718233    2.051042
     18          1           0       -1.589983   -1.047651    1.895186
     19          1           0       -3.030745   -0.095608    1.503463
     20          6           0       -2.058033   -1.128604   -0.850855
     21          1           0       -1.811214   -2.118658   -0.459592
     22          1           0       -1.703747   -1.075992   -1.884273
     23          1           0       -3.148803   -1.043378   -0.858903
 ---------------------------------------------------------------------

 SCF Done:  E(RHF) =  -404.878931060     A.U. after    2 cycles

 The electronic state is 1-A.
 Alpha  occ. eigenvalues --  -15.72461 -11.51096 -11.46091 -11.42561 -11.42360
 Alpha  occ. eigenvalues --  -11.40064 -11.39843 -11.39202 -11.38367 -11.35153
 Alpha  occ. eigenvalues --   -1.40284  -1.29554  -1.13230  -1.08174  -1.06179
 Alpha  occ. eigenvalues --   -1.01063  -0.88112  -0.85325  -0.78635  -0.70701
 Alpha  occ. eigenvalues --   -0.66066  -0.62833  -0.61949  -0.60219  -0.57563
 Alpha  occ. eigenvalues --   -0.56570  -0.54395  -0.53343  -0.50177  -0.49469
 Alpha  occ. eigenvalues --   -0.48289  -0.44919  -0.43250  -0.40218  -0.34677
 Alpha  occ. eigenvalues --   -0.32111  -0.31139
 Alpha virt. eigenvalues --    0.03555   0.04739   0.05038   0.05589   0.05664
 Alpha virt. eigenvalues --    0.05849   0.06072   0.06644   0.06912   0.07560
 Alpha virt. eigenvalues --    0.08083   0.09350   0.09687   0.11263   0.12009

 Mulliken charges:
               1
     1  C    6.218368
     2  C   -1.533149
     3  C   -2.871089
     4  C   -3.622610
     5  C   -2.264009
     6  C   -1.774958
     7  N   -3.818200
     8  H    1.461249
     9  H    1.554046
    10  H    1.500326
    11  H    1.714873
    12  H    1.844160
    13  C    3.152049
    14  H    0.540018
    15  H    0.518484
    16  C   -4.919456
    17  H    1.135452
    18  H    1.275422
    19  H    1.273685
    20  C   -4.886828
    21  H    1.268591
    22  H    1.188467
    23  H    1.045109
 Sum of Mulliken charges =  -0.00000

 Dipole moment (field-independent basis, Debye):
    X=             -0.7221    Y=             -0.4010    Z=             -0.4430  Tot=              0.9373

 Test job not archived.
 1\1\GINC-SE454\SP\RHF\Aug-CC-pVDZ\C9H13N1\OHZDE\08-Apr-2025\0\\#t hf a
 ug-cc-pvdz iop(5/13=1,5/36=2,99/5=2) pseudo=read geom=check guess=(rea
 d,tcheck) scf=(maxcycle=1)\\title\\0,1\C,0,0.077898,0.003179,-0.035008
 \C,0,0.794734,-1.200006,-0.00446\C,0,2.18745,-1.207974,0.015396\C,0,2.
 897078,-0.009716,0.004848\C,0,2.197725,1.193658,-0.019766\C,0,0.8043,1
 .199919,-0.036671\N,0,-1.927819,1.333607,-0.495749\H,0,2.717501,-2.154
 055,0.037036\H,0,3.981309,-0.015057,0.017086\H,0,2.736742,2.135053,-0.
 024307\H,0,0.260536,2.135415,-0.048183\H,0,0.270279,-2.147959,0.005875

 Normal termination of Gaussian 16 at Tue Apr  8 22:42:57 2025.
