 Gaussian 16, Revision C.01,

 ----------------------------------------------------------------------
 #t hf aug-cc-pvdz symm=none int=(grid=ultrafine) guess=(read,tcheck) s
 table=(opt,rrhf)
 ----------------------------------------------------------------------
 -----
 title
 -----
 Symbolic Z-matrix:
 Charge =  0 Multiplicity = 1

 SCF Done:  E(RHF) =  -310.253212209     A.U. after   12 cycles

 1\1\GINC-SE252\Stability\RHF\Aug-CC-pVDZ\C6H14O1\OHZDE\08-Apr-2025\0\\
 #t hf aug-cc-pvdz symm=none int=(grid=ultrafine) guess=(read,tcheck) s
 table=(opt,rrhf)\\title\\0,1\C,0,-0.875452,0.02751,-0.000006\O,0,0.489
 373,0.495355,-0.001141\C,0,1.540786,-0.459455,0.000156\C,0,2.851797,0.
 310019,-0.0002\C,0,-1.179427,-0.792222,-1.263927\H,0,-2.247689,-1.0172
 25,-1.323266\H,0,-0.642944,-1.744138,-1.273226\H,0,-0.896923,-0.227328
 ,-2.155948\C,0,-1.17931,-0.785949,1.267998\H,0,-0.642574,-1.737663,1.2
 82115\H,0,-2.247513,-1.010955,1.32842\H,0,-0.896984,-0.2165,2.157169\H

 Normal termination of Gaussian 16 at Tue Apr  8 22:43:20 2025.
 Gaussian 16:  ES64L-G16RevC.01  3-Jul-2019

 ----------------------------------------------------------------------
 #t hf aug-cc-pvdz iop(5/13=1,5/36=2,99/5=2) pseudo=read geom=check gue
 ss=(read,tcheck) scf=(maxcycle=1)
 ----------------------------------------------------------------------
 -----
 title
 -----
 Structure from the checkpoint file:  "BDE49_expt_1380_mol1.chk"
 Charge =  0 Multiplicity = 1

                         Standard orientation:
 ---------------------------------------------------------------------
 Center     Atomic      Atomic             Coordinates (Angstroms)
 Number     Number       Type             X           Y           Z
 ---------------------------------------------------------------------
      1          6           0       -0.875452    0.027510   -0.000006
      2          8           0        0.489373    0.495355   -0.001141
      3          6           0        1.540786   -0.459455    0.000156
      4          6           0        2.851797    0.310019   -0.000200
      5          6           0       -1.179427   -0.792222   -1.263927
      6          1           0       -2.247689   -1.017225   -1.323266
      7          1           0       -0.642944   -1.744138   -1.273226
      8          1           0       -0.896923   -0.227328   -2.155948
      9          6           0       -1.179310   -0.785949    1.267998
     10          1           0       -0.642574   -1.737663    1.282115
     11          1           0       -2.247513   -1.010955    1.328420
     12          1           0       -0.896984   -0.216500    2.157169
     13          1           0        1.486879   -1.107504   -0.885211
     14          1           0        1.486337   -1.105772    0.886754
     15          1           0        2.919315    0.946608   -0.885367
     16          1           0        3.701522   -0.378410    0.000587
     17          1           0        2.918916    0.948158    0.883879
     18          6           0       -1.690553    1.323524   -0.003170
     19          1           0       -2.762914    1.112347   -0.002408
     20          1           0       -1.448905    1.915229   -0.888932
     21          1           0       -1.448548    1.919750    0.879457
 ---------------------------------------------------------------------

 SCF Done:  E(RHF) =  -311.802647241     A.U. after    2 cycles

 The electronic state is 1-A.
 Alpha  occ. eigenvalues --  -21.02282 -11.44528 -11.42574 -11.38996 -11.38684
 Alpha  occ. eigenvalues --  -11.35734 -11.34540  -1.73993  -1.21432  -1.09780
 Alpha  occ. eigenvalues --   -1.01060  -1.00363  -0.87469  -0.76834  -0.64260
 Alpha  occ. eigenvalues --   -0.64001  -0.61301  -0.60455  -0.55287  -0.54531
 Alpha  occ. eigenvalues --   -0.54384  -0.51146  -0.50304  -0.48978  -0.47177
 Alpha  occ. eigenvalues --   -0.44947  -0.41818  -0.35103  -0.28436
 Alpha virt. eigenvalues --    0.04027   0.05060   0.05079   0.05204   0.05450
 Alpha virt. eigenvalues --    0.05600   0.05983   0.06641   0.06643   0.08199
 Alpha virt. eigenvalues --    0.08841   0.09275   0.09554   0.09987   0.11898

 Mulliken charges:
               1
     1  C    4.833953
     2  O   -4.355490
     3  C   -2.083972
     4  C   -3.970341
     5  C   -4.429570
     6  H    1.167928
     7  H    1.432630
     8  H    1.273724
     9  C   -4.428717
    10  H    1.432710
    11  H    1.168070
    12  H    1.274128
    13  H    1.730492
    14  H    1.730729
    15  H    1.352349
    16  H    1.099042
    17  H    1.352238
    18  C   -4.402962
    19  H    1.186022
    20  H    1.318493
    21  H    1.318542
 Sum of Mulliken charges =  -0.00000

 Dipole moment (field-independent basis, Debye):
    X=             -0.1565    Y=             -0.3765    Z=              0.0005  Tot=              0.4077

 Test job not archived.
 1\1\GINC-SE252\SP\RHF\Aug-CC-pVDZ\C6H14O1\OHZDE\08-Apr-2025\0\\#t hf a
 ug-cc-pvdz iop(5/13=1,5/36=2,99/5=2) pseudo=read geom=check guess=(rea
 d,tcheck) scf=(maxcycle=1)\\title\\0,1\C,0,-0.875452,0.02751,-0.000006
 \O,0,0.489373,0.495355,-0.001141\C,0,1.540786,-0.459455,0.000156\C,0,2
 .851797,0.310019,-0.0002\C,0,-1.179427,-0.792222,-1.263927\H,0,-2.2476
 89,-1.017225,-1.323266\H,0,-0.642944,-1.744138,-1.273226\H,0,-0.896923
 ,-0.227328,-2.155948\C,0,-1.17931,-0.785949,1.267998\H,0,-0.642574,-1.
 737663,1.282115\H,0,-2.247513,-1.010955,1.32842\H,0,-0.896984,-0.2165,

 Normal termination of Gaussian 16 at Tue Apr  8 22:43:29 2025.
