 Gaussian 16, Revision C.01,

 ----------------------------------------------------------------------
 #t hf aug-cc-pvdz symm=none int=(grid=ultrafine) guess=(read,tcheck) s
 table=(opt,rrhf)
 ----------------------------------------------------------------------
 -----
 title
 -----
 Symbolic Z-matrix:
 Charge =  0 Multiplicity = 1

 SCF Done:  E(RHF) =  -117.086638521     A.U. after   12 cycles
 Normal termination of Gaussian 16 at Tue Apr  8 23:05:43 2025.
 Gaussian 16:  ES64L-G16RevC.01  3-Jul-2019

 ----------------------------------------------------------------------
 #t hf aug-cc-pvdz iop(5/13=1,5/36=2,99/5=2) pseudo=read geom=check gue
 ss=(read,tcheck) scf=(maxcycle=1)
 ----------------------------------------------------------------------
 -----
 title
 -----
 Structure from the checkpoint file:  "BDE49_expt_35_mol1.chk"
 Charge =  0 Multiplicity = 1

                         Standard orientation:
 ---------------------------------------------------------------------
 Center     Atomic      Atomic             Coordinates (Angstroms)
 Number     Number       Type             X           Y           Z
 ---------------------------------------------------------------------
      1          6           0       -1.233484    0.162304    0.000004
      2          6           0        0.134602   -0.453561    0.000004
      3          6           0        1.280494    0.220394   -0.000008
      4          1           0        2.238917   -0.286355   -0.000007
      5          1           0        1.301823    1.306420   -0.000021
      6          1           0       -1.807315   -0.153290    0.878502
      7          1           0       -1.807326   -0.153314   -0.878478
      8          1           0       -1.182468    1.253708   -0.000011
      9          1           0        0.166696   -1.541990    0.000016
 ---------------------------------------------------------------------

 SCF Done:  E(RHF) =  -117.687816919     A.U. after    2 cycles

 The electronic state is 1-A.
 Alpha  occ. eigenvalues --  -11.41169 -11.38068 -11.35849  -1.19476  -0.98890
 Alpha  occ. eigenvalues --   -0.78380  -0.63699  -0.56427  -0.56168  -0.50054
 Alpha  occ. eigenvalues --   -0.46786  -0.34166
 Alpha virt. eigenvalues --    0.03589   0.05680   0.06099   0.06260   0.06692
 Alpha virt. eigenvalues --    0.07030   0.10865   0.12141   0.14334   0.14377
 Alpha virt. eigenvalues --    0.15440   0.15974   0.17299   0.18251   0.18574

 Mulliken charges:
               1
     1  C   -4.244960
     2  C   -0.468061
     3  C   -3.035102
     4  H    1.343147
     5  H    1.419551
     6  H    1.189977
     7  H    1.189977
     8  H    1.268750
     9  H    1.336722
 Sum of Mulliken charges =   0.00000

 Dipole moment (field-independent basis, Debye):
    X=             -0.3440    Y=             -0.1071    Z=              0.0000  Tot=              0.3602

 Test job not archived.
 1\1\GINC-SE041\SP\RHF\Aug-CC-pVDZ\C3H6\OHZDE\08-Apr-2025\0\\#t hf aug-
 cc-pvdz iop(5/13=1,5/36=2,99/5=2) pseudo=read geom=check guess=(read,t
 check) scf=(maxcycle=1)\\title\\0,1\C,0,-1.233484,0.162304,0.000004\C,
 0,0.134602,-0.453561,0.000004\C,0,1.280494,0.220394,-0.000008\H,0,2.23
 8917,-0.286355,-0.000007\H,0,1.301823,1.30642,-0.000021\H,0,-1.807315,
 -0.15329,0.878502\H,0,-1.807326,-0.153314,-0.878478\H,0,-1.182468,1.25
 3708,-0.000011\H,0,0.166696,-1.54199,0.000016\\Version=ES64L-G16RevC.0
 1\State=1-A\HF=-117.6878169\RMSD=4.212e-01\Dipole=-0.1353302,-0.042117

 Normal termination of Gaussian 16 at Tue Apr  8 23:05:46 2025.
