 Gaussian 16, Revision C.01,

 ----------------------------------------------------------------------
 #t hf aug-cc-pvdz symm=none int=(grid=ultrafine) guess=(read,tcheck) s
 table=(opt,rrhf)
 ----------------------------------------------------------------------
 -----
 title
 -----
 Symbolic Z-matrix:
 Charge =  0 Multiplicity = 1

 SCF Done:  E(RHF) =  -168.857401961     A.U. after   13 cycles
 Normal termination of Gaussian 16 at Tue Apr  8 22:39:22 2025.
 Gaussian 16:  ES64L-G16RevC.01  3-Jul-2019

 ----------------------------------------------------------------------
 #t hf aug-cc-pvdz iop(5/13=1,5/36=2,99/5=2) pseudo=read geom=check gue
 ss=(read,tcheck) scf=(maxcycle=1)
 ----------------------------------------------------------------------
 -----
 title
 -----
 Structure from the checkpoint file:  "BDE49_expt_1227_mol1.chk"
 Charge =  0 Multiplicity = 1

                         Standard orientation:
 ---------------------------------------------------------------------
 Center     Atomic      Atomic             Coordinates (Angstroms)
 Number     Number       Type             X           Y           Z
 ---------------------------------------------------------------------
      1          6           0        1.098084    0.143749    0.000002
      2          7           0       -0.231550   -0.520855    0.000005
      3          1           0        1.633103   -0.220991    0.881770
      4          1           0        1.000698    1.231438   -0.000011
      5          1           0        1.633109   -0.221012   -0.881755
      6          8           0       -1.154321    0.249257   -0.000006
 ---------------------------------------------------------------------

 SCF Done:  E(RHF) =  -169.596322570     A.U. after    2 cycles

 The electronic state is 1-A.
 Alpha  occ. eigenvalues --  -21.12555 -15.86261 -11.40593  -1.85965  -1.17746
 Alpha  occ. eigenvalues --   -0.87490  -0.65495  -0.62779  -0.59452  -0.49775
 Alpha  occ. eigenvalues --   -0.47476  -0.28292
 Alpha virt. eigenvalues --    0.03559   0.05877   0.06233   0.09680   0.12519
 Alpha virt. eigenvalues --    0.14379   0.14977   0.15509   0.16402   0.17814
 Alpha virt. eigenvalues --    0.19511   0.23960   0.25962   0.26673   0.28863

 Mulliken charges:
               1
     1  C   -3.021129
     2  N    0.996821
     3  H    1.283311
     4  H    1.384890
     5  H    1.283311
     6  O   -1.927204
 Sum of Mulliken charges =  -0.00000

 Dipole moment (field-independent basis, Debye):
    X=              1.0807    Y=              0.8048    Z=             -0.0000  Tot=              1.3475

 Test job not archived.
 1\1\GINC-SE328\SP\RHF\Aug-CC-pVDZ\C1H3N1O1\OHZDE\08-Apr-2025\0\\#t hf
 aug-cc-pvdz iop(5/13=1,5/36=2,99/5=2) pseudo=read geom=check guess=(re
 ad,tcheck) scf=(maxcycle=1)\\title\\0,1\C,0,1.098084,0.143749,0.000002
 \N,0,-0.23155,-0.520855,0.000005\H,0,1.633103,-0.220992,0.88177\H,0,1.
 000698,1.231438,-0.000011\H,0,1.633109,-0.221013,-0.881755\O,0,-1.1543
 21,0.249257,-0.000006\\Version=ES64L-G16RevC.01\State=1-A\HF=-169.5963
 226\RMSD=7.620e-02\Dipole=0.425198,0.3166204,-0.0000016\Quadrupole=0.1
 609035,-1.1852363,1.0243328,-0.4693169,0.0000037,0.0000224\PG=C01 [X(C

 Normal termination of Gaussian 16 at Tue Apr  8 22:39:24 2025.
