 Gaussian 16, Revision C.01,

 ----------------------------------------------------------------------
 #t hf aug-cc-pvdz symm=none int=(grid=ultrafine) guess=(read,tcheck) s
 table=(opt,rrhf)
 ----------------------------------------------------------------------
 -----
 title
 -----
 Symbolic Z-matrix:
 Charge =  0 Multiplicity = 1

 SCF Done:  E(RHF) =  -734.564222098     A.U. after   14 cycles
 Normal termination of Gaussian 16 at Wed Apr  9 00:32:57 2025.
 Gaussian 16:  ES64L-G16RevC.01  3-Jul-2019

 ----------------------------------------------------------------------
 #t hf aug-cc-pvdz iop(5/13=1,5/36=2,99/5=2) pseudo=read geom=check gue
 ss=(read,tcheck) scf=(maxcycle=1)
 ----------------------------------------------------------------------
 -----
 title
 -----
 Structure from the checkpoint file:  "BDE49_nonexpt_396_mol1.chk"
 Charge =  0 Multiplicity = 1

                         Standard orientation:
 ---------------------------------------------------------------------
 Center     Atomic      Atomic             Coordinates (Angstroms)
 Number     Number       Type             X           Y           Z
 ---------------------------------------------------------------------
      1          9           0       -0.292413   -1.870107   -0.000000
      2          9           0       -2.175088   -0.611763   -0.000000
      3          5           0       -0.866573   -0.679860   -0.000000
      4          6           0        0.000000    0.669471    0.000000
      5          8           0       -0.524944    1.753737   -0.000000
      6         16           0        1.805119    0.531286    0.000000
      7          1           0        1.858021   -0.811167    0.000000
 ---------------------------------------------------------------------

 SCF Done:  E(RHF) =  -736.028024905     A.U. after    2 cycles

 The electronic state is 1-A'.
 Alpha  occ. eigenvalues --  -75.72839 -29.29814 -29.28767 -21.10306 -13.15963
 Alpha  occ. eigenvalues --  -13.13653 -13.04333 -11.50007  -8.06855  -7.74866
 Alpha  occ. eigenvalues --   -1.75154  -1.22811  -1.14645  -0.83852  -0.79451
 Alpha  occ. eigenvalues --   -0.66964  -0.57044  -0.54951  -0.49935  -0.49594
 Alpha  occ. eigenvalues --   -0.48981  -0.46012  -0.37482  -0.37176  -0.35393
 Alpha  occ. eigenvalues --   -0.27724  -0.24525
 Alpha virt. eigenvalues --    0.02743   0.03426   0.03645   0.05605   0.06691
 Alpha virt. eigenvalues --    0.08830   0.09599   0.10729   0.12613   0.14675
 Alpha virt. eigenvalues --    0.15012   0.15674   0.16268   0.18119   0.18838

 Mulliken charges:
               1
     1  F   -0.774611
     2  F    0.399315
     3  B    1.844459
     4  C   -0.231064
     5  O   -2.067053
     6  S   -0.375255
     7  H    1.204209
 Sum of Mulliken charges =  -0.00000

 Dipole moment (field-independent basis, Debye):
    X=             -0.4822    Y=             -2.0302    Z=             -0.0000  Tot=              2.0867

 Test job not archived.
 1\1\GINC-SE070\SP\RHF\Aug-CC-pVDZ\C1H1B1F2O1S1\OHZDE\09-Apr-2025\0\\#t
  hf aug-cc-pvdz iop(5/13=1,5/36=2,99/5=2) pseudo=read geom=check guess
 =(read,tcheck) scf=(maxcycle=1)\\title\\0,1\F,0,-0.292413,-1.870107,0.
 \F,0,-2.175088,-0.611763,0.\B,0,-0.866573,-0.67986,0.\C,0,0.,0.669471,
 0.\O,0,-0.524944,1.753737,0.\S,0,1.805119,0.531286,0.\H,0,1.858021,-0.
 811167,0.\\Version=ES64L-G16RevC.01\State=1-A'\HF=-736.0280249\RMSD=2.
 560e-01\Dipole=-0.1896989,-0.798737,0.\Quadrupole=4.4336582,0.1843352,
 -4.6179934,1.3214949,0.,0.\PG=CS [SG(C1H1B1F2O1S1)]\\@

 Normal termination of Gaussian 16 at Wed Apr  9 00:33:00 2025.
