 Gaussian 16, Revision C.01,

 ----------------------------------------------------------------------
 #t hf aug-cc-pvdz symm=none int=(grid=ultrafine) guess=(read,tcheck) s
 table=opt
 ----------------------------------------------------------------------
 -----
 title
 -----
 Symbolic Z-matrix:
 Charge =  0 Multiplicity = 2

 SCF Done:  E(UHF) =  -969.757875562     A.U. after   21 cycles
 Normal termination of Gaussian 16 at Wed Apr  9 00:17:56 2025.
 Gaussian 16:  ES64L-G16RevC.01  3-Jul-2019

 ----------------------------------------------------------------------
 #t hf aug-cc-pvdz iop(5/13=1,5/36=2,99/5=2) pseudo=read geom=check gue
 ss=(read,tcheck) scf=(maxcycle=1)
 ----------------------------------------------------------------------
 -----
 title
 -----
 Structure from the checkpoint file:  "BDE49_nonexpt_2557_mol2.chk"
 Charge =  0 Multiplicity = 2

                         Standard orientation:
 ---------------------------------------------------------------------
 Center     Atomic      Atomic             Coordinates (Angstroms)
 Number     Number       Type             X           Y           Z
 ---------------------------------------------------------------------
      1         16           0        1.430139   -0.566782   -0.000001
      2          6           0        0.108617    0.546720    0.000009
      3          8           0        0.086426    1.725269   -0.000003
      4         17           0       -1.425020   -0.471410   -0.000001
 ---------------------------------------------------------------------

 SCF Done:  E(UHF) =  -970.646339320     A.U. after    2 cycles

 The electronic state is 2-A.
 Alpha  occ. eigenvalues --  -99.92196 -75.77642 -21.12508 -13.20078 -13.12150
 Alpha  occ. eigenvalues --  -13.08373 -11.57744 -10.49430  -9.69240  -9.68608
 Alpha  occ. eigenvalues --   -9.68445  -8.11537  -1.78284  -1.35161  -1.20645
 Alpha  occ. eigenvalues --   -0.82956  -0.65778  -0.61145  -0.61043  -0.51931
 Alpha  occ. eigenvalues --   -0.49180  -0.36817  -0.33095  -0.30622
 Alpha virt. eigenvalues --    0.03598   0.06032   0.07568   0.09046   0.10269
 Alpha virt. eigenvalues --    0.12193   0.12664   0.13213   0.15483   0.16033
 Alpha virt. eigenvalues --    0.16634   0.18100   0.19853   0.23422   0.26064

  Beta  occ. eigenvalues --  -99.92112 -75.76612 -21.12482 -13.19551 -13.07711
  Beta  occ. eigenvalues --  -13.05981 -11.57857 -10.49339  -9.69059  -9.68398
  Beta  occ. eigenvalues --   -9.68393  -8.10380  -1.78194  -1.34135  -1.13601
  Beta  occ. eigenvalues --   -0.80787  -0.64417  -0.61008  -0.59942  -0.50885
  Beta  occ. eigenvalues --   -0.49131  -0.34882  -0.29113
  Beta virt. eigenvalues --    0.00327   0.04072   0.06317   0.07847   0.08933
  Beta virt. eigenvalues --    0.11230   0.12415   0.13259   0.13678   0.15709
  Beta virt. eigenvalues --    0.16202   0.17604   0.18359   0.20656   0.24198

 Mulliken charges and spin densities:
               1          2
     1  S    1.453811   1.077231
     2  C    0.378021  -0.070824
     3  O   -1.904849  -0.014859
     4  Cl   0.073016   0.008452
 Sum of Mulliken charges =  -0.00000   1.00000

 Dipole moment (field-independent basis, Debye):
    X=              3.8835    Y=             -0.4439    Z=             -0.0000  Tot=              3.9088
                          Isotropic Fermi Contact Couplings
        Atom                 a.u.       MegaHertz       Gauss      10(-4) cm-1
     1  S(33)              0.33243     114.18188      40.74293      38.08698
     2  C(13)             -0.01105     -12.41872      -4.43131      -4.14244
     3  O(17)              0.00684      -4.14432      -1.47880      -1.38240
     4  Cl(35)             0.04906      21.51127       7.67575       7.17539
 --------------------------------------------------------
       Center         ----  Spin Dipole Couplings  ----
                      3XX-RR        3YY-RR        3ZZ-RR
 --------------------------------------------------------

 Normal termination of Gaussian 16 at Wed Apr  9 00:17:58 2025.
