 Gaussian 16, Revision C.01,

 ----------------------------------------------------------------------
 #t hf aug-cc-pvdz symm=none int=(grid=ultrafine) guess=(read,tcheck) s
 table=opt
 ----------------------------------------------------------------------
 -----
 title
 -----
 Symbolic Z-matrix:
 Charge =  0 Multiplicity = 2

 SCF Done:  E(UHF) =  -423.748142012     A.U. after   16 cycles
 Normal termination of Gaussian 16 at Tue Apr  8 23:52:28 2025.
 Gaussian 16:  ES64L-G16RevC.01  3-Jul-2019

 ----------------------------------------------------------------------
 #t hf aug-cc-pvdz iop(5/13=1,5/36=2,99/5=2) pseudo=read geom=check gue
 ss=(read,tcheck) scf=(maxcycle=1)
 ----------------------------------------------------------------------
 -----
 title
 -----
 Structure from the checkpoint file:  "BDE49_nonexpt_1902_mol2.chk"
 Charge =  0 Multiplicity = 2

                         Standard orientation:
 ---------------------------------------------------------------------
 Center     Atomic      Atomic             Coordinates (Angstroms)
 Number     Number       Type             X           Y           Z
 ---------------------------------------------------------------------
      1         14           0        0.273464   -1.383611    0.000000
      2          7           0       -0.122236    0.307329    0.000000
      3          1           0       -0.362040   -1.957411    1.222868
      4          1           0       -0.362040   -1.957411   -1.222868
      5          6           0       -0.122236    1.102622   -1.218452
      6          1           0       -1.011156    1.745798   -1.252383
      7          1           0       -0.142610    0.454643   -2.096390
      8          1           0        0.762804    1.750861   -1.289546
      9          6           0       -0.122236    1.102622    1.218452
     10          1           0       -0.142610    0.454643    2.096390
     11          1           0       -1.011156    1.745798    1.252383
     12          1           0        0.762804    1.750861    1.289546
 ---------------------------------------------------------------------

 SCF Done:  E(UHF) =  -424.564162402     A.U. after    2 cycles

 The electronic state is 2-A'.
 Alpha  occ. eigenvalues --  -76.22347 -15.70888 -11.39288 -11.38514  -5.55862
 Alpha  occ. eigenvalues --   -2.20712  -2.17897  -2.16589  -1.37967  -1.03608
 Alpha  occ. eigenvalues --   -0.90899  -0.73314  -0.63412  -0.60334  -0.59975
 Alpha  occ. eigenvalues --   -0.54350  -0.50149  -0.46968  -0.45059  -0.37155
 Alpha  occ. eigenvalues --   -0.24973
 Alpha virt. eigenvalues --    0.03517   0.05476   0.05503   0.06123   0.06700
 Alpha virt. eigenvalues --    0.07099   0.07311   0.07967   0.08842   0.09027
 Alpha virt. eigenvalues --    0.10551   0.13201   0.13856   0.13919   0.15073

  Beta  occ. eigenvalues --  -76.21893 -15.70182 -11.39341 -11.38566  -5.55130
  Beta  occ. eigenvalues --   -2.20149  -2.17457  -2.13761  -1.36695  -1.03618
  Beta  occ. eigenvalues --   -0.90078  -0.70619  -0.62343  -0.59802  -0.59138
  Beta  occ. eigenvalues --   -0.54285  -0.50025  -0.45410  -0.44186  -0.32634
  Beta virt. eigenvalues --    0.03489   0.04753   0.05558   0.05834   0.06510
  Beta virt. eigenvalues --    0.06800   0.07156   0.07329   0.08995   0.09251
  Beta virt. eigenvalues --    0.10619   0.10716   0.13877   0.13882   0.14313

 Mulliken charges and spin densities:
               1          2
     1  Si   3.348404   0.947867
     2  N   -2.412425  -0.024829
     3  H   -1.443886   0.037233
     4  H   -1.443886   0.037233
     5  C   -3.236221  -0.003523
     6  H    1.430866   0.006901
     7  H    1.401147   0.000209
     8  H    1.380105  -0.002338
     9  C   -3.236221  -0.003523
    10  H    1.401147   0.000209
    11  H    1.430866   0.006901
    12  H    1.380105  -0.002338
 Sum of Mulliken charges =  -0.00000   1.00000

 Dipole moment (field-independent basis, Debye):
    X=              0.2229    Y=              1.2722    Z=              0.0000  Tot=              1.2916
                          Isotropic Fermi Contact Couplings
        Atom                 a.u.       MegaHertz       Gauss      10(-4) cm-1
     1  Si(29)             0.46971    -417.44560    -148.95497    -139.24487
     2  N(14)              0.06965      22.50295       8.02961       7.50618
     3  H(1)               0.01483      66.30145      23.65801      22.11578
     4  H(1)               0.01483      66.30145      23.65801      22.11578
     5  C(13)             -0.00576      -6.47629      -2.31090      -2.16026
     6  H(1)               0.00156       6.98127       2.49109       2.32870
     7  H(1)               0.00015       0.68188       0.24331       0.22745
     8  H(1)               0.00082       3.67099       1.30990       1.22451

 Normal termination of Gaussian 16 at Tue Apr  8 23:52:32 2025.
