 Gaussian 16, Revision C.01,

 ----------------------------------------------------------------------
 #t hf aug-cc-pvdz symm=none int=(grid=ultrafine) guess=(read,tcheck) s
 table=opt
 ----------------------------------------------------------------------
 -----
 title
 -----
 Symbolic Z-matrix:
 Charge =  0 Multiplicity = 2

 SCF Done:  E(UHF) =  -457.299854658     A.U. after   16 cycles
 Normal termination of Gaussian 16 at Tue Apr  8 23:52:19 2025.
 Gaussian 16:  ES64L-G16RevC.01  3-Jul-2019

 ----------------------------------------------------------------------
 #t hf aug-cc-pvdz iop(5/13=1,5/36=2,99/5=2) pseudo=read geom=check gue
 ss=(read,tcheck) scf=(maxcycle=1)
 ----------------------------------------------------------------------
 -----
 title
 -----
 Structure from the checkpoint file:  "BDE49_nonexpt_1915_mol2.chk"
 Charge =  0 Multiplicity = 2

                         Standard orientation:
 ---------------------------------------------------------------------
 Center     Atomic      Atomic             Coordinates (Angstroms)
 Number     Number       Type             X           Y           Z
 ---------------------------------------------------------------------
      1         14           0       -1.627517   -0.000017   -0.131512
      2          7           0        0.058248    0.000067    0.174071
      3          1           0       -2.213928   -1.223416    0.467376
      4          1           0       -2.213912    1.223443    0.467276
      5          6           0        1.249305   -0.000034    0.035103
      6          8           0        2.413689   -0.000006   -0.065325
 ---------------------------------------------------------------------

 SCF Done:  E(UHF) =  -458.127403786     A.U. after    2 cycles

 The electronic state is 2-A.
 Alpha  occ. eigenvalues --  -76.27439 -21.12247 -15.76890 -11.59174  -5.60795
 Alpha  occ. eigenvalues --   -2.25907  -2.22399  -2.21486  -1.77068  -1.36216
 Alpha  occ. eigenvalues --   -0.86497  -0.65187  -0.61046  -0.60824  -0.58411
 Alpha  occ. eigenvalues --   -0.50139  -0.39823  -0.36386  -0.28124
 Alpha virt. eigenvalues --    0.03959   0.04704   0.05941   0.06794   0.09066
 Alpha virt. eigenvalues --    0.10371   0.11539   0.11875   0.12025   0.13321
 Alpha virt. eigenvalues --    0.16601   0.16673   0.17175   0.19863   0.19967

  Beta  occ. eigenvalues --  -76.26883 -21.12080 -15.76881 -11.59109  -5.59905
  Beta  occ. eigenvalues --   -2.25231  -2.21797  -2.18068  -1.76760  -1.35738
  Beta  occ. eigenvalues --   -0.83902  -0.63750  -0.60712  -0.59897  -0.57465
  Beta  occ. eigenvalues --   -0.48995  -0.37520  -0.36273
  Beta virt. eigenvalues --    0.02670   0.04469   0.04912   0.06128   0.08553
  Beta virt. eigenvalues --    0.09343   0.10820   0.11872   0.12176   0.12255
  Beta virt. eigenvalues --    0.14216   0.17743   0.18534   0.19125   0.20628

 Mulliken charges and spin densities:
               1          2
     1  Si   3.625015   0.971966
     2  N   -2.190249  -0.131619
     3  H   -1.345682   0.017975
     4  H   -1.345684   0.017968
     5  C    3.660321   0.080785
     6  O   -2.403720   0.042925
 Sum of Mulliken charges =  -0.00000   1.00000

 Dipole moment (field-independent basis, Debye):
    X=              0.1026    Y=             -0.0002    Z=             -0.5926  Tot=              0.6014
                          Isotropic Fermi Contact Couplings
        Atom                 a.u.       MegaHertz       Gauss      10(-4) cm-1
     1  Si(29)             0.56856    -505.29592    -180.30215    -168.54858
     2  N(14)              0.01966       6.35252       2.26674       2.11897
     3  H(1)               0.01114      49.79797      17.76915      16.61081
     4  H(1)               0.01114      49.79167      17.76691      16.60871
     5  C(13)              0.00116       1.30815       0.46678       0.43635
     6  O(17)              0.01066      -6.46444      -2.30667      -2.15631
 --------------------------------------------------------
       Center         ----  Spin Dipole Couplings  ----

 1\1\GINC-SE071\SP\UHF\Aug-CC-pVDZ\C1H2N1O1Si1(2)\OHZDE\08-Apr-2025\0\\
 #t hf aug-cc-pvdz iop(5/13=1,5/36=2,99/5=2) pseudo=read geom=check gue
 ss=(read,tcheck) scf=(maxcycle=1)\\title\\0,2\Si,0,1.627517,0.000017,-
 0.131512\N,0,-0.058248,-0.000067,0.174071\H,0,2.213928,1.223416,0.4673
 76\H,0,2.213912,-1.223443,0.467276\C,0,-1.249305,0.000034,0.035103\O,0
 ,-2.413689,0.000006,-0.065325\\Version=ES64L-G16RevC.01\State=2-A\HF=-
 458.1274038\S2=0.755642\S2-1=0.\S2A=0.750016\RMSD=1.193e-01\Dipole=-0.
 0403675,0.000084,-0.2331394\Quadrupole=0.4132702,-0.3011328,-0.1121374

 Normal termination of Gaussian 16 at Tue Apr  8 23:52:21 2025.
