 Gaussian 16, Revision C.01,

 ----------------------------------------------------------------------
 #t hf aug-cc-pvdz symm=none int=(grid=ultrafine) guess=(read,tcheck) s
 table=(opt,rrhf)
 ----------------------------------------------------------------------
 -----
 title
 -----
 Symbolic Z-matrix:
 Charge =  0 Multiplicity = 1

 SCF Done:  E(RHF) =  -536.566026419     A.U. after   12 cycles
 Normal termination of Gaussian 16 at Wed Apr  9 00:20:35 2025.
 Gaussian 16:  ES64L-G16RevC.01  3-Jul-2019

 ----------------------------------------------------------------------
 #t hf aug-cc-pvdz iop(5/13=1,5/36=2,99/5=2) pseudo=read geom=check gue
 ss=(read,tcheck) scf=(maxcycle=1)
 ----------------------------------------------------------------------
 -----
 title
 -----
 Structure from the checkpoint file:  "BDE49_nonexpt_2615_mol1.chk"
 Charge =  0 Multiplicity = 1

                         Standard orientation:
 ---------------------------------------------------------------------
 Center     Atomic      Atomic             Coordinates (Angstroms)
 Number     Number       Type             X           Y           Z
 ---------------------------------------------------------------------
      1          9           0       -1.262785    0.603547    0.000004
      2          1           0        1.403151    1.040836    0.898913
      3          1           0        2.194880   -0.277391   -0.000001
      4          1           0        1.403151    1.040839   -0.898913
      5          6           0        1.355554    0.425951   -0.000001
      6         16           0       -0.110590   -0.611995   -0.000002
 ---------------------------------------------------------------------

 SCF Done:  E(RHF) =  -537.337893079     A.U. after    2 cycles

 The electronic state is 1-A.
 Alpha  occ. eigenvalues --  -75.75397 -29.26387 -13.18361 -13.13155 -13.06441
 Alpha  occ. eigenvalues --  -11.41303  -8.09320  -1.25075  -0.99399  -0.67268
 Alpha  occ. eigenvalues --   -0.61273  -0.58551  -0.47736  -0.39416  -0.33145
 Alpha  occ. eigenvalues --   -0.27935  -0.17140
 Alpha virt. eigenvalues --    0.02735   0.05341   0.05769   0.07406   0.11503
 Alpha virt. eigenvalues --    0.13430   0.14443   0.14751   0.16619   0.17401
 Alpha virt. eigenvalues --    0.20713   0.24392   0.25431   0.27116   0.28710

 Mulliken charges:
               1
     1  F   -0.218855
     2  H    1.351645
     3  H    1.362513
     4  H    1.351645
     5  C   -4.648829
     6  S    0.801881
 Sum of Mulliken charges =   0.00000

 Dipole moment (field-independent basis, Debye):
    X=             -1.5116    Y=              1.1987    Z=              0.0000  Tot=              1.9293

 Test job not archived.
 1\1\GINC-SE435\SP\RHF\Aug-CC-pVDZ\C1H3F1S1\OHZDE\09-Apr-2025\0\\#t hf
 aug-cc-pvdz iop(5/13=1,5/36=2,99/5=2) pseudo=read geom=check guess=(re
 ad,tcheck) scf=(maxcycle=1)\\title\\0,1\F,0,-1.262785,0.603547,0.00000
 4\H,0,1.403151,1.040836,0.898913\H,0,2.19488,-0.277391,-0.000001\H,0,1
 .403151,1.040839,-0.898913\C,0,1.355554,0.425951,-0.000001\S,0,-0.1105
 9,-0.611995,-0.000002\\Version=ES64L-G16RevC.01\State=1-A\HF=-537.3378
 931\RMSD=6.834e-02\Dipole=-0.5947288,0.4716114,0.0000027\Quadrupole=1.
 885055,-0.0351999,-1.849855,-0.3774675,-0.0000064,0.0000059\PG=C01 [X(

 Normal termination of Gaussian 16 at Wed Apr  9 00:20:36 2025.
