 Gaussian 16, Revision C.01,

 ----------------------------------------------------------------------
 #t hf aug-cc-pvdz symm=none int=(grid=ultrafine) guess=(read,tcheck) s
 table=(opt,rrhf)
 ----------------------------------------------------------------------
 -----
 title
 -----
 Symbolic Z-matrix:
 Charge =  0 Multiplicity = 1

 SCF Done:  E(RHF) =  -867.368460299     A.U. after   12 cycles
 Normal termination of Gaussian 16 at Tue Apr  8 23:45:30 2025.
 Gaussian 16:  ES64L-G16RevC.01  3-Jul-2019

 ----------------------------------------------------------------------
 #t hf aug-cc-pvdz iop(5/13=1,5/36=2,99/5=2) pseudo=read geom=check gue
 ss=(read,tcheck) scf=(maxcycle=1)
 ----------------------------------------------------------------------
 -----
 title
 -----
 Structure from the checkpoint file:  "BDE49_nonexpt_1739_mol1.chk"
 Charge =  0 Multiplicity = 1

                         Standard orientation:
 ---------------------------------------------------------------------
 Center     Atomic      Atomic             Coordinates (Angstroms)
 Number     Number       Type             X           Y           Z
 ---------------------------------------------------------------------
      1          6           0       -1.578938   -1.634185   -0.191585
      2         14           0       -0.284010   -0.418716    0.387834
      3          6           0        1.395210   -0.728229   -0.386946
      4          1           0       -2.550134   -1.412099    0.257004
      5          1           0       -1.297047   -2.652721    0.094543
      6          1           0       -1.690901   -1.602825   -1.278523
      7          6           0        2.515038    0.226772    0.060512
      8          1           0        2.669350    0.183339    1.142375
      9          1           0        2.279565    1.262041   -0.197262
     10          1           0        3.464913   -0.026722   -0.418099
     11         17           0       -0.920372    1.517867   -0.127319
     12          1           0        1.278701   -0.694252   -1.476512
     13          1           0        1.664502   -1.765414   -0.145405
     14          1           0       -0.184340   -0.419219    1.864734
 ---------------------------------------------------------------------

 SCF Done:  E(RHF) =  -868.403536142     A.U. after    2 cycles

 The electronic state is 1-A.
 Alpha  occ. eigenvalues --  -99.86854 -76.23964 -11.39935 -11.35770 -11.35175
 Alpha  occ. eigenvalues --  -10.44228  -9.64155  -9.63644  -9.63545  -5.57800
 Alpha  occ. eigenvalues --   -2.21688  -2.20625  -2.19755  -1.27421  -1.15526
 Alpha  occ. eigenvalues --   -1.04503  -0.89830  -0.72354  -0.62143  -0.58363
 Alpha  occ. eigenvalues --   -0.57528  -0.57065  -0.52882  -0.52535  -0.51014
 Alpha  occ. eigenvalues --   -0.49855  -0.49072  -0.43017  -0.38725
 Alpha virt. eigenvalues --    0.03310   0.04454   0.05783   0.05942   0.06538
 Alpha virt. eigenvalues --    0.06829   0.06936   0.07165   0.07944   0.08611
 Alpha virt. eigenvalues --    0.09058   0.10590   0.12347   0.13413   0.14127

 Mulliken charges:
               1
     1  C   -5.049633
     2  Si   5.343962
     3  C   -3.770539
     4  H    1.230273
     5  H    1.389179
     6  H    1.298478
     7  C   -3.683663
     8  H    1.267085
     9  H    1.204709
    10  H    1.158726
    11  Cl  -0.901622
    12  H    1.363940
    13  H    1.455637
    14  H   -2.306531
 Sum of Mulliken charges =  -0.00000

 Dipole moment (field-independent basis, Debye):
    X=              0.8164    Y=             -2.2719    Z=             -0.2998  Tot=              2.4327

 Test job not archived.
 1\1\GINC-SE396\SP\RHF\Aug-CC-pVDZ\C3H9Cl1Si1\OHZDE\08-Apr-2025\0\\#t h
 f aug-cc-pvdz iop(5/13=1,5/36=2,99/5=2) pseudo=read geom=check guess=(
 read,tcheck) scf=(maxcycle=1)\\title\\0,1\C,0,-1.578937,-1.634185,-0.1
 91585\Si,0,-0.28401,-0.418716,0.387834\C,0,1.39521,-0.728229,-0.386946
 \H,0,-2.550134,-1.4121,0.257004\H,0,-1.297046,-2.652721,0.094543\H,0,-
 1.6909,-1.602825,-1.278523\C,0,2.515038,0.226772,0.060512\H,0,2.66935,
 0.183339,1.142375\H,0,2.279565,1.262041,-0.197262\H,0,3.464913,-0.0267
 22,-0.418099\Cl,0,-0.920372,1.517867,-0.127319\H,0,1.278701,-0.694252,

 Normal termination of Gaussian 16 at Tue Apr  8 23:45:34 2025.
