 Gaussian 16, Revision C.01,

 ----------------------------------------------------------------------
 #t hf aug-cc-pvdz symm=none int=(grid=ultrafine) guess=(read,tcheck) s
 table=(opt,rrhf)
 ----------------------------------------------------------------------
 -----
 title
 -----
 Symbolic Z-matrix:
 Charge =  0 Multiplicity = 1

 SCF Done:  E(RHF) =  -667.383831312     A.U. after   12 cycles
 Normal termination of Gaussian 16 at Wed Apr  9 00:35:53 2025.
 Gaussian 16:  ES64L-G16RevC.01  3-Jul-2019

 ----------------------------------------------------------------------
 #t hf aug-cc-pvdz iop(5/13=1,5/36=2,99/5=2) pseudo=read geom=check gue
 ss=(read,tcheck) scf=(maxcycle=1)
 ----------------------------------------------------------------------
 -----
 title
 -----
 Structure from the checkpoint file:  "BDE49_nonexpt_480_mol1.chk"
 Charge =  0 Multiplicity = 1

                         Standard orientation:
 ---------------------------------------------------------------------
 Center     Atomic      Atomic             Coordinates (Angstroms)
 Number     Number       Type             X           Y           Z
 ---------------------------------------------------------------------
      1          1           0        3.257722   -0.776806   -0.238701
      2          1           0        2.423371    1.005932    0.477991
      3          5           0        2.324117   -0.091899    0.030543
      4         15           0       -0.340481    0.022606    0.112987
      5          8           0       -0.644740    0.260859    1.521325
      6          8           0       -0.302713    1.285820   -0.854212
      7          1           0       -0.939458    1.962560   -0.595357
      8          8           0       -1.330879   -0.971046   -0.640979
      9          1           0       -1.745898   -1.592532   -0.031325
     10          8           0        1.089694   -0.635477   -0.208649
 ---------------------------------------------------------------------

 SCF Done:  E(RHF) =  -668.936308190     A.U. after    2 cycles

 The electronic state is 1-A.
 Alpha  occ. eigenvalues -- -105.33955 -21.13190 -21.12787 -21.07722 -21.03683
 Alpha  occ. eigenvalues --   -7.65650  -2.97329  -2.02501  -1.94030  -1.93415
 Alpha  occ. eigenvalues --   -1.77051  -1.45979  -1.41855  -1.26776  -0.82117
 Alpha  occ. eigenvalues --   -0.69865  -0.61889  -0.58553  -0.55597  -0.50194
 Alpha  occ. eigenvalues --   -0.46502  -0.45869  -0.41373  -0.35742  -0.35514
 Alpha  occ. eigenvalues --   -0.30150  -0.29402  -0.17480
 Alpha virt. eigenvalues --    0.03562   0.04187   0.04551   0.04921   0.05870
 Alpha virt. eigenvalues --    0.09188   0.10708   0.11568   0.11954   0.12591
 Alpha virt. eigenvalues --    0.12993   0.14790   0.15297   0.19786   0.20719

 Mulliken charges:
               1
     1  H   -3.466464
     2  H   -3.129575
     3  B    8.366618
     4  P    8.747480
     5  O   -2.774148
     6  O   -2.672142
     7  H    0.863569
     8  O   -2.593040
     9  H    0.799428
    10  O   -4.141726
 Sum of Mulliken charges =  -0.00000

 Dipole moment (field-independent basis, Debye):
    X=             -0.6683    Y=             -0.5181    Z=             -2.5556  Tot=              2.6918

 Test job not archived.
 1\1\GINC-SE367\SP\RHF\Aug-CC-pVDZ\B1H4O4P1\OHZDE\09-Apr-2025\0\\#t hf
 aug-cc-pvdz iop(5/13=1,5/36=2,99/5=2) pseudo=read geom=check guess=(re
 ad,tcheck) scf=(maxcycle=1)\\title\\0,1\H,0,3.257722,-0.776806,-0.2387
 01\H,0,2.423371,1.005932,0.477991\B,0,2.324117,-0.091899,0.030543\P,0,
 -0.340481,0.022606,0.112987\O,0,-0.64474,0.260859,1.521325\O,0,-0.3027
 13,1.28582,-0.854212\H,0,-0.939458,1.96256,-0.595357\O,0,-1.330879,-0.
 971046,-0.640979\H,0,-1.745898,-1.592532,-0.031325\O,0,1.089694,-0.635
 477,-0.208649\\Version=ES64L-G16RevC.01\State=1-A\HF=-668.9363082\RMSD

 Normal termination of Gaussian 16 at Wed Apr  9 00:35:56 2025.
