 Gaussian 16, Revision C.01,

 ----------------------------------------------------------------------
 #t hf aug-cc-pvdz symm=none int=(grid=ultrafine) guess=(read,tcheck) s
 table=(opt,rrhf)
 ----------------------------------------------------------------------
 -----
 title
 -----
 Symbolic Z-matrix:
 Charge =  0 Multiplicity = 1

 SCF Done:  E(RHF) =  -721.183322636     A.U. after   16 cycles
 Normal termination of Gaussian 16 at Wed Apr  9 00:31:09 2025.
 Gaussian 16:  ES64L-G16RevC.01  3-Jul-2019

 ----------------------------------------------------------------------
 #t hf aug-cc-pvdz iop(5/13=1,5/36=2,99/5=2) pseudo=read geom=check gue
 ss=(read,tcheck) scf=(maxcycle=1)
 ----------------------------------------------------------------------
 -----
 title
 -----
 Structure from the checkpoint file:  "BDE49_nonexpt_343_mol1.chk"
 Charge =  0 Multiplicity = 1

                         Standard orientation:
 ---------------------------------------------------------------------
 Center     Atomic      Atomic             Coordinates (Angstroms)
 Number     Number       Type             X           Y           Z
 ---------------------------------------------------------------------
      1          6           0        0.063515    0.098927    0.408462
      2          7           0        0.993240   -1.100660    0.064980
      3          5           0       -1.519800   -0.209080    0.167297
      4          7           0        0.540386    1.212480   -0.580178
      5          9           0        0.372697    0.496357    1.637916
      6          8           0        1.366963    1.987249   -0.165874
      7          8           0       -2.329204    0.547278    0.933824
      8          8           0        0.744009   -1.675417   -0.988083
      9          8           0       -1.959189   -1.134704   -0.699284
     10          8           0        1.867291   -1.364006    0.849803
     11          8           0        0.015098    1.184536   -1.677553
     12          1           0       -1.246376   -1.544983   -1.210862
     13          1           0       -3.265121    0.387383    0.766080
 ---------------------------------------------------------------------

 SCF Done:  E(RHF) =  -724.094839935     A.U. after    2 cycles

 The electronic state is 1-A.
 Alpha  occ. eigenvalues --  -29.35780 -21.16085 -21.14928 -21.14333 -21.14219
 Alpha  occ. eigenvalues --  -21.10510 -21.09708 -16.05129 -16.04593 -11.59120
 Alpha  occ. eigenvalues --   -7.71575  -2.06416  -2.03722  -1.86726  -1.75393
 Alpha  occ. eigenvalues --   -1.74746  -1.71358  -1.36813  -1.04262  -0.98143
 Alpha  occ. eigenvalues --   -0.87601  -0.79826  -0.78347  -0.75358  -0.70005
 Alpha  occ. eigenvalues --   -0.67819  -0.66888  -0.65086  -0.63177  -0.54106
 Alpha  occ. eigenvalues --   -0.52292  -0.48747  -0.45611  -0.43810  -0.40908
 Alpha  occ. eigenvalues --   -0.39427  -0.37886  -0.37237  -0.36080  -0.34076
 Alpha  occ. eigenvalues --   -0.30890  -0.30286
 Alpha virt. eigenvalues --    0.02898   0.04595   0.05163   0.06486   0.07361
 Alpha virt. eigenvalues --    0.08157   0.08753   0.10652   0.12167   0.12577
 Alpha virt. eigenvalues --    0.13921   0.14924   0.15301   0.16440   0.16988

 Mulliken charges:
               1
     1  C    0.938280
     2  N    3.707775
     3  B    7.613214
     4  N    4.311837
     5  F    0.847554
     6  O   -2.878436
     7  O   -4.237864
     8  O   -2.895080
     9  O   -4.420545
    10  O   -2.679225
    11  O   -2.929676
    12  H    1.528545
    13  H    1.093623
 Sum of Mulliken charges =   0.00000

 Dipole moment (field-independent basis, Debye):
    X=             -0.9874    Y=              0.3507    Z=              2.8985  Tot=              3.0821

 Test job not archived.
 1\1\GINC-SE227\SP\RHF\Aug-CC-pVDZ\C1H2B1F1N2O6\OHZDE\09-Apr-2025\0\\#t
  hf aug-cc-pvdz iop(5/13=1,5/36=2,99/5=2) pseudo=read geom=check guess
 =(read,tcheck) scf=(maxcycle=1)\\title\\0,1\C,0,0.063515,0.098927,0.40
 8462\N,0,0.99324,-1.10066,0.06498\B,0,-1.5198,-0.20908,0.167297\N,0,0.
 540386,1.21248,-0.580178\F,0,0.372697,0.496357,1.637916\O,0,1.366963,1
 .987249,-0.165874\O,0,-2.329204,0.547278,0.933824\O,0,0.744009,-1.6754
 17,-0.988083\O,0,-1.959189,-1.134704,-0.699284\O,0,1.867291,-1.364006,
 0.849803\O,0,0.015098,1.184536,-1.677553\H,0,-1.246376,-1.544983,-1.21

 Normal termination of Gaussian 16 at Wed Apr  9 00:31:16 2025.
