 Gaussian 16, Revision C.01,

 ----------------------------------------------------------------------
 #t hf aug-cc-pvdz symm=none int=(grid=ultrafine) guess=(read,tcheck) s
 table=(opt,rrhf)
 ----------------------------------------------------------------------
 -----
 title
 -----
 Symbolic Z-matrix:
 Charge =  0 Multiplicity = 1

 SCF Done:  E(RHF) =  -1354.37366272     A.U. after   13 cycles

 1\1\GINC-SE364\Stability\RHF\Aug-CC-pVDZ\C1Cl2S1\OHZDE\08-Apr-2025\0\\
 #t hf aug-cc-pvdz symm=none int=(grid=ultrafine) guess=(read,tcheck) s
 table=(opt,rrhf)\\title\\0,1\C,0,0.145393,-0.000001,0.000437\S,0,1.744
 716,-0.000012,-0.000071\Cl,0,-0.84669,1.439556,-0.000044\Cl,0,-0.84671
 1,-1.439545,-0.000043\\Version=ES64L-G16RevC.01\HF=-1354.3736627\RMSD=
 4.715e-09\Dipole=-0.2269636,0.0000032,-0.0000653\Quadrupole=0.0350931,
 0.0413335,-0.0764266,-0.0000013,-0.0002845,0.\PG=Unknown\\@
 The archive entry for this job was punched.

 Normal termination of Gaussian 16 at Tue Apr  8 22:51:31 2025.
 Gaussian 16:  ES64L-G16RevC.01  3-Jul-2019

 ----------------------------------------------------------------------
 #t hf aug-cc-pvdz iop(5/13=1,5/36=2,99/5=2) pseudo=read geom=check gue
 ss=(read,tcheck) scf=(maxcycle=1)
 ----------------------------------------------------------------------
 -----
 title
 -----
 Structure from the checkpoint file:  "BDE49_expt_1726_mol1.chk"
 Charge =  0 Multiplicity = 1

                         Standard orientation:
 ---------------------------------------------------------------------
 Center     Atomic      Atomic             Coordinates (Angstroms)
 Number     Number       Type             X           Y           Z
 ---------------------------------------------------------------------
      1          6           0        0.145393   -0.000002    0.000437
      2         16           0        1.744716   -0.000024   -0.000071
      3         17           0       -0.846680    1.439562   -0.000044
      4         17           0       -0.846721   -1.439539   -0.000043
 ---------------------------------------------------------------------

 SCF Done:  E(RHF) =  -1355.24898968     A.U. after    2 cycles

 The electronic state is 1-A.
 Alpha  occ. eigenvalues --  -99.93966 -99.93953 -75.71264 -13.18242 -13.03513
 Alpha  occ. eigenvalues --  -13.02158 -11.56192 -10.51492 -10.51174  -9.71254
 Alpha  occ. eigenvalues --   -9.70980  -9.70383  -9.70270  -9.70267  -9.70217
 Alpha  occ. eigenvalues --   -8.05613  -1.45186  -1.32395  -1.17727  -0.88061
 Alpha  occ. eigenvalues --   -0.70321  -0.63407  -0.63396  -0.55016  -0.52637
 Alpha  occ. eigenvalues --   -0.49117  -0.37153  -0.27318
 Alpha virt. eigenvalues --    0.01832   0.02290   0.04290   0.06968   0.07135
 Alpha virt. eigenvalues --    0.10186   0.11739   0.12815   0.15248   0.15399
 Alpha virt. eigenvalues --    0.16069   0.16240   0.17612   0.18784   0.20370

 Mulliken charges:
               1
     1  C   -2.355198
     2  S    2.161026
     3  Cl   0.097086
     4  Cl   0.097086
 Sum of Mulliken charges =  -0.00000

 Dipole moment (field-independent basis, Debye):
    X=              4.6923    Y=             -0.0001    Z=             -0.0017  Tot=              4.6923

 Test job not archived.
 1\1\GINC-SE364\SP\RHF\Aug-CC-pVDZ\C1Cl2S1\OHZDE\08-Apr-2025\0\\#t hf a
 ug-cc-pvdz iop(5/13=1,5/36=2,99/5=2) pseudo=read geom=check guess=(rea
 d,tcheck) scf=(maxcycle=1)\\title\\0,1\C,0,0.145393,-0.000001,0.000437
 \S,0,1.744716,-0.000012,-0.000071\Cl,0,-0.84669,1.439556,-0.000044\Cl,
 0,-0.846711,-1.439545,-0.000043\\Version=ES64L-G16RevC.01\State=1-A\HF
 =-1355.2489897\RMSD=1.342e-01\Dipole=1.8461111,-0.0000107,-0.0006754\Q
 uadrupole=5.3253172,-2.968587,-2.3567302,-0.0000584,-0.0015466,0.00000
 02\PG=C01 [X(C1Cl2S1)]\\@

 Normal termination of Gaussian 16 at Tue Apr  8 22:51:32 2025.
