 Gaussian 16, Revision C.01,

 ----------------------------------------------------------------------
 #t hf aug-cc-pvdz symm=none int=(grid=ultrafine) guess=(read,tcheck) s
 table=(opt,rrhf)
 ----------------------------------------------------------------------
 -----
 title
 -----
 Symbolic Z-matrix:
 Charge =  0 Multiplicity = 1

 SCF Done:  E(RHF) =  -490.429354371     A.U. after   14 cycles
 Normal termination of Gaussian 16 at Tue Apr  8 23:07:43 2025.
 Gaussian 16:  ES64L-G16RevC.01  3-Jul-2019

 ----------------------------------------------------------------------
 #t hf aug-cc-pvdz iop(5/13=1,5/36=2,99/5=2) pseudo=read geom=check gue
 ss=(read,tcheck) scf=(maxcycle=1)
 ----------------------------------------------------------------------
 -----
 title
 -----
 Structure from the checkpoint file:  "BDE49_expt_405_mol1.chk"
 Charge =  0 Multiplicity = 1

                         Standard orientation:
 ---------------------------------------------------------------------
 Center     Atomic      Atomic             Coordinates (Angstroms)
 Number     Number       Type             X           Y           Z
 ---------------------------------------------------------------------
      1          7           0       -0.135123    1.689730   -0.000000
      2          6           0       -0.000000    0.496775   -0.000000
      3         16           0        0.026279   -1.078577    0.000000
      4          1           0        0.525400    2.448472   -0.000000
 ---------------------------------------------------------------------

 SCF Done:  E(RHF) =  -491.064194786     A.U. after    2 cycles

 The electronic state is 1-A'.
 Alpha  occ. eigenvalues --  -75.70187 -15.80400 -13.21004 -13.01402 -13.01375
 Alpha  occ. eigenvalues --  -11.53653  -8.04505  -1.39951  -1.15948  -0.81344
 Alpha  occ. eigenvalues --   -0.57632  -0.54205  -0.53343  -0.29517  -0.26697
 Alpha virt. eigenvalues --    0.02708   0.05939   0.08437   0.10494   0.11510
 Alpha virt. eigenvalues --    0.12516   0.13836   0.15331   0.16905   0.18118
 Alpha virt. eigenvalues --    0.18812   0.22008   0.23670   0.25573   0.30553

 Mulliken charges:
               1
     1  N   -2.793343
     2  C    0.334823
     3  S    1.564272
     4  H    0.894248
 Sum of Mulliken charges =   0.00000

 Dipole moment (field-independent basis, Debye):
    X=              1.1085    Y=             -1.9662    Z=              0.0000  Tot=              2.2572

 Test job not archived.
 1\1\GINC-SE039\SP\RHF\Aug-CC-pVDZ\C1H1N1S1\OHZDE\08-Apr-2025\0\\#t hf
 aug-cc-pvdz iop(5/13=1,5/36=2,99/5=2) pseudo=read geom=check guess=(re
 ad,tcheck) scf=(maxcycle=1)\\title\\0,1\N,0,-0.135123,1.68973,0.\C,0,0
 .,0.496775,0.\S,0,0.026279,-1.078577,0.\H,0,0.5254,2.448472,0.\\Versio
 n=ES64L-G16RevC.01\State=1-A'\HF=-491.0641948\RMSD=1.579e-01\Dipole=0.
 4361336,-0.7735804,0.\Quadrupole=-1.7981975,4.5680542,-2.7698566,2.222
 159,0.,0.\PG=CS [SG(C1H1N1S1)]\\@

 Normal termination of Gaussian 16 at Tue Apr  8 23:07:45 2025.
