 Gaussian 16, Revision C.01,

 ----------------------------------------------------------------------
 #t hf aug-cc-pvdz symm=none int=(grid=ultrafine) guess=(read,tcheck) s
 table=(opt,rrhf)
 ----------------------------------------------------------------------
 -----
 title
 -----
 Symbolic Z-matrix:
 Charge =  0 Multiplicity = 1

 SCF Done:  E(RHF) =  -1045.15225146     A.U. after   14 cycles
 Normal termination of Gaussian 16 at Tue Apr  8 23:18:50 2025.
 Gaussian 16:  ES64L-G16RevC.01  3-Jul-2019

 ----------------------------------------------------------------------
 #t hf aug-cc-pvdz iop(5/13=1,5/36=2,99/5=2) pseudo=read geom=check gue
 ss=(read,tcheck) scf=(maxcycle=1)
 ----------------------------------------------------------------------
 -----
 title
 -----
 Structure from the checkpoint file:  "BDE49_nonexpt_1059_mol1.chk"
 Charge =  0 Multiplicity = 1

                         Standard orientation:
 ---------------------------------------------------------------------
 Center     Atomic      Atomic             Coordinates (Angstroms)
 Number     Number       Type             X           Y           Z
 ---------------------------------------------------------------------
      1         17           0        1.880645   -0.152550   -0.000074
      2          8           0        0.526115    0.908635    0.000129
      3          6           0       -0.727278    0.336669    0.000276
      4         16           0       -1.124153   -1.231554   -0.000050
      5          8           0       -1.590200    1.351843   -0.000073
      6          1           0       -1.108180    2.194374   -0.000049
 ---------------------------------------------------------------------

 SCF Done:  E(RHF) =  -1046.39125508     A.U. after    2 cycles

 The electronic state is 1-A.
 Alpha  occ. eigenvalues --  -99.97777 -75.67215 -21.17346 -21.16488 -13.16775
 Alpha  occ. eigenvalues --  -13.00736 -12.98192 -11.56064 -10.54454  -9.74362
 Alpha  occ. eigenvalues --   -9.73439  -9.73295  -8.01573  -1.92365  -1.75266
 Alpha  occ. eigenvalues --   -1.28968  -1.16106  -0.84645  -0.72870  -0.66306
 Alpha  occ. eigenvalues --   -0.65073  -0.56451  -0.55120  -0.50925  -0.45132
 Alpha  occ. eigenvalues --   -0.40319  -0.28461  -0.24596
 Alpha virt. eigenvalues --    0.00964   0.03290   0.07288   0.08483   0.09536
 Alpha virt. eigenvalues --    0.11909   0.11923   0.12702   0.14042   0.15005
 Alpha virt. eigenvalues --    0.15957   0.17902   0.18225   0.19131   0.20011

 Mulliken charges:
               1
     1  Cl   0.706895
     2  O   -2.072495
     3  C    1.530967
     4  S    1.563772
     5  O   -2.704848
     6  H    0.975709
 Sum of Mulliken charges =  -0.00000

 Dipole moment (field-independent basis, Debye):
    X=             -1.5341    Y=              0.8195    Z=             -0.0011  Tot=              1.7392

 Test job not archived.
 1\1\GINC-SE424\SP\RHF\Aug-CC-pVDZ\C1H1Cl1O2S1\OHZDE\08-Apr-2025\0\\#t
 hf aug-cc-pvdz iop(5/13=1,5/36=2,99/5=2) pseudo=read geom=check guess=
 (read,tcheck) scf=(maxcycle=1)\\title\\0,1\Cl,0,-1.880645,-0.15255,0.0
 00074\O,0,-0.526115,0.908635,-0.000129\C,0,0.727278,0.336669,-0.000276
 \S,0,1.124153,-1.231554,0.00005\O,0,1.5902,1.351843,0.000073\H,0,1.108
 18,2.194374,0.000049\\Version=ES64L-G16RevC.01\State=1-A\HF=-1046.3912
 551\RMSD=1.191e-01\Dipole=0.6035436,0.3224,0.0004511\Quadrupole=-2.392
 4503,5.0248907,-2.6324404,0.4219369,0.0006909,-0.0011973\PG=C01 [X(C1H

 Normal termination of Gaussian 16 at Tue Apr  8 23:18:53 2025.
