 Gaussian 16, Revision C.01,

 ----------------------------------------------------------------------
 #t hf aug-cc-pvdz symm=none int=(grid=ultrafine) guess=(read,tcheck) s
 table=opt
 ----------------------------------------------------------------------
 -----
 title
 -----
 Symbolic Z-matrix:
 Charge =  0 Multiplicity = 2

 SCF Done:  E(UHF) =  -559.684586856     A.U. after   15 cycles
 Normal termination of Gaussian 16 at Tue Apr  8 23:41:08 2025.
 Gaussian 16:  ES64L-G16RevC.01  3-Jul-2019

 ----------------------------------------------------------------------
 #t hf aug-cc-pvdz iop(5/13=1,5/36=2,99/5=2) pseudo=read geom=check gue
 ss=(read,tcheck) scf=(maxcycle=1)
 ----------------------------------------------------------------------
 -----
 title
 -----
 Structure from the checkpoint file:  "BDE49_nonexpt_162_mol2.chk"
 Charge =  0 Multiplicity = 2

                         Standard orientation:
 ---------------------------------------------------------------------
 Center     Atomic      Atomic             Coordinates (Angstroms)
 Number     Number       Type             X           Y           Z
 ---------------------------------------------------------------------
      1         17           0        1.064096    0.070301   -0.000001
      2          8           0       -1.701070    0.097184    0.000003
      3          5           0       -0.576324   -0.606815   -0.000006
      4          1           0       -1.599458    1.061487    0.000014
 ---------------------------------------------------------------------

 SCF Done:  E(UHF) =  -560.313647889     A.U. after    2 cycles

 The electronic state is 2-A.
 Alpha  occ. eigenvalues --  -99.90096 -21.09593 -10.47379  -9.67408  -9.66732
 Alpha  occ. eigenvalues --   -9.66582  -7.71164  -1.77584  -1.33244  -0.78001
 Alpha  occ. eigenvalues --   -0.68163  -0.58240  -0.56321  -0.45828  -0.45192
 Alpha  occ. eigenvalues --   -0.35583
 Alpha virt. eigenvalues --    0.03483   0.04511   0.04600   0.05448   0.10051
 Alpha virt. eigenvalues --    0.10636   0.12598   0.16242   0.16729   0.18484
 Alpha virt. eigenvalues --    0.19815   0.21933   0.22606   0.23067   0.23599

  Beta  occ. eigenvalues --  -99.89967 -21.09527 -10.47225  -9.67038  -9.66542
  Beta  occ. eigenvalues --   -9.66509  -7.68943  -1.77066  -1.32038  -0.74209
  Beta  occ. eigenvalues --   -0.66816  -0.55922  -0.55580  -0.45410  -0.45352
  Beta virt. eigenvalues --    0.01654   0.04121   0.04643   0.04762   0.08355
  Beta virt. eigenvalues --    0.11174   0.13444   0.13590   0.16550   0.16955
  Beta virt. eigenvalues --    0.18788   0.21211   0.22309   0.22591   0.23243

 Mulliken charges and spin densities:
               1          2
     1  Cl  -0.771649   0.088255
     2  O   -2.369624  -0.265725
     3  B    1.969842   1.174661
     4  H    1.171431   0.002808
 Sum of Mulliken charges =   0.00000   1.00000

 Dipole moment (field-independent basis, Debye):
    X=             -1.1498    Y=              1.0539    Z=              0.0000  Tot=              1.5597
                          Isotropic Fermi Contact Couplings
        Atom                 a.u.       MegaHertz       Gauss      10(-4) cm-1
     1  Cl(35)             0.19923      87.35357      31.16993      29.13801
     2  O(17)              0.13742     -83.30306     -29.72460     -27.78691
     3  B(11)              0.35817     513.74900     183.31842     171.36822
     4  H(1)               0.01358      60.71312      21.66395      20.25172
 --------------------------------------------------------
       Center         ----  Spin Dipole Couplings  ----
                      3XX-RR        3YY-RR        3ZZ-RR
 --------------------------------------------------------

 Normal termination of Gaussian 16 at Tue Apr  8 23:41:10 2025.
