 Gaussian 16, Revision C.01,

 ----------------------------------------------------------------------
 #t hf aug-cc-pvdz symm=none int=(grid=ultrafine) guess=(read,tcheck) s
 table=opt
 ----------------------------------------------------------------------
 -----
 title
 -----
 Symbolic Z-matrix:
 Charge =  0 Multiplicity = 2

 SCF Done:  E(UHF) =  -384.700602661     A.U. after   15 cycles
 Normal termination of Gaussian 16 at Tue Apr  8 23:42:14 2025.
 Gaussian 16:  ES64L-G16RevC.01  3-Jul-2019

 ----------------------------------------------------------------------
 #t hf aug-cc-pvdz iop(5/13=1,5/36=2,99/5=2) pseudo=read geom=check gue
 ss=(read,tcheck) scf=(maxcycle=1)
 ----------------------------------------------------------------------
 -----
 title
 -----
 Structure from the checkpoint file:  "BDE49_nonexpt_1664_mol2.chk"
 Charge =  0 Multiplicity = 2

                         Standard orientation:
 ---------------------------------------------------------------------
 Center     Atomic      Atomic             Coordinates (Angstroms)
 Number     Number       Type             X           Y           Z
 ---------------------------------------------------------------------
      1         14           0       -1.171378   -0.135531   -0.115815
      2          6           0        0.557153    0.626193    0.098565
      3          7           0        1.595410   -0.388058   -0.130702
      4          1           0        0.603415    1.128481    1.081677
      5          1           0        0.667896    1.416309   -0.651313
      6          1           0        1.573536   -1.089428    0.602248
      7          1           0        2.519899    0.030803   -0.108680
      8          1           0       -2.219415    0.793221    0.392044
      9          1           0       -1.256823   -1.422702    0.628965
 ---------------------------------------------------------------------

 SCF Done:  E(UHF) =  -385.307913995     A.U. after    2 cycles

 The electronic state is 2-A.
 Alpha  occ. eigenvalues --  -76.21895 -15.73673 -11.37316  -5.55308  -2.18845
 Alpha  occ. eigenvalues --   -2.17416  -2.16464  -1.32067  -0.95719  -0.73884
 Alpha  occ. eigenvalues --   -0.64849  -0.60996  -0.54001  -0.46675  -0.42353
 Alpha  occ. eigenvalues --   -0.35231  -0.26856
 Alpha virt. eigenvalues --    0.03690   0.05136   0.05471   0.05904   0.06902
 Alpha virt. eigenvalues --    0.07644   0.08711   0.09362   0.10707   0.12051
 Alpha virt. eigenvalues --    0.14435   0.15390   0.16180   0.18542   0.18815

  Beta  occ. eigenvalues --  -76.21340 -15.73691 -11.37283  -5.54433  -2.18159
  Beta  occ. eigenvalues --   -2.16771  -2.12933  -1.32003  -0.95079  -0.70283
  Beta  occ. eigenvalues --   -0.63969  -0.60560  -0.53735  -0.45905  -0.41909
  Beta  occ. eigenvalues --   -0.34699
  Beta virt. eigenvalues --    0.03551   0.04397   0.05428   0.05567   0.06454
  Beta virt. eigenvalues --    0.07007   0.07800   0.09300   0.10830   0.11231
  Beta virt. eigenvalues --    0.12533   0.14807   0.15934   0.17146   0.18779

 Mulliken charges and spin densities:
               1          2
     1  Si   3.887262   1.018446
     2  C   -2.942945   0.022656
     3  N   -1.998670  -0.034829
     4  H    1.365186  -0.002552
     5  H    1.394748   0.008545
     6  H    0.641180  -0.003021
     7  H    0.584344  -0.004592
     8  H   -1.477418   0.008080
     9  H   -1.453689  -0.012732
 Sum of Mulliken charges =  -0.00000   1.00000

 Dipole moment (field-independent basis, Debye):
    X=              1.1409    Y=              0.6758    Z=              0.5164  Tot=              1.4230
                          Isotropic Fermi Contact Couplings
        Atom                 a.u.       MegaHertz       Gauss      10(-4) cm-1
     1  Si(29)             0.48017    -426.74392    -152.27284    -142.34645
     2  C(13)              0.01060      11.92093       4.25369       3.97640
     3  N(14)             -0.00425      -1.37435      -0.49040      -0.45843
     4  H(1)               0.00637      28.46573      10.15728       9.49514
     5  H(1)               0.00156       6.97556       2.48905       2.32680
     6  H(1)              -0.00002      -0.07736      -0.02760      -0.02581
     7  H(1)              -0.00015      -0.68696      -0.24513      -0.22915
     8  H(1)               0.00514      22.95847       8.19215       7.65812

 Normal termination of Gaussian 16 at Tue Apr  8 23:42:17 2025.
