 Gaussian 16, Revision C.01,

 ----------------------------------------------------------------------
 #t hf aug-cc-pvdz symm=none int=(grid=ultrafine) guess=(read,tcheck) s
 table=(opt,rrhf)
 ----------------------------------------------------------------------
 -----
 title
 -----
 Symbolic Z-matrix:
 Charge =  0 Multiplicity = 1

 SCF Done:  E(RHF) =  -211.153407780     A.U. after   12 cycles
 Normal termination of Gaussian 16 at Tue Apr  8 22:40:37 2025.
 Gaussian 16:  ES64L-G16RevC.01  3-Jul-2019

 ----------------------------------------------------------------------
 #t hf aug-cc-pvdz iop(5/13=1,5/36=2,99/5=2) pseudo=read geom=check gue
 ss=(read,tcheck) scf=(maxcycle=1)
 ----------------------------------------------------------------------
 -----
 title
 -----
 Structure from the checkpoint file:  "BDE49_expt_1284_mol1.chk"
 Charge =  0 Multiplicity = 1

                         Standard orientation:
 ---------------------------------------------------------------------
 Center     Atomic      Atomic             Coordinates (Angstroms)
 Number     Number       Type             X           Y           Z
 ---------------------------------------------------------------------
      1          7           0        1.890045   -0.106565   -0.107490
      2          6           0        0.535057    0.000338    0.396255
      3          1           0        1.898762   -0.024824   -1.120342
      4          1           0        2.474181    0.640133    0.256660
      5          6           0       -0.476496   -1.079006   -0.063824
      6          6           0       -0.477634    1.089000   -0.093537
      7          6           0       -1.587747    0.005549   -0.039077
      8          1           0       -0.255185    1.381488   -1.125042
      9          1           0       -0.600649    1.991712    0.509997
     10          1           0       -2.322843   -0.006202   -0.845137
     11          1           0       -2.118833    0.018314    0.915707
     12          1           0        0.584259    0.015420    1.489886
     13          1           0       -0.255178   -1.397820   -1.087527
     14          1           0       -0.593913   -1.967546    0.559331
 ---------------------------------------------------------------------

 SCF Done:  E(RHF) =  -212.219561016     A.U. after    2 cycles

 The electronic state is 1-A.
 Alpha  occ. eigenvalues --  -15.72589 -11.48203 -11.39254 -11.38268 -11.33604
 Alpha  occ. eigenvalues --   -1.37706  -1.21631  -0.95025  -0.91368  -0.78789
 Alpha  occ. eigenvalues --   -0.67704  -0.63781  -0.61617  -0.53496  -0.51910
 Alpha  occ. eigenvalues --   -0.50790  -0.44376  -0.42001  -0.39997  -0.32524
 Alpha virt. eigenvalues --    0.04298   0.05477   0.05674   0.05989   0.06050
 Alpha virt. eigenvalues --    0.06160   0.06401   0.06613   0.09204   0.12604
 Alpha virt. eigenvalues --    0.13089   0.13752   0.14152   0.14942   0.15614

 Mulliken charges:
               1
     1  N   -3.267899
     2  C    1.472700
     3  H    0.428764
     4  H    0.549853
     5  C   -2.916482
     6  C   -2.833295
     7  C   -2.578896
     8  H    1.377399
     9  H    1.174541
    10  H    1.246276
    11  H    1.283559
    12  H    1.505260
    13  H    1.395106
    14  H    1.163113
 Sum of Mulliken charges =  -0.00000

 Dipole moment (field-independent basis, Debye):
    X=             -0.1647    Y=              0.8764    Z=             -0.1855  Tot=              0.9108

 Test job not archived.
 1\1\GINC-SE250\SP\RHF\Aug-CC-pVDZ\C4H9N1\OHZDE\08-Apr-2025\0\\#t hf au
 g-cc-pvdz iop(5/13=1,5/36=2,99/5=2) pseudo=read geom=check guess=(read
 ,tcheck) scf=(maxcycle=1)\\title\\0,1\N,0,1.890045,-0.106565,-0.10749\
 C,0,0.535057,0.000338,0.396255\H,0,1.898762,-0.024824,-1.120342\H,0,2.
 474181,0.640133,0.25666\C,0,-0.476496,-1.079006,-0.063824\C,0,-0.47763
 4,1.089,-0.093537\C,0,-1.587747,0.005549,-0.039077\H,0,-0.255185,1.381
 488,-1.125042\H,0,-0.600649,1.991712,0.509997\H,0,-2.322843,-0.006202,
 -0.845137\H,0,-2.118833,0.018314,0.915707\H,0,0.584259,0.01542,1.48988

 Normal termination of Gaussian 16 at Tue Apr  8 22:40:40 2025.
