 Gaussian 16, Revision C.01,

 ----------------------------------------------------------------------
 #t hf aug-cc-pvdz symm=none int=(grid=ultrafine) guess=(read,tcheck) s
 table=(opt,rrhf)
 ----------------------------------------------------------------------
 -----
 title
 -----
 Symbolic Z-matrix:
 Charge =  0 Multiplicity = 1

 SCF Done:  E(RHF) =  -620.901137755     A.U. after   15 cycles
 Normal termination of Gaussian 16 at Tue Apr  8 23:47:37 2025.
 Gaussian 16:  ES64L-G16RevC.01  3-Jul-2019

 ----------------------------------------------------------------------
 #t hf aug-cc-pvdz iop(5/13=1,5/36=2,99/5=2) pseudo=read geom=check gue
 ss=(read,tcheck) scf=(maxcycle=1)
 ----------------------------------------------------------------------
 -----
 title
 -----
 Structure from the checkpoint file:  "BDE49_nonexpt_158_mol1.chk"
 Charge =  0 Multiplicity = 1

                         Standard orientation:
 ---------------------------------------------------------------------
 Center     Atomic      Atomic             Coordinates (Angstroms)
 Number     Number       Type             X           Y           Z
 ---------------------------------------------------------------------
      1          5           0        0.673427   -1.813402   -0.483262
      2          5           0       -0.675886   -1.812627    0.487211
      3          6           0       -1.951511   -0.940847    0.355929
      4          6           0       -2.045254    0.076168   -0.613025
      5          6           0       -3.053086   -1.141258    1.213391
      6          6           0       -4.193059   -0.353805    1.093522
      7          6           0       -4.262652    0.645162    0.127623
      8          6           0       -3.185035    0.878795   -0.742492
      9          1           0       -3.003592   -1.917061    1.968479
     10          1           0       -5.038708   -0.511305    1.754439
     11          6           0        1.948128   -0.938520   -0.356997
     12          6           0        2.042163    0.082794    0.607472
     13          6           0        3.050794   -1.144444   -1.211515
     14          6           0        4.191867   -0.358134   -1.093759
     15          6           0        4.260909    0.646247   -0.133489
     16          6           0        3.183522    0.883096    0.735845
     17          1           0        3.001951   -1.924823   -1.961877
     18          1           0        5.038851   -0.521263   -1.751567
     19          7           0       -3.277875    1.842017   -1.748588
     20          7           0        3.229738    1.930918    1.658529
     21          1           0       -1.207466    0.249748   -1.282680
     22          1           0        1.201423    0.264062    1.271524
     23          1           0       -5.159441    1.251225    0.038604
     24          1           0        5.153670    1.259570   -0.054048
     25          1           0       -3.919559    2.599188   -1.564764
     26          1           0       -2.394279    2.174327   -2.106196
     27          1           0        4.156068    2.203711    1.953120
     28          1           0        2.600309    1.836061    2.442232
     29          1           0       -0.687589   -2.625101    1.377586
     30          1           0        0.686891   -2.630259   -1.369205
 ---------------------------------------------------------------------

 SCF Done:  E(RHF) =  -623.838223686     A.U. after    2 cycles

 The electronic state is 1-A.
 Alpha  occ. eigenvalues --  -15.75814 -15.75661 -11.51365 -11.50876 -11.44868
 Alpha  occ. eigenvalues --  -11.44699 -11.42800 -11.42513 -11.41134 -11.41011
 Alpha  occ. eigenvalues --  -11.40265 -11.40134 -11.35299 -11.35186  -7.60069
 Alpha  occ. eigenvalues --   -7.59987  -1.41162  -1.40630  -1.26682  -1.26516
 Alpha  occ. eigenvalues --   -1.10829  -1.09679  -1.05198  -1.05080  -0.93439
 Alpha  occ. eigenvalues --   -0.88056  -0.85702  -0.84555  -0.80385  -0.72614
 Alpha  occ. eigenvalues --   -0.69237  -0.68306  -0.67163  -0.66832  -0.63913
 Alpha  occ. eigenvalues --   -0.61634  -0.58313  -0.57801  -0.55143  -0.54186
 Alpha  occ. eigenvalues --   -0.52889  -0.52754  -0.52152  -0.50646  -0.45685
 Alpha  occ. eigenvalues --   -0.44810  -0.43122  -0.42880  -0.40582  -0.40446
 Alpha  occ. eigenvalues --   -0.33997  -0.33543  -0.33329  -0.27400  -0.27231
 Alpha virt. eigenvalues --    0.03233   0.03647   0.04147   0.04285   0.05040
 Alpha virt. eigenvalues --    0.05378   0.05411   0.05530   0.05626   0.07054
 Alpha virt. eigenvalues --    0.07189   0.07265   0.08173   0.08371   0.08600

 Mulliken charges:
               1
     1  B    2.799124
     2  B    2.934398
     3  C   -0.920068
     4  C    0.845720
     5  C   -3.064527
     6  C    0.032377
     7  C   -3.218068
     8  C    2.329562
     9  H    2.141381
    10  H    1.580217
    11  C   -0.810657
    12  C    0.548015
    13  C   -3.022010
    14  C    0.050398
    15  C   -3.302029
    16  C    2.574638
    17  H    2.142571
    18  H    1.579802
    19  N   -4.106037
    20  N   -4.115200
    21  H    2.316366
    22  H    2.284389
    23  H    1.722467
    24  H    1.724208
    25  H    0.644986
    26  H    0.657164
    27  H    0.644704
    28  H    0.659181
    29  H   -3.857934
    30  H   -3.795137
 Sum of Mulliken charges =   0.00000

 Dipole moment (field-independent basis, Debye):
    X=              0.6000    Y=              3.2860    Z=              0.9688  Tot=              3.4779

 Test job not archived.
 1\1\GINC-SE455\SP\RHF\Aug-CC-pVDZ\C12H14B2N2\OHZDE\08-Apr-2025\0\\#t h
 f aug-cc-pvdz iop(5/13=1,5/36=2,99/5=2) pseudo=read geom=check guess=(
 read,tcheck) scf=(maxcycle=1)\\title\\0,1\B,0,0.673427,-1.813402,-0.48
 3262\B,0,-0.675886,-1.812627,0.487211\C,0,-1.951511,-0.940847,0.355929
 \C,0,-2.045254,0.076168,-0.613025\C,0,-3.053086,-1.141258,1.213391\C,0
 ,-4.193059,-0.353805,1.093522\C,0,-4.262652,0.645162,0.127623\C,0,-3.1
 85035,0.878795,-0.742492\H,0,-3.003592,-1.917061,1.968479\H,0,-5.03870
 8,-0.511305,1.754439\C,0,1.948128,-0.93852,-0.356997\C,0,2.042163,0.08

 Normal termination of Gaussian 16 at Tue Apr  8 23:48:09 2025.
