 Gaussian 16, Revision C.01,

 ----------------------------------------------------------------------
 #t hf aug-cc-pvdz symm=none int=(grid=ultrafine) guess=(read,tcheck) s
 table=(opt,rrhf)
 ----------------------------------------------------------------------
 -----
 title
 -----
 Symbolic Z-matrix:
 Charge =  0 Multiplicity = 1

 SCF Done:  E(RHF) =  -1024.09737369     A.U. after   16 cycles
 Normal termination of Gaussian 16 at Tue Apr  8 23:18:49 2025.
 Gaussian 16:  ES64L-G16RevC.01  3-Jul-2019

 ----------------------------------------------------------------------
 #t hf aug-cc-pvdz iop(5/13=1,5/36=2,99/5=2) pseudo=read geom=check gue
 ss=(read,tcheck) scf=(maxcycle=1)
 ----------------------------------------------------------------------
 -----
 title
 -----
 Structure from the checkpoint file:  "BDE49_nonexpt_1052_mol1.chk"
 Charge =  0 Multiplicity = 1

                         Standard orientation:
 ---------------------------------------------------------------------
 Center     Atomic      Atomic             Coordinates (Angstroms)
 Number     Number       Type             X           Y           Z
 ---------------------------------------------------------------------
      1         17           0       -1.897851   -0.538030   -0.140033
      2          8           0       -0.656482    0.521732    0.682195
      3          6           0        1.698930   -0.343558   -0.014865
      4          7           0        2.472110   -1.201041    0.084111
      5         16           0        0.626061    0.965080   -0.223537
 ---------------------------------------------------------------------

 SCF Done:  E(RHF) =  -1025.26325560     A.U. after    2 cycles

 The electronic state is 1-A.
 Alpha  occ. eigenvalues --  -99.97784 -75.81787 -21.18467 -15.80225 -13.30243
 Alpha  occ. eigenvalues --  -13.24134 -13.14319 -11.46053 -10.54281  -9.74007
 Alpha  occ. eigenvalues --   -9.73361  -9.73318  -8.15732  -1.82490  -1.34500
 Alpha  occ. eigenvalues --   -1.29990  -1.13148  -0.72863  -0.63839  -0.62457
 Alpha  occ. eigenvalues --   -0.59736  -0.54107  -0.52503  -0.50973  -0.44612
 Alpha  occ. eigenvalues --   -0.41770  -0.30961
 Alpha virt. eigenvalues --   -0.01155   0.04117   0.06195   0.07756   0.10145
 Alpha virt. eigenvalues --    0.10845   0.12103   0.12820   0.13252   0.14193
 Alpha virt. eigenvalues --    0.15106   0.17200   0.17673   0.18688   0.19731

 Mulliken charges:
               1
     1  Cl   0.305038
     2  O   -1.648792
     3  C    0.735961
     4  N   -1.947312
     5  S    2.555105
 Sum of Mulliken charges =   0.00000

 Dipole moment (field-independent basis, Debye):
    X=              0.5764    Y=              4.4976    Z=             -0.4793  Tot=              4.5597

 Test job not archived.
 1\1\GINC-SE218\SP\RHF\Aug-CC-pVDZ\C1Cl1N1O1S1\OHZDE\08-Apr-2025\0\\#t
 hf aug-cc-pvdz iop(5/13=1,5/36=2,99/5=2) pseudo=read geom=check guess=
 (read,tcheck) scf=(maxcycle=1)\\title\\0,1\Cl,0,-1.897851,-0.538029,-0
 .140033\O,0,-0.656482,0.521732,0.682195\C,0,1.69893,-0.343558,-0.01486
 5\N,0,2.47211,-1.201041,0.084111\S,0,0.626061,0.96508,-0.223537\\Versi
 on=ES64L-G16RevC.01\State=1-A\HF=-1025.2632556\RMSD=7.393e-02\Dipole=0
 .2267688,1.7695093,-0.1885735\Quadrupole=-4.0349323,3.0013169,1.033615
 5,3.8341237,-0.902392,-0.5683463\PG=C01 [X(C1Cl1N1O1S1)]\\@

 Normal termination of Gaussian 16 at Tue Apr  8 23:18:52 2025.
