 Gaussian 16, Revision C.01,

 ----------------------------------------------------------------------
 #t hf aug-cc-pvdz symm=none int=(grid=ultrafine) guess=(read,tcheck) s
 table=(opt,rrhf)
 ----------------------------------------------------------------------
 -----
 title
 -----
 Symbolic Z-matrix:
 Charge =  0 Multiplicity = 1

 SCF Done:  E(RHF) =  -861.760124551     A.U. after   18 cycles
 Normal termination of Gaussian 16 at Tue Apr  8 23:33:56 2025.
 Gaussian 16:  ES64L-G16RevC.01  3-Jul-2019

 ----------------------------------------------------------------------
 #t hf aug-cc-pvdz iop(5/13=1,5/36=2,99/5=2) pseudo=read geom=check gue
 ss=(read,tcheck) scf=(maxcycle=1)
 ----------------------------------------------------------------------
 -----
 title
 -----
 Structure from the checkpoint file:  "BDE49_nonexpt_1354_mol1.chk"
 Charge =  0 Multiplicity = 1

                         Standard orientation:
 ---------------------------------------------------------------------
 Center     Atomic      Atomic             Coordinates (Angstroms)
 Number     Number       Type             X           Y           Z
 ---------------------------------------------------------------------
      1          9           0       -1.945731   -1.801156   -0.360812
      2          1           0        0.374280    1.791153   -1.334450
      3          1           0        2.742099    2.004426   -0.719895
      4         15           0       -1.602780   -0.317105   -0.993392
      5          6           0       -2.310410    0.787166    0.373549
      6          6           0        0.152712   -0.181453   -0.481772
      7          6           0        2.876073    0.064792    0.205643
      8          6           0       -3.047992    0.162141    1.530361
      9          1           0       -2.398765   -0.550080    2.046823
     10          1           0       -3.906584   -0.406811    1.161480
     11          6           0        0.866943    0.976506   -0.815025
     12          8           0       -2.157775    1.975601    0.218734
     13          6           0        4.340549    0.190056    0.547184
     14          6           0        2.205991    1.095993   -0.464280
     15          1           0        0.269543   -2.120128    0.446740
     16          1           0        2.650409   -1.901809    1.044533
     17          1           0       -3.380916    0.942335    2.215748
     18          6           0        0.808873   -1.217171    0.188679
     19          6           0        2.154929   -1.089039    0.523075
     20          1           0        4.966062   -0.007359   -0.330119
     21          1           0        4.630580   -0.519787    1.324478
     22          1           0        4.582762    1.196271    0.898506
 ---------------------------------------------------------------------

 SCF Done:  E(RHF) =  -864.269519196     A.U. after    2 cycles

 The electronic state is 1-A.
 Alpha  occ. eigenvalues -- -105.24241 -29.27256 -21.07136 -11.52099 -11.49491
 Alpha  occ. eigenvalues --  -11.44609 -11.44278 -11.43340 -11.41490 -11.39556
 Alpha  occ. eigenvalues --  -11.39414 -11.36879  -2.82986  -1.72768  -1.57794
 Alpha  occ. eigenvalues --   -1.55753  -1.51304  -1.34885  -1.14425  -1.11350
 Alpha  occ. eigenvalues --   -1.09996  -0.99673  -0.87783  -0.87205  -0.80993
 Alpha  occ. eigenvalues --   -0.71928  -0.66613  -0.63694  -0.61725  -0.60170
 Alpha  occ. eigenvalues --   -0.59784  -0.58539  -0.58270  -0.55063  -0.52746
 Alpha  occ. eigenvalues --   -0.50543  -0.50054  -0.47648  -0.44726  -0.44136
 Alpha  occ. eigenvalues --   -0.39172  -0.34504  -0.33580  -0.32907  -0.32691
 Alpha  occ. eigenvalues --   -0.20969  -0.17160  -0.00968
 Alpha virt. eigenvalues --    0.03548   0.04681   0.05108   0.05549   0.06196
 Alpha virt. eigenvalues --    0.06579   0.06950   0.07088   0.07547   0.08362
 Alpha virt. eigenvalues --    0.08909   0.09238   0.09895   0.10802   0.11067

 Mulliken charges:
               1
     1  F   -0.638312
     2  H    2.062107
     3  H    1.823455
     4  P    3.743854
     5  C    1.228324
     6  C    0.572515
     7  C    2.325555
     8  C   -4.398925
     9  H    1.410264
    10  H    1.307769
    11  C   -4.425875
    12  O   -3.012742
    13  C   -6.017988
    14  C   -0.912186
    15  H    2.132603
    16  H    1.867167
    17  H    1.227406
    18  C   -4.012485
    19  C    0.410272
    20  H    1.147004
    21  H    1.128988
    22  H    1.031229
 Sum of Mulliken charges =   0.00000

 Dipole moment (field-independent basis, Debye):
    X=              0.2993    Y=             -4.2132    Z=              1.4964  Tot=              4.4810

 Test job not archived.
 1\1\GINC-SE333\SP\RHF\Aug-CC-pVDZ\C9H10F1O1P1\OHZDE\08-Apr-2025\0\\#t
 hf aug-cc-pvdz iop(5/13=1,5/36=2,99/5=2) pseudo=read geom=check guess=
 (read,tcheck) scf=(maxcycle=1)\\title\\0,1\F,0,-1.945731,-1.801156,-0.
 360812\H,0,0.37428,1.791153,-1.33445\H,0,2.742099,2.004426,-0.719895\P
 ,0,-1.60278,-0.317105,-0.993392\C,0,-2.31041,0.787166,0.373549\C,0,0.1
 52712,-0.181453,-0.481772\C,0,2.876073,0.064792,0.205643\C,0,-3.047992
 ,0.162141,1.530361\H,0,-2.398765,-0.55008,2.046823\H,0,-3.906584,-0.40
 6811,1.16148\C,0,0.866943,0.976506,-0.815025\O,0,-2.157775,1.975601,0.

 Normal termination of Gaussian 16 at Tue Apr  8 23:34:12 2025.
