 Gaussian 16, Revision C.01,

 ----------------------------------------------------------------------
 #t hf aug-cc-pvdz symm=none int=(grid=ultrafine) guess=(read,tcheck) s
 table=(opt,rrhf)
 ----------------------------------------------------------------------
 -----
 title
 -----
 Symbolic Z-matrix:
 Charge =  0 Multiplicity = 1

 SCF Done:  E(RHF) =  -1355.35245627     A.U. after   16 cycles
 Normal termination of Gaussian 16 at Wed Apr  9 00:55:07 2025.
 Gaussian 16:  ES64L-G16RevC.01  3-Jul-2019

 ----------------------------------------------------------------------
 #t hf aug-cc-pvdz iop(5/13=1,5/36=2,99/5=2) pseudo=read geom=check gue
 ss=(read,tcheck) scf=(maxcycle=1)
 ----------------------------------------------------------------------
 -----
 title
 -----
 Structure from the checkpoint file:  "BDE49_nonexpt_946_mol1.chk"
 Charge =  0 Multiplicity = 1

                         Standard orientation:
 ---------------------------------------------------------------------
 Center     Atomic      Atomic             Coordinates (Angstroms)
 Number     Number       Type             X           Y           Z
 ---------------------------------------------------------------------
      1          6           0       -0.820506    0.342543    0.023032
      2          6           0       -1.688852    0.623430    1.080428
      3          1           0       -1.353396    1.264911    1.886780
      4          6           0       -2.970115    0.081793    1.079818
      5          1           0       -3.645578    0.294696    1.900048
      6          6           0       -3.383078   -0.731664    0.024703
      7          1           0       -4.381851   -1.152693    0.026071
      8          6           0       -2.516567   -1.001125   -1.032728
      9          1           0       -2.838485   -1.631219   -1.853391
     10          6           0       -1.233678   -0.460115   -1.040665
     11          1           0       -0.549641   -0.656171   -1.856486
     12          7           0        0.498025    0.900061    0.028049
     13         17           0        0.643178    2.510566   -0.625315
     14          6           0        1.677596    0.307490    0.445771
     15          8           0        2.753035    0.852560    0.407037
     16          6           0        1.520542   -1.112330    0.992702
     17         17           0        1.761305   -2.331715   -0.324119
     18          1           0        0.549644   -1.313235    1.435820
     19          1           0        2.320600   -1.267792    1.710532
 ---------------------------------------------------------------------

 SCF Done:  E(RHF) =  -1357.86025902     A.U. after    2 cycles

 The electronic state is 1-A.
 Alpha  occ. eigenvalues --  -99.92811 -99.89782 -21.05141 -15.80808 -11.55935
 Alpha  occ. eigenvalues --  -11.53778 -11.47550 -11.46144 -11.45324 -11.43781
 Alpha  occ. eigenvalues --  -11.42844 -11.38991 -10.49865 -10.46995  -9.69875
 Alpha  occ. eigenvalues --   -9.69078  -9.68776  -9.66941  -9.66247  -9.66166
 Alpha  occ. eigenvalues --   -1.73542  -1.50913  -1.34744  -1.34133  -1.23702
 Alpha  occ. eigenvalues --   -1.12050  -1.10747  -1.05154  -0.90430  -0.89566
 Alpha  occ. eigenvalues --   -0.80504  -0.74612  -0.70776  -0.69372  -0.66946
 Alpha  occ. eigenvalues --   -0.64015  -0.61971  -0.60970  -0.60520  -0.57041
 Alpha  occ. eigenvalues --   -0.55258  -0.52570  -0.52316  -0.49946  -0.49168
 Alpha  occ. eigenvalues --   -0.49037  -0.47358  -0.46869  -0.36685  -0.35468
 Alpha  occ. eigenvalues --   -0.33573  -0.31071
 Alpha virt. eigenvalues --    0.02706   0.03862   0.04418   0.04607   0.05072
 Alpha virt. eigenvalues --    0.06261   0.06307   0.06988   0.07314   0.08710
 Alpha virt. eigenvalues --    0.09628   0.10484   0.11081   0.11407   0.12094

 Mulliken charges:
               1
     1  C    3.503339
     2  C   -2.806857
     3  H    1.857311
     4  C   -0.444694
     5  H    1.562327
     6  C   -2.545845
     7  H    1.573412
     8  C   -0.531964
     9  H    1.559003
    10  C   -2.688872
    11  H    1.770198
    12  N   -3.378673
    13  Cl   0.283633
    14  C    4.818789
    15  O   -3.249813
    16  C   -4.829395
    17  Cl   0.224267
    18  H    1.960403
    19  H    1.363429
 Sum of Mulliken charges =  -0.00000

 Dipole moment (field-independent basis, Debye):
    X=             -3.4173    Y=             -1.1279    Z=              1.6552  Tot=              3.9611

 Test job not archived.
 1\1\GINC-SE058\SP\RHF\Aug-CC-pVDZ\C8H7Cl2N1O1\OHZDE\09-Apr-2025\0\\#t
 hf aug-cc-pvdz iop(5/13=1,5/36=2,99/5=2) pseudo=read geom=check guess=
 (read,tcheck) scf=(maxcycle=1)\\title\\0,1\C,0,-0.820506,0.342543,0.02
 3032\C,0,-1.688852,0.62343,1.080428\H,0,-1.353396,1.264911,1.88678\C,0
 ,-2.970115,0.081793,1.079818\H,0,-3.645578,0.294696,1.900048\C,0,-3.38
 3078,-0.731664,0.024703\H,0,-4.381851,-1.152693,0.026071\C,0,-2.516567
 ,-1.001125,-1.032728\H,0,-2.838485,-1.631219,-1.853391\C,0,-1.233678,-
 0.460115,-1.040665\H,0,-0.549641,-0.656171,-1.856486\N,0,0.498025,0.90

 Normal termination of Gaussian 16 at Wed Apr  9 00:55:22 2025.
