 Gaussian 16, Revision C.01,

 ----------------------------------------------------------------------
 #t hf aug-cc-pvdz symm=none int=(grid=ultrafine) guess=(read,tcheck) s
 table=(opt,rrhf)
 ----------------------------------------------------------------------
 -----
 title
 -----
 Symbolic Z-matrix:
 Charge =  0 Multiplicity = 1

 SCF Done:  E(RHF) =  -1034.67262223     A.U. after   14 cycles
 Normal termination of Gaussian 16 at Wed Apr  9 00:12:08 2025.
 Gaussian 16:  ES64L-G16RevC.01  3-Jul-2019

 ----------------------------------------------------------------------
 #t hf aug-cc-pvdz iop(5/13=1,5/36=2,99/5=2) pseudo=read geom=check gue
 ss=(read,tcheck) scf=(maxcycle=1)
 ----------------------------------------------------------------------
 -----
 title
 -----
 Structure from the checkpoint file:  "BDE49_nonexpt_2357_mol1.chk"
 Charge =  0 Multiplicity = 1

                         Standard orientation:
 ---------------------------------------------------------------------
 Center     Atomic      Atomic             Coordinates (Angstroms)
 Number     Number       Type             X           Y           Z
 ---------------------------------------------------------------------
      1         14           0       -0.968941    1.635204   -0.676236
      2         14           0        0.969021    1.635225    0.676193
      3          6           0       -1.678904   -0.147941   -0.553339
      4          8           0       -1.330213   -1.052038   -1.274223
      5          1           0       -0.620850    1.865095   -2.093833
      6          1           0       -1.944190    2.647303   -0.211831
      7          8           0       -2.540048   -0.295604    0.475003
      8          6           0       -3.007390   -1.642143    0.722935
      9          1           0       -3.678191   -1.562592    1.574708
     10          1           0       -2.162965   -2.292443    0.953813
     11          1           0       -3.534128   -2.027977   -0.150562
     12          6           0        1.678965   -0.147935    0.553395
     13          1           0        0.620934    1.865196    2.093778
     14          1           0        1.944285    2.647284    0.211734
     15          8           0        1.330189   -1.052010    1.274267
     16          8           0        2.540022   -0.295689   -0.475005
     17          6           0        3.007257   -1.642268   -0.722926
     18          1           0        2.162772   -2.292521   -0.953719
     19          1           0        3.534036   -2.028107    0.150545
     20          1           0        3.677999   -1.562791   -1.574753
 ---------------------------------------------------------------------

 SCF Done:  E(RHF) =  -1036.92713718     A.U. after    2 cycles

 The electronic state is 1-A.
 Alpha  occ. eigenvalues --  -76.23666 -76.23629 -21.09443 -21.09432 -21.05725
 Alpha  occ. eigenvalues --  -21.05724 -11.48756 -11.48303 -11.41430 -11.41363
 Alpha  occ. eigenvalues --   -5.57270  -5.57263  -2.21232  -2.21095  -2.19763
 Alpha  occ. eigenvalues --   -2.19657  -2.19108  -2.18071  -1.83338  -1.83311
 Alpha  occ. eigenvalues --   -1.66035  -1.66029  -1.02660  -1.02655  -0.87351
 Alpha  occ. eigenvalues --   -0.82053  -0.73035  -0.70836  -0.64738  -0.62984
 Alpha  occ. eigenvalues --   -0.62895  -0.62520  -0.56856  -0.56698  -0.53837
 Alpha  occ. eigenvalues --   -0.52130  -0.52031  -0.50444  -0.49600  -0.47567
 Alpha  occ. eigenvalues --   -0.41263  -0.40556  -0.36988  -0.32608  -0.32168
 Alpha  occ. eigenvalues --   -0.28555  -0.27824
 Alpha virt. eigenvalues --    0.03809   0.04349   0.04483   0.05221   0.06124
 Alpha virt. eigenvalues --    0.06355   0.06722   0.06863   0.07353   0.07635
 Alpha virt. eigenvalues --    0.08273   0.08416   0.08683   0.09272   0.10231

 Mulliken charges:
               1
     1  Si   4.437886
     2  Si   4.438004
     3  C    3.427350
     4  O   -2.503190
     5  H   -1.715601
     6  H   -1.799504
     7  O   -2.953129
     8  C   -2.964240
     9  H    1.334421
    10  H    1.375132
    11  H    1.360849
    12  C    3.427223
    13  H   -1.715600
    14  H   -1.799523
    15  O   -2.503154
    16  O   -2.953079
    17  C   -2.964252
    18  H    1.375141
    19  H    1.360850
    20  H    1.334415
 Sum of Mulliken charges =  -0.00000

 Dipole moment (field-independent basis, Debye):
    X=             -0.0002    Y=             -0.6949    Z=             -0.0001  Tot=              0.6949

 Test job not archived.
 1\1\GINC-SE334\SP\RHF\Aug-CC-pVDZ\C4H10O4Si2\OHZDE\09-Apr-2025\0\\#t h
 f aug-cc-pvdz iop(5/13=1,5/36=2,99/5=2) pseudo=read geom=check guess=(
 read,tcheck) scf=(maxcycle=1)\\title\\0,1\Si,0,0.968941,1.635204,0.676
 236\Si,0,-0.969021,1.635225,-0.676193\C,0,1.678904,-0.147941,0.553339\
 O,0,1.330213,-1.052038,1.274223\H,0,0.62085,1.865095,2.093833\H,0,1.94
 419,2.647303,0.211831\O,0,2.540048,-0.295604,-0.475003\C,0,3.00739,-1.
 642143,-0.722935\H,0,3.678191,-1.562592,-1.574708\H,0,2.162965,-2.2924
 43,-0.953813\H,0,3.534128,-2.027977,0.150562\C,0,-1.678965,-0.147935,-

 Normal termination of Gaussian 16 at Wed Apr  9 00:12:18 2025.
