 Gaussian 16, Revision C.01,

 ----------------------------------------------------------------------
 #t hf aug-cc-pvdz symm=none int=(grid=ultrafine) guess=(read,tcheck) s
 table=(opt,rrhf)
 ----------------------------------------------------------------------
 -----
 title
 -----
 Symbolic Z-matrix:
 Charge =  0 Multiplicity = 1

 SCF Done:  E(RHF) =  -1056.89892119     A.U. after   12 cycles
 Normal termination of Gaussian 16 at Tue Apr  8 22:37:37 2025.
 Gaussian 16:  ES64L-G16RevC.01  3-Jul-2019

 ----------------------------------------------------------------------
 #t hf aug-cc-pvdz iop(5/13=1,5/36=2,99/5=2) pseudo=read geom=check gue
 ss=(read,tcheck) scf=(maxcycle=1)
 ----------------------------------------------------------------------
 -----
 title
 -----
 Structure from the checkpoint file:  "BDE49_expt_115_mol1.chk"
 Charge =  0 Multiplicity = 1

                         Standard orientation:
 ---------------------------------------------------------------------
 Center     Atomic      Atomic             Coordinates (Angstroms)
 Number     Number       Type             X           Y           Z
 ---------------------------------------------------------------------
      1          6           0        0.000000    0.383860    0.402220
      2         17           0        1.475885   -0.504042   -0.063634
      3          1           0       -0.000003    0.499644    1.481232
      4         17           0       -1.475886   -0.504041   -0.063634
      5          9           0        0.000001    1.592734   -0.192331
 ---------------------------------------------------------------------

 SCF Done:  E(RHF) =  -1057.90147341     A.U. after    2 cycles

 The electronic state is 1-A.
 Alpha  occ. eigenvalues --  -99.91898 -99.91884 -29.32085 -11.56286 -10.49342
 Alpha  occ. eigenvalues --  -10.49259  -9.69124  -9.68980  -9.68315  -9.68272
 Alpha  occ. eigenvalues --   -9.68248  -9.68209  -1.44213  -1.31263  -1.11151
 Alpha  occ. eigenvalues --   -0.80018  -0.74005  -0.70578  -0.55372  -0.54969
 Alpha  occ. eigenvalues --   -0.51707  -0.51472  -0.42980  -0.32432  -0.31761
 Alpha virt. eigenvalues --    0.02841   0.04438   0.07453   0.08360   0.10546
 Alpha virt. eigenvalues --    0.12633   0.13924   0.15032   0.15096   0.15755
 Alpha virt. eigenvalues --    0.16406   0.19173   0.19414   0.22133   0.23703

 Mulliken charges:
               1
     1  C   -3.109852
     2  Cl   0.158616
     3  H    1.891330
     4  Cl   0.158615
     5  F    0.901291
 Sum of Mulliken charges =   0.00000

 Dipole moment (field-independent basis, Debye):
    X=              0.0000    Y=              3.9746    Z=              0.0189  Tot=              3.9746

 Test job not archived.
 1\1\GINC-SE126\SP\RHF\Aug-CC-pVDZ\C1H1Cl2F1\OHZDE\08-Apr-2025\0\\#t hf
  aug-cc-pvdz iop(5/13=1,5/36=2,99/5=2) pseudo=read geom=check guess=(r
 ead,tcheck) scf=(maxcycle=1)\\title\\0,1\C,0,0.,0.38386,0.40222\Cl,0,1
 .475885,-0.504042,-0.063634\H,0,-0.000003,0.499644,1.481232\Cl,0,-1.47
 5886,-0.504041,-0.063634\F,0,0.000001,1.592734,-0.192331\\Version=ES64
 L-G16RevC.01\State=1-A\HF=-1057.9014734\RMSD=5.789e-02\Dipole=0.000002
 7,1.5637158,0.0074337\Quadrupole=-2.0651615,2.5764669,-0.5113054,-0.00
 00003,-0.0000046,0.1256553\PG=C01 [X(C1H1Cl2F1)]\\@

 Normal termination of Gaussian 16 at Tue Apr  8 22:37:39 2025.
