 Gaussian 16, Revision C.01,

 ----------------------------------------------------------------------
 #t hf aug-cc-pvdz symm=none int=(grid=ultrafine) guess=(read,tcheck) s
 table=(opt,rrhf)
 ----------------------------------------------------------------------
 -----
 title
 -----
 Symbolic Z-matrix:
 Charge =  0 Multiplicity = 1

 SCF Done:  E(RHF) =  -1566.42399348     A.U. after   14 cycles
 Normal termination of Gaussian 16 at Tue Apr  8 23:50:24 2025.
 Gaussian 16:  ES64L-G16RevC.01  3-Jul-2019

 ----------------------------------------------------------------------
 #t hf aug-cc-pvdz iop(5/13=1,5/36=2,99/5=2) pseudo=read geom=check gue
 ss=(read,tcheck) scf=(maxcycle=1)
 ----------------------------------------------------------------------
 -----
 title
 -----
 Structure from the checkpoint file:  "BDE49_nonexpt_186_mol1.chk"
 Charge =  0 Multiplicity = 1

                         Standard orientation:
 ---------------------------------------------------------------------
 Center     Atomic      Atomic             Coordinates (Angstroms)
 Number     Number       Type             X           Y           Z
 ---------------------------------------------------------------------
      1         17           0        1.439554    1.618940   -0.026568
      2         17           0        1.718169   -1.419322   -0.006166
      3          5           0        0.761173    0.020897   -0.028375
      4         16           0       -1.125786   -0.199141    0.040964
      5          8           0       -1.536125   -1.260966   -0.829212
      6          8           0       -1.457152   -0.170186    1.448700
      7          8           0       -1.707236    1.166459   -0.624722
      8          1           0       -1.870454    1.805814    0.084811
 ---------------------------------------------------------------------

 SCF Done:  E(RHF) =  -1568.19734050     A.U. after    2 cycles

 The electronic state is 1-A.
 Alpha  occ. eigenvalues --  -99.94970 -99.94575 -75.93145 -21.14825 -21.08011
 Alpha  occ. eigenvalues --  -21.07769 -13.56256 -13.45249 -13.37771 -10.52253
 Alpha  occ. eigenvalues --  -10.51824  -9.72208  -9.71765  -9.71731  -9.71565
 Alpha  occ. eigenvalues --   -9.71322  -9.71139  -8.28232  -7.77840  -1.91809
 Alpha  occ. eigenvalues --   -1.73521  -1.68354  -1.44874  -1.34668  -1.02783
 Alpha  occ. eigenvalues --   -0.83976  -0.71876  -0.69265  -0.65763  -0.62312
 Alpha  occ. eigenvalues --   -0.58473  -0.57227  -0.56413  -0.54776  -0.47375
 Alpha  occ. eigenvalues --   -0.45877  -0.41726  -0.40010  -0.38346  -0.37417
 Alpha virt. eigenvalues --    0.00211   0.02421   0.02669   0.03528   0.04634
 Alpha virt. eigenvalues --    0.08297   0.09110   0.11005   0.12305   0.14146
 Alpha virt. eigenvalues --    0.14433   0.14929   0.15313   0.15706   0.16115

 Mulliken charges:
               1
     1  Cl  -1.075072
     2  Cl  -1.085519
     3  B    2.962090
     4  S    5.869260
     5  O   -2.558602
     6  O   -2.461196
     7  O   -2.500042
     8  H    0.849082
 Sum of Mulliken charges =  -0.00000

 Dipole moment (field-independent basis, Debye):
    X=              0.0707    Y=              1.5261    Z=             -0.1609  Tot=              1.5362

 Test job not archived.
 1\1\GINC-SE082\SP\RHF\Aug-CC-pVDZ\B1Cl2H1O3S1\OHZDE\08-Apr-2025\0\\#t
 hf aug-cc-pvdz iop(5/13=1,5/36=2,99/5=2) pseudo=read geom=check guess=
 (read,tcheck) scf=(maxcycle=1)\\title\\0,1\Cl,0,1.439554,1.61894,-0.02
 6568\Cl,0,1.718169,-1.419322,-0.006166\B,0,0.761173,0.020897,-0.028375
 \S,0,-1.125786,-0.199141,0.040964\O,0,-1.536125,-1.260966,-0.829212\O,
 0,-1.457152,-0.170186,1.4487\O,0,-1.707236,1.166459,-0.624722\H,0,-1.8
 70454,1.805814,0.084811\\Version=ES64L-G16RevC.01\State=1-A\HF=-1568.1
 973405\RMSD=5.222e-02\Dipole=0.0278271,0.6004307,-0.0633213\Quadrupole

 Normal termination of Gaussian 16 at Tue Apr  8 23:50:28 2025.
