 Gaussian 16, Revision C.01,

 ----------------------------------------------------------------------
 #t hf aug-cc-pvdz symm=none int=(grid=ultrafine) guess=(read,tcheck) s
 table=(opt,rrhf)
 ----------------------------------------------------------------------
 -----
 title
 -----
 Symbolic Z-matrix:
 Charge =  0 Multiplicity = 1

 SCF Done:  E(RHF) =  -1064.35210483     A.U. after   15 cycles
 Normal termination of Gaussian 16 at Tue Apr  8 22:52:23 2025.
 Gaussian 16:  ES64L-G16RevC.01  3-Jul-2019

 ----------------------------------------------------------------------
 #t hf aug-cc-pvdz iop(5/13=1,5/36=2,99/5=2) pseudo=read geom=check gue
 ss=(read,tcheck) scf=(maxcycle=1)
 ----------------------------------------------------------------------
 -----
 title
 -----
 Structure from the checkpoint file:  "BDE49_expt_1692_mol1.chk"
 Charge =  0 Multiplicity = 1

                         Standard orientation:
 ---------------------------------------------------------------------
 Center     Atomic      Atomic             Coordinates (Angstroms)
 Number     Number       Type             X           Y           Z
 ---------------------------------------------------------------------
      1          6           0        1.329925    1.725701    0.177840
      2          6           0        0.149566    2.356156   -0.203199
      3          6           0       -1.033492    1.629450   -0.293325
      4          6           0       -1.026386    0.265741   -0.000721
      5          6           0        0.154795   -0.367069    0.378025
      6          6           0        1.343613    0.359116    0.471369
      7          1           0        2.250499    2.295719    0.242070
      8          1           0        0.150268    3.415344   -0.431322
      9          6           0        2.614324   -0.320675    0.879057
     10          1           0        0.149993   -1.429176    0.591157
     11          1           0        3.287923    0.352849    1.403933
     12         17           0        3.565674   -0.921907   -0.569657
     13          1           0        2.429835   -1.202513    1.488009
     14          1           0       -1.954366    2.112353   -0.594752
     15          6           0       -2.315107   -0.510442   -0.039683
     16          9           0       -3.146356   -0.061125   -1.004368
     17          9           0       -2.989979   -0.412967    1.130505
     18          9           0       -2.111892   -1.825912   -0.262927
 ---------------------------------------------------------------------

 SCF Done:  E(RHF) =  -1067.06382741     A.U. after    2 cycles

 The electronic state is 1-A.
 Alpha  occ. eigenvalues --  -99.88432 -29.30984 -29.30883 -29.30498 -11.62396
 Alpha  occ. eigenvalues --  -11.54560 -11.48092 -11.46989 -11.46348 -11.45279
 Alpha  occ. eigenvalues --  -11.43959 -11.39389 -10.45609  -9.65579  -9.64873
 Alpha  occ. eigenvalues --   -9.64798  -1.46441  -1.36563  -1.29657  -1.15183
 Alpha  occ. eigenvalues --   -1.12114  -1.01200  -0.92047  -0.90372  -0.87805
 Alpha  occ. eigenvalues --   -0.84125  -0.76094  -0.71577  -0.67082  -0.63770
 Alpha  occ. eigenvalues --   -0.62053  -0.60073  -0.57391  -0.52526  -0.51899
 Alpha  occ. eigenvalues --   -0.50271  -0.48293  -0.46819  -0.46046  -0.43544
 Alpha  occ. eigenvalues --   -0.43373  -0.39328  -0.36593  -0.34873  -0.32964
 Alpha  occ. eigenvalues --   -0.30271  -0.25481  -0.24483  -0.21294
 Alpha virt. eigenvalues --    0.02915   0.04487   0.05065   0.06065   0.06467
 Alpha virt. eigenvalues --    0.06730   0.08135   0.08811   0.09200   0.09949
 Alpha virt. eigenvalues --    0.09986   0.11751   0.12168   0.12467   0.12557

 Mulliken charges:
               1
     1  C   -3.029661
     2  C   -0.692978
     3  C   -4.053070
     4  C    1.170461
     5  C   -2.655575
     6  C    4.101641
     7  H    1.807071
     8  H    1.458075
     9  C   -4.877044
    10  H    1.962394
    11  H    1.234735
    12  Cl   0.156674
    13  H    1.247532
    14  H    1.824826
    15  C   -0.163945
    16  F    0.175434
    17  F    0.077888
    18  F    0.255542
 Sum of Mulliken charges =  -0.00000

 Dipole moment (field-independent basis, Debye):
    X=             -2.3423    Y=              0.6895    Z=              1.5534  Tot=              2.8939

 Test job not archived.
 1\1\GINC-SE095\SP\RHF\Aug-CC-pVDZ\C8H6Cl1F3\OHZDE\08-Apr-2025\0\\#t hf
  aug-cc-pvdz iop(5/13=1,5/36=2,99/5=2) pseudo=read geom=check guess=(r
 ead,tcheck) scf=(maxcycle=1)\\title\\0,1\C,0,1.329925,1.725701,0.17784
 \C,0,0.149566,2.356156,-0.203199\C,0,-1.033492,1.62945,-0.293325\C,0,-
 1.026386,0.265741,-0.000721\C,0,0.154795,-0.367069,0.378025\C,0,1.3436
 13,0.359116,0.471369\H,0,2.250499,2.295719,0.24207\H,0,0.150268,3.4153
 44,-0.431322\C,0,2.614324,-0.320675,0.879057\H,0,0.149993,-1.429176,0.
 591157\H,0,3.287923,0.352849,1.403933\Cl,0,3.565674,-0.921907,-0.56965

 Normal termination of Gaussian 16 at Tue Apr  8 22:52:35 2025.
