 Gaussian 16, Revision C.01,

 ----------------------------------------------------------------------
 #t hf aug-cc-pvdz symm=none int=(grid=ultrafine) guess=(read,tcheck) s
 table=(opt,rrhf)
 ----------------------------------------------------------------------
 -----
 title
 -----
 Symbolic Z-matrix:
 Charge =  0 Multiplicity = 1

 SCF Done:  E(RHF) =  -761.880047044     A.U. after   12 cycles
 Normal termination of Gaussian 16 at Tue Apr  8 23:40:12 2025.
 Gaussian 16:  ES64L-G16RevC.01  3-Jul-2019

 ----------------------------------------------------------------------
 #t hf aug-cc-pvdz iop(5/13=1,5/36=2,99/5=2) pseudo=read geom=check gue
 ss=(read,tcheck) scf=(maxcycle=1)
 ----------------------------------------------------------------------
 -----
 title
 -----
 Structure from the checkpoint file:  "BDE49_nonexpt_1616_mol1.chk"
 Charge =  0 Multiplicity = 1

                         Standard orientation:
 ---------------------------------------------------------------------
 Center     Atomic      Atomic             Coordinates (Angstroms)
 Number     Number       Type             X           Y           Z
 ---------------------------------------------------------------------
      1         15           0       -1.614792   -0.000000    0.253037
      2         15           0        0.454436    0.000000   -0.649440
      3          6           0        1.149845   -1.421014    0.335778
      4          6           0        1.149845    1.421014    0.335778
      5          1           0        0.722896    2.359584   -0.025243
      6          1           0        2.229471    1.462128    0.167140
      7          1           0        0.962073    1.333741    1.409237
      8          1           0        0.722897   -2.359584   -0.025243
      9          1           0        0.962074   -1.333741    1.409237
     10          1           0        2.229471   -1.462128    0.167140
     11          1           0       -2.110839   -1.028333   -0.592774
     12          1           0       -2.110839    1.028333   -0.592774
 ---------------------------------------------------------------------

 SCF Done:  E(RHF) =  -762.699422528     A.U. after    2 cycles

 The electronic state is 1-A.
 Alpha  occ. eigenvalues -- -105.17831-105.16885 -11.37204 -11.37175  -2.75314
 Alpha  occ. eigenvalues --   -2.74294  -1.51140  -1.47377  -1.45706  -1.43923
 Alpha  occ. eigenvalues --   -1.42836  -1.30550  -1.03340  -0.96972  -0.72931
 Alpha  occ. eigenvalues --   -0.58339  -0.57457  -0.56305  -0.55950  -0.55026
 Alpha  occ. eigenvalues --   -0.25698  -0.20782  -0.08917  -0.04921   0.03592
 Alpha virt. eigenvalues --    0.05685   0.05729   0.06806   0.07050   0.07203
 Alpha virt. eigenvalues --    0.07625   0.08589   0.09502   0.09913   0.11356
 Alpha virt. eigenvalues --    0.11641   0.12814   0.14110   0.15210   0.16561

 Mulliken charges:
               1
     1  P    2.805843
     2  P    5.734772
     3  C   -5.188301
     4  C   -5.188301
     5  H    0.763049
     6  H    0.466254
     7  H    0.982883
     8  H    0.763048
     9  H    0.982883
    10  H    0.466254
    11  H   -1.294191
    12  H   -1.294191
 Sum of Mulliken charges =  -0.00000

 Dipole moment (field-independent basis, Debye):
    X=              0.9607    Y=              0.0000    Z=             -3.3051  Tot=              3.4419

 Test job not archived.
 1\1\GINC-SE340\SP\RHF\Aug-CC-pVDZ\C2H8P2\OHZDE\08-Apr-2025\0\\#t hf au
 g-cc-pvdz iop(5/13=1,5/36=2,99/5=2) pseudo=read geom=check guess=(read
 ,tcheck) scf=(maxcycle=1)\\title\\0,1\P,0,-1.614792,0.,0.253037\P,0,0.
 454436,0.,-0.64944\C,0,1.149845,-1.421014,0.335778\C,0,1.149845,1.4210
 14,0.335778\H,0,0.722896,2.359584,-0.025243\H,0,2.229471,1.462128,0.16
 714\H,0,0.962073,1.333741,1.409237\H,0,0.722897,-2.359584,-0.025243\H,
 0,0.962074,-1.333741,1.409237\H,0,2.229471,-1.462128,0.16714\H,0,-2.11
 0839,-1.028333,-0.592774\H,0,-2.110839,1.028333,-0.592774\\Version=ES6

 Normal termination of Gaussian 16 at Tue Apr  8 23:40:15 2025.
