 Gaussian 16, Revision C.01,

 ----------------------------------------------------------------------
 #t hf aug-cc-pvdz symm=none int=(grid=ultrafine) guess=(read,tcheck) s
 table=(opt,rrhf)
 ----------------------------------------------------------------------
 -----
 title
 -----
 Symbolic Z-matrix:
 Charge =  0 Multiplicity = 1

 SCF Done:  E(RHF) =  -827.135556739     A.U. after   14 cycles
 Normal termination of Gaussian 16 at Wed Apr  9 00:13:17 2025.
 Gaussian 16:  ES64L-G16RevC.01  3-Jul-2019

 ----------------------------------------------------------------------
 #t hf aug-cc-pvdz iop(5/13=1,5/36=2,99/5=2) pseudo=read geom=check gue
 ss=(read,tcheck) scf=(maxcycle=1)
 ----------------------------------------------------------------------
 -----
 title
 -----
 Structure from the checkpoint file:  "BDE49_nonexpt_2410_mol1.chk"
 Charge =  0 Multiplicity = 1

                         Standard orientation:
 ---------------------------------------------------------------------
 Center     Atomic      Atomic             Coordinates (Angstroms)
 Number     Number       Type             X           Y           Z
 ---------------------------------------------------------------------
      1         14           0        2.267568    0.568232   -0.437211
      2         14           0        0.849482   -0.937652    0.697088
      3          1           0        1.857158    0.686027   -1.857258
      4          1           0        3.667747    0.073775   -0.404993
      5          1           0        2.235082    1.909022    0.189901
      6          6           0       -0.899008   -0.980191   -0.062968
      7          1           0        0.759003   -0.593254    2.135764
      8          1           0        1.374578   -2.323325    0.592908
      9          7           0       -1.589277    0.085661   -0.213240
     10          8           0       -0.882521    1.212351    0.250824
     11          6           0       -1.537137   -2.263506   -0.527819
     12          1           0       -0.925081   -2.744922   -1.297109
     13          1           0       -2.530419   -2.067180   -0.935415
     14          1           0       -1.625399   -2.974723    0.299546
     15          6           0       -1.677349    2.384445    0.085516
     16          1           0       -1.063675    3.208060    0.449882
     17          1           0       -2.596159    2.315009    0.674026
     18          1           0       -1.925464    2.540468   -0.967811
 ---------------------------------------------------------------------

 SCF Done:  E(RHF) =  -828.604472897     A.U. after    2 cycles

 The electronic state is 1-A.
 Alpha  occ. eigenvalues --  -76.21758 -76.21356 -21.06960 -15.77704 -11.42903
 Alpha  occ. eigenvalues --  -11.40322 -11.37411  -5.55380  -5.54695  -2.19625
 Alpha  occ. eigenvalues --   -2.17945  -2.17148  -2.16777  -2.16756  -2.15781
 Alpha  occ. eigenvalues --   -1.81387  -1.29432  -1.06452  -0.95543  -0.83957
 Alpha  occ. eigenvalues --   -0.76123  -0.69845  -0.62235  -0.62054  -0.60286
 Alpha  occ. eigenvalues --   -0.58166  -0.55339  -0.49558  -0.48750  -0.47641
 Alpha  occ. eigenvalues --   -0.46614  -0.45516  -0.43487  -0.36630  -0.32273
 Alpha  occ. eigenvalues --   -0.28480
 Alpha virt. eigenvalues --    0.03728   0.04608   0.05208   0.05506   0.06092
 Alpha virt. eigenvalues --    0.06476   0.06563   0.06820   0.07753   0.08062
 Alpha virt. eigenvalues --    0.08611   0.09094   0.09503   0.09878   0.10319

 Mulliken charges:
               1
     1  Si   4.906732
     2  Si   4.365932
     3  H   -1.514417
     4  H   -1.793720
     5  H   -1.594518
     6  C    1.028378
     7  H   -1.936393
     8  H   -1.804075
     9  N   -0.765356
    10  O   -2.483896
    11  C   -3.697047
    12  H    1.286117
    13  H    1.376745
    14  H    1.291528
    15  C   -2.799308
    16  H    1.345960
    17  H    1.373418
    18  H    1.413920
 Sum of Mulliken charges =   0.00000

 Dipole moment (field-independent basis, Debye):
    X=             -0.4358    Y=              0.4919    Z=              0.0880  Tot=              0.6630

 Test job not archived.
 1\1\GINC-SE361\SP\RHF\Aug-CC-pVDZ\C3H11N1O1Si2\OHZDE\09-Apr-2025\0\\#t
  hf aug-cc-pvdz iop(5/13=1,5/36=2,99/5=2) pseudo=read geom=check guess
 =(read,tcheck) scf=(maxcycle=1)\\title\\0,1\Si,0,2.267568,0.568232,-0.
 437211\Si,0,0.849482,-0.937652,0.697088\H,0,1.857158,0.686027,-1.85725
 8\H,0,3.667747,0.073776,-0.404993\H,0,2.235082,1.909022,0.189901\C,0,-
 0.899008,-0.980191,-0.062968\H,0,0.759003,-0.593254,2.135764\H,0,1.374
 579,-2.323325,0.592908\N,0,-1.589277,0.085661,-0.21324\O,0,-0.882521,1
 .212351,0.250824\C,0,-1.537136,-2.263506,-0.527819\H,0,-0.92508,-2.744

 Normal termination of Gaussian 16 at Wed Apr  9 00:13:24 2025.
