 Gaussian 16, Revision C.01,

 ----------------------------------------------------------------------
 #t hf aug-cc-pvdz symm=none int=(grid=ultrafine) guess=(read,tcheck) s
 table=(opt,rrhf)
 ----------------------------------------------------------------------
 -----
 title
 -----
 Symbolic Z-matrix:
 Charge =  0 Multiplicity = 1

 SCF Done:  E(RHF) =  -967.946439017     A.U. after   17 cycles
 Normal termination of Gaussian 16 at Tue Apr  8 23:21:19 2025.
 Gaussian 16:  ES64L-G16RevC.01  3-Jul-2019

 ----------------------------------------------------------------------
 #t hf aug-cc-pvdz iop(5/13=1,5/36=2,99/5=2) pseudo=read geom=check gue
 ss=(read,tcheck) scf=(maxcycle=1)
 ----------------------------------------------------------------------
 -----
 title
 -----
 Structure from the checkpoint file:  "BDE49_nonexpt_1090_mol1.chk"
 Charge =  0 Multiplicity = 1

                         Standard orientation:
 ---------------------------------------------------------------------
 Center     Atomic      Atomic             Coordinates (Angstroms)
 Number     Number       Type             X           Y           Z
 ---------------------------------------------------------------------
      1         17           0        3.702736   -0.496463   -0.000000
      2          8           0        2.538446    0.781945    0.000003
      3          6           0        1.211836    0.416995    0.000005
      4          6           0        0.346704    1.520033   -0.000005
      5          6           0       -1.020819    1.311305   -0.000001
      6          6           0       -1.509418    0.005981    0.000011
      7          6           0        0.719499   -0.885086    0.000017
      8          1           0        1.395098   -1.727999    0.000024
      9          6           0       -0.656006   -1.088656    0.000020
     10          1           0       -1.072401   -2.086100    0.000030
     11          7           0       -2.965624   -0.216597    0.000015
     12          8           0       -3.689108    0.771171   -0.000037
     13          8           0       -3.362995   -1.374600   -0.000017
     14          1           0        0.763504    2.518684   -0.000015
     15          1           0       -1.714870    2.139891   -0.000009
 ---------------------------------------------------------------------

 SCF Done:  E(RHF) =  -970.417306279     A.U. after    2 cycles

 The electronic state is 1-A.
 Alpha  occ. eigenvalues --  -99.97383 -21.16143 -21.09611 -21.09505 -16.00341
 Alpha  occ. eigenvalues --  -11.57239 -11.50714 -11.48079 -11.47694 -11.44672
 Alpha  occ. eigenvalues --  -11.41569 -10.54083  -9.74043  -9.73280  -9.72961
 Alpha  occ. eigenvalues --   -2.00022  -1.84456  -1.69280  -1.37807  -1.29241
 Alpha  occ. eigenvalues --   -1.16754  -1.14327  -0.98899  -0.92808  -0.84184
 Alpha  occ. eigenvalues --   -0.75749  -0.70865  -0.68199  -0.68006  -0.66603
 Alpha  occ. eigenvalues --   -0.63656  -0.63059  -0.61106  -0.56483  -0.55748
 Alpha  occ. eigenvalues --   -0.55593  -0.49937  -0.46363  -0.45806  -0.37641
 Alpha  occ. eigenvalues --   -0.36092  -0.32070  -0.31612  -0.31437
 Alpha virt. eigenvalues --    0.01351   0.02832   0.05629   0.06405   0.06572
 Alpha virt. eigenvalues --    0.07615   0.07675   0.09140   0.09211   0.11074
 Alpha virt. eigenvalues --    0.11861   0.12087   0.12631   0.12666   0.13880

 Mulliken charges:
               1
     1  Cl   0.464771
     2  O   -3.421430
     3  C    2.336898
     4  C   -2.034046
     5  C   -1.615379
     6  C    2.598683
     7  C   -2.088703
     8  H    1.833514
     9  C   -0.705706
    10  H    1.834811
    11  N    3.027209
    12  O   -2.936787
    13  O   -2.950492
    14  H    1.763750
    15  H    1.892907
 Sum of Mulliken charges =   0.00000

 Dipole moment (field-independent basis, Debye):
    X=              1.7206    Y=              1.4534    Z=             -0.0000  Tot=              2.2523

 Test job not archived.
 1\1\GINC-SE273\SP\RHF\Aug-CC-pVDZ\C6H4Cl1N1O3\OHZDE\08-Apr-2025\0\\#t
 hf aug-cc-pvdz iop(5/13=1,5/36=2,99/5=2) pseudo=read geom=check guess=
 (read,tcheck) scf=(maxcycle=1)\\title\\0,1\Cl,0,3.702736,-0.496463,0.\
 O,0,2.538446,0.781945,0.000003\C,0,1.211836,0.416995,0.000005\C,0,0.34
 6704,1.520033,-0.000005\C,0,-1.020819,1.311305,-0.000001\C,0,-1.509418
 ,0.005981,0.000011\C,0,0.719499,-0.885086,0.000017\H,0,1.395098,-1.727
 999,0.000024\C,0,-0.656006,-1.088656,0.00002\H,0,-1.072401,-2.0861,0.0
 0003\N,0,-2.965624,-0.216597,0.000015\O,0,-3.689108,0.771171,-0.000037

 Normal termination of Gaussian 16 at Tue Apr  8 23:21:27 2025.
