 Gaussian 16, Revision C.01,

 ----------------------------------------------------------------------
 #t hf aug-cc-pvdz symm=none int=(grid=ultrafine) guess=(read,tcheck) s
 table=opt
 ----------------------------------------------------------------------
 -----
 title
 -----
 Symbolic Z-matrix:
 Charge =  0 Multiplicity = 2

 SCF Done:  E(UHF) =  -746.765768691     A.U. after   19 cycles
 Normal termination of Gaussian 16 at Wed Apr  9 00:32:19 2025.
 Gaussian 16:  ES64L-G16RevC.01  3-Jul-2019

 ----------------------------------------------------------------------
 #t hf aug-cc-pvdz iop(5/13=1,5/36=2,99/5=2) pseudo=read geom=check gue
 ss=(read,tcheck) scf=(maxcycle=1)
 ----------------------------------------------------------------------
 -----
 title
 -----
 Structure from the checkpoint file:  "BDE49_nonexpt_376_mol2.chk"
 Charge =  0 Multiplicity = 2

                         Standard orientation:
 ---------------------------------------------------------------------
 Center     Atomic      Atomic             Coordinates (Angstroms)
 Number     Number       Type             X           Y           Z
 ---------------------------------------------------------------------
      1          9           0       -2.392035   -0.049454   -0.091784
      2          5           0       -1.296904   -0.561289   -0.548348
      3         16           0        0.385420    0.080920    0.108913
      4          8           0        0.435689    1.515388    0.106338
      5          8           0        0.663747   -0.719255    1.281291
      6          8           0        1.411735   -0.393170   -1.057089
      7          1           0        1.756742   -1.266902   -0.819128
 ---------------------------------------------------------------------

 SCF Done:  E(UHF) =  -748.365254712     A.U. after    2 cycles

 The electronic state is 2-A.
 Alpha  occ. eigenvalues --  -75.93261 -29.32452 -21.15028 -21.08360 -21.08220
 Alpha  occ. eigenvalues --  -13.56166 -13.45197 -13.37481  -8.28353  -7.77064
 Alpha  occ. eigenvalues --   -1.92176  -1.73577  -1.68648  -1.10428  -0.94111
 Alpha  occ. eigenvalues --   -0.70679  -0.65605  -0.60294  -0.54811  -0.51746
 Alpha  occ. eigenvalues --   -0.48363  -0.46998  -0.45240  -0.42689  -0.41238
 Alpha  occ. eigenvalues --   -0.40069  -0.38517  -0.25150
 Alpha virt. eigenvalues --    0.02548   0.03000   0.03840   0.06618   0.08132
 Alpha virt. eigenvalues --    0.09233   0.13142   0.13887   0.14276   0.15642
 Alpha virt. eigenvalues --    0.18207   0.19020   0.19314   0.20260   0.20456

  Beta  occ. eigenvalues --  -75.93122 -29.32207 -21.15053 -21.08282 -21.07992
  Beta  occ. eigenvalues --  -13.56126 -13.45093 -13.36865  -8.28155  -7.74970
  Beta  occ. eigenvalues --   -1.91904  -1.73464  -1.68263  -1.07511  -0.92449
  Beta  occ. eigenvalues --   -0.70107  -0.65198  -0.58804  -0.51058  -0.49090
  Beta  occ. eigenvalues --   -0.47179  -0.45888  -0.44524  -0.41920  -0.40070
  Beta  occ. eigenvalues --   -0.38329  -0.36395
  Beta virt. eigenvalues --    0.01590   0.03166   0.03681   0.05616   0.07217
  Beta virt. eigenvalues --    0.10104   0.10279   0.13547   0.14118   0.14734
  Beta virt. eigenvalues --    0.15854   0.18457   0.19369   0.20348   0.21011

 Mulliken charges and spin densities:
               1          2
     1  F    0.047807  -0.055129
     2  B    0.548400   0.940880
     3  S    5.922229  -0.001623
     4  O   -2.557203   0.071931
     5  O   -2.497716   0.045468
     6  O   -2.363519   0.000372
     7  H    0.900003  -0.001899
 Sum of Mulliken charges =  -0.00000   1.00000

 Dipole moment (field-independent basis, Debye):
    X=             -3.2035    Y=              0.3168    Z=              0.2357  Tot=              3.2278
                          Isotropic Fermi Contact Couplings
        Atom                 a.u.       MegaHertz       Gauss      10(-4) cm-1
     1  F(19)              0.03457     145.43944      51.89641      48.51337
     2  B(11)              0.22002     315.59532     112.61226     105.27127
     3  S(33)              0.45696     156.95191      56.00435      52.35352
     4  O(17)              0.01854     -11.24040      -4.01085      -3.74939
     5  O(17)              0.00679      -4.11705      -1.46907      -1.37330
     6  O(17)             -0.00439       2.66362       0.95045       0.88849
     7  H(1)               0.00017       0.78185       0.27898       0.26080
 --------------------------------------------------------

 Normal termination of Gaussian 16 at Wed Apr  9 00:32:22 2025.
