 Gaussian 16, Revision C.01,

 ----------------------------------------------------------------------
 #t hf aug-cc-pvdz symm=none int=(grid=ultrafine) guess=(read,tcheck) s
 table=(opt,rrhf)
 ----------------------------------------------------------------------
 -----
 title
 -----
 Symbolic Z-matrix:
 Charge =  0 Multiplicity = 1

 SCF Done:  E(RHF) =  -212.351741423     A.U. after   12 cycles

 1\1\GINC-SE339\Stability\RHF\Aug-CC-pVDZ\C4H11N1\OHZDE\08-Apr-2025\0\\
 #t hf aug-cc-pvdz symm=none int=(grid=ultrafine) guess=(read,tcheck) s
 table=(opt,rrhf)\\title\\0,1\N,0,-0.573616,1.381193,-0.235417\C,0,-0.4
 88421,0.023778,0.328092\H,0,0.204049,1.947745,0.088666\H,0,-1.416001,1
 .839765,0.099742\H,0,-0.380354,0.036312,1.428132\C,0,0.737442,-0.70027
 1,-0.247081\C,0,2.078263,-0.04131,0.091604\H,0,0.619933,-0.756954,-1.3
 34914\H,0,0.735736,-1.7288,0.131381\H,0,2.166942,0.948573,-0.364819\H,
 0,2.913814,-0.640586,-0.27951\C,0,-1.779107,-0.724167,-0.007959\H,0,-2

 Normal termination of Gaussian 16 at Tue Apr  8 22:40:42 2025.
 Gaussian 16:  ES64L-G16RevC.01  3-Jul-2019

 ----------------------------------------------------------------------
 #t hf aug-cc-pvdz iop(5/13=1,5/36=2,99/5=2) pseudo=read geom=check gue
 ss=(read,tcheck) scf=(maxcycle=1)
 ----------------------------------------------------------------------
 -----
 title
 -----
 Structure from the checkpoint file:  "BDE49_expt_1286_mol1.chk"
 Charge =  0 Multiplicity = 1

                         Standard orientation:
 ---------------------------------------------------------------------
 Center     Atomic      Atomic             Coordinates (Angstroms)
 Number     Number       Type             X           Y           Z
 ---------------------------------------------------------------------
      1          7           0       -0.573616    1.381193   -0.235417
      2          6           0       -0.488421    0.023778    0.328092
      3          1           0        0.204049    1.947745    0.088666
      4          1           0       -1.416001    1.839765    0.099742
      5          1           0       -0.380354    0.036312    1.428132
      6          6           0        0.737442   -0.700271   -0.247081
      7          6           0        2.078263   -0.041310    0.091604
      8          1           0        0.619933   -0.756954   -1.334914
      9          1           0        0.735736   -1.728800    0.131381
     10          1           0        2.166942    0.948573   -0.364819
     11          1           0        2.913814   -0.640586   -0.279510
     12          6           0       -1.779107   -0.724167   -0.007959
     13          1           0       -2.648964   -0.223602    0.429720
     14          1           0       -1.753773   -1.746118    0.379297
     15          1           0       -1.922079   -0.762210   -1.091392
     16          1           0        2.206937    0.069346    1.173675
 ---------------------------------------------------------------------

 SCF Done:  E(RHF) =  -213.448710916     A.U. after    2 cycles

 The electronic state is 1-A.
 Alpha  occ. eigenvalues --  -15.72049 -11.42577 -11.39801 -11.36981 -11.34173
 Alpha  occ. eigenvalues --   -1.35467  -1.14853  -1.05769  -0.91294  -0.80116
 Alpha  occ. eigenvalues --   -0.66023  -0.65092  -0.58204  -0.56839  -0.55201
 Alpha  occ. eigenvalues --   -0.50350  -0.49745  -0.46567  -0.44080  -0.41571
 Alpha  occ. eigenvalues --   -0.34813
 Alpha virt. eigenvalues --    0.04233   0.05155   0.05649   0.05836   0.05992
 Alpha virt. eigenvalues --    0.06387   0.06571   0.06883   0.08739   0.08949
 Alpha virt. eigenvalues --    0.09469   0.12006   0.13635   0.14027   0.15011

 Mulliken charges:
               1
     1  N   -2.655197
     2  C   -0.426737
     3  H    0.583584
     4  H    0.569999
     5  H    1.736227
     6  C   -2.726905
     7  C   -3.739248
     8  H    1.486714
     9  H    1.430065
    10  H    1.358368
    11  H    1.087620
    12  C   -3.574663
    13  H    1.126530
    14  H    1.245861
    15  H    1.248575
    16  H    1.249208
 Sum of Mulliken charges =  -0.00000

 Dipole moment (field-independent basis, Debye):
    X=              0.0282    Y=              0.1474    Z=              0.9840  Tot=              0.9954

 Test job not archived.
 1\1\GINC-SE339\SP\RHF\Aug-CC-pVDZ\C4H11N1\OHZDE\08-Apr-2025\0\\#t hf a
 ug-cc-pvdz iop(5/13=1,5/36=2,99/5=2) pseudo=read geom=check guess=(rea
 d,tcheck) scf=(maxcycle=1)\\title\\0,1\N,0,-0.573616,1.381193,-0.23541
 7\C,0,-0.488421,0.023778,0.328092\H,0,0.204049,1.947745,0.088666\H,0,-
 1.416001,1.839765,0.099742\H,0,-0.380354,0.036312,1.428132\C,0,0.73744
 2,-0.700271,-0.247081\C,0,2.078263,-0.04131,0.091604\H,0,0.619933,-0.7
 56954,-1.334914\H,0,0.735736,-1.7288,0.131381\H,0,2.166942,0.948573,-0
 .364819\H,0,2.913814,-0.640586,-0.27951\C,0,-1.779107,-0.724167,-0.007

 Normal termination of Gaussian 16 at Tue Apr  8 22:40:46 2025.
