 Gaussian 16, Revision C.01,

 ----------------------------------------------------------------------
 #t hf aug-cc-pvdz symm=none int=(grid=ultrafine) guess=(read,tcheck) s
 table=(opt,rrhf)
 ----------------------------------------------------------------------
 -----
 title
 -----
 Symbolic Z-matrix:
 Charge =  0 Multiplicity = 1

 SCF Done:  E(RHF) =  -384.932986791     A.U. after   13 cycles
 Normal termination of Gaussian 16 at Wed Apr  9 00:48:40 2025.
 Gaussian 16:  ES64L-G16RevC.01  3-Jul-2019

 ----------------------------------------------------------------------
 #t hf aug-cc-pvdz iop(5/13=1,5/36=2,99/5=2) pseudo=read geom=check gue
 ss=(read,tcheck) scf=(maxcycle=1)
 ----------------------------------------------------------------------
 -----
 title
 -----
 Structure from the checkpoint file:  "BDE49_nonexpt_85_mol1.chk"
 Charge =  0 Multiplicity = 1

                         Standard orientation:
 ---------------------------------------------------------------------
 Center     Atomic      Atomic             Coordinates (Angstroms)
 Number     Number       Type             X           Y           Z
 ---------------------------------------------------------------------
      1          5           0       -0.447337    1.120010    0.722874
      2          5           0        0.447337    1.120019   -0.722859
      3          8           0        1.615496    0.387029   -0.907885
      4          6           0        2.084371   -0.418407   -0.006369
      5          7           0        2.532184   -1.141777    0.774943
      6          8           0       -1.615491    0.387011    0.907894
      7          6           0       -2.084372   -0.418406    0.006363
      8          7           0       -2.532191   -1.141757   -0.774962
      9          1           0        0.184842    1.806596   -1.657277
     10          1           0       -0.184823    1.806549    1.657314
 ---------------------------------------------------------------------

 SCF Done:  E(RHF) =  -386.515687115     A.U. after    2 cycles

 The electronic state is 1-A.
 Alpha  occ. eigenvalues --  -21.17121 -21.17110 -15.78447 -15.78439 -11.51256
 Alpha  occ. eigenvalues --  -11.51233  -7.69637  -7.69165  -1.90531  -1.90222
 Alpha  occ. eigenvalues --   -1.31852  -1.31467  -0.97461  -0.88611  -0.74730
 Alpha  occ. eigenvalues --   -0.65226  -0.63785  -0.62699  -0.60824  -0.60586
 Alpha  occ. eigenvalues --   -0.55360  -0.54097  -0.47062  -0.43486  -0.41703
 Alpha  occ. eigenvalues --   -0.41678  -0.39090
 Alpha virt. eigenvalues --    0.01439   0.01634   0.02616   0.02945   0.06336
 Alpha virt. eigenvalues --    0.06346   0.07117   0.08019   0.08760   0.10227
 Alpha virt. eigenvalues --    0.11392   0.11929   0.12627   0.13058   0.13582

 Mulliken charges:
               1
     1  B    4.819765
     2  B    4.819765
     3  O   -3.356199
     4  C    4.447777
     5  N   -2.611006
     6  O   -3.356201
     7  C    4.447771
     8  N   -2.611007
     9  H   -3.300348
    10  H   -3.300318
 Sum of Mulliken charges =  -0.00000

 Dipole moment (field-independent basis, Debye):
    X=             -0.0000    Y=              3.4844    Z=              0.0000  Tot=              3.4844

 Test job not archived.
 1\1\GINC-SE187\SP\RHF\Aug-CC-pVDZ\C2H2B2N2O2\OHZDE\09-Apr-2025\0\\#t h
 f aug-cc-pvdz iop(5/13=1,5/36=2,99/5=2) pseudo=read geom=check guess=(
 read,tcheck) scf=(maxcycle=1)\\title\\0,1\B,0,-0.447337,1.12001,0.7228
 74\B,0,0.447337,1.120019,-0.722859\O,0,1.615496,0.387029,-0.907885\C,0
 ,2.084371,-0.418407,-0.006369\N,0,2.532184,-1.141777,0.774943\O,0,-1.6
 15491,0.387011,0.907894\C,0,-2.084372,-0.418406,0.006363\N,0,-2.532191
 ,-1.141757,-0.774962\H,0,0.184842,1.806596,-1.657277\H,0,-0.184823,1.8
 06549,1.657314\\Version=ES64L-G16RevC.01\State=1-A\HF=-386.5156871\RMS

 Normal termination of Gaussian 16 at Wed Apr  9 00:48:44 2025.
