 Gaussian 16, Revision C.01,

 ----------------------------------------------------------------------
 #t hf aug-cc-pvdz symm=none int=(grid=ultrafine) guess=(read,tcheck) s
 table=opt
 ----------------------------------------------------------------------
 -----
 title
 -----
 Symbolic Z-matrix:
 Charge =  0 Multiplicity = 2

 SCF Done:  E(UHF) =  -216.450044241     A.U. after   22 cycles
 Normal termination of Gaussian 16 at Wed Apr  9 00:32:45 2025.
 Gaussian 16:  ES64L-G16RevC.01  3-Jul-2019

 ----------------------------------------------------------------------
 #t hf aug-cc-pvdz iop(5/13=1,5/36=2,99/5=2) pseudo=read geom=check gue
 ss=(read,tcheck) scf=(maxcycle=1)
 ----------------------------------------------------------------------
 -----
 title
 -----
 Structure from the checkpoint file:  "BDE49_nonexpt_387_mol2.chk"
 Charge =  0 Multiplicity = 2

                         Standard orientation:
 ---------------------------------------------------------------------
 Center     Atomic      Atomic             Coordinates (Angstroms)
 Number     Number       Type             X           Y           Z
 ---------------------------------------------------------------------
      1          9           0        1.699779   -0.217997   -0.000001
      2          5           0        0.634127    0.528960   -0.000002
      3          6           0       -0.804686    0.047669    0.000004
      4          7           0       -1.948646   -0.138406   -0.000001
 ---------------------------------------------------------------------

 SCF Done:  E(UHF) =  -217.252557898     A.U. after    2 cycles

 The electronic state is 2-A.
 Alpha  occ. eigenvalues --  -29.30654 -15.81272 -11.41619  -7.75518  -1.34580
 Alpha  occ. eigenvalues --   -1.07645  -0.76806  -0.57329  -0.55577  -0.52217
 Alpha  occ. eigenvalues --   -0.49326  -0.44850  -0.42139  -0.27555
 Alpha virt. eigenvalues --    0.03258   0.04007   0.04719   0.06683   0.07743
 Alpha virt. eigenvalues --    0.12109   0.14347   0.15397   0.15431   0.17835
 Alpha virt. eigenvalues --    0.19501   0.19605   0.22221   0.22326   0.24048

  Beta  occ. eigenvalues --  -29.30394 -15.80036 -11.42148  -7.73381  -1.32655
  Beta  occ. eigenvalues --   -1.03969  -0.76056  -0.55745  -0.52037  -0.49157
  Beta  occ. eigenvalues --   -0.45177  -0.43700  -0.40504
  Beta virt. eigenvalues --    0.03109   0.03554   0.04277   0.06567   0.08564
  Beta virt. eigenvalues --    0.09731   0.12557   0.15042   0.15424   0.15475
  Beta virt. eigenvalues --    0.19240   0.20305   0.20721   0.22643   0.23317

 Mulliken charges and spin densities:
               1          2
     1  F   -0.588100  -0.094437
     2  B    2.099159   1.044209
     3  C    0.652884  -0.357535
     4  N   -2.163942   0.407764
 Sum of Mulliken charges =   0.00000   1.00000

 Dipole moment (field-independent basis, Debye):
    X=              4.9075    Y=             -1.6152    Z=              0.0000  Tot=              5.1665
                          Isotropic Fermi Contact Couplings
        Atom                 a.u.       MegaHertz       Gauss      10(-4) cm-1
     1  F(19)              0.04449     187.19861      66.79712      62.44274
     2  B(11)              0.22453     322.05089     114.91577     107.42461
     3  C(13)              0.03273      36.79658      13.12993      12.27402
     4  N(14)              0.07279      23.51731       8.39156       7.84453
 --------------------------------------------------------
       Center         ----  Spin Dipole Couplings  ----
                      3XX-RR        3YY-RR        3ZZ-RR
 --------------------------------------------------------

 Normal termination of Gaussian 16 at Wed Apr  9 00:32:53 2025.
