 Gaussian 16, Revision C.01,

 ----------------------------------------------------------------------
 #t hf aug-cc-pvdz symm=none int=(grid=ultrafine) guess=(read,tcheck) s
 table=(opt,rrhf)
 ----------------------------------------------------------------------
 -----
 title
 -----
 Symbolic Z-matrix:
 Charge =  0 Multiplicity = 1

 SCF Done:  E(RHF) =  -1336.24172587     A.U. after   13 cycles
 Normal termination of Gaussian 16 at Wed Apr  9 00:50:48 2025.
 Gaussian 16:  ES64L-G16RevC.01  3-Jul-2019

 ----------------------------------------------------------------------
 #t hf aug-cc-pvdz iop(5/13=1,5/36=2,99/5=2) pseudo=read geom=check gue
 ss=(read,tcheck) scf=(maxcycle=1)
 ----------------------------------------------------------------------
 -----
 title
 -----
 Structure from the checkpoint file:  "BDE49_nonexpt_889_mol1.chk"
 Charge =  0 Multiplicity = 1

                         Standard orientation:
 ---------------------------------------------------------------------
 Center     Atomic      Atomic             Coordinates (Angstroms)
 Number     Number       Type             X           Y           Z
 ---------------------------------------------------------------------
      1          6           0       -1.882133    0.120438   -0.154820
      2         16           0       -0.437610   -1.043670    0.046783
      3          5           0        1.056368   -0.036864   -0.041395
      4         16           0        2.682362   -0.842643    0.146431
      5         16           0        0.999988    1.764537   -0.327617
      6          6           0       -3.031158   -0.674269   -0.778355
      7          1           0       -3.336378   -1.500828   -0.130290
      8          1           0       -2.752664   -1.086757   -1.749738
      9          6           0       -2.269146    0.756351    1.180164
     10          1           0       -1.558607    0.889820   -0.858580
     11          1           0       -3.113464    1.438512    1.034367
     12          1           0       -1.444659    1.325868    1.611449
     13          1           0       -2.570154   -0.008081    1.901213
     14          1           0       -3.897372   -0.020565   -0.917468
     15          1           0        2.326868    1.981411   -0.340206
     16          1           0        2.243370   -2.101757    0.324727
 ---------------------------------------------------------------------

 SCF Done:  E(RHF) =  -1337.65502783     A.U. after    2 cycles

 The electronic state is 1-A.
 Alpha  occ. eigenvalues --  -75.69834 -75.69479 -75.67938 -13.17523 -13.16766
 Alpha  occ. eigenvalues --  -13.15582 -13.11529 -13.10635 -13.07597 -13.05021
 Alpha  occ. eigenvalues --  -13.04395 -13.03620 -11.44185 -11.39604 -11.37045
 Alpha  occ. eigenvalues --   -8.03867  -8.03366  -8.02015  -7.67674  -1.29377
 Alpha  occ. eigenvalues --   -1.20343  -1.10053  -1.06156  -1.01407  -0.83534
 Alpha  occ. eigenvalues --   -0.68110  -0.63052  -0.60117  -0.57658  -0.55001
 Alpha  occ. eigenvalues --   -0.54615  -0.48980  -0.48139  -0.47580  -0.39237
 Alpha  occ. eigenvalues --   -0.37537  -0.34030  -0.31772  -0.25415  -0.24182
 Alpha virt. eigenvalues --    0.02314   0.02455   0.02952   0.03067   0.06140
 Alpha virt. eigenvalues --    0.06351   0.07236   0.07529   0.07804   0.08955
 Alpha virt. eigenvalues --    0.09561   0.09633   0.10588   0.11636   0.11914

 Mulliken charges:
               1
     1  C   -1.958177
     2  S   -1.035862
     3  B    4.606407
     4  S   -2.790514
     5  S   -2.598846
     6  C   -3.891762
     7  H    1.343810
     8  H    1.364244
     9  C   -3.972985
    10  H    1.807715
    11  H    1.209095
    12  H    1.342457
    13  H    1.378662
    14  H    1.207058
    15  H    0.948064
    16  H    1.040635
 Sum of Mulliken charges =  -0.00000

 Dipole moment (field-independent basis, Debye):
    X=             -1.3088    Y=              0.7977    Z=             -0.2805  Tot=              1.5582

 Test job not archived.
 1\1\GINC-SE048\SP\RHF\Aug-CC-pVDZ\C3H9B1S3\OHZDE\09-Apr-2025\0\\#t hf
 aug-cc-pvdz iop(5/13=1,5/36=2,99/5=2) pseudo=read geom=check guess=(re
 ad,tcheck) scf=(maxcycle=1)\\title\\0,1\C,0,-1.882133,0.120438,-0.1548
 2\S,0,-0.43761,-1.04367,0.046783\B,0,1.056368,-0.036864,-0.041395\S,0,
 2.682362,-0.842643,0.146431\S,0,0.999988,1.764537,-0.327617\C,0,-3.031
 158,-0.67427,-0.778355\H,0,-3.336378,-1.500829,-0.13029\H,0,-2.752664,
 -1.086757,-1.749738\C,0,-2.269146,0.756351,1.180164\H,0,-1.558607,0.88
 982,-0.85858\H,0,-3.113464,1.438511,1.034367\H,0,-1.444659,1.325868,1.

 Normal termination of Gaussian 16 at Wed Apr  9 00:50:55 2025.
