 Gaussian 16, Revision C.01,

 ----------------------------------------------------------------------
 #t hf aug-cc-pvdz symm=none int=(grid=ultrafine) guess=(read,tcheck) s
 table=(opt,rrhf)
 ----------------------------------------------------------------------
 -----
 title
 -----
 Symbolic Z-matrix:
 Charge =  0 Multiplicity = 1

 SCF Done:  E(RHF) =  -1067.95672052     A.U. after   15 cycles
 Normal termination of Gaussian 16 at Tue Apr  8 23:42:16 2025.
 Gaussian 16:  ES64L-G16RevC.01  3-Jul-2019

 ----------------------------------------------------------------------
 #t hf aug-cc-pvdz iop(5/13=1,5/36=2,99/5=2) pseudo=read geom=check gue
 ss=(read,tcheck) scf=(maxcycle=1)
 ----------------------------------------------------------------------
 -----
 title
 -----
 Structure from the checkpoint file:  "BDE49_nonexpt_1669_mol1.chk"
 Charge =  0 Multiplicity = 1

                         Standard orientation:
 ---------------------------------------------------------------------
 Center     Atomic      Atomic             Coordinates (Angstroms)
 Number     Number       Type             X           Y           Z
 ---------------------------------------------------------------------
      1         14           0       -1.704626   -0.785274    0.068763
      2         15           0       -0.549416    1.157758   -0.243846
      3          6           0        1.113798    0.707315    0.308703
      4         16           0        1.918074   -0.655033   -0.080433
      5          1           0        1.626135    1.494883    0.867591
      6          1           0       -0.971824    1.872295    0.904903
      7          1           0       -1.547146   -1.632392   -1.128305
      8          1           0       -3.121386   -0.373378    0.203633
      9          1           0       -1.251732   -1.497307    1.281901
 ---------------------------------------------------------------------

 SCF Done:  E(RHF) =  -1068.70642202     A.U. after    2 cycles

 The electronic state is 1-A.
 Alpha  occ. eigenvalues -- -105.18909 -76.24228 -75.68124 -13.13289 -13.03001
 Alpha  occ. eigenvalues --  -12.99386 -11.46283  -8.02214  -5.57574  -2.77022
 Alpha  occ. eigenvalues --   -2.19601  -2.19573  -2.19145  -1.50859  -1.46879
 Alpha  occ. eigenvalues --   -1.43768  -1.17295  -0.86590  -0.78129  -0.67825
 Alpha  occ. eigenvalues --   -0.50907  -0.48960  -0.48750  -0.37079  -0.31743
 Alpha  occ. eigenvalues --   -0.20879  -0.15872  -0.04381
 Alpha virt. eigenvalues --    0.03495   0.04507   0.05515   0.06286   0.06843
 Alpha virt. eigenvalues --    0.07455   0.08019   0.09013   0.09429   0.10371
 Alpha virt. eigenvalues --    0.11103   0.11262   0.13948   0.14604   0.15428

 Mulliken charges:
               1
     1  Si   5.687193
     2  P    2.571866
     3  C   -4.165351
     4  S    0.698246
     5  H    1.214541
     6  H   -0.825939
     7  H   -1.685360
     8  H   -1.763693
     9  H   -1.731503
 Sum of Mulliken charges =  -0.00000

 Dipole moment (field-independent basis, Debye):
    X=             -1.1318    Y=              4.2185    Z=             -3.7798  Tot=              5.7762

 Test job not archived.
 1\1\GINC-SE080\SP\RHF\Aug-CC-pVDZ\C1H5P1S1Si1\OHZDE\08-Apr-2025\0\\#t
 hf aug-cc-pvdz iop(5/13=1,5/36=2,99/5=2) pseudo=read geom=check guess=
 (read,tcheck) scf=(maxcycle=1)\\title\\0,1\Si,0,-1.704626,-0.785275,0.
 068763\P,0,-0.549417,1.157758,-0.243846\C,0,1.113798,0.707315,0.308703
 \S,0,1.918074,-0.655032,-0.080433\H,0,1.626134,1.494884,0.867591\H,0,-
 0.971825,1.872295,0.904903\H,0,-1.547145,-1.632393,-1.128305\H,0,-3.12
 1386,-0.373379,0.203633\H,0,-1.251731,-1.497308,1.281901\\Version=ES64
 L-G16RevC.01\State=1-A\HF=-1068.706422\RMSD=3.206e-01\Dipole=-0.445286

 Normal termination of Gaussian 16 at Tue Apr  8 23:42:19 2025.
