 Gaussian 16, Revision C.01,

 ----------------------------------------------------------------------
 #t hf aug-cc-pvdz symm=none int=(grid=ultrafine) guess=(read,tcheck) s
 table=(opt,rrhf)
 ----------------------------------------------------------------------
 -----
 title
 -----
 Symbolic Z-matrix:
 Charge =  0 Multiplicity = 1

 SCF Done:  E(RHF) =  -558.048685701     A.U. after   14 cycles
 Normal termination of Gaussian 16 at Wed Apr  9 00:06:56 2025.
 Gaussian 16:  ES64L-G16RevC.01  3-Jul-2019

 ----------------------------------------------------------------------
 #t hf aug-cc-pvdz iop(5/13=1,5/36=2,99/5=2) pseudo=read geom=check gue
 ss=(read,tcheck) scf=(maxcycle=1)
 ----------------------------------------------------------------------
 -----
 title
 -----
 Structure from the checkpoint file:  "BDE49_nonexpt_2226_mol1.chk"
 Charge =  0 Multiplicity = 1

                         Standard orientation:
 ---------------------------------------------------------------------
 Center     Atomic      Atomic             Coordinates (Angstroms)
 Number     Number       Type             X           Y           Z
 ---------------------------------------------------------------------
      1          6           0       -2.916512   -0.111405   -0.467646
      2          6           0       -1.941832    0.291206    0.627362
      3          1           0       -2.553351   -0.993870   -0.995428
      4          1           0       -3.040417    0.699908   -1.188562
      5          1           0       -3.893356   -0.343650   -0.033338
      6         14           0        1.518267   -0.598036    0.204851
      7          6           0        2.554382    0.869874   -0.295269
      8          1           0        3.565710    0.775783    0.113464
      9          1           0        2.118909    1.797444    0.083547
     10          1           0        2.630669    0.944903   -1.382967
     11          8           0       -0.662562    0.674232    0.124686
     12          8           0       -0.043735   -0.540943   -0.432149
     13          1           0       -1.817087   -0.503498    1.371350
     14          1           0       -2.270942    1.199555    1.142978
     15          1           0        1.456223   -0.710683    1.680716
     16          1           0        2.022046   -1.857747   -0.386661
 ---------------------------------------------------------------------

 SCF Done:  E(RHF) =  -559.440666818     A.U. after    2 cycles

 The electronic state is 1-A.
 Alpha  occ. eigenvalues --  -76.22788 -21.09310 -21.07238 -11.43464 -11.36324
 Alpha  occ. eigenvalues --  -11.34811  -5.56561  -2.22998  -2.19299  -2.18382
 Alpha  occ. eigenvalues --   -1.91143  -1.43523  -1.10419  -1.03801  -0.87040
 Alpha  occ. eigenvalues --   -0.72135  -0.65407  -0.61918  -0.56395  -0.55964
 Alpha  occ. eigenvalues --   -0.54554  -0.52168  -0.50390  -0.48380  -0.45415
 Alpha  occ. eigenvalues --   -0.43249  -0.40857  -0.33753  -0.28017
 Alpha virt. eigenvalues --    0.03671   0.05019   0.05308   0.05660   0.05982
 Alpha virt. eigenvalues --    0.06373   0.06443   0.06709   0.07635   0.08587
 Alpha virt. eigenvalues --    0.09543   0.09945   0.11741   0.13260   0.14185

 Mulliken charges:
               1
     1  C   -3.509309
     2  C   -1.642329
     3  H    1.333494
     4  H    1.327016
     5  H    1.169960
     6  Si   6.686528
     7  C   -4.952207
     8  H    1.257572
     9  H    1.291020
    10  H    1.303941
    11  O   -1.823331
    12  O   -1.616212
    13  H    1.607177
    14  H    1.396926
    15  H   -1.880416
    16  H   -1.949829
 Sum of Mulliken charges =  -0.00000

 Dipole moment (field-independent basis, Debye):
    X=             -0.4703    Y=              0.7506    Z=              0.1201  Tot=              0.8939

 Test job not archived.
 1\1\GINC-SE105\SP\RHF\Aug-CC-pVDZ\C3H10O2Si1\OHZDE\09-Apr-2025\0\\#t h
 f aug-cc-pvdz iop(5/13=1,5/36=2,99/5=2) pseudo=read geom=check guess=(
 read,tcheck) scf=(maxcycle=1)\\title\\0,1\C,0,-2.916512,-0.111405,-0.4
 67646\C,0,-1.941832,0.291206,0.627362\H,0,-2.553351,-0.99387,-0.995428
 \H,0,-3.040417,0.699908,-1.188562\H,0,-3.893356,-0.34365,-0.033338\Si,
 0,1.518267,-0.598036,0.204851\C,0,2.554382,0.869874,-0.295269\H,0,3.56
 571,0.775783,0.113464\H,0,2.118909,1.797444,0.083547\H,0,2.630669,0.94
 4903,-1.382967\O,0,-0.662562,0.674232,0.124686\O,0,-0.043735,-0.540943

 Normal termination of Gaussian 16 at Wed Apr  9 00:07:01 2025.
