 Gaussian 16, Revision C.01,

 ----------------------------------------------------------------------
 #t hf aug-cc-pvdz symm=none int=(grid=ultrafine) guess=(read,tcheck) s
 table=(opt,rrhf)
 ----------------------------------------------------------------------
 -----
 title
 -----
 Symbolic Z-matrix:
 Charge =  0 Multiplicity = 1

 SCF Done:  E(RHF) =  -2455.33302350     A.U. after   15 cycles
 Normal termination of Gaussian 16 at Tue Apr  8 23:44:50 2025.
 Gaussian 16:  ES64L-G16RevC.01  3-Jul-2019

 ----------------------------------------------------------------------
 #t hf aug-cc-pvdz iop(5/13=1,5/36=2,99/5=2) pseudo=read geom=check gue
 ss=(read,tcheck) scf=(maxcycle=1)
 ----------------------------------------------------------------------
 -----
 title
 -----
 Structure from the checkpoint file:  "BDE49_nonexpt_1727_mol1.chk"
 Charge =  0 Multiplicity = 1

                         Standard orientation:
 ---------------------------------------------------------------------
 Center     Atomic      Atomic             Coordinates (Angstroms)
 Number     Number       Type             X           Y           Z
 ---------------------------------------------------------------------
      1         16           0       -0.782496    1.213204   -0.271239
      2         15           0       -2.446420   -0.063980    0.004675
      3          8           0       -3.481101    0.854321    0.486600
      4          8           0       -1.980461   -1.308852    0.864157
      5          8           0        0.412451    0.061748   -0.811002
      6          6           0        1.558652   -0.055408   -0.093022
      7         17           0        2.540569   -1.268174   -0.951669
      8         17           0        1.279175   -0.631712    1.622311
      9         17           0        2.466657    1.506889    0.006537
     10          1           0       -1.510694   -1.069163    1.673442
     11          8           0       -2.731339   -0.860612   -1.338700
     12          1           0       -3.250210   -0.341842   -1.966076
 ---------------------------------------------------------------------

 SCF Done:  E(RHF) =  -2457.89830196     A.U. after    2 cycles

 The electronic state is 1-A.
 Alpha  occ. eigenvalues -- -105.34969 -99.92939 -99.92892 -99.92753 -75.78166
 Alpha  occ. eigenvalues --  -21.14862 -21.14784 -21.14596 -21.05528 -13.24407
 Alpha  occ. eigenvalues --  -13.17873 -13.12499 -11.60499 -10.50419 -10.50164
 Alpha  occ. eigenvalues --  -10.50033  -9.70235  -9.70102  -9.69873  -9.69520
 Alpha  occ. eigenvalues --   -9.69369  -9.69326  -9.69233  -9.69150  -9.69098
 Alpha  occ. eigenvalues --   -8.11846  -2.97563  -2.04204  -1.93796  -1.86002
 Alpha  occ. eigenvalues --   -1.81271  -1.56688  -1.42949  -1.42062  -1.32177
 Alpha  occ. eigenvalues --   -1.31737  -1.28349  -1.08915  -0.93703  -0.75279
 Alpha  occ. eigenvalues --   -0.74503  -0.72031  -0.69556  -0.61051  -0.59818
 Alpha  occ. eigenvalues --   -0.58840  -0.58119  -0.53319  -0.52633  -0.52310
 Alpha  occ. eigenvalues --   -0.51376  -0.48138  -0.45925  -0.45333  -0.44587
 Alpha  occ. eigenvalues --   -0.37658  -0.37087  -0.31166  -0.30031  -0.24320
 Alpha  occ. eigenvalues --   -0.18136
 Alpha virt. eigenvalues --   -0.01207   0.03143   0.05234   0.05418   0.05787
 Alpha virt. eigenvalues --    0.06969   0.08394   0.09451   0.10000   0.10400
 Alpha virt. eigenvalues --    0.11376   0.12212   0.13005   0.13638   0.13732

 Mulliken charges:
               1
     1  S   -0.672613
     2  P    8.284517
     3  O   -2.845181
     4  O   -2.966017
     5  O   -1.936838
     6  C   -0.209935
     7  Cl   0.331464
     8  Cl   0.376406
     9  Cl   0.392760
    10  H    1.055497
    11  O   -2.707013
    12  H    0.896952
 Sum of Mulliken charges =  -0.00000

 Dipole moment (field-independent basis, Debye):
    X=             -3.0389    Y=             -1.1561    Z=             -1.8689  Tot=              3.7502

 Test job not archived.
 1\1\GINC-SE082\SP\RHF\Aug-CC-pVDZ\C1H2Cl3O4P1S1\OHZDE\08-Apr-2025\0\\#
 t hf aug-cc-pvdz iop(5/13=1,5/36=2,99/5=2) pseudo=read geom=check gues
 s=(read,tcheck) scf=(maxcycle=1)\\title\\0,1\S,0,-0.782496,1.213204,-0
 .271239\P,0,-2.44642,-0.06398,0.004675\O,0,-3.481101,0.854321,0.4866\O
 ,0,-1.980461,-1.308852,0.864157\O,0,0.412451,0.061748,-0.811002\C,0,1.
 558652,-0.055408,-0.093022\Cl,0,2.540569,-1.268174,-0.951669\Cl,0,1.27
 9175,-0.631712,1.622311\Cl,0,2.466657,1.506889,0.006537\H,0,-1.510694,
 -1.069163,1.673442\O,0,-2.731339,-0.860612,-1.3387\H,0,-3.25021,-0.341

 Normal termination of Gaussian 16 at Tue Apr  8 23:44:59 2025.
