 Gaussian 16, Revision C.01,

 ----------------------------------------------------------------------
 #t hf aug-cc-pvdz symm=none int=(grid=ultrafine) guess=(read,tcheck) s
 table=(opt,rrhf)
 ----------------------------------------------------------------------
 -----
 title
 -----
 Symbolic Z-matrix:
 Charge =  0 Multiplicity = 1

 SCF Done:  E(RHF) =  -646.036303240     A.U. after   16 cycles
 Normal termination of Gaussian 16 at Tue Apr  8 23:34:33 2025.
 Gaussian 16:  ES64L-G16RevC.01  3-Jul-2019

 ----------------------------------------------------------------------
 #t hf aug-cc-pvdz iop(5/13=1,5/36=2,99/5=2) pseudo=read geom=check gue
 ss=(read,tcheck) scf=(maxcycle=1)
 ----------------------------------------------------------------------
 -----
 title
 -----
 Structure from the checkpoint file:  "BDE49_nonexpt_1447_mol1.chk"
 Charge =  0 Multiplicity = 1

                         Standard orientation:
 ---------------------------------------------------------------------
 Center     Atomic      Atomic             Coordinates (Angstroms)
 Number     Number       Type             X           Y           Z
 ---------------------------------------------------------------------
      1         15           0        0.041209   -0.790723   -0.740831
      2          6           0        1.386236    0.298671    0.007933
      3          6           0        2.632778   -0.411379    0.498609
      4          1           0        2.414460   -0.914831    1.445431
      5          1           0        3.425899    0.321230    0.651261
      6          1           0        2.956135   -1.176158   -0.212541
      7          6           0       -1.523270   -0.156257    0.139795
      8          6           0       -1.879637    1.293097   -0.074025
      9          1           0       -2.728244    1.555001    0.558533
     10          1           0       -2.149102    1.437271   -1.125897
     11          1           0       -1.017803    1.933788    0.124767
     12          8           0       -2.205564   -0.941725    0.745908
     13          8           0        1.276573    1.502257    0.023538
     14          1           0        0.215805   -1.924505    0.081473
 ---------------------------------------------------------------------

 SCF Done:  E(RHF) =  -647.576525641     A.U. after    2 cycles

 The electronic state is 1-A.
 Alpha  occ. eigenvalues -- -105.19851 -21.07708 -21.07273 -11.50672 -11.49686
 Alpha  occ. eigenvalues --  -11.40491 -11.38986  -2.77869  -1.73452  -1.72682
 Alpha  occ. eigenvalues --   -1.50273  -1.48562  -1.45903  -1.12403  -1.10889
 Alpha  occ. eigenvalues --   -0.84892  -0.73201  -0.68897  -0.61109  -0.60544
 Alpha  occ. eigenvalues --   -0.59366  -0.58094  -0.55091  -0.52852  -0.45229
 Alpha  occ. eigenvalues --   -0.44452  -0.43641  -0.37773  -0.23084  -0.15761
 Alpha  occ. eigenvalues --   -0.03487
 Alpha virt. eigenvalues --    0.03217   0.05338   0.05883   0.06289   0.06992
 Alpha virt. eigenvalues --    0.07565   0.07957   0.08719   0.09475   0.09948
 Alpha virt. eigenvalues --    0.11794   0.12758   0.13465   0.13652   0.13758

 Mulliken charges:
               1
     1  P    4.231628
     2  C    1.473659
     3  C   -3.973198
     4  H    1.254816
     5  H    1.264296
     6  H    1.402357
     7  C    1.002527
     8  C   -4.183285
     9  H    1.193669
    10  H    1.370228
    11  H    1.396128
    12  O   -2.865680
    13  O   -3.039500
    14  H   -0.527645
 Sum of Mulliken charges =  -0.00000

 Dipole moment (field-independent basis, Debye):
    X=             -0.0178    Y=             -0.6301    Z=             -2.1722  Tot=              2.2618

 Test job not archived.
 1\1\GINC-SE226\SP\RHF\Aug-CC-pVDZ\C4H7O2P1\OHZDE\08-Apr-2025\0\\#t hf
 aug-cc-pvdz iop(5/13=1,5/36=2,99/5=2) pseudo=read geom=check guess=(re
 ad,tcheck) scf=(maxcycle=1)\\title\\0,1\P,0,-0.041209,-0.790723,0.7408
 31\C,0,-1.386236,0.298671,-0.007933\C,0,-2.632778,-0.411378,-0.498609\
 H,0,-2.41446,-0.91483,-1.445431\H,0,-3.425899,0.321231,-0.651261\H,0,-
 2.956135,-1.176157,0.212541\C,0,1.52327,-0.156257,-0.139795\C,0,1.8796
 37,1.293097,0.074025\H,0,2.728244,1.555001,-0.558533\H,0,2.149102,1.43
 7271,1.125897\H,0,1.017803,1.933788,-0.124767\O,0,2.205564,-0.941725,-

 Normal termination of Gaussian 16 at Tue Apr  8 23:34:38 2025.
