 Gaussian 16, Revision C.01,

 ----------------------------------------------------------------------
 #t hf aug-cc-pvdz symm=none int=(grid=ultrafine) guess=(read,tcheck) s
 table=(opt,rrhf)
 ----------------------------------------------------------------------
 -----
 title
 -----
 Symbolic Z-matrix:
 Charge =  0 Multiplicity = 1

 SCF Done:  E(RHF) =  -483.282813298     A.U. after   11 cycles
 Normal termination of Gaussian 16 at Wed Apr  9 00:06:13 2025.
 Gaussian 16:  ES64L-G16RevC.01  3-Jul-2019

 ----------------------------------------------------------------------
 #t hf aug-cc-pvdz iop(5/13=1,5/36=2,99/5=2) pseudo=read geom=check gue
 ss=(read,tcheck) scf=(maxcycle=1)
 ----------------------------------------------------------------------
 -----
 title
 -----
 Structure from the checkpoint file:  "BDE49_nonexpt_2225_mol1.chk"
 Charge =  0 Multiplicity = 1

                         Standard orientation:
 ---------------------------------------------------------------------
 Center     Atomic      Atomic             Coordinates (Angstroms)
 Number     Number       Type             X           Y           Z
 ---------------------------------------------------------------------
      1          6           0        2.720021    0.551079    0.000004
      2          6           0        1.603534   -0.478523   -0.000002
      3          1           0        2.651005    1.187405   -0.885178
      4          1           0        3.696513    0.057981    0.000003
      5          1           0        2.651003    1.187398    0.885191
      6         14           0       -1.134175   -0.535908   -0.000001
      7          6           0       -2.425545    0.808813    0.000000
      8          1           0       -2.329618    1.442385    0.885471
      9          1           0       -3.429293    0.372876   -0.000003
     10          1           0       -2.329614    1.442390   -0.885467
     11          8           0        0.346387    0.197753   -0.000001
     12          1           0        1.679776   -1.122980    0.885958
     13          1           0        1.679779   -1.122973   -0.885967
     14          1           0       -1.275129   -1.406001   -1.198558
     15          1           0       -1.275127   -1.406001    1.198557
 ---------------------------------------------------------------------

 SCF Done:  E(RHF) =  -484.379978819     A.U. after    2 cycles

 The electronic state is 1-A.
 Alpha  occ. eigenvalues --  -76.21820 -21.03251 -11.43128 -11.36094 -11.34497
 Alpha  occ. eigenvalues --   -5.55712  -2.22632  -2.18708  -2.17131  -1.68998
 Alpha  occ. eigenvalues --   -1.11480  -1.03276  -0.87198  -0.72049  -0.64256
 Alpha  occ. eigenvalues --   -0.59150  -0.56011  -0.55303  -0.53194  -0.50854
 Alpha  occ. eigenvalues --   -0.48123  -0.46655  -0.41241  -0.35659  -0.33999
 Alpha virt. eigenvalues --    0.03884   0.04684   0.05632   0.06098   0.06208
 Alpha virt. eigenvalues --    0.06381   0.06454   0.06946   0.07807   0.08243
 Alpha virt. eigenvalues --    0.09788   0.10628   0.11884   0.12960   0.13968

 Mulliken charges:
               1
     1  C   -3.752084
     2  C   -1.303790
     3  H    1.277600
     4  H    1.182281
     5  H    1.277600
     6  Si   6.768262
     7  C   -4.994395
     8  H    1.333793
     9  H    1.277892
    10  H    1.333792
    11  O   -3.608776
    12  H    1.563128
    13  H    1.563127
    14  H   -1.959215
    15  H   -1.959214
 Sum of Mulliken charges =  -0.00000

 Dipole moment (field-independent basis, Debye):
    X=              0.3926    Y=              0.6273    Z=             -0.0000  Tot=              0.7400

 Test job not archived.
 1\1\GINC-SE453\SP\RHF\Aug-CC-pVDZ\C3H10O1Si1\OHZDE\09-Apr-2025\0\\#t h
 f aug-cc-pvdz iop(5/13=1,5/36=2,99/5=2) pseudo=read geom=check guess=(
 read,tcheck) scf=(maxcycle=1)\\title\\0,1\C,0,2.720021,0.551079,0.0000
 04\C,0,1.603534,-0.478523,-0.000002\H,0,2.651005,1.187405,-0.885178\H,
 0,3.696513,0.057981,0.000003\H,0,2.651003,1.187398,0.885191\Si,0,-1.13
 4175,-0.535908,-0.000001\C,0,-2.425545,0.808813,0.\H,0,-2.329618,1.442
 385,0.885471\H,0,-3.429293,0.372876,-0.000003\H,0,-2.329614,1.44239,-0
 .885467\O,0,0.346387,0.197753,-0.000001\H,0,1.679776,-1.12298,0.885958

 Normal termination of Gaussian 16 at Wed Apr  9 00:06:16 2025.
