 Gaussian 16, Revision C.01,

 ----------------------------------------------------------------------
 #t hf aug-cc-pvdz symm=none int=(grid=ultrafine) guess=(read,tcheck) s
 table=opt
 ----------------------------------------------------------------------
 -----
 title
 -----
 Symbolic Z-matrix:
 Charge =  0 Multiplicity = 2

 SCF Done:  E(UHF) =  -306.361592070     A.U. after   20 cycles
 Normal termination of Gaussian 16 at Tue Apr  8 22:45:08 2025.
 Gaussian 16:  ES64L-G16RevC.01  3-Jul-2019

 ----------------------------------------------------------------------
 #t hf aug-cc-pvdz iop(5/13=1,5/36=2,99/5=2) pseudo=read geom=check gue
 ss=(read,tcheck) scf=(maxcycle=1)
 ----------------------------------------------------------------------
 -----
 title
 -----
 Structure from the checkpoint file:  "BDE49_expt_1474_mol2.chk"
 Charge =  0 Multiplicity = 2

                         Standard orientation:
 ---------------------------------------------------------------------
 Center     Atomic      Atomic             Coordinates (Angstroms)
 Number     Number       Type             X           Y           Z
 ---------------------------------------------------------------------
      1          8           0       -1.972131   -0.000000   -0.196463
      2          8           0       -0.833566   -0.000008   -0.851343
      3          6           0        0.369445    0.000000    0.048916
      4          6           0        0.316707    1.269091    0.892524
      5          1           0        0.327354    2.156674    0.255815
      6          1           0        1.181575    1.310833    1.559170
      7          1           0       -0.591430    1.281883    1.496213
      8          6           0        0.316696   -1.269066    0.892559
      9          1           0        0.327336   -2.156667    0.255875
     10          1           0        1.181564   -1.310797    1.559207
     11          1           0       -0.591441   -1.281834    1.496248
     12          6           0        1.524063   -0.000018   -0.945104
     13          1           0        1.486475    0.886325   -1.582001
     14          1           0        1.486468   -0.886378   -1.581976
     15          1           0        2.476215   -0.000015   -0.409476
 ---------------------------------------------------------------------

 SCF Done:  E(UHF) =  -307.751385597     A.U. after    2 cycles

 The electronic state is 2-A.
 Alpha  occ. eigenvalues --  -21.13510 -21.11171 -11.46311 -11.40332 -11.40156
 Alpha  occ. eigenvalues --  -11.36173  -2.03758  -1.38918  -1.18438  -1.02640
 Alpha  occ. eigenvalues --   -1.02592  -0.78973  -0.65360  -0.63903  -0.62985
 Alpha  occ. eigenvalues --   -0.59291  -0.56410  -0.52954  -0.52423  -0.49967
 Alpha  occ. eigenvalues --   -0.49160  -0.46085  -0.42939  -0.30865  -0.28371
 Alpha virt. eigenvalues --    0.03729   0.05318   0.05347   0.05493   0.05850
 Alpha virt. eigenvalues --    0.05943   0.07050   0.07191   0.09655   0.11286
 Alpha virt. eigenvalues --    0.13832   0.13857   0.14710   0.14893   0.15645

  Beta  occ. eigenvalues --  -21.10390 -21.09642 -11.46375 -11.40330 -11.40141
  Beta  occ. eigenvalues --  -11.36171  -1.98361  -1.32828  -1.15336  -1.02566
  Beta  occ. eigenvalues --   -1.02532  -0.78562  -0.65082  -0.62721  -0.62702
  Beta  occ. eigenvalues --   -0.56345  -0.56322  -0.52636  -0.49352  -0.48117
  Beta  occ. eigenvalues --   -0.47827  -0.42016  -0.38672  -0.28833
  Beta virt. eigenvalues --    0.03741   0.05321   0.05338   0.05496   0.05846
  Beta virt. eigenvalues --    0.05945   0.07062   0.07158   0.09643   0.11298
  Beta virt. eigenvalues --    0.13347   0.13908   0.14598   0.14762   0.14927

 Mulliken charges and spin densities:
               1          2
     1  O   -0.482118   0.897294
     2  O   -1.923549   0.134195
     3  C    3.207519  -0.023897
     4  C   -4.155233   0.014803
     5  H    1.264946  -0.001906
     6  H    1.189504  -0.001234
     7  H    1.372742  -0.018705
     8  C   -4.155234   0.014803
     9  H    1.264946  -0.001906
    10  H    1.189502  -0.001234
    11  H    1.372746  -0.018705
    12  C   -3.836490   0.004455
    13  H    1.250924   0.002280
    14  H    1.250925   0.002280
    15  H    1.188870  -0.002522
 Sum of Mulliken charges =  -0.00000   1.00000

 Dipole moment (field-independent basis, Debye):
    X=              1.2852    Y=              0.0000    Z=              0.4995  Tot=              1.3788
                          Isotropic Fermi Contact Couplings
        Atom                 a.u.       MegaHertz       Gauss      10(-4) cm-1
     1  O(17)              0.19922    -120.76901     -43.09338     -40.28420
     2  O(17)              0.07025     -42.58387     -15.19498     -14.20445
     3  C(13)             -0.00883      -9.92690      -3.54217      -3.31126
     4  C(13)              0.00079       0.88350       0.31526       0.29470
     5  H(1)              -0.00015      -0.65756      -0.23464      -0.21934
     6  H(1)              -0.00053      -2.37142      -0.84618      -0.79102
     7  H(1)              -0.00011      -0.49724      -0.17743      -0.16586
     8  C(13)              0.00079       0.88341       0.31522       0.29467

 Normal termination of Gaussian 16 at Tue Apr  8 22:45:12 2025.
