 Gaussian 16, Revision C.01,

 ----------------------------------------------------------------------
 #t hf aug-cc-pvdz symm=none int=(grid=ultrafine) guess=(read,tcheck) s
 table=(opt,rrhf)
 ----------------------------------------------------------------------
 -----
 title
 -----
 Symbolic Z-matrix:
 Charge =  0 Multiplicity = 1

 SCF Done:  E(RHF) =  -725.012919924     A.U. after   14 cycles
 Normal termination of Gaussian 16 at Tue Apr  8 22:45:58 2025.
 Gaussian 16:  ES64L-G16RevC.01  3-Jul-2019

 ----------------------------------------------------------------------
 #t hf aug-cc-pvdz iop(5/13=1,5/36=2,99/5=2) pseudo=read geom=check gue
 ss=(read,tcheck) scf=(maxcycle=1)
 ----------------------------------------------------------------------
 -----
 title
 -----
 Structure from the checkpoint file:  "BDE49_expt_149_mol1.chk"
 Charge =  0 Multiplicity = 1

                         Standard orientation:
 ---------------------------------------------------------------------
 Center     Atomic      Atomic             Coordinates (Angstroms)
 Number     Number       Type             X           Y           Z
 ---------------------------------------------------------------------
      1          6           0        0.000000    1.193321   -0.966500
      2          6           0       -0.000000    0.000000   -1.671546
      3          6           0       -0.000000   -1.193321   -0.966500
      4          1           0       -0.000000    0.000000   -2.752881
      5          9           0        0.000000   -2.361439   -1.621691
      6          6           0        0.000000    1.207379    0.423806
      7          9           0        0.000000    2.361439   -1.621691
      8          6           0        0.000000   -0.000000    1.115269
      9          6           0       -0.000000   -1.207379    0.423806
     10          9           0        0.000000   -2.360482    1.097542
     11          9           0        0.000000    2.360482    1.097542
     12          9           0        0.000000   -0.000000    2.448617
 ---------------------------------------------------------------------

 SCF Done:  E(RHF) =  -727.723204783     A.U. after    2 cycles

 The electronic state is 1-A1.
 Alpha  occ. eigenvalues --  -29.33116 -29.32632 -29.32594 -29.32547 -29.32535
 Alpha  occ. eigenvalues --  -11.61050 -11.54640 -11.53820 -11.51948 -11.49219
 Alpha  occ. eigenvalues --  -11.45180  -1.48097  -1.28698  -1.26293  -1.08750
 Alpha  occ. eigenvalues --   -1.05924  -0.91760  -0.86944  -0.76692  -0.75969
 Alpha  occ. eigenvalues --   -0.73168  -0.67282  -0.63500  -0.60565  -0.56274
 Alpha  occ. eigenvalues --   -0.52854  -0.44589  -0.43969  -0.43317  -0.42742
 Alpha  occ. eigenvalues --   -0.41849  -0.39983  -0.38549  -0.32543  -0.31624
 Alpha  occ. eigenvalues --   -0.31400  -0.30494  -0.30387  -0.28151  -0.23039
 Alpha  occ. eigenvalues --   -0.19351
 Alpha virt. eigenvalues --    0.04328   0.08996   0.10070   0.10193   0.10439
 Alpha virt. eigenvalues --    0.11338   0.11708   0.12035   0.12281   0.12561
 Alpha virt. eigenvalues --    0.13921   0.13987   0.14052   0.14080   0.15096

 Mulliken charges:
               1
     1  C    2.397982
     2  C   -6.591598
     3  C    2.397982
     4  H    1.718794
     5  F    0.890589
     6  C   -3.012881
     7  F    0.890589
     8  C    0.783517
     9  C   -3.012881
    10  F    1.226899
    11  F    1.226899
    12  F    1.084109
 Sum of Mulliken charges =   0.00000

 Dipole moment (field-independent basis, Debye):
    X=              0.0000    Y=              0.0000    Z=              2.1846  Tot=              2.1846

 Test job not archived.
 1\1\GINC-SE009\SP\RHF\Aug-CC-pVDZ\C6H1F5\OHZDE\08-Apr-2025\0\\#t hf au
 g-cc-pvdz iop(5/13=1,5/36=2,99/5=2) pseudo=read geom=check guess=(read
 ,tcheck) scf=(maxcycle=1)\\title\\0,1\C,0,0.,1.193321,-0.9665\C,0,0.,0
 .,-1.671546\C,0,0.,-1.193321,-0.9665\H,0,0.,0.,-2.752881\F,0,0.,-2.361
 439,-1.621691\C,0,0.,1.207379,0.423806\F,0,0.,2.361439,-1.621691\C,0,0
 .,0.,1.115269\C,0,0.,-1.207379,0.423806\F,0,0.,-2.360482,1.097542\F,0,
 0.,2.360482,1.097542\F,0,0.,0.,2.448617\\Version=ES64L-G16RevC.01\Stat
 e=1-A1\HF=-727.7232048\RMSD=1.314e+00\Dipole=0.,0.,0.8595052\Quadrupol

 Normal termination of Gaussian 16 at Tue Apr  8 22:46:04 2025.
