 Gaussian 16, Revision C.01,

 ----------------------------------------------------------------------
 #t hf aug-cc-pvdz symm=none int=(grid=ultrafine) guess=(read,tcheck) s
 table=opt
 ----------------------------------------------------------------------
 -----
 title
 -----
 Symbolic Z-matrix:
 Charge =  0 Multiplicity = 2

 SCF Done:  E(UHF) =  -651.426142551     A.U. after   18 cycles
 Normal termination of Gaussian 16 at Wed Apr  9 00:04:28 2025.
 Gaussian 16:  ES64L-G16RevC.01  3-Jul-2019

 ----------------------------------------------------------------------
 #t hf aug-cc-pvdz iop(5/13=1,5/36=2,99/5=2) pseudo=read geom=check gue
 ss=(read,tcheck) scf=(maxcycle=1)
 ----------------------------------------------------------------------
 -----
 title
 -----
 Structure from the checkpoint file:  "BDE49_nonexpt_219_mol2.chk"
 Charge =  0 Multiplicity = 2

                         Standard orientation:
 ---------------------------------------------------------------------
 Center     Atomic      Atomic             Coordinates (Angstroms)
 Number     Number       Type             X           Y           Z
 ---------------------------------------------------------------------
      1          5           0        0.599124    0.667324    0.000005
      2          6           0       -1.840769   -0.015882    0.000001
      3          8           0       -2.997627   -0.133876   -0.000001
      4          7           0       -0.636547    0.037319    0.000003
      5         17           0        2.146226   -0.143032   -0.000003
 ---------------------------------------------------------------------

 SCF Done:  E(UHF) =  -652.429001491     A.U. after    2 cycles

 The electronic state is 2-A.
 Alpha  occ. eigenvalues --  -99.91066 -21.15557 -15.77587 -11.62333 -10.48344
 Alpha  occ. eigenvalues --   -9.68364  -9.67759  -9.67558  -7.73701  -1.80202
 Alpha  occ. eigenvalues --   -1.44389  -1.33615  -0.93679  -0.69196  -0.65276
 Alpha  occ. eigenvalues --   -0.63378  -0.63377  -0.55575  -0.55553  -0.44792
 Alpha  occ. eigenvalues --   -0.40424  -0.31347
 Alpha virt. eigenvalues --    0.03537   0.03690   0.04272   0.05089   0.06672
 Alpha virt. eigenvalues --    0.11037   0.12272   0.12586   0.13021   0.13239
 Alpha virt. eigenvalues --    0.16661   0.16851   0.17126   0.19324   0.20014

  Beta  occ. eigenvalues --  -99.90960 -21.15382 -15.77686 -11.62212 -10.48218
  Beta  occ. eigenvalues --   -9.68105  -9.67553  -9.67504  -7.71578  -1.79869
  Beta  occ. eigenvalues --   -1.43657  -1.32780  -0.91543  -0.67433  -0.64316
  Beta  occ. eigenvalues --   -0.63388  -0.61451  -0.55499  -0.53881  -0.40695
  Beta  occ. eigenvalues --   -0.40489
  Beta virt. eigenvalues --    0.01992   0.03706   0.04086   0.04405   0.08573
  Beta virt. eigenvalues --    0.09057   0.11405   0.12333   0.12614   0.13354
  Beta virt. eigenvalues --    0.13446   0.16866   0.16919   0.18071   0.19430

 Mulliken charges and spin densities:
               1          2
     1  B    0.991921   0.981117
     2  C    4.405177   0.023004
     3  O   -2.421701   0.049154
     4  N   -2.065757  -0.167172
     5  Cl  -0.909640   0.113897
 Sum of Mulliken charges =   0.00000   1.00000

 Dipole moment (field-independent basis, Debye):
    X=             -2.1719    Y=             -0.0328    Z=             -0.0000  Tot=              2.1722
                          Isotropic Fermi Contact Couplings
        Atom                 a.u.       MegaHertz       Gauss      10(-4) cm-1
     1  B(11)              0.36003     516.40864     184.26744     172.25538
     2  C(13)              0.00351       3.95095       1.40980       1.31790
     3  O(17)              0.01135      -6.87902      -2.45461      -2.29459
     4  N(14)              0.03309      10.69036       3.81459       3.56592
     5  Cl(35)             0.19064      83.58925      29.82672      27.88237
 --------------------------------------------------------
       Center         ----  Spin Dipole Couplings  ----
                      3XX-RR        3YY-RR        3ZZ-RR

 1\1\GINC-SE073\SP\UHF\Aug-CC-pVDZ\C1B1Cl1N1O1(2)\OHZDE\09-Apr-2025\0\\
 #t hf aug-cc-pvdz iop(5/13=1,5/36=2,99/5=2) pseudo=read geom=check gue
 ss=(read,tcheck) scf=(maxcycle=1)\\title\\0,2\B,0,0.599124,0.667324,0.
 000005\C,0,-1.840769,-0.015882,0.000001\O,0,-2.997627,-0.133876,-0.000
 001\N,0,-0.636547,0.037319,0.000003\Cl,0,2.146226,-0.143032,-0.000003\
 \Version=ES64L-G16RevC.01\State=2-A\HF=-652.4290015\S2=0.760013\S2-1=0
 .\S2A=0.750062\RMSD=1.091e-01\Dipole=-0.85451,-0.0128978,-0.0000006\Qu
 adrupole=1.1635847,-1.3428469,0.1792622,-0.5697184,-0.0000034,-0.00000

 Normal termination of Gaussian 16 at Wed Apr  9 00:04:30 2025.
