 Gaussian 16, Revision C.01,

 ----------------------------------------------------------------------
 #t hf aug-cc-pvdz symm=none int=(grid=ultrafine) guess=(read,tcheck) s
 table=opt
 ----------------------------------------------------------------------
 -----
 title
 -----
 Symbolic Z-matrix:
 Charge =  0 Multiplicity = 2

 SCF Done:  E(UHF) =  -1208.58927395     A.U. after   14 cycles
 Normal termination of Gaussian 16 at Tue Apr  8 23:49:21 2025.
 Gaussian 16:  ES64L-G16RevC.01  3-Jul-2019

 ----------------------------------------------------------------------
 #t hf aug-cc-pvdz iop(5/13=1,5/36=2,99/5=2) pseudo=read geom=check gue
 ss=(read,tcheck) scf=(maxcycle=1)
 ----------------------------------------------------------------------
 -----
 title
 -----
 Structure from the checkpoint file:  "BDE49_nonexpt_1824_mol2.chk"
 Charge =  0 Multiplicity = 2

                         Standard orientation:
 ---------------------------------------------------------------------
 Center     Atomic      Atomic             Coordinates (Angstroms)
 Number     Number       Type             X           Y           Z
 ---------------------------------------------------------------------
      1         14           0       -0.025866    0.806787    0.000000
      2         17           0       -0.025866   -0.378674    1.703205
      3         17           0       -0.025866   -0.378674   -1.703205
      4          1           0        1.241551    1.579891    0.000000
 ---------------------------------------------------------------------

 SCF Done:  E(UHF) =  -1209.20402707     A.U. after    2 cycles

 The electronic state is 2-A'.
 Alpha  occ. eigenvalues --  -99.90408 -99.90406 -76.32547 -10.47833 -10.47809
 Alpha  occ. eigenvalues --   -9.67738  -9.67721  -9.66990  -9.66982  -9.66964
 Alpha  occ. eigenvalues --   -9.66913  -5.65833  -2.27757  -2.26872  -2.25574
 Alpha  occ. eigenvalues --   -1.32421  -1.29653  -0.80136  -0.60271  -0.59554
 Alpha  occ. eigenvalues --   -0.57518  -0.54815  -0.52694  -0.52072  -0.33700
 Alpha virt. eigenvalues --    0.04284   0.04881   0.04943   0.06419   0.09972
 Alpha virt. eigenvalues --    0.10387   0.11981   0.12257   0.12951   0.14957
 Alpha virt. eigenvalues --    0.15142   0.15203   0.17056   0.18336   0.18946

  Beta  occ. eigenvalues --  -99.90298 -99.90297 -76.31951 -10.47713 -10.47689
  Beta  occ. eigenvalues --   -9.67489  -9.67486  -9.66928  -9.66859  -9.66721
  Beta  occ. eigenvalues --   -9.66678  -5.64844  -2.27108  -2.26262  -2.22145
  Beta  occ. eigenvalues --   -1.31457  -1.28791  -0.76127  -0.59083  -0.58665
  Beta  occ. eigenvalues --   -0.55824  -0.53676  -0.52527  -0.50582
  Beta virt. eigenvalues --    0.00185   0.04880   0.05288   0.05410   0.06698
  Beta virt. eigenvalues --    0.10663   0.11559   0.12722   0.13107   0.13898
  Beta virt. eigenvalues --    0.15194   0.15306   0.16230   0.17388   0.18383

 Mulliken charges and spin densities:
               1          2
     1  Si   3.255317   0.739201
     2  Cl  -0.798814   0.069893
     3  Cl  -0.798814   0.069893
     4  H   -1.657689   0.121013
 Sum of Mulliken charges =  -0.00000   1.00000

 Dipole moment (field-independent basis, Debye):
    X=             -0.3331    Y=              1.7011    Z=              0.0000  Tot=              1.7334
                          Isotropic Fermi Contact Couplings
        Atom                 a.u.       MegaHertz       Gauss      10(-4) cm-1
     1  Si(29)             0.83361    -740.85433    -264.35525    -247.12241
     2  Cl(35)             0.08005      35.10087      12.52486      11.70839
     3  Cl(35)             0.08005      35.10087      12.52486      11.70839
     4  H(1)               0.02833     126.61141      45.17810      42.23302
 --------------------------------------------------------
       Center         ----  Spin Dipole Couplings  ----
                      3XX-RR        3YY-RR        3ZZ-RR
 --------------------------------------------------------

 Normal termination of Gaussian 16 at Tue Apr  8 23:49:23 2025.
