 Gaussian 16, Revision C.01,

 ----------------------------------------------------------------------
 #t hf aug-cc-pvdz symm=none int=(grid=ultrafine) guess=(read,tcheck) s
 table=(opt,rrhf)
 ----------------------------------------------------------------------
 -----
 title
 -----
 Symbolic Z-matrix:
 Charge =  0 Multiplicity = 1

 SCF Done:  E(RHF) =  -439.584242118     A.U. after   15 cycles
 Normal termination of Gaussian 16 at Tue Apr  8 22:40:45 2025.
 Gaussian 16:  ES64L-G16RevC.01  3-Jul-2019

 ----------------------------------------------------------------------
 #t hf aug-cc-pvdz iop(5/13=1,5/36=2,99/5=2) pseudo=read geom=check gue
 ss=(read,tcheck) scf=(maxcycle=1)
 ----------------------------------------------------------------------
 -----
 title
 -----
 Structure from the checkpoint file:  "BDE49_expt_1173_mol1.chk"
 Charge =  0 Multiplicity = 1

                         Standard orientation:
 ---------------------------------------------------------------------
 Center     Atomic      Atomic             Coordinates (Angstroms)
 Number     Number       Type             X           Y           Z
 ---------------------------------------------------------------------
      1          6           0        0.238300   -0.089332    0.000000
      2          6           0       -2.019893    0.930655    0.000000
      3          7           0       -2.629290    1.909589   -0.000006
      4          6           0        1.114213   -1.182580    0.000002
      5          6           0        0.781977    1.197047   -0.000003
      6          6           0        2.163749    1.387021   -0.000004
      7          6           0        3.024111    0.294540   -0.000003
      8          6           0        2.492365   -0.993811    0.000000
      9          1           0        0.725008   -2.194447    0.000004
     10          1           0        3.151202   -1.854939    0.000001
     11          1           0        2.562729    2.395076   -0.000007
     12          1           0        4.097947    0.442467   -0.000004
     13          1           0        0.127099    2.060150   -0.000004
     14          6           0       -1.281244   -0.344003    0.000002
     15          6           0       -1.706697   -1.124612   -1.271909
     16          1           0       -1.426166   -0.578092   -2.173618
     17          1           0       -2.787541   -1.281247   -1.280329
     18          1           0       -1.216336   -2.099344   -1.292455
     19          6           0       -1.706694   -1.124606    1.271918
     20          1           0       -1.216333   -2.099338    1.292467
     21          1           0       -2.787539   -1.281241    1.280341
     22          1           0       -1.426161   -0.578082    2.173624
 ---------------------------------------------------------------------

 SCF Done:  E(RHF) =  -441.713598539     A.U. after    2 cycles

 The electronic state is 1-A.
 Alpha  occ. eigenvalues --  -15.75568 -11.53609 -11.50437 -11.45419 -11.44527
 Alpha  occ. eigenvalues --  -11.43896 -11.41885 -11.41635 -11.41280 -11.40561
 Alpha  occ. eigenvalues --  -11.37263  -1.39805  -1.30541  -1.23066  -1.10123
 Alpha  occ. eigenvalues --   -1.08576  -1.03276  -0.93266  -0.87492  -0.84675
 Alpha  occ. eigenvalues --   -0.73532  -0.69082  -0.65266  -0.62374  -0.60861
 Alpha  occ. eigenvalues --   -0.59057  -0.57345  -0.56863  -0.56582  -0.52746
 Alpha  occ. eigenvalues --   -0.51929  -0.48936  -0.48732  -0.45685  -0.44684
 Alpha  occ. eigenvalues --   -0.42072  -0.40835  -0.33803  -0.33145
 Alpha virt. eigenvalues --    0.03082   0.04477   0.04765   0.05283   0.05335
 Alpha virt. eigenvalues --    0.05905   0.06401   0.06769   0.07887   0.08017
 Alpha virt. eigenvalues --    0.08539   0.10064   0.10869   0.11140   0.11562

 Mulliken charges:
               1
     1  C    7.252746
     2  C    1.545171
     3  N   -2.717742
     4  C   -2.318260
     5  C   -2.416946
     6  C   -1.996141
     7  C   -3.632265
     8  C   -1.911759
     9  H    1.995899
    10  H    1.475331
    11  H    1.530860
    12  H    1.587321
    13  H    1.812066
    14  C   -1.670073
    15  C   -4.271954
    16  H    1.302985
    17  H    1.361673
    18  H    1.339190
    19  C   -4.271952
    20  H    1.339190
    21  H    1.361672
    22  H    1.302986
 Sum of Mulliken charges =  -0.00000

 Dipole moment (field-independent basis, Debye):
    X=              2.0783    Y=             -2.8494    Z=              0.0000  Tot=              3.5268

 Test job not archived.
 1\1\GINC-SE044\SP\RHF\Aug-CC-pVDZ\C10H11N1\OHZDE\08-Apr-2025\0\\#t hf
 aug-cc-pvdz iop(5/13=1,5/36=2,99/5=2) pseudo=read geom=check guess=(re
 ad,tcheck) scf=(maxcycle=1)\\title\\0,1\C,0,0.2383,-0.089332,0.\C,0,-2
 .019893,0.930655,0.\N,0,-2.62929,1.909589,-0.000006\C,0,1.114213,-1.18
 258,0.000002\C,0,0.781977,1.197047,-0.000003\C,0,2.163749,1.387021,-0.
 000004\C,0,3.024111,0.29454,-0.000003\C,0,2.492365,-0.993811,0.\H,0,0.
 725008,-2.194447,0.000004\H,0,3.151202,-1.854939,0.000001\H,0,2.562729
 ,2.395076,-0.000007\H,0,4.097947,0.442467,-0.000004\H,0,0.127099,2.060

 Normal termination of Gaussian 16 at Tue Apr  8 22:41:00 2025.
