 Gaussian 16, Revision C.01,

 ----------------------------------------------------------------------
 #t hf aug-cc-pvdz symm=none int=(grid=ultrafine) guess=(read,tcheck) s
 table=(opt,rrhf)
 ----------------------------------------------------------------------
 -----
 title
 -----
 Symbolic Z-matrix:
 Charge =  0 Multiplicity = 1

 SCF Done:  E(RHF) =  -561.377471706     A.U. after   12 cycles
 Normal termination of Gaussian 16 at Wed Apr  9 00:04:28 2025.
 Gaussian 16:  ES64L-G16RevC.01  3-Jul-2019

 ----------------------------------------------------------------------
 #t hf aug-cc-pvdz iop(5/13=1,5/36=2,99/5=2) pseudo=read geom=check gue
 ss=(read,tcheck) scf=(maxcycle=1)
 ----------------------------------------------------------------------
 -----
 title
 -----
 Structure from the checkpoint file:  "BDE49_nonexpt_2171_mol1.chk"
 Charge =  0 Multiplicity = 1

                         Standard orientation:
 ---------------------------------------------------------------------
 Center     Atomic      Atomic             Coordinates (Angstroms)
 Number     Number       Type             X           Y           Z
 ---------------------------------------------------------------------
      1         14           0       -0.162434   -0.462390    0.005891
      2          8           0       -0.921945    0.779803   -0.798377
      3          6           0        1.346551    0.183667    0.937963
      4          6           0        0.321794   -1.671164   -1.336980
      5          1           0        0.870219   -2.523576   -0.923775
      6          1           0        0.955432   -1.194346   -2.089389
      7          1           0       -0.565633   -2.057245   -1.846264
      8          6           0       -1.335828   -1.266494    1.236320
      9          1           0       -0.855748   -2.120445    1.725329
     10          1           0       -2.239428   -1.633391    0.740372
     11          1           0       -1.644059   -0.572342    2.024386
     12          6           0        2.412949    0.875243    0.069417
     13          1           0        1.793634   -0.662205    1.476536
     14          1           0        1.001021    0.871198    1.721002
     15          1           0        2.832566    0.188039   -0.670746
     16          1           0        3.244477    1.251840    0.672665
     17          1           0        1.992444    1.722444   -0.479379
     18          6           0       -1.522837    1.921202   -0.213442
     19          1           0       -1.924727    2.543335   -1.015965
     20          1           0       -0.798243    2.518837    0.354115
     21          1           0       -2.348085    1.648169    0.455998
 ---------------------------------------------------------------------

 SCF Done:  E(RHF) =  -562.890865954     A.U. after    2 cycles

 The electronic state is 1-A.
 Alpha  occ. eigenvalues --  -76.19390 -21.02418 -11.40240 -11.38940 -11.33942
 Alpha  occ. eigenvalues --  -11.33849 -11.33640  -5.53811  -2.20806  -2.17341
 Alpha  occ. eigenvalues --   -2.17144  -1.68057  -1.14310  -1.04717  -1.00664
 Alpha  occ. eigenvalues --   -0.96612  -0.88110  -0.65798  -0.61026  -0.60308
 Alpha  occ. eigenvalues --   -0.58741  -0.56765  -0.55888  -0.55375  -0.53853
 Alpha  occ. eigenvalues --   -0.53497  -0.49605  -0.48073  -0.47715  -0.40024
 Alpha  occ. eigenvalues --   -0.39205  -0.33350  -0.31871
 Alpha virt. eigenvalues --    0.03315   0.05020   0.05076   0.05731   0.05780
 Alpha virt. eigenvalues --    0.06006   0.06129   0.06525   0.06679   0.08118
 Alpha virt. eigenvalues --    0.08305   0.08614   0.08800   0.09579   0.10434

 Mulliken charges:
               1
     1  Si  11.263062
     2  O   -4.269702
     3  C   -4.760460
     4  C   -5.916618
     5  H    1.124853
     6  H    1.144097
     7  H    1.174368
     8  C   -6.044731
     9  H    1.121856
    10  H    1.134113
    11  H    1.071285
    12  C   -4.015653
    13  H    1.188121
    14  H    1.163139
    15  H    1.352733
    16  H    1.075461
    17  H    1.253903
    18  C   -3.139611
    19  H    1.274120
    20  H    1.401940
    21  H    1.403722
 Sum of Mulliken charges =  -0.00000

 Dipole moment (field-independent basis, Debye):
    X=             -0.0531    Y=              0.1265    Z=              0.2373  Tot=              0.2741

 Test job not archived.
 1\1\GINC-SE361\SP\RHF\Aug-CC-pVDZ\C5H14O1Si1\OHZDE\09-Apr-2025\0\\#t h
 f aug-cc-pvdz iop(5/13=1,5/36=2,99/5=2) pseudo=read geom=check guess=(
 read,tcheck) scf=(maxcycle=1)\\title\\0,1\Si,0,-0.162434,-0.46239,0.00
 5891\O,0,-0.921945,0.779803,-0.798377\C,0,1.346551,0.183666,0.937963\C
 ,0,0.321793,-1.671164,-1.33698\H,0,0.870218,-2.523576,-0.923775\H,0,0.
 955431,-1.194346,-2.089389\H,0,-0.565634,-2.057245,-1.846264\C,0,-1.33
 5829,-1.266493,1.23632\H,0,-0.855749,-2.120445,1.725329\H,0,-2.239429,
 -1.63339,0.740372\H,0,-1.644059,-0.572341,2.024386\C,0,2.412949,0.8752

 Normal termination of Gaussian 16 at Wed Apr  9 00:04:37 2025.
