 Gaussian 16, Revision C.01,

 ----------------------------------------------------------------------
 #t hf aug-cc-pvdz symm=none int=(grid=ultrafine) guess=(read,tcheck) s
 table=(opt,rrhf)
 ----------------------------------------------------------------------
 -----
 title
 -----
 Symbolic Z-matrix:
 Charge =  0 Multiplicity = 1

 SCF Done:  E(RHF) =  -800.920685818     A.U. after   13 cycles

 1\1\GINC-SE069\Stability\RHF\Aug-CC-pVDZ\C3H10P2\OHZDE\08-Apr-2025\0\\
 #t hf aug-cc-pvdz symm=none int=(grid=ultrafine) guess=(read,tcheck) s
 table=(opt,rrhf)\\title\\0,1\P,0,0.729028,0.129688,-0.61457\P,0,-1.087
 602,-0.772683,0.325814\C,0,2.000327,-1.045214,0.070312\C,0,1.071545,1.
 62343,0.44443\C,0,-2.391063,0.420417,-0.277803\H,0,-2.150268,1.469242,
 -0.097554\H,0,-3.333842,0.186235,0.221908\H,0,-2.5314,0.269276,-1.3497
 81\H,0,1.844338,-2.036081,-0.360393\H,0,1.971737,-1.124185,1.160578\H,
 0,2.993143,-0.69921,-0.228948\H,0,0.282377,2.363805,0.29756\H,0,2.0137

 Normal termination of Gaussian 16 at Tue Apr  8 23:40:30 2025.
 Gaussian 16:  ES64L-G16RevC.01  3-Jul-2019

 ----------------------------------------------------------------------
 #t hf aug-cc-pvdz iop(5/13=1,5/36=2,99/5=2) pseudo=read geom=check gue
 ss=(read,tcheck) scf=(maxcycle=1)
 ----------------------------------------------------------------------
 -----
 title
 -----
 Structure from the checkpoint file:  "BDE49_nonexpt_1623_mol1.chk"
 Charge =  0 Multiplicity = 1

                         Standard orientation:
 ---------------------------------------------------------------------
 Center     Atomic      Atomic             Coordinates (Angstroms)
 Number     Number       Type             X           Y           Z
 ---------------------------------------------------------------------
      1         15           0        0.729028    0.129688   -0.614570
      2         15           0       -1.087602   -0.772683    0.325814
      3          6           0        2.000327   -1.045214    0.070312
      4          6           0        1.071545    1.623430    0.444430
      5          6           0       -2.391063    0.420417   -0.277803
      6          1           0       -2.150268    1.469242   -0.097554
      7          1           0       -3.333842    0.186235    0.221908
      8          1           0       -2.531400    0.269276   -1.349781
      9          1           0        1.844338   -2.036081   -0.360393
     10          1           0        1.971737   -1.124185    1.160578
     11          1           0        2.993143   -0.699210   -0.228948
     12          1           0        0.282377    2.363805    0.297560
     13          1           0        2.013794    2.077634    0.124064
     14          1           0        1.137697    1.380829    1.508292
     15          1           0       -0.933817   -0.234415    1.633982
 ---------------------------------------------------------------------

 SCF Done:  E(RHF) =  -801.949033469     A.U. after    2 cycles

 The electronic state is 1-A.
 Alpha  occ. eigenvalues -- -105.16879-105.16100 -11.37343 -11.37081 -11.36950
 Alpha  occ. eigenvalues --   -2.74882  -2.73917  -1.51792  -1.47400  -1.45919
 Alpha  occ. eigenvalues --   -1.44326  -1.42947  -1.30662  -1.03536  -0.99613
 Alpha  occ. eigenvalues --   -0.96729  -0.69606  -0.58136  -0.57115  -0.56441
 Alpha  occ. eigenvalues --   -0.56156  -0.55677  -0.55084  -0.54561  -0.23385
 Alpha  occ. eigenvalues --   -0.20422  -0.07899  -0.02500   0.04417
 Alpha virt. eigenvalues --    0.04806   0.05771   0.06597   0.06826   0.06868
 Alpha virt. eigenvalues --    0.07200   0.07510   0.07635   0.08789   0.09769
 Alpha virt. eigenvalues --    0.10493   0.11027   0.12082   0.12567   0.14123

 Mulliken charges:
               1
     1  P    6.118440
     2  P    4.371853
     3  C   -5.516664
     4  C   -5.450785
     5  C   -4.792417
     6  H    0.939927
     7  H   -0.537102
     8  H    0.759715
     9  H    1.011896
    10  H    1.180682
    11  H    0.829362
    12  H    0.633943
    13  H    0.706280
    14  H    0.814177
    15  H   -1.069307
 Sum of Mulliken charges =   0.00000

 Dipole moment (field-independent basis, Debye):
    X=              9.8302    Y=             -7.9957    Z=             -9.5051  Tot=             15.8402

 Test job not archived.
 1\1\GINC-SE069\SP\RHF\Aug-CC-pVDZ\C3H10P2\OHZDE\08-Apr-2025\0\\#t hf a
 ug-cc-pvdz iop(5/13=1,5/36=2,99/5=2) pseudo=read geom=check guess=(rea
 d,tcheck) scf=(maxcycle=1)\\title\\0,1\P,0,0.729028,0.129688,-0.61457\
 P,0,-1.087602,-0.772683,0.325814\C,0,2.000327,-1.045214,0.070312\C,0,1
 .071545,1.62343,0.44443\C,0,-2.391063,0.420417,-0.277803\H,0,-2.150268
 ,1.469242,-0.097554\H,0,-3.333842,0.186235,0.221908\H,0,-2.5314,0.2692
 76,-1.349781\H,0,1.844338,-2.036081,-0.360393\H,0,1.971737,-1.124185,1
 .160578\H,0,2.993143,-0.69921,-0.228948\H,0,0.282377,2.363805,0.29756\

 Normal termination of Gaussian 16 at Tue Apr  8 23:40:34 2025.
