 Gaussian 16, Revision C.01,

 ----------------------------------------------------------------------
 #t hf aug-cc-pvdz symm=none int=(grid=ultrafine) guess=(read,tcheck) s
 table=(opt,rrhf)
 ----------------------------------------------------------------------
 -----
 title
 -----
 Symbolic Z-matrix:
 Charge =  0 Multiplicity = 1

 SCF Done:  E(RHF) =  -664.268988110     A.U. after   13 cycles
 Normal termination of Gaussian 16 at Tue Apr  8 23:36:45 2025.
 Gaussian 16:  ES64L-G16RevC.01  3-Jul-2019

 ----------------------------------------------------------------------
 #t hf aug-cc-pvdz iop(5/13=1,5/36=2,99/5=2) pseudo=read geom=check gue
 ss=(read,tcheck) scf=(maxcycle=1)
 ----------------------------------------------------------------------
 -----
 title
 -----
 Structure from the checkpoint file:  "BDE49_nonexpt_1504_mol1.chk"
 Charge =  0 Multiplicity = 1

                         Standard orientation:
 ---------------------------------------------------------------------
 Center     Atomic      Atomic             Coordinates (Angstroms)
 Number     Number       Type             X           Y           Z
 ---------------------------------------------------------------------
      1         15           0        0.140388    0.604496   -0.636552
      2          7           0       -0.783277   -0.835324   -0.131104
      3          8           0       -2.079735   -0.670656   -0.719678
      4          8           0       -0.977770   -0.854090    1.288011
      5          6           0        1.679872    0.267796    0.344166
      6          6           0        2.519774   -0.884244   -0.219881
      7          1           0        1.408938    0.086054    1.387274
      8          1           0        2.251155    1.202700    0.312532
      9          1           0        2.807964   -0.696345   -1.257593
     10          1           0        1.963377   -1.824225   -0.198010
     11          6           0       -0.621873    1.936760    0.397737
     12          1           0       -0.052995    2.858128    0.246508
     13          1           0       -0.636810    1.680439    1.457658
     14          1           0       -1.643451    2.105621    0.052737
     15          1           0        3.434974   -1.021891    0.362781
     16          1           0       -2.267999   -1.544430   -1.081023
     17          1           0       -0.894645   -1.790116    1.504351
 ---------------------------------------------------------------------

 SCF Done:  E(RHF) =  -665.945573139     A.U. after    2 cycles

 The electronic state is 1-A.
 Alpha  occ. eigenvalues -- -105.17841 -21.09565 -21.09534 -15.79090 -11.39946
 Alpha  occ. eigenvalues --  -11.36291 -11.35590  -2.76463  -1.84747  -1.67470
 Alpha  occ. eigenvalues --   -1.50181  -1.49418  -1.46171  -1.13608  -1.03318
 Alpha  occ. eigenvalues --   -0.96974  -0.86913  -0.66925  -0.65708  -0.62788
 Alpha  occ. eigenvalues --   -0.60426  -0.56686  -0.55412  -0.55014  -0.49437
 Alpha  occ. eigenvalues --   -0.49341  -0.47831  -0.45464  -0.32291  -0.31277
 Alpha  occ. eigenvalues --   -0.24705  -0.19173  -0.00896
 Alpha virt. eigenvalues --    0.04519   0.05214   0.05774   0.06115   0.06373
 Alpha virt. eigenvalues --    0.06700   0.07132   0.07560   0.07915   0.08426
 Alpha virt. eigenvalues --    0.10637   0.11807   0.12648   0.13918   0.15042

 Mulliken charges:
               1
     1  P    7.137167
     2  N    1.577390
     3  O   -2.287782
     4  O   -2.385380
     5  C   -4.446078
     6  C   -4.367697
     7  H    1.456117
     8  H    1.289737
     9  H    1.223367
    10  H    1.262622
    11  C   -6.283487
    12  H    1.026730
    13  H    1.079614
    14  H    1.214649
    15  H    0.930188
    16  H    0.809740
    17  H    0.763105
 Sum of Mulliken charges =  -0.00000

 Dipole moment (field-independent basis, Debye):
    X=             -2.0023    Y=             -2.1736    Z=             -0.6020  Tot=              3.0160

 Test job not archived.
 1\1\GINC-SE458\SP\RHF\Aug-CC-pVDZ\C3H10N1O2P1\OHZDE\08-Apr-2025\0\\#t
 hf aug-cc-pvdz iop(5/13=1,5/36=2,99/5=2) pseudo=read geom=check guess=
 (read,tcheck) scf=(maxcycle=1)\\title\\0,1\P,0,0.140388,0.604496,-0.63
 6552\N,0,-0.783277,-0.835324,-0.131104\O,0,-2.079735,-0.670655,-0.7196
 78\O,0,-0.97777,-0.85409,1.288011\C,0,1.679872,0.267795,0.344166\C,0,2
 .519774,-0.884245,-0.219881\H,0,1.408938,0.086054,1.387274\H,0,2.25115
 5,1.202699,0.312532\H,0,2.807964,-0.696346,-1.257593\H,0,1.963376,-1.8
 24226,-0.19801\C,0,-0.621872,1.93676,0.397737\H,0,-0.052994,2.858128,0

 Normal termination of Gaussian 16 at Tue Apr  8 23:36:51 2025.
