 Gaussian 16, Revision C.01,

 ----------------------------------------------------------------------
 #t hf aug-cc-pvdz symm=none int=(grid=ultrafine) guess=(read,tcheck) s
 table=(opt,rrhf)
 ----------------------------------------------------------------------
 -----
 title
 -----
 Symbolic Z-matrix:
 Charge =  0 Multiplicity = 1

 SCF Done:  E(RHF) =  -368.343808392     A.U. after   12 cycles
 Normal termination of Gaussian 16 at Wed Apr  9 00:41:20 2025.
 Gaussian 16:  ES64L-G16RevC.01  3-Jul-2019

 ----------------------------------------------------------------------
 #t hf aug-cc-pvdz iop(5/13=1,5/36=2,99/5=2) pseudo=read geom=check gue
 ss=(read,tcheck) scf=(maxcycle=1)
 ----------------------------------------------------------------------
 -----
 title
 -----
 Structure from the checkpoint file:  "BDE49_nonexpt_648_mol1.chk"
 Charge =  0 Multiplicity = 1

                         Standard orientation:
 ---------------------------------------------------------------------
 Center     Atomic      Atomic             Coordinates (Angstroms)
 Number     Number       Type             X           Y           Z
 ---------------------------------------------------------------------
      1          6           0       -1.135340    0.092475   -0.245541
      2          8           0        0.057054   -0.574044    0.220099
      3          5           0        1.302994   -0.078999   -0.028587
      4          8           0        1.477419    1.077324   -0.742628
      5          8           0        2.403039   -0.751815    0.441495
      6          6           0       -2.193164   -0.981767   -0.459669
      7          1           0       -2.410046   -1.494545    0.481481
      8          1           0       -1.844050   -1.723760   -1.181094
      9          6           0       -1.556199    1.151075    0.769180
     10          1           0       -0.906519    0.580100   -1.198290
     11          1           0       -2.473407    1.651750    0.446234
     12          1           0       -0.775852    1.907052    0.878093
     13          1           0       -1.737347    0.690804    1.744581
     14          1           0       -3.119833   -0.540944   -0.836762
     15          1           0        2.409335    1.287335   -0.849460
     16          1           0        2.150876   -1.545217    0.922608
 ---------------------------------------------------------------------

 SCF Done:  E(RHF) =  -369.973193061     A.U. after    2 cycles

 The electronic state is 1-A.
 Alpha  occ. eigenvalues --  -21.05300 -21.05156 -21.01444 -11.44323 -11.38884
 Alpha  occ. eigenvalues --  -11.35391  -7.64891  -1.88282  -1.68736  -1.65699
 Alpha  occ. eigenvalues --   -1.17161  -1.00663  -0.84984  -0.75366  -0.66975
 Alpha  occ. eigenvalues --   -0.62151  -0.60740  -0.57890  -0.53788  -0.52428
 Alpha  occ. eigenvalues --   -0.51220  -0.49905  -0.47617  -0.46799  -0.37607
 Alpha  occ. eigenvalues --   -0.36371  -0.35269  -0.33441
 Alpha virt. eigenvalues --    0.03633   0.04729   0.05021   0.05377   0.06101
 Alpha virt. eigenvalues --    0.06207   0.06698   0.06900   0.07122   0.07955
 Alpha virt. eigenvalues --    0.09443   0.09517   0.10355   0.13425   0.14900

 Mulliken charges:
               1
     1  C    0.748567
     2  O   -6.139780
     3  B    9.353612
     4  O   -4.090108
     5  O   -3.949781
     6  C   -3.954066
     7  H    1.283771
     8  H    1.282371
     9  C   -3.759596
    10  H    2.100068
    11  H    1.178690
    12  H    1.228697
    13  H    1.352135
    14  H    1.191412
    15  H    1.059261
    16  H    1.114746
 Sum of Mulliken charges =  -0.00000

 Dipole moment (field-independent basis, Debye):
    X=             -0.3437    Y=              0.0643    Z=             -0.1527  Tot=              0.3816

 Test job not archived.
 1\1\GINC-SE105\SP\RHF\Aug-CC-pVDZ\C3H9B1O3\OHZDE\09-Apr-2025\0\\#t hf
 aug-cc-pvdz iop(5/13=1,5/36=2,99/5=2) pseudo=read geom=check guess=(re
 ad,tcheck) scf=(maxcycle=1)\\title\\0,1\C,0,-1.13534,0.092475,-0.24554
 1\O,0,0.057054,-0.574044,0.220099\B,0,1.302994,-0.078999,-0.028587\O,0
 ,1.477419,1.077324,-0.742628\O,0,2.403039,-0.751815,0.441495\C,0,-2.19
 3164,-0.981767,-0.459669\H,0,-2.410046,-1.494545,0.481481\H,0,-1.84405
 ,-1.72376,-1.181094\C,0,-1.556199,1.151075,0.76918\H,0,-0.906519,0.580
 1,-1.19829\H,0,-2.473407,1.65175,0.446234\H,0,-0.775852,1.907052,0.878

 Normal termination of Gaussian 16 at Wed Apr  9 00:41:25 2025.
