 Gaussian 16, Revision C.01,

 ----------------------------------------------------------------------
 #t hf aug-cc-pvdz symm=none int=(grid=ultrafine) guess=(read,tcheck) s
 table=(opt,rrhf)
 ----------------------------------------------------------------------
 -----
 title
 -----
 Symbolic Z-matrix:
 Charge =  0 Multiplicity = 1

 SCF Done:  E(RHF) =  -173.230451792     A.U. after   13 cycles
 Normal termination of Gaussian 16 at Wed Apr  9 00:37:47 2025.
 Gaussian 16:  ES64L-G16RevC.01  3-Jul-2019

 ----------------------------------------------------------------------
 #t hf aug-cc-pvdz iop(5/13=1,5/36=2,99/5=2) pseudo=read geom=check gue
 ss=(read,tcheck) scf=(maxcycle=1)
 ----------------------------------------------------------------------
 -----
 title
 -----
 Structure from the checkpoint file:  "BDE49_nonexpt_571_mol1.chk"
 Charge =  0 Multiplicity = 1

                         Standard orientation:
 ---------------------------------------------------------------------
 Center     Atomic      Atomic             Coordinates (Angstroms)
 Number     Number       Type             X           Y           Z
 ---------------------------------------------------------------------
      1          5           0       -1.678377    0.409888    0.000002
      2          6           0        0.730582   -0.081559   -0.000018
      3          7           0        1.840861    0.236800    0.000017
      4          7           0       -0.563185   -0.462746   -0.000005
      5          1           0       -1.485522    1.578378   -0.000003
      6          1           0       -2.754702   -0.089389    0.000015
      7          1           0       -0.695108   -1.467448    0.000004
 ---------------------------------------------------------------------

 SCF Done:  E(RHF) =  -174.006614575     A.U. after    2 cycles

 The electronic state is 1-A.
 Alpha  occ. eigenvalues --  -15.80304 -15.76026 -11.47079  -7.64993  -1.46460
 Alpha  occ. eigenvalues --   -1.27724  -0.91263  -0.79185  -0.59926  -0.57189
 Alpha  occ. eigenvalues --   -0.53458  -0.50024  -0.44365  -0.38778
 Alpha virt. eigenvalues --    0.02313   0.03451   0.03700   0.04585   0.09014
 Alpha virt. eigenvalues --    0.10204   0.11417   0.11575   0.11865   0.12958
 Alpha virt. eigenvalues --    0.14348   0.14631   0.15955   0.18551   0.19605

 Mulliken charges:
               1
     1  B    7.019526
     2  C    3.237007
     3  N   -2.444308
     4  N   -2.476126
     5  H   -3.048799
     6  H   -3.267959
     7  H    0.980658
 Sum of Mulliken charges =   0.00000

 Dipole moment (field-independent basis, Debye):
    X=             -2.9149    Y=             -1.7846    Z=             -0.0000  Tot=              3.4179

 Test job not archived.
 1\1\GINC-SE459\SP\RHF\Aug-CC-pVDZ\C1H3B1N2\OHZDE\09-Apr-2025\0\\#t hf
 aug-cc-pvdz iop(5/13=1,5/36=2,99/5=2) pseudo=read geom=check guess=(re
 ad,tcheck) scf=(maxcycle=1)\\title\\0,1\B,0,-1.678377,0.409888,0.00000
 2\C,0,0.730582,-0.081559,-0.000018\N,0,1.840861,0.2368,0.000017\N,0,-0
 .563185,-0.462746,-0.000005\H,0,-1.485522,1.578378,-0.000003\H,0,-2.75
 4702,-0.089389,0.000015\H,0,-0.695108,-1.467448,0.000004\\Version=ES64
 L-G16RevC.01\State=1-A\HF=-174.0066146\RMSD=2.283e-01\Dipole=-1.146818
 9,-0.7021343,-0.0000092\Quadrupole=-3.9441917,2.4713228,1.4728689,0.01

 Normal termination of Gaussian 16 at Wed Apr  9 00:37:49 2025.
