 Gaussian 16, Revision C.01,

 ----------------------------------------------------------------------
 #t hf aug-cc-pvdz symm=none int=(grid=ultrafine) guess=(read,tcheck) s
 table=(opt,rrhf)
 ----------------------------------------------------------------------
 -----
 title
 -----
 Symbolic Z-matrix:
 Charge =  0 Multiplicity = 1

 SCF Done:  E(RHF) =  -665.922022962     A.U. after   14 cycles
 Normal termination of Gaussian 16 at Tue Apr  8 23:53:03 2025.
 Gaussian 16:  ES64L-G16RevC.01  3-Jul-2019

 ----------------------------------------------------------------------
 #t hf aug-cc-pvdz iop(5/13=1,5/36=2,99/5=2) pseudo=read geom=check gue
 ss=(read,tcheck) scf=(maxcycle=1)
 ----------------------------------------------------------------------
 -----
 title
 -----
 Structure from the checkpoint file:  "BDE49_nonexpt_1908_mol1.chk"
 Charge =  0 Multiplicity = 1

                         Standard orientation:
 ---------------------------------------------------------------------
 Center     Atomic      Atomic             Coordinates (Angstroms)
 Number     Number       Type             X           Y           Z
 ---------------------------------------------------------------------
      1         14           0       -0.132534   -0.836768    0.009551
      2          6           0        0.493695    0.871599    0.586067
      3          7           0        1.897676    1.140383    0.281096
      4          6           0        2.690457    0.180586   -0.221649
      5          8           0        2.296092   -0.955957   -0.457762
      6          1           0        2.284107    2.058164    0.443495
      7          1           0        3.728932    0.492273   -0.409790
      8          7           0       -1.871814   -0.744169    0.468903
      9          1           0        0.264440   -1.994661    0.827631
     10          1           0       -0.126174   -1.040363   -1.445278
     11          6           0       -2.750689    0.165854   -0.036282
     12          8           0       -2.443064    1.080257   -0.778899
     13          1           0       -3.797768    0.011922    0.292156
     14          1           0       -2.278598   -1.446925    1.071517
     15          1           0        0.321223    0.949887    1.665684
     16          1           0       -0.146724    1.608325    0.095339
 ---------------------------------------------------------------------

 SCF Done:  E(RHF) =  -667.736992359     A.U. after    2 cycles

 The electronic state is 1-A.
 Alpha  occ. eigenvalues --  -76.22610 -21.04599 -21.02519 -15.78637 -15.73818
 Alpha  occ. eigenvalues --  -11.49661 -11.47363 -11.38735  -5.56065  -2.20778
 Alpha  occ. eigenvalues --   -2.19255  -2.18269  -1.73045  -1.69427  -1.40220
 Alpha  occ. eigenvalues --   -1.32213  -1.03492  -0.85980  -0.83012  -0.76250
 Alpha  occ. eigenvalues --   -0.73003  -0.70039  -0.63576  -0.59034  -0.53919
 Alpha  occ. eigenvalues --   -0.52811  -0.51426  -0.50130  -0.47399  -0.46676
 Alpha  occ. eigenvalues --   -0.43302  -0.32915  -0.32172  -0.32060  -0.28799
 Alpha virt. eigenvalues --    0.03076   0.04335   0.05148   0.05547   0.05988
 Alpha virt. eigenvalues --    0.06882   0.07666   0.07909   0.09079   0.09349
 Alpha virt. eigenvalues --    0.10752   0.11356   0.11972   0.12265   0.13268

 Mulliken charges:
               1
     1  Si   5.631384
     2  C   -2.844064
     3  N   -2.958678
     4  C    2.235047
     5  O   -2.750430
     6  H    0.720668
     7  H    1.742644
     8  N   -2.438849
     9  H   -1.953919
    10  H   -2.133591
    11  C    2.100527
    12  O   -2.624013
    13  H    1.664185
    14  H    0.703223
    15  H    1.345007
    16  H    1.560858
 Sum of Mulliken charges =  -0.00000

 Dipole moment (field-independent basis, Debye):
    X=              1.8269    Y=              1.0681    Z=              1.7896  Tot=              2.7715

 Test job not archived.
 1\1\GINC-SE331\SP\RHF\Aug-CC-pVDZ\C3H8N2O2Si1\OHZDE\08-Apr-2025\0\\#t
 hf aug-cc-pvdz iop(5/13=1,5/36=2,99/5=2) pseudo=read geom=check guess=
 (read,tcheck) scf=(maxcycle=1)\\title\\0,1\Si,0,-0.132534,-0.836768,0.
 009551\C,0,0.493695,0.871599,0.586067\N,0,1.897676,1.140383,0.281096\C
 ,0,2.690457,0.180586,-0.221649\O,0,2.296092,-0.955957,-0.457762\H,0,2.
 284107,2.058164,0.443495\H,0,3.728932,0.492273,-0.40979\N,0,-1.871814,
 -0.744169,0.468903\H,0,0.26444,-1.994661,0.827631\H,0,-0.126174,-1.040
 363,-1.445278\C,0,-2.750689,0.165854,-0.036282\O,0,-2.443064,1.080257,

 Normal termination of Gaussian 16 at Tue Apr  8 23:53:09 2025.
