 Gaussian 16, Revision C.01,

 ----------------------------------------------------------------------
 #t hf aug-cc-pvdz symm=none int=(grid=ultrafine) guess=(read,tcheck) s
 table=opt
 ----------------------------------------------------------------------
 -----
 title
 -----
 Symbolic Z-matrix:
 Charge =  0 Multiplicity = 2

 SCF Done:  E(UHF) =  -435.969095396     A.U. after   16 cycles
 Normal termination of Gaussian 16 at Tue Apr  8 23:35:06 2025.
 Gaussian 16:  ES64L-G16RevC.01  3-Jul-2019

 ----------------------------------------------------------------------
 #t hf aug-cc-pvdz iop(5/13=1,5/36=2,99/5=2) pseudo=read geom=check gue
 ss=(read,tcheck) scf=(maxcycle=1)
 ----------------------------------------------------------------------
 -----
 title
 -----
 Structure from the checkpoint file:  "BDE49_nonexpt_1467_mol2.chk"
 Charge =  0 Multiplicity = 2

                         Standard orientation:
 ---------------------------------------------------------------------
 Center     Atomic      Atomic             Coordinates (Angstroms)
 Number     Number       Type             X           Y           Z
 ---------------------------------------------------------------------
      1          6           0        1.402026    0.432627    0.011144
      2         15           0       -0.084052   -0.673531   -0.016432
      3          1           0        1.425598    1.035829    0.923897
      4          1           0        1.427735    1.102921   -0.855171
      5          1           0        2.299542   -0.189156   -0.015763
      6          7           0       -1.279419    0.548205    0.070142
      7          1           0       -1.109320    1.466133   -0.320391
      8          1           0       -2.238994    0.254036   -0.043953
 ---------------------------------------------------------------------

 SCF Done:  E(UHF) =  -436.611646152     A.U. after    2 cycles

 The electronic state is 2-A.
 Alpha  occ. eigenvalues -- -105.16778 -15.74863 -11.36520  -2.75966  -1.53858
 Alpha  occ. eigenvalues --   -1.46435  -1.44142  -1.17921  -0.99373  -0.66698
 Alpha  occ. eigenvalues --   -0.65245  -0.56424  -0.55840  -0.41962  -0.25864
 Alpha  occ. eigenvalues --   -0.07623   0.04218
 Alpha virt. eigenvalues --    0.04720   0.05264   0.06567   0.06990   0.07611
 Alpha virt. eigenvalues --    0.09411   0.11550   0.13244   0.15435   0.16670
 Alpha virt. eigenvalues --    0.18009   0.19814   0.20718   0.22156   0.22840

  Beta  occ. eigenvalues -- -105.16200 -15.74328 -11.36642  -2.74239  -1.52724
  Beta  occ. eigenvalues --   -1.45162  -1.22231  -1.16543  -0.99089  -0.65505
  Beta  occ. eigenvalues --   -0.62528  -0.55745  -0.55620  -0.36757  -0.25466
  Beta  occ. eigenvalues --   -0.04651
  Beta virt. eigenvalues --    0.04689   0.05292   0.06656   0.06859   0.07611
  Beta virt. eigenvalues --    0.09910   0.10178   0.11626   0.13509   0.16136
  Beta virt. eigenvalues --    0.16799   0.18114   0.20677   0.21453   0.22353

 Mulliken charges and spin densities:
               1          2
     1  C   -5.021387  -0.528417
     2  P    3.386136   1.407723
     3  H    0.985374  -0.017382
     4  H    0.708502   0.272687
     5  H    1.286033  -0.023276
     6  N   -2.307633  -0.272267
     7  H    0.401035   0.143366
     8  H    0.561941   0.017566
 Sum of Mulliken charges =  -0.00000   1.00000

 Dipole moment (field-independent basis, Debye):
    X=             -1.0470    Y=             -2.2007    Z=              1.9037  Tot=              3.0925
                          Isotropic Fermi Contact Couplings
        Atom                 a.u.       MegaHertz       Gauss      10(-4) cm-1
     1  C(13)              0.00204       2.29747       0.81979       0.76635
     2  P(31)              0.33247     602.13542     214.85689     200.85076
     3  H(1)               0.00538      24.05273       8.58261       8.02313
     4  H(1)               0.00617      27.58092       9.84156       9.20001
     5  H(1)              -0.00004      -0.17155      -0.06121      -0.05722
     6  N(14)              0.04527      14.62558       5.21877       4.87857
     7  H(1)               0.00006       0.26018       0.09284       0.08679
     8  H(1)              -0.00226     -10.12151      -3.61161      -3.37617

 Normal termination of Gaussian 16 at Tue Apr  8 23:35:09 2025.
