 Gaussian 16, Revision C.01,

 ----------------------------------------------------------------------
 #t hf aug-cc-pvdz symm=none int=(grid=ultrafine) guess=(read,tcheck) s
 table=opt
 ----------------------------------------------------------------------
 -----
 title
 -----
 Symbolic Z-matrix:
 Charge =  0 Multiplicity = 2

 SCF Done:  E(UHF) =  -663.803219463     A.U. after   22 cycles
 Normal termination of Gaussian 16 at Tue Apr  8 22:55:54 2025.
 Gaussian 16:  ES64L-G16RevC.01  3-Jul-2019

 ----------------------------------------------------------------------
 #t hf aug-cc-pvdz iop(5/13=1,5/36=2,99/5=2) pseudo=read geom=check gue
 ss=(read,tcheck) scf=(maxcycle=1)
 ----------------------------------------------------------------------
 -----
 title
 -----
 Structure from the checkpoint file:  "BDE49_expt_1818_mol2.chk"
 Charge =  0 Multiplicity = 2

                         Standard orientation:
 ---------------------------------------------------------------------
 Center     Atomic      Atomic             Coordinates (Angstroms)
 Number     Number       Type             X           Y           Z
 ---------------------------------------------------------------------
      1         16           0        2.067143    0.244932   -0.434759
      2          6           0        0.947976   -0.637752    0.652347
      3          8           0       -0.353480   -0.895607    0.114405
      4          1           0        0.868294   -0.080098    1.587695
      5          1           0        1.381038   -1.620728    0.847597
      6          6           0       -1.207096    0.166618    0.101475
      7          8           0       -0.908624    1.251954    0.525369
      8          6           0       -2.525189   -0.216032   -0.515208
      9          1           0       -2.379732   -0.409878   -1.581012
     10          1           0       -3.235511    0.597472   -0.384983
     11          1           0       -2.905684   -1.133457   -0.063022
 ---------------------------------------------------------------------

 SCF Done:  E(UHF) =  -665.153216332     A.U. after    2 cycles

 The electronic state is 2-A.
 Alpha  occ. eigenvalues --  -75.71400 -21.10207 -21.05923 -13.12683 -13.06209
 Alpha  occ. eigenvalues --  -13.04464 -11.52829 -11.45134 -11.40032  -8.05083
 Alpha  occ. eigenvalues --   -1.85368  -1.67235  -1.18899  -1.11106  -0.93924
 Alpha  occ. eigenvalues --   -0.76404  -0.69985  -0.63409  -0.62240  -0.57025
 Alpha  occ. eigenvalues --   -0.54984  -0.52751  -0.46037  -0.42888  -0.32442
 Alpha  occ. eigenvalues --   -0.31668  -0.28793  -0.25155
 Alpha virt. eigenvalues --    0.03060   0.04615   0.05672   0.06285   0.06436
 Alpha virt. eigenvalues --    0.06783   0.09301   0.11659   0.12594   0.13475
 Alpha virt. eigenvalues --    0.13975   0.15142   0.15289   0.15838   0.16419

  Beta  occ. eigenvalues --  -75.70401 -21.10225 -21.05902 -13.12062 -13.04189
  Beta  occ. eigenvalues --  -12.99924 -11.52832 -11.45262 -11.40031  -8.03964
  Beta  occ. eigenvalues --   -1.85372  -1.67205  -1.15465  -1.09248  -0.89720
  Beta  occ. eigenvalues --   -0.76013  -0.69260  -0.63272  -0.62127  -0.56545
  Beta  occ. eigenvalues --   -0.54583  -0.52476  -0.45759  -0.42490  -0.32197
  Beta  occ. eigenvalues --   -0.30616  -0.23630
  Beta virt. eigenvalues --    0.03059   0.03996   0.05083   0.05822   0.06381
  Beta virt. eigenvalues --    0.06769   0.06941   0.09332   0.11816   0.12820
  Beta virt. eigenvalues --    0.13945   0.14782   0.15249   0.15411   0.16109

 Mulliken charges and spin densities:
               1          2
     1  S    0.633266   1.138786
     2  C   -2.729216  -0.140569
     3  O   -2.780122   0.001735
     4  H    1.576959   0.012027
     5  H    1.342041   0.008340
     6  C    5.418749  -0.018864
     7  O   -2.905369  -0.001059
     8  C   -4.295392   0.000507
     9  H    1.219023  -0.000504
    10  H    1.257565  -0.000711
    11  H    1.262496   0.000312
 Sum of Mulliken charges =  -0.00000   1.00000

 Dipole moment (field-independent basis, Debye):
    X=             -0.0551    Y=             -0.8662    Z=             -0.5039  Tot=              1.0036
                          Isotropic Fermi Contact Couplings
        Atom                 a.u.       MegaHertz       Gauss      10(-4) cm-1
     1  S(33)              0.28593      98.20763      35.04292      32.75854
     2  C(13)             -0.01710     -19.22628      -6.86041      -6.41320
     3  O(17)             -0.00392       2.37528       0.84756       0.79231
     4  H(1)               0.00881      39.39417      14.05682      13.14048
     5  H(1)               0.01162      51.93256      18.53083      17.32284
     6  C(13)             -0.00037      -0.41730      -0.14890      -0.13920
     7  O(17)              0.00220      -1.33549      -0.47654      -0.44547
     8  C(13)              0.00044       0.48915       0.17454       0.16316

 Normal termination of Gaussian 16 at Tue Apr  8 22:55:58 2025.
