 Gaussian 16, Revision C.01,

 ----------------------------------------------------------------------
 #t hf aug-cc-pvdz symm=none int=(grid=ultrafine) guess=(read,tcheck) s
 table=(opt,rrhf)
 ----------------------------------------------------------------------
 -----
 title
 -----
 Symbolic Z-matrix:
 Charge =  0 Multiplicity = 1

 SCF Done:  E(RHF) =  -433.600743113     A.U. after   11 cycles
 Normal termination of Gaussian 16 at Wed Apr  9 00:47:13 2025.
 Gaussian 16:  ES64L-G16RevC.01  3-Jul-2019

 ----------------------------------------------------------------------
 #t hf aug-cc-pvdz iop(5/13=1,5/36=2,99/5=2) pseudo=read geom=check gue
 ss=(read,tcheck) scf=(maxcycle=1)
 ----------------------------------------------------------------------
 -----
 title
 -----
 Structure from the checkpoint file:  "BDE49_nonexpt_819_mol1.chk"
 Charge =  0 Multiplicity = 1

                         Standard orientation:
 ---------------------------------------------------------------------
 Center     Atomic      Atomic             Coordinates (Angstroms)
 Number     Number       Type             X           Y           Z
 ---------------------------------------------------------------------
      1          5           0        2.098674    0.000007    1.072158
      2         14           0        1.002024   -0.000035   -0.621438
      3          6           0       -0.887570   -0.000010   -0.399986
      4          6           0       -1.379142   -1.271039    0.316155
      5          1           0       -0.980285   -1.334541    1.334303
      6          1           0       -1.082366   -2.180574   -0.214165
      7          6           0       -1.379119    1.271077    0.316068
      8          1           0       -2.471932   -1.277427    0.396063
      9          1           0       -1.306668   -0.000042   -1.414967
     10          1           0       -2.471909    1.277490    0.395975
     11          1           0       -0.980261    1.334643    1.334211
     12          1           0       -1.082327    2.180570   -0.214316
     13          1           0        3.289264    0.000133    0.993639
     14          1           0        1.631904    0.000166    2.169909
     15          1           0        1.403917   -1.196202   -1.417319
     16          1           0        1.403939    1.196070   -1.417402
 ---------------------------------------------------------------------

 SCF Done:  E(RHF) =  -434.514333323     A.U. after    2 cycles

 The electronic state is 1-A.
 Alpha  occ. eigenvalues --  -76.18837 -11.40011 -11.38300 -11.34251  -7.61801
 Alpha  occ. eigenvalues --   -5.52626  -2.16815  -2.15109  -2.15099  -1.20543
 Alpha  occ. eigenvalues --   -0.99777  -0.87465  -0.82635  -0.69335  -0.61962
 Alpha  occ. eigenvalues --   -0.58115  -0.55799  -0.53235  -0.48572  -0.46766
 Alpha  occ. eigenvalues --   -0.46666  -0.44169  -0.38256  -0.34436
 Alpha virt. eigenvalues --    0.02891   0.03632   0.03807   0.04013   0.05914
 Alpha virt. eigenvalues --    0.06254   0.06627   0.06676   0.07382   0.07954
 Alpha virt. eigenvalues --    0.08827   0.09514   0.09774   0.10202   0.10941

 Mulliken charges:
               1
     1  B    3.205621
     2  Si   5.398764
     3  C   -2.218627
     4  C   -3.795295
     5  H    1.383982
     6  H    1.288995
     7  C   -3.795232
     8  H    1.222696
     9  H    1.614118
    10  H    1.222691
    11  H    1.384045
    12  H    1.289014
    13  H   -2.306810
    14  H   -2.165855
    15  H   -1.864070
    16  H   -1.864036
 Sum of Mulliken charges =  -0.00000

 Dipole moment (field-independent basis, Debye):
    X=             -0.7924    Y=             -0.0001    Z=              0.4377  Tot=              0.9052

 Test job not archived.
 1\1\GINC-SE424\SP\RHF\Aug-CC-pVDZ\C3H11B1Si1\OHZDE\09-Apr-2025\0\\#t h
 f aug-cc-pvdz iop(5/13=1,5/36=2,99/5=2) pseudo=read geom=check guess=(
 read,tcheck) scf=(maxcycle=1)\\title\\0,1\B,0,2.098674,0.000007,1.0721
 58\Si,0,1.002024,-0.000035,-0.621438\C,0,-0.88757,-0.00001,-0.399986\C
 ,0,-1.379142,-1.271039,0.316155\H,0,-0.980285,-1.334541,1.334303\H,0,-
 1.082366,-2.180574,-0.214165\C,0,-1.379119,1.271077,0.316068\H,0,-2.47
 1932,-1.277427,0.396063\H,0,-1.306668,-0.000042,-1.414967\H,0,-2.47190
 9,1.27749,0.395975\H,0,-0.980261,1.334643,1.334211\H,0,-1.082327,2.180

 Normal termination of Gaussian 16 at Wed Apr  9 00:47:17 2025.
