 Gaussian 16, Revision C.01,

 ----------------------------------------------------------------------
 #t hf aug-cc-pvdz symm=none int=(grid=ultrafine) guess=(read,tcheck) s
 table=(opt,rrhf)
 ----------------------------------------------------------------------
 -----
 title
 -----
 Symbolic Z-matrix:
 Charge =  0 Multiplicity = 1

 SCF Done:  E(RHF) =  -1267.89045753     A.U. after   14 cycles
 Normal termination of Gaussian 16 at Wed Apr  9 00:50:04 2025.
 Gaussian 16:  ES64L-G16RevC.01  3-Jul-2019

 ----------------------------------------------------------------------
 #t hf aug-cc-pvdz iop(5/13=1,5/36=2,99/5=2) pseudo=read geom=check gue
 ss=(read,tcheck) scf=(maxcycle=1)
 ----------------------------------------------------------------------
 -----
 title
 -----
 Structure from the checkpoint file:  "BDE49_nonexpt_899_mol1.chk"
 Charge =  0 Multiplicity = 1

                         Standard orientation:
 ---------------------------------------------------------------------
 Center     Atomic      Atomic             Coordinates (Angstroms)
 Number     Number       Type             X           Y           Z
 ---------------------------------------------------------------------
      1          5           0        1.811183    0.104285   -0.009959
      2         16           0        0.488232   -1.167455    0.000481
      3          9           0        1.587150    1.395012   -0.005136
      4          9           0        3.044185   -0.360904   -0.000701
      5         16           0       -1.254268    0.029416   -0.135046
      6          8           0       -2.348553   -0.879799   -0.062399
      7          8           0       -1.131925    1.051510   -1.118877
      8          9           0       -1.181947    0.778503    1.300621
 ---------------------------------------------------------------------

 SCF Done:  E(RHF) =  -1270.10564570     A.U. after    2 cycles

 The electronic state is 1-A.
 Alpha  occ. eigenvalues --  -75.99049 -75.77420 -29.33764 -29.30638 -29.30267
 Alpha  occ. eigenvalues --  -21.11882 -21.11809 -13.62822 -13.51173 -13.40542
 Alpha  occ. eigenvalues --  -13.21529 -13.17121 -13.10591  -8.34474  -8.11593
 Alpha  occ. eigenvalues --   -7.78048  -1.90976  -1.72115  -1.30466  -1.14749
 Alpha  occ. eigenvalues --   -1.04348  -0.82886  -0.78125  -0.65443  -0.60054
 Alpha  occ. eigenvalues --   -0.57557  -0.54325  -0.51760  -0.51049  -0.49120
 Alpha  occ. eigenvalues --   -0.47494  -0.44811  -0.42171  -0.39731  -0.38275
 Alpha  occ. eigenvalues --   -0.37177  -0.35038  -0.32940  -0.30633  -0.28126
 Alpha virt. eigenvalues --    0.02189   0.03034   0.04929   0.06334   0.08267
 Alpha virt. eigenvalues --    0.09840   0.11102   0.11743   0.12441   0.12775
 Alpha virt. eigenvalues --    0.13546   0.15613   0.17306   0.17821   0.19012

 Mulliken charges:
               1
     1  B    1.804004
     2  S   -1.813456
     3  F   -0.357992
     4  F    0.358886
     5  S    4.889641
     6  O   -2.432329
     7  O   -2.475791
     8  F    0.027037
 Sum of Mulliken charges =  -0.00000

 Dipole moment (field-independent basis, Debye):
    X=              3.4886    Y=              2.3328    Z=              3.6534  Tot=              5.5642

 Test job not archived.
 1\1\GINC-SE345\SP\RHF\Aug-CC-pVDZ\B1F3O2S2\OHZDE\09-Apr-2025\0\\#t hf
 aug-cc-pvdz iop(5/13=1,5/36=2,99/5=2) pseudo=read geom=check guess=(re
 ad,tcheck) scf=(maxcycle=1)\\title\\0,1\B,0,1.811183,0.104285,-0.00995
 9\S,0,0.488232,-1.167455,0.000481\F,0,1.58715,1.395012,-0.005136\F,0,3
 .044185,-0.360904,-0.000701\S,0,-1.254268,0.029416,-0.135046\O,0,-2.34
 8553,-0.879799,-0.062399\O,0,-1.131925,1.05151,-1.118877\F,0,-1.181947
 ,0.778503,1.300621\\Version=ES64L-G16RevC.01\State=1-A\HF=-1270.105645
 7\RMSD=1.459e-01\Dipole=1.3725138,0.9177909,1.4373763\Quadrupole=1.896

 Normal termination of Gaussian 16 at Wed Apr  9 00:50:08 2025.
