 Gaussian 16, Revision C.01,

 ----------------------------------------------------------------------
 #t hf aug-cc-pvdz symm=none int=(grid=ultrafine) guess=(read,tcheck) s
 table=(opt,rrhf)
 ----------------------------------------------------------------------
 -----
 title
 -----
 Symbolic Z-matrix:
 Charge =  0 Multiplicity = 1

 SCF Done:  E(RHF) =  -845.113818853     A.U. after   14 cycles
 Normal termination of Gaussian 16 at Wed Apr  9 00:46:36 2025.
 Gaussian 16:  ES64L-G16RevC.01  3-Jul-2019

 ----------------------------------------------------------------------
 #t hf aug-cc-pvdz iop(5/13=1,5/36=2,99/5=2) pseudo=read geom=check gue
 ss=(read,tcheck) scf=(maxcycle=1)
 ----------------------------------------------------------------------
 -----
 title
 -----
 Structure from the checkpoint file:  "BDE49_nonexpt_796_mol1.chk"
 Charge =  0 Multiplicity = 1

                         Standard orientation:
 ---------------------------------------------------------------------
 Center     Atomic      Atomic             Coordinates (Angstroms)
 Number     Number       Type             X           Y           Z
 ---------------------------------------------------------------------
      1          7           0        1.439277   -0.832829   -0.000021
      2          9           0        0.983921   -1.596819    1.111034
      3          9           0        0.983904   -1.596792   -1.111087
      4         14           0        0.356657    0.659996    0.000005
      5          6           0        0.817563    1.563530   -1.566200
      6          1           0        1.889278    1.777053   -1.595865
      7          1           0        0.279593    2.514635   -1.625208
      8          1           0        0.557806    0.973405   -2.447528
      9          6           0        0.817586    1.563492    1.566226
     10          1           0        1.889301    1.777013    1.595881
     11          1           0        0.557841    0.973345    2.447543
     12          1           0        0.279617    2.514596    1.625265
     13          5           0       -1.570358   -0.003788    0.000011
     14          9           0       -2.232830   -0.218953    1.127669
     15          9           0       -2.232847   -0.218923   -1.127642
 ---------------------------------------------------------------------

 SCF Done:  E(RHF) =  -847.364256258     A.U. after    2 cycles

 The electronic state is 1-A.
 Alpha  occ. eigenvalues --  -76.24188 -29.29142 -29.29119 -29.26918 -29.26824
 Alpha  occ. eigenvalues --  -15.86008 -11.37514 -11.37374  -7.71335  -5.58595
 Alpha  occ. eigenvalues --   -2.23081  -2.22383  -2.21291  -1.45521  -1.12781
 Alpha  occ. eigenvalues --   -1.08085  -1.03859  -0.80719  -0.76740  -0.75487
 Alpha  occ. eigenvalues --   -0.66410  -0.60642  -0.59140  -0.57554  -0.57278
 Alpha  occ. eigenvalues --   -0.56226  -0.50677  -0.49695  -0.45840  -0.45247
 Alpha  occ. eigenvalues --   -0.43594  -0.43535  -0.39346  -0.35006  -0.34290
 Alpha  occ. eigenvalues --   -0.30073  -0.29643  -0.25346  -0.21372  -0.20038
 Alpha virt. eigenvalues --    0.02075   0.04478   0.04625   0.05375   0.06822
 Alpha virt. eigenvalues --    0.07009   0.07332   0.07467   0.08893   0.09648
 Alpha virt. eigenvalues --    0.10263   0.10807   0.10816   0.13756   0.14484

 Mulliken charges:
               1
     1  N   -0.141535
     2  F   -0.319651
     3  F   -0.319650
     4  Si   5.742856
     5  C   -5.305176
     6  H    1.181352
     7  H    1.165730
     8  H    1.243365
     9  C   -5.305175
    10  H    1.181352
    11  H    1.243365
    12  H    1.165731
    13  B   -0.081203
    14  F   -0.725682
    15  F   -0.725679
 Sum of Mulliken charges =  -0.00000

 Dipole moment (field-independent basis, Debye):
    X=             -2.9761    Y=             -0.7582    Z=              0.0000  Tot=              3.0712

 Test job not archived.
 1\1\GINC-SE345\SP\RHF\Aug-CC-pVDZ\C2H6B1F4N1Si1\OHZDE\09-Apr-2025\0\\#
 t hf aug-cc-pvdz iop(5/13=1,5/36=2,99/5=2) pseudo=read geom=check gues
 s=(read,tcheck) scf=(maxcycle=1)\\title\\0,1\N,0,1.439277,-0.832829,-0
 .000021\F,0,0.983921,-1.596819,1.111034\F,0,0.983904,-1.596792,-1.1110
 87\Si,0,0.356657,0.659996,0.000005\C,0,0.817563,1.56353,-1.5662\H,0,1.
 889278,1.777053,-1.595865\H,0,0.279594,2.514635,-1.625208\H,0,0.557806
 ,0.973405,-2.447528\C,0,0.817586,1.563492,1.566226\H,0,1.889301,1.7770
 13,1.595881\H,0,0.557841,0.973345,2.447543\H,0,0.279618,2.514596,1.625

 Normal termination of Gaussian 16 at Wed Apr  9 00:46:42 2025.
