 Gaussian 16, Revision C.01,

 ----------------------------------------------------------------------
 #t hf aug-cc-pvdz symm=none int=(grid=ultrafine) guess=(read,tcheck) s
 table=(opt,rrhf)
 ----------------------------------------------------------------------
 -----
 title
 -----
 Symbolic Z-matrix:
 Charge =  0 Multiplicity = 1

 SCF Done:  E(RHF) =  -279.388935395     A.U. after   11 cycles
 Normal termination of Gaussian 16 at Wed Apr  9 00:30:42 2025.
 Gaussian 16:  ES64L-G16RevC.01  3-Jul-2019

 ----------------------------------------------------------------------
 #t hf aug-cc-pvdz iop(5/13=1,5/36=2,99/5=2) pseudo=read geom=check gue
 ss=(read,tcheck) scf=(maxcycle=1)
 ----------------------------------------------------------------------
 -----
 title
 -----
 Structure from the checkpoint file:  "BDE49_nonexpt_351_mol1.chk"
 Charge =  0 Multiplicity = 1

                         Standard orientation:
 ---------------------------------------------------------------------
 Center     Atomic      Atomic             Coordinates (Angstroms)
 Number     Number       Type             X           Y           Z
 ---------------------------------------------------------------------
      1          9           0        0.729248    1.142028    0.000012
      2          9           0        0.729251   -1.142027    0.000007
      3          7           0       -1.358348   -0.000001   -0.000003
      4          5           0        0.035049   -0.000000   -0.000035
      5          1           0       -1.896650    0.849610    0.000016
      6          1           0       -1.896648   -0.849614    0.000012
 ---------------------------------------------------------------------

 SCF Done:  E(RHF) =  -280.420008163     A.U. after    2 cycles

 The electronic state is 1-A.
 Alpha  occ. eigenvalues --  -29.24535 -29.24442 -15.74208  -7.69376  -1.38918
 Alpha  occ. eigenvalues --   -1.05017  -0.77997  -0.67740  -0.65612  -0.54165
 Alpha  occ. eigenvalues --   -0.44378  -0.43815  -0.35660  -0.32678  -0.31740
 Alpha  occ. eigenvalues --   -0.27212
 Alpha virt. eigenvalues --    0.02403   0.04191   0.04723   0.04821   0.07505
 Alpha virt. eigenvalues --    0.09357   0.14040   0.17705   0.18908   0.20457
 Alpha virt. eigenvalues --    0.21348   0.22108   0.23857   0.24494   0.25953

 Mulliken charges:
               1
     1  F   -0.461234
     2  F   -0.461228
     3  N   -2.547480
     4  B    1.781695
     5  H    0.844124
     6  H    0.844123
 Sum of Mulliken charges =  -0.00000

 Dipole moment (field-independent basis, Debye):
    X=              1.3618    Y=              0.0000    Z=              0.0001  Tot=              1.3618

 Test job not archived.
 1\1\GINC-SE339\SP\RHF\Aug-CC-pVDZ\B1F2H2N1\OHZDE\09-Apr-2025\0\\#t hf
 aug-cc-pvdz iop(5/13=1,5/36=2,99/5=2) pseudo=read geom=check guess=(re
 ad,tcheck) scf=(maxcycle=1)\\title\\0,1\F,0,-0.729249,-1.142028,0.0000
 12\F,0,-0.72925,1.142027,0.000007\N,0,1.358348,0.,-0.000003\B,0,-0.035
 049,0.,-0.000035\H,0,1.896649,-0.849612,0.000016\H,0,1.896649,0.849612
 ,0.000012\\Version=ES64L-G16RevC.01\State=1-A\HF=-280.4200082\RMSD=2.5
 62e-01\Dipole=-0.5357565,0.,0.0000339\Quadrupole=-0.0844894,3.3740955,
 -3.2896061,-0.0000033,0.0000233,-0.000015\PG=C01 [X(B1F2H2N1)]\\@

 Normal termination of Gaussian 16 at Wed Apr  9 00:30:43 2025.
