 Gaussian 16, Revision C.01,

 ----------------------------------------------------------------------
 #t hf aug-cc-pvdz symm=none int=(grid=ultrafine) guess=(read,tcheck) s
 table=(opt,rrhf)
 ----------------------------------------------------------------------
 -----
 title
 -----
 Symbolic Z-matrix:
 Charge =  0 Multiplicity = 1

 SCF Done:  E(RHF) =  -902.145448644     A.U. after   13 cycles
 Normal termination of Gaussian 16 at Wed Apr  9 00:13:40 2025.
 Gaussian 16:  ES64L-G16RevC.01  3-Jul-2019

 ----------------------------------------------------------------------
 #t hf aug-cc-pvdz iop(5/13=1,5/36=2,99/5=2) pseudo=read geom=check gue
 ss=(read,tcheck) scf=(maxcycle=1)
 ----------------------------------------------------------------------
 -----
 title
 -----
 Structure from the checkpoint file:  "BDE49_nonexpt_2413_mol1.chk"
 Charge =  0 Multiplicity = 1

                         Standard orientation:
 ---------------------------------------------------------------------
 Center     Atomic      Atomic             Coordinates (Angstroms)
 Number     Number       Type             X           Y           Z
 ---------------------------------------------------------------------
      1         14           0        2.768543   -0.764508    0.485960
      2         14           0        1.562062    1.047029   -0.415950
      3          1           0        2.116037   -1.230645    1.732516
      4          1           0        4.139152   -0.304202    0.833794
      5          1           0        2.880495   -1.880471   -0.476412
      6          8           0       -0.093890    1.010312   -0.002658
      7          1           0        1.689900    1.124262   -1.888840
      8          1           0        1.974326    2.344388    0.163831
      9          6           0       -0.764982   -0.145955   -0.231823
     10          8           0       -0.192087   -1.128036   -0.683841
     11          7           0       -2.081716   -0.088226    0.086510
     12          6           0       -2.737080    1.094418    0.626174
     13          1           0       -2.020872    1.904248    0.718721
     14          1           0       -3.160923    0.875999    1.612713
     15          1           0       -3.551929    1.409697   -0.034889
     16          6           0       -2.909742   -1.269581   -0.108047
     17          1           0       -2.295450   -2.066491   -0.518223
     18          1           0       -3.729689   -1.049831   -0.800173
     19          1           0       -3.338879   -1.596167    0.845429
 ---------------------------------------------------------------------

 SCF Done:  E(RHF) =  -903.904317087     A.U. after    2 cycles

 The electronic state is 1-A.
 Alpha  occ. eigenvalues --  -76.24203 -76.21017 -21.07883 -21.02795 -15.75550
 Alpha  occ. eigenvalues --  -11.52159 -11.40821 -11.39836  -5.57652  -5.54373
 Alpha  occ. eigenvalues --   -2.23505  -2.19452  -2.18794  -2.16500  -2.16418
 Alpha  occ. eigenvalues --   -2.15641  -1.81969  -1.64211  -1.43320  -1.05775
 Alpha  occ. eigenvalues --   -1.00201  -0.81137  -0.75787  -0.70303  -0.67004
 Alpha  occ. eigenvalues --   -0.66420  -0.63320  -0.56496  -0.56116  -0.55340
 Alpha  occ. eigenvalues --   -0.53143  -0.50366  -0.48277  -0.46658  -0.45599
 Alpha  occ. eigenvalues --   -0.43147  -0.37894  -0.32898  -0.30706  -0.30099
 Alpha virt. eigenvalues --    0.03385   0.04713   0.05111   0.05445   0.05604
 Alpha virt. eigenvalues --    0.06099   0.06394   0.07010   0.07617   0.08485
 Alpha virt. eigenvalues --    0.08645   0.09208   0.09423   0.10090   0.10560

 Mulliken charges:
               1
     1  Si   4.623509
     2  Si   4.328168
     3  H   -1.523704
     4  H   -1.672759
     5  H   -1.546876
     6  O   -3.160425
     7  H   -1.799977
     8  H   -1.718491
     9  C    6.208322
    10  O   -2.537620
    11  N   -3.100097
    12  C   -3.513462
    13  H    1.713864
    14  H    1.446241
    15  H    1.452483
    16  C   -3.526949
    17  H    1.451608
    18  H    1.437253
    19  H    1.438912
 Sum of Mulliken charges =   0.00000

 Dipole moment (field-independent basis, Debye):
    X=             -2.7662    Y=              0.6941    Z=              0.7129  Tot=              2.9397

 Test job not archived.
 1\1\GINC-SE453\SP\RHF\Aug-CC-pVDZ\C3H11N1O2Si2\OHZDE\09-Apr-2025\0\\#t
  hf aug-cc-pvdz iop(5/13=1,5/36=2,99/5=2) pseudo=read geom=check guess
 =(read,tcheck) scf=(maxcycle=1)\\title\\0,1\Si,0,2.768543,-0.764508,0.
 48596\Si,0,1.562062,1.047029,-0.41595\H,0,2.116037,-1.230645,1.732516\
 H,0,4.139152,-0.304202,0.833794\H,0,2.880495,-1.880471,-0.476412\O,0,-
 0.09389,1.010312,-0.002658\H,0,1.6899,1.124262,-1.88884\H,0,1.974326,2
 .344388,0.163831\C,0,-0.764982,-0.145955,-0.231823\O,0,-0.192087,-1.12
 8036,-0.683841\N,0,-2.081716,-0.088226,0.08651\C,0,-2.73708,1.094418,0

 Normal termination of Gaussian 16 at Wed Apr  9 00:13:49 2025.
