 Gaussian 16, Revision C.01,

 ----------------------------------------------------------------------
 #t hf aug-cc-pvdz symm=none int=(grid=ultrafine) guess=(read,tcheck) s
 table=(opt,rrhf)
 ----------------------------------------------------------------------
 -----
 title
 -----
 Symbolic Z-matrix:
 Charge =  0 Multiplicity = 1

 SCF Done:  E(RHF) =  -664.937027571     A.U. after   16 cycles
 Normal termination of Gaussian 16 at Tue Apr  8 23:35:20 2025.
 Gaussian 16:  ES64L-G16RevC.01  3-Jul-2019

 ----------------------------------------------------------------------
 #t hf aug-cc-pvdz iop(5/13=1,5/36=2,99/5=2) pseudo=read geom=check gue
 ss=(read,tcheck) scf=(maxcycle=1)
 ----------------------------------------------------------------------
 -----
 title
 -----
 Structure from the checkpoint file:  "BDE49_nonexpt_1442_mol1.chk"
 Charge =  0 Multiplicity = 1

                         Standard orientation:
 ---------------------------------------------------------------------
 Center     Atomic      Atomic             Coordinates (Angstroms)
 Number     Number       Type             X           Y           Z
 ---------------------------------------------------------------------
      1          6           0       -0.145432    0.204454   -0.084100
      2          6           0        1.309240    0.528539   -0.181726
      3         15           0        2.518158   -0.821847    0.265399
      4          7           0        1.790253    1.629248   -0.610188
      5          1           0        1.039493    2.254303   -0.921516
      6          6           0       -0.634458   -1.071351   -0.393634
      7          6           0       -1.998325   -1.341735   -0.324632
      8          6           0       -2.890295   -0.348760    0.074098
      9          6           0       -2.412558    0.919685    0.400064
     10          6           0       -1.051952    1.195358    0.318381
     11          1           0        0.050743   -1.848706   -0.712933
     12          1           0       -2.363957   -2.329152   -0.582476
     13          1           0       -3.951117   -0.563016    0.135941
     14          1           0       -3.099999    1.692738    0.724372
     15          1           0       -0.682725    2.177302    0.593455
     16          1           0        2.071123   -1.027288    1.595214
     17          1           0        3.574992    0.049647    0.607562
 ---------------------------------------------------------------------

 SCF Done:  E(RHF) =  -666.663148689     A.U. after    2 cycles

 The electronic state is 1-A.
 Alpha  occ. eigenvalues -- -105.18537 -15.74276 -11.52861 -11.46066 -11.44733
 Alpha  occ. eigenvalues --  -11.43766 -11.42185 -11.41945 -11.37643  -2.75552
 Alpha  occ. eigenvalues --   -1.50267  -1.46218  -1.43903  -1.37668  -1.29434
 Alpha  occ. eigenvalues --   -1.11420  -1.10525  -0.91271  -0.87796  -0.81580
 Alpha  occ. eigenvalues --   -0.73573  -0.69969  -0.65426  -0.61361  -0.59575
 Alpha  occ. eigenvalues --   -0.58292  -0.52979  -0.48453  -0.46750  -0.44560
 Alpha  occ. eigenvalues --   -0.41298  -0.34398  -0.33384  -0.25357  -0.22580
 Alpha  occ. eigenvalues --   -0.03085
 Alpha virt. eigenvalues --    0.03128   0.04904   0.05033   0.06077   0.06847
 Alpha virt. eigenvalues --    0.07276   0.07526   0.08256   0.08668   0.09406
 Alpha virt. eigenvalues --    0.10143   0.11356   0.11904   0.12583   0.13131

 Mulliken charges:
               1
     1  C    4.203940
     2  C   -0.288601
     3  P    2.293616
     4  N   -3.283748
     5  H    0.754142
     6  C   -1.846280
     7  C   -2.181439
     8  C   -2.701423
     9  C   -1.795382
    10  C   -2.220227
    11  H    1.923405
    12  H    1.494130
    13  H    1.538839
    14  H    1.494395
    15  H    1.719663
    16  H   -0.521663
    17  H   -0.583368
 Sum of Mulliken charges =  -0.00000

 Dipole moment (field-independent basis, Debye):
    X=             -0.9614    Y=             -2.7761    Z=             -1.7035  Tot=              3.3960

 Test job not archived.
 1\1\GINC-SE177\SP\RHF\Aug-CC-pVDZ\C7H8N1P1\OHZDE\08-Apr-2025\0\\#t hf
 aug-cc-pvdz iop(5/13=1,5/36=2,99/5=2) pseudo=read geom=check guess=(re
 ad,tcheck) scf=(maxcycle=1)\\title\\0,1\C,0,-0.145432,0.204454,-0.0841
 \C,0,1.30924,0.528539,-0.181726\P,0,2.518158,-0.821847,0.265399\N,0,1.
 790253,1.629248,-0.610188\H,0,1.039493,2.254303,-0.921516\C,0,-0.63445
 8,-1.071351,-0.393634\C,0,-1.998325,-1.341735,-0.324632\C,0,-2.890295,
 -0.34876,0.074098\C,0,-2.412558,0.919685,0.400064\C,0,-1.051952,1.1953
 58,0.318381\H,0,0.050743,-1.848706,-0.712933\H,0,-2.363957,-2.329152,-

 Normal termination of Gaussian 16 at Tue Apr  8 23:35:28 2025.
