 Gaussian 16, Revision C.01,

 ----------------------------------------------------------------------
 #t hf aug-cc-pvdz symm=none int=(grid=ultrafine) guess=(read,tcheck) s
 table=(opt,rrhf)
 ----------------------------------------------------------------------
 -----
 title
 -----
 Symbolic Z-matrix:
 Charge =  0 Multiplicity = 1

 SCF Done:  E(RHF) =  -1106.55533285     A.U. after   15 cycles

 1\1\GINC-SE086\Stability\RHF\Aug-CC-pVDZ\C1Cl2O2\OHZDE\08-Apr-2025\0\\
 #t hf aug-cc-pvdz symm=none int=(grid=ultrafine) guess=(read,tcheck) s
 table=(opt,rrhf)\\title\\0,1\Cl,0,-1.248901,-1.703045,0.\O,0,0.219482,
 -0.75349,0.\C,0,0.,0.582429,0.\O,0,-1.011408,1.182725,0.\Cl,0,1.621573
 ,1.295489,0.\\Version=ES64L-G16RevC.01\HF=-1106.5553328\RMSD=2.875e-09
 \Dipole=0.1367069,-0.4971924,0.\Quadrupole=0.2674619,-0.464391,0.19692
 91,3.5410239,0.,0.\PG=Unknown\\@
 The archive entry for this job was punched.

 Normal termination of Gaussian 16 at Tue Apr  8 23:18:49 2025.
 Gaussian 16:  ES64L-G16RevC.01  3-Jul-2019

 ----------------------------------------------------------------------
 #t hf aug-cc-pvdz iop(5/13=1,5/36=2,99/5=2) pseudo=read geom=check gue
 ss=(read,tcheck) scf=(maxcycle=1)
 ----------------------------------------------------------------------
 -----
 title
 -----
 Structure from the checkpoint file:  "BDE49_nonexpt_1047_mol1.chk"
 Charge =  0 Multiplicity = 1

                         Standard orientation:
 ---------------------------------------------------------------------
 Center     Atomic      Atomic             Coordinates (Angstroms)
 Number     Number       Type             X           Y           Z
 ---------------------------------------------------------------------
      1         17           0       -1.248902   -1.703044    0.000000
      2          8           0        0.219481   -0.753490    0.000000
      3          6           0        0.000000    0.582429   -0.000000
      4          8           0       -1.011408    1.182725    0.000000
      5         17           0        1.621573    1.295488   -0.000000
 ---------------------------------------------------------------------

 SCF Done:  E(RHF) =  -1107.80015947     A.U. after    2 cycles

 The electronic state is 1-A'.
 Alpha  occ. eigenvalues --  -99.98369 -99.93654 -21.18776 -21.11858 -11.59653
 Alpha  occ. eigenvalues --  -10.55012 -10.51029  -9.74853  -9.74021  -9.73884
 Alpha  occ. eigenvalues --   -9.70848  -9.70040  -9.69944  -1.90085  -1.74189
 Alpha  occ. eigenvalues --   -1.36278  -1.28930  -0.87616  -0.73692  -0.67702
 Alpha  occ. eigenvalues --   -0.66525  -0.59853  -0.58471  -0.55097  -0.50990
 Alpha  occ. eigenvalues --   -0.50745  -0.39286  -0.37292
 Alpha virt. eigenvalues --   -0.00934   0.05670   0.06658   0.08700   0.10813
 Alpha virt. eigenvalues --    0.11032   0.11177   0.12141   0.13661   0.14782
 Alpha virt. eigenvalues --    0.16019   0.17256   0.18955   0.20372   0.23128

 Mulliken charges:
               1
     1  Cl   0.551920
     2  O   -1.718748
     3  C    3.109017
     4  O   -1.958176
     5  Cl   0.015987
 Sum of Mulliken charges =  -0.00000

 Dipole moment (field-independent basis, Debye):
    X=              0.0385    Y=             -0.1648    Z=             -0.0000  Tot=              0.1693

 Test job not archived.
 1\1\GINC-SE086\SP\RHF\Aug-CC-pVDZ\C1Cl2O2\OHZDE\08-Apr-2025\0\\#t hf a
 ug-cc-pvdz iop(5/13=1,5/36=2,99/5=2) pseudo=read geom=check guess=(rea
 d,tcheck) scf=(maxcycle=1)\\title\\0,1\Cl,0,-1.248901,-1.703045,0.\O,0
 ,0.219482,-0.75349,0.\C,0,0.,0.582429,0.\O,0,-1.011408,1.182725,0.\Cl,
 0,1.621573,1.295489,0.\\Version=ES64L-G16RevC.01\State=1-A'\HF=-1107.8
 001595\RMSD=3.661e-02\Dipole=0.0151287,-0.0648488,0.\Quadrupole=0.6435
 322,-0.3318044,-0.3117278,1.069512,0.,0.\PG=CS [SG(C1Cl2O2)]\\@

 Normal termination of Gaussian 16 at Tue Apr  8 23:18:51 2025.
