 Gaussian 16, Revision C.01,

 ----------------------------------------------------------------------
 #t hf aug-cc-pvdz symm=none int=(grid=ultrafine) guess=(read,tcheck) s
 table=(opt,rrhf)
 ----------------------------------------------------------------------
 -----
 title
 -----
 Symbolic Z-matrix:
 Charge =  0 Multiplicity = 1

 SCF Done:  E(RHF) =  -632.575685624     A.U. after   11 cycles

 1\1\GINC-SE435\Stability\RHF\Aug-CC-pVDZ\H5P1Si1\OHZDE\08-Apr-2025\0\\
 #t hf aug-cc-pvdz symm=none int=(grid=ultrafine) guess=(read,tcheck) s
 table=(opt,rrhf)\\title\\0,1\Si,0,1.103335,0.,0.006962\P,0,-1.173519,0
 .,-0.118657\H,0,-1.332541,1.035897,0.839568\H,0,-1.332541,-1.035897,0.
 839568\H,0,1.598425,1.206316,-0.695219\H,0,1.598425,-1.206316,-0.69521
 9\H,0,1.62432,0.,1.393686\\Version=ES64L-G16RevC.01\HF=-632.5756856\RM
 SD=5.756e-09\Dipole=0.1619303,0.,0.281282\Quadrupole=-0.7324874,1.0266
 73,-0.2941856,0.,-1.2124313,0.\PG=Unknown\\@

 Normal termination of Gaussian 16 at Tue Apr  8 23:42:13 2025.
 Gaussian 16:  ES64L-G16RevC.01  3-Jul-2019

 ----------------------------------------------------------------------
 #t hf aug-cc-pvdz iop(5/13=1,5/36=2,99/5=2) pseudo=read geom=check gue
 ss=(read,tcheck) scf=(maxcycle=1)
 ----------------------------------------------------------------------
 -----
 title
 -----
 Structure from the checkpoint file:  "BDE49_nonexpt_1670_mol1.chk"
 Charge =  0 Multiplicity = 1

                         Standard orientation:
 ---------------------------------------------------------------------
 Center     Atomic      Atomic             Coordinates (Angstroms)
 Number     Number       Type             X           Y           Z
 ---------------------------------------------------------------------
      1         14           0       -0.053829    1.102043    0.000000
      2         15           0       -0.053829   -1.178273    0.000000
      3          1           0        0.911701   -1.284267    1.035897
      4          1           0        0.911701   -1.284267   -1.035897
      5          1           0       -0.782218    1.557699    1.206316
      6          1           0       -0.782218    1.557699   -1.206316
      7          1           0        1.302089    1.698630    0.000000
 ---------------------------------------------------------------------

 SCF Done:  E(RHF) =  -632.945390948     A.U. after    2 cycles

 The electronic state is 1-A'.
 Alpha  occ. eigenvalues -- -105.17504 -76.23074  -5.56441  -2.74473  -2.18405
 Alpha  occ. eigenvalues --   -2.18377  -2.17919  -1.43368  -1.43279  -1.41535
 Alpha  occ. eigenvalues --   -0.79956  -0.67987  -0.48014  -0.47960  -0.25999
 Alpha  occ. eigenvalues --   -0.16210  -0.04383
 Alpha virt. eigenvalues --    0.04535   0.05316   0.06776   0.07141   0.08348
 Alpha virt. eigenvalues --    0.09498   0.09506   0.09572   0.11022   0.12081
 Alpha virt. eigenvalues --    0.13972   0.16485   0.17029   0.18492   0.19099

 Mulliken charges:
               1
     1  Si   5.067207
     2  P    1.079742
     3  H   -0.670790
     4  H   -0.670790
     5  H   -1.593252
     6  H   -1.593252
     7  H   -1.618865
 Sum of Mulliken charges =   0.00000

 Dipole moment (field-independent basis, Debye):
    X=             -3.5521    Y=             -5.5861    Z=             -0.0000  Tot=              6.6198

 Test job not archived.
 1\1\GINC-SE435\SP\RHF\Aug-CC-pVDZ\H5P1Si1\OHZDE\08-Apr-2025\0\\#t hf a
 ug-cc-pvdz iop(5/13=1,5/36=2,99/5=2) pseudo=read geom=check guess=(rea
 d,tcheck) scf=(maxcycle=1)\\title\\0,1\Si,0,1.103335,0.,0.006962\P,0,-
 1.173519,0.,-0.118657\H,0,-1.332541,1.035897,0.839568\H,0,-1.332541,-1
 .035897,0.839568\H,0,1.598425,1.206316,-0.695219\H,0,1.598425,-1.20631
 6,-0.695219\H,0,1.62432,0.,1.393686\\Version=ES64L-G16RevC.01\State=1-
 A'\HF=-632.9453909\RMSD=2.873e-01\Dipole=-2.1174165,0.,-1.5164396\Quad
 rupole=-0.4246141,2.5323865,-2.1077724,0.,0.854333,0.\PG=CS [SG(H1P1Si

 Normal termination of Gaussian 16 at Tue Apr  8 23:42:14 2025.
