 Gaussian 16, Revision C.01,

 ----------------------------------------------------------------------
 #t hf aug-cc-pvdz symm=none int=(grid=ultrafine) guess=(read,tcheck) s
 table=(opt,rrhf)
 ----------------------------------------------------------------------
 -----
 title
 -----
 Symbolic Z-matrix:
 Charge =  0 Multiplicity = 1

 SCF Done:  E(RHF) =  -360.827745060     A.U. after   15 cycles
 Normal termination of Gaussian 16 at Tue Apr  8 22:39:59 2025.
 Gaussian 16:  ES64L-G16RevC.01  3-Jul-2019

 ----------------------------------------------------------------------
 #t hf aug-cc-pvdz iop(5/13=1,5/36=2,99/5=2) pseudo=read geom=check gue
 ss=(read,tcheck) scf=(maxcycle=1)
 ----------------------------------------------------------------------
 -----
 title
 -----
 Structure from the checkpoint file:  "BDE49_expt_1246_mol1.chk"
 Charge =  0 Multiplicity = 1

                         Standard orientation:
 ---------------------------------------------------------------------
 Center     Atomic      Atomic             Coordinates (Angstroms)
 Number     Number       Type             X           Y           Z
 ---------------------------------------------------------------------
      1          6           0       -0.009307    0.615349   -0.445979
      2          7           0       -0.822578   -0.593097    0.018106
      3          8           0       -1.122746   -0.642296    1.201480
      4          8           0       -1.109187   -1.433641   -0.819460
      5          6           0        1.350339    0.586347    0.257808
      6          6           0        2.184489   -0.663781   -0.033221
      7          1           0        1.181455    0.689972    1.333212
      8          1           0        1.891682    1.480572   -0.068315
      9          1           0        2.358163   -0.787910   -1.105824
     10          1           0        1.693774   -1.569032    0.332926
     11          6           0       -0.815733    1.878860   -0.165161
     12          1           0        0.103614    0.447434   -1.517016
     13          1           0       -0.264324    2.747415   -0.532115
     14          1           0       -0.983868    1.994999    0.906283
     15          1           0       -1.783294    1.851184   -0.671061
     16          1           0        3.157582   -0.596110    0.458334
 ---------------------------------------------------------------------

 SCF Done:  E(RHF) =  -362.489525598     A.U. after    2 cycles

 The electronic state is 1-A.
 Alpha  occ. eigenvalues --  -21.09191 -21.08733 -15.98061 -11.48582 -11.43594
 Alpha  occ. eigenvalues --  -11.40234 -11.37530  -1.98870  -1.68515  -1.29778
 Alpha  occ. eigenvalues --   -1.12078  -1.01730  -0.92675  -0.80564  -0.70880
 Alpha  occ. eigenvalues --   -0.68441  -0.64275  -0.60947  -0.58856  -0.58694
 Alpha  occ. eigenvalues --   -0.55892  -0.53144  -0.50570  -0.48704  -0.45653
 Alpha  occ. eigenvalues --   -0.33936  -0.30997  -0.30628
 Alpha virt. eigenvalues --    0.03660   0.04470   0.05280   0.05407   0.05769
 Alpha virt. eigenvalues --    0.06117   0.06745   0.08062   0.08745   0.10999
 Alpha virt. eigenvalues --    0.11924   0.13065   0.13866   0.14684   0.15326

 Mulliken charges:
               1
     1  C   -1.807305
     2  N    4.693059
     3  O   -2.950054
     4  O   -2.742269
     5  C   -2.635805
     6  C   -3.583797
     7  H    1.586611
     8  H    1.375147
     9  H    1.257201
    10  H    1.347208
    11  C   -3.592811
    12  H    2.098570
    13  H    1.236149
    14  H    1.372335
    15  H    1.260751
    16  H    1.085012
 Sum of Mulliken charges =   0.00000

 Dipole moment (field-independent basis, Debye):
    X=              1.5978    Y=              2.0819    Z=             -0.4974  Tot=              2.6711

 Test job not archived.
 1\1\GINC-SE071\SP\RHF\Aug-CC-pVDZ\C4H9N1O2\OHZDE\08-Apr-2025\0\\#t hf
 aug-cc-pvdz iop(5/13=1,5/36=2,99/5=2) pseudo=read geom=check guess=(re
 ad,tcheck) scf=(maxcycle=1)\\title\\0,1\C,0,-0.009307,0.615349,-0.4459
 79\N,0,-0.822578,-0.593097,0.018106\O,0,-1.122746,-0.642297,1.20148\O,
 0,-1.109186,-1.433642,-0.81946\C,0,1.350339,0.586348,0.257808\C,0,2.18
 4489,-0.66378,-0.033221\H,0,1.181455,0.689973,1.333212\H,0,1.891681,1.
 480573,-0.068315\H,0,2.358163,-0.787909,-1.105824\H,0,1.693775,-1.5690
 31,0.332926\C,0,-0.815734,1.87886,-0.165161\H,0,0.103614,0.447434,-1.5

 Normal termination of Gaussian 16 at Tue Apr  8 22:40:05 2025.
