 Gaussian 16, Revision C.01,

 ----------------------------------------------------------------------
 #t hf aug-cc-pvdz symm=none int=(grid=ultrafine) guess=(read,tcheck) s
 table=(opt,rrhf)
 ----------------------------------------------------------------------
 -----
 title
 -----
 Symbolic Z-matrix:
 Charge =  0 Multiplicity = 1

 SCF Done:  E(RHF) =  -1115.38380531     A.U. after   13 cycles
 Normal termination of Gaussian 16 at Wed Apr  9 00:20:31 2025.
 Gaussian 16:  ES64L-G16RevC.01  3-Jul-2019

 ----------------------------------------------------------------------
 #t hf aug-cc-pvdz iop(5/13=1,5/36=2,99/5=2) pseudo=read geom=check gue
 ss=(read,tcheck) scf=(maxcycle=1)
 ----------------------------------------------------------------------
 -----
 title
 -----
 Structure from the checkpoint file:  "BDE49_nonexpt_259_mol1.chk"
 Charge =  0 Multiplicity = 1

                         Standard orientation:
 ---------------------------------------------------------------------
 Center     Atomic      Atomic             Coordinates (Angstroms)
 Number     Number       Type             X           Y           Z
 ---------------------------------------------------------------------
      1         17           0       -1.722188   -1.537526    0.000043
      2         17           0       -1.722187    1.537526   -0.000136
      3          7           0        0.546668    0.000000    0.000064
      4          6           0        2.593435   -0.000017    1.286240
      5          6           0        1.799907   -0.000000    0.000041
      6          6           0        2.593387    0.000016   -1.286188
      7          5           0       -0.807017    0.000000    0.000089
      8          1           0        1.933861   -0.000027    2.151898
      9          1           0        3.243715    0.879573    1.324327
     10          1           0        3.243715   -0.879608    1.324305
     11          1           0        1.933780    0.000027   -2.151821
     12          1           0        3.243665   -0.879573   -1.324300
     13          1           0        3.243665    0.879608   -1.324278
 ---------------------------------------------------------------------

 SCF Done:  E(RHF) =  -1116.80883201     A.U. after    2 cycles

 The electronic state is 1-A.
 Alpha  occ. eigenvalues --  -99.87498 -99.87478 -15.71837 -11.51135 -11.41066
 Alpha  occ. eigenvalues --  -11.39521 -10.44895 -10.44642  -9.64824  -9.64655
 Alpha  occ. eigenvalues --   -9.64282  -9.64188  -9.64068  -9.64030  -7.71709
 Alpha  occ. eigenvalues --   -1.44862  -1.33791  -1.27214  -1.14276  -1.05007
 Alpha  occ. eigenvalues --   -0.89868  -0.71350  -0.66152  -0.64759  -0.63866
 Alpha  occ. eigenvalues --   -0.60884  -0.56760  -0.56349  -0.55988  -0.52265
 Alpha  occ. eigenvalues --   -0.50506  -0.49683  -0.48381  -0.42781  -0.37199
 Alpha virt. eigenvalues --    0.01991   0.04585   0.04911   0.04996   0.05429
 Alpha virt. eigenvalues --    0.05693   0.06572   0.06653   0.08146   0.09528
 Alpha virt. eigenvalues --    0.11303   0.11891   0.12296   0.12531   0.13209

 Mulliken charges:
               1
     1  Cl  -1.311774
     2  Cl  -1.311774
     3  N   -5.022963
     4  C   -4.208121
     5  C    5.674297
     6  C   -4.208272
     7  B    2.164685
     8  H    1.564516
     9  H    1.273725
    10  H    1.273717
    11  H    1.564520
    12  H    1.273727
    13  H    1.273717
 Sum of Mulliken charges =  -0.00000

 Dipole moment (field-independent basis, Debye):
    X=              4.8441    Y=             -0.0000    Z=              0.0001  Tot=              4.8441

 Test job not archived.
 1\1\GINC-SE162\SP\RHF\Aug-CC-pVDZ\C3H6B1Cl2N1\OHZDE\09-Apr-2025\0\\#t
 hf aug-cc-pvdz iop(5/13=1,5/36=2,99/5=2) pseudo=read geom=check guess=
 (read,tcheck) scf=(maxcycle=1)\\title\\0,1\Cl,0,-1.722188,1.537526,-0.
 000043\Cl,0,-1.722187,-1.537526,0.000136\N,0,0.546668,0.,-0.000064\C,0
 ,2.593435,0.000017,-1.28624\C,0,1.799907,0.,-0.000041\C,0,2.593387,-0.
 000016,1.286188\B,0,-0.807017,0.,-0.000089\H,0,1.933861,0.000027,-2.15
 1898\H,0,3.243715,-0.879573,-1.324327\H,0,3.243715,0.879608,-1.324305\
 H,0,1.93378,-0.000027,2.151821\H,0,3.243665,0.879573,1.3243\H,0,3.2436

 Normal termination of Gaussian 16 at Wed Apr  9 00:20:35 2025.
