 Gaussian 16, Revision C.01,

 ----------------------------------------------------------------------
 #t hf aug-cc-pvdz symm=none int=(grid=ultrafine) guess=(read,tcheck) s
 table=(opt,rrhf)
 ----------------------------------------------------------------------
 -----
 title
 -----
 Symbolic Z-matrix:
 Charge =  0 Multiplicity = 1

 SCF Done:  E(RHF) =  -896.416209175     A.U. after   17 cycles
 Normal termination of Gaussian 16 at Tue Apr  8 23:13:51 2025.
 Gaussian 16:  ES64L-G16RevC.01  3-Jul-2019

 ----------------------------------------------------------------------
 #t hf aug-cc-pvdz iop(5/13=1,5/36=2,99/5=2) pseudo=read geom=check gue
 ss=(read,tcheck) scf=(maxcycle=1)
 ----------------------------------------------------------------------
 -----
 title
 -----
 Structure from the checkpoint file:  "BDE49_expt_681_mol1.chk"
 Charge =  0 Multiplicity = 1

                         Standard orientation:
 ---------------------------------------------------------------------
 Center     Atomic      Atomic             Coordinates (Angstroms)
 Number     Number       Type             X           Y           Z
 ---------------------------------------------------------------------
      1          6           0       -1.379422   -1.217500    0.000005
      2          6           0        0.004340   -1.137385    0.000006
      3          6           0       -2.132314   -0.044351    0.000000
      4          6           0       -1.513897    1.197887   -0.000005
      5          6           0       -0.122411    1.264473   -0.000004
      6          6           0        0.662767    0.104517    0.000001
      7          1           0        0.596490   -2.042604    0.000010
      8          1           0       -1.876627   -2.178969    0.000009
      9          1           0       -2.109111    2.101752   -0.000010
     10          1           0        0.343388    2.241340   -0.000008
     11          6           0        2.146691    0.186409    0.000001
     12          7           0        2.771567   -0.935303   -0.000006
     13          8           0        4.162851   -0.797681   -0.000006
     14          1           0        4.456762   -1.713878   -0.000011
     15          6           0        2.826673    1.530118    0.000009
     16          1           0        2.535733    2.107416    0.882185
     17          1           0        2.535750    2.107418   -0.882171
     18          1           0        3.906185    1.411903    0.000019
     19         17           0       -3.885112   -0.141813   -0.000001
 ---------------------------------------------------------------------

 SCF Done:  E(RHF) =  -898.687775361     A.U. after    2 cycles

 The electronic state is 1-A.
 Alpha  occ. eigenvalues --  -99.89720 -21.10099 -15.77595 -11.53131 -11.48502
 Alpha  occ. eigenvalues --  -11.46371 -11.45618 -11.44308 -11.42847 -11.40419
 Alpha  occ. eigenvalues --  -11.38203 -10.47060  -9.67092  -9.66203  -9.66020
 Alpha  occ. eigenvalues --   -1.79303  -1.41562  -1.32717  -1.24372  -1.11862
 Alpha  occ. eigenvalues --   -1.08766  -1.06369  -0.89218  -0.88816  -0.77708
 Alpha  occ. eigenvalues --   -0.71679  -0.67090  -0.64603  -0.63289  -0.60740
 Alpha  occ. eigenvalues --   -0.59909  -0.57907  -0.57475  -0.55845  -0.52446
 Alpha  occ. eigenvalues --   -0.51756  -0.49960  -0.48838  -0.46188  -0.45505
 Alpha  occ. eigenvalues --   -0.36691  -0.35295  -0.34802  -0.27761
 Alpha virt. eigenvalues --    0.03149   0.04811   0.05364   0.06239   0.06328
 Alpha virt. eigenvalues --    0.06349   0.07182   0.07707   0.08147   0.08733
 Alpha virt. eigenvalues --    0.09956   0.10651   0.10879   0.12152   0.12792

 Mulliken charges:
               1
     1  C   -2.360503
     2  C   -0.363983
     3  C   -3.176563
     4  C   -2.449115
     5  C    0.816669
     6  C    4.979848
     7  H    1.849232
     8  H    1.712319
     9  H    1.708662
    10  H    2.087914
    11  C    0.250320
    12  N   -1.117200
    13  O   -2.533255
    14  H    0.878387
    15  C   -4.925493
    16  H    1.110099
    17  H    1.110099
    18  H    1.339027
    19  Cl  -0.916465
 Sum of Mulliken charges =   0.00000

 Dipole moment (field-independent basis, Debye):
    X=              2.9468    Y=              0.6980    Z=              0.0000  Tot=              3.0283

 Test job not archived.
 1\1\GINC-SE212\SP\RHF\Aug-CC-pVDZ\C8H8Cl1N1O1\OHZDE\08-Apr-2025\0\\#t
 hf aug-cc-pvdz iop(5/13=1,5/36=2,99/5=2) pseudo=read geom=check guess=
 (read,tcheck) scf=(maxcycle=1)\\title\\0,1\C,0,-1.379422,-1.2175,0.000
 005\C,0,0.00434,-1.137385,0.000006\C,0,-2.132314,-0.044351,0.\C,0,-1.5
 13897,1.197887,-0.000005\C,0,-0.122411,1.264473,-0.000004\C,0,0.662767
 ,0.104517,0.000001\H,0,0.59649,-2.042604,0.00001\H,0,-1.876627,-2.1789
 69,0.000009\H,0,-2.109111,2.101752,-0.00001\H,0,0.343388,2.24134,-0.00
 0008\C,0,2.146691,0.186409,0.000001\N,0,2.771567,-0.935303,-0.000006\O

 Normal termination of Gaussian 16 at Tue Apr  8 23:14:03 2025.
