 Gaussian 16, Revision C.01,

 ----------------------------------------------------------------------
 #t hf aug-cc-pvdz symm=none int=(grid=ultrafine) guess=(read,tcheck) s
 table=(opt,rrhf)
 ----------------------------------------------------------------------
 -----
 title
 -----
 Symbolic Z-matrix:
 Charge =  0 Multiplicity = 1

 SCF Done:  E(RHF) =  -489.117905374     A.U. after   10 cycles

 1\1\GINC-SE396\Stability\RHF\Aug-CC-pVDZ\F2H2Si1\OHZDE\08-Apr-2025\0\\
 #t hf aug-cc-pvdz symm=none int=(grid=ultrafine) guess=(read,tcheck) s
 table=(opt,rrhf)\\title\\0,1\Si,0,0.,0.,0.450113\F,0,0.,1.29063,-0.487
 796\F,0,0.,-1.29063,-0.487796\H,0,-1.237675,0.,1.239369\H,0,1.237675,0
 .,1.239369\\Version=ES64L-G16RevC.01\HF=-489.1179054\RMSD=2.565e-09\Di
 pole=0.,0.,0.7297364\Quadrupole=1.058572,-1.9129558,0.8543838,0.,0.,0.
 \PG=Unknown\\@
 The archive entry for this job was punched.

 Normal termination of Gaussian 16 at Tue Apr  8 23:56:17 2025.
 Gaussian 16:  ES64L-G16RevC.01  3-Jul-2019

 ----------------------------------------------------------------------
 #t hf aug-cc-pvdz iop(5/13=1,5/36=2,99/5=2) pseudo=read geom=check gue
 ss=(read,tcheck) scf=(maxcycle=1)
 ----------------------------------------------------------------------
 -----
 title
 -----
 Structure from the checkpoint file:  "BDE49_nonexpt_1986_mol1.chk"
 Charge =  0 Multiplicity = 1

                         Standard orientation:
 ---------------------------------------------------------------------
 Center     Atomic      Atomic             Coordinates (Angstroms)
 Number     Number       Type             X           Y           Z
 ---------------------------------------------------------------------
      1         14           0       -0.000000   -0.000000    0.450113
      2          9           0        0.000000    1.290630   -0.487796
      3          9           0       -0.000000   -1.290630   -0.487796
      4          1           0       -1.237675    0.000000    1.239369
      5          1           0        1.237675   -0.000000    1.239369
 ---------------------------------------------------------------------

 SCF Done:  E(RHF) =  -489.957675339     A.U. after    2 cycles

 The electronic state is 1-A1.
 Alpha  occ. eigenvalues --  -76.29565 -29.28560 -29.28559  -5.64892  -2.29789
 Alpha  occ. eigenvalues --   -2.27636  -2.24835  -0.95469  -0.69777  -0.59394
 Alpha  occ. eigenvalues --   -0.55806  -0.41453  -0.35602  -0.34762  -0.34628
 Alpha  occ. eigenvalues --   -0.34535  -0.29303
 Alpha virt. eigenvalues --    0.04901   0.06109   0.06642   0.07429   0.09537
 Alpha virt. eigenvalues --    0.14617   0.18113   0.18359   0.23654   0.25386
 Alpha virt. eigenvalues --    0.25940   0.26334   0.28374   0.29501   0.30355

 Mulliken charges:
               1
     1  Si   5.640905
     2  F   -1.010406
     3  F   -1.010406
     4  H   -1.810047
     5  H   -1.810047
 Sum of Mulliken charges =  -0.00000

 Dipole moment (field-independent basis, Debye):
    X=             -0.0000    Y=              0.0000    Z=             -2.1763  Tot=              2.1763

 Test job not archived.
 1\1\GINC-SE396\SP\RHF\Aug-CC-pVDZ\F2H2Si1\OHZDE\08-Apr-2025\0\\#t hf a
 ug-cc-pvdz iop(5/13=1,5/36=2,99/5=2) pseudo=read geom=check guess=(rea
 d,tcheck) scf=(maxcycle=1)\\title\\0,1\Si,0,0.,0.,0.450113\F,0,0.,1.29
 063,-0.487796\F,0,0.,-1.29063,-0.487796\H,0,-1.237675,0.,1.239369\H,0,
 1.237675,0.,1.239369\\Version=ES64L-G16RevC.01\State=1-A1\HF=-489.9576
 753\RMSD=1.021e-01\Dipole=0.,0.,-0.8562184\Quadrupole=-1.5852255,2.253
 4402,-0.6682147,0.,0.,0.\PG=C02V [C2(Si1),SGV(F2),SGV'(H2)]\\@

 Normal termination of Gaussian 16 at Tue Apr  8 23:56:18 2025.
