 Gaussian 16, Revision C.01,

 ----------------------------------------------------------------------
 #t hf aug-cc-pvdz symm=none int=(grid=ultrafine) guess=(read,tcheck) s
 table=(opt,rrhf)
 ----------------------------------------------------------------------
 -----
 title
 -----
 Symbolic Z-matrix:
 Charge =  0 Multiplicity = 1

 SCF Done:  E(RHF) =  -840.563637087     A.U. after   14 cycles
 Normal termination of Gaussian 16 at Tue Apr  8 23:54:22 2025.
 Gaussian 16:  ES64L-G16RevC.01  3-Jul-2019

 ----------------------------------------------------------------------
 #t hf aug-cc-pvdz iop(5/13=1,5/36=2,99/5=2) pseudo=read geom=check gue
 ss=(read,tcheck) scf=(maxcycle=1)
 ----------------------------------------------------------------------
 -----
 title
 -----
 Structure from the checkpoint file:  "BDE49_nonexpt_1943_mol1.chk"
 Charge =  0 Multiplicity = 1

                         Standard orientation:
 ---------------------------------------------------------------------
 Center     Atomic      Atomic             Coordinates (Angstroms)
 Number     Number       Type             X           Y           Z
 ---------------------------------------------------------------------
      1         14           0       -2.053265   -0.296524   -0.263347
      2          6           0       -0.572484   -0.011450    0.908446
      3          6           0        0.694597    0.333997    0.181603
      4         16           0        1.899876   -0.721119   -0.140598
      5          8           0        0.776652    1.606786   -0.255867
      6          1           0       -2.327649    0.953583   -1.011246
      7          1           0       -3.234447   -0.637399    0.560227
      8          1           0       -0.007874    2.105991    0.008814
      9          1           0       -1.751235   -1.389145   -1.208208
     10          1           0       -0.427737   -0.923359    1.486772
     11          1           0       -0.849258    0.789995    1.606714
 ---------------------------------------------------------------------

 SCF Done:  E(RHF) =  -841.634939956     A.U. after    2 cycles

 The electronic state is 1-A.
 Alpha  occ. eigenvalues --  -76.24225 -75.65188 -21.14439 -13.14944 -12.99358
 Alpha  occ. eigenvalues --  -12.96862 -11.52388 -11.40156  -7.99448  -5.57659
 Alpha  occ. eigenvalues --   -2.21179  -2.19989  -2.19893  -1.80026  -1.19828
 Alpha  occ. eigenvalues --   -1.06195  -0.81505  -0.76910  -0.67425  -0.63836
 Alpha  occ. eigenvalues --   -0.55167  -0.49422  -0.49151  -0.47455  -0.44290
 Alpha  occ. eigenvalues --   -0.41846  -0.26916  -0.22048
 Alpha virt. eigenvalues --    0.02551   0.04008   0.05057   0.05389   0.06344
 Alpha virt. eigenvalues --    0.07326   0.07836   0.08383   0.08971   0.10289
 Alpha virt. eigenvalues --    0.10762   0.11484   0.13737   0.14502   0.14615

 Mulliken charges:
               1
     1  Si   6.093517
     2  C   -3.936392
     3  C    1.453618
     4  S    1.188306
     5  O   -3.431763
     6  H   -1.694457
     7  H   -1.694668
     8  H    1.194307
     9  H   -1.788791
    10  H    1.457419
    11  H    1.158903
 Sum of Mulliken charges =  -0.00000

 Dipole moment (field-independent basis, Debye):
    X=             -0.8283    Y=              0.2766    Z=              0.5694  Tot=              1.0425

 Test job not archived.
 1\1\GINC-SE328\SP\RHF\Aug-CC-pVDZ\C2H6O1S1Si1\OHZDE\08-Apr-2025\0\\#t
 hf aug-cc-pvdz iop(5/13=1,5/36=2,99/5=2) pseudo=read geom=check guess=
 (read,tcheck) scf=(maxcycle=1)\\title\\0,1\Si,0,-2.053265,-0.296524,-0
 .263347\C,0,-0.572484,-0.01145,0.908446\C,0,0.694597,0.333997,0.181603
 \S,0,1.899876,-0.721119,-0.140598\O,0,0.776652,1.606786,-0.255867\H,0,
 -2.327649,0.953583,-1.011246\H,0,-3.234447,-0.6374,0.560227\H,0,-0.007
 874,2.105991,0.008814\H,0,-1.751235,-1.389145,-1.208208\H,0,-0.427737,
 -0.923359,1.486772\H,0,-0.849258,0.789995,1.606714\\Version=ES64L-G16R

 Normal termination of Gaussian 16 at Tue Apr  8 23:54:26 2025.
