 Gaussian 16, Revision C.01,

 ----------------------------------------------------------------------
 #t hf aug-cc-pvdz symm=none int=(grid=ultrafine) guess=(read,tcheck) s
 table=(opt,rrhf)
 ----------------------------------------------------------------------
 -----
 title
 -----
 Symbolic Z-matrix:
 Charge =  0 Multiplicity = 1

 SCF Done:  E(RHF) =  -749.703521220     A.U. after   12 cycles
 Normal termination of Gaussian 16 at Tue Apr  8 23:42:34 2025.
 Gaussian 16:  ES64L-G16RevC.01  3-Jul-2019

 ----------------------------------------------------------------------
 #t hf aug-cc-pvdz iop(5/13=1,5/36=2,99/5=2) pseudo=read geom=check gue
 ss=(read,tcheck) scf=(maxcycle=1)
 ----------------------------------------------------------------------
 -----
 title
 -----
 Structure from the checkpoint file:  "BDE49_nonexpt_1667_mol1.chk"
 Charge =  0 Multiplicity = 1

                         Standard orientation:
 ---------------------------------------------------------------------
 Center     Atomic      Atomic             Coordinates (Angstroms)
 Number     Number       Type             X           Y           Z
 ---------------------------------------------------------------------
      1         15           0        0.830561    0.130263   -0.640708
      2          6           0        1.100236    1.640814    0.428447
      3          1           0        1.042225    1.429749    1.499585
      4          1           0        0.359665    2.403309    0.176429
      5          1           0        2.086825    2.055931    0.206661
      6         14           0       -1.097645   -0.653695    0.279475
      7          6           0        2.039810   -1.053799    0.153073
      8          1           0        3.056303   -0.728380   -0.082788
      9          1           0        1.903289   -2.049921   -0.273644
     10          1           0        1.935845   -1.116687    1.239505
     11          6           0       -2.568326    0.420178   -0.200205
     12          1           0       -2.455680    1.439333    0.179158
     13          1           0       -3.494311    0.010212    0.212488
     14          1           0       -2.674669    0.472074   -1.286746
     15          1           0       -0.987986   -0.723244    1.763777
     16          1           0       -1.293206   -2.037747   -0.224346
 ---------------------------------------------------------------------

 SCF Done:  E(RHF) =  -750.702697882     A.U. after    2 cycles

 The electronic state is 1-A.
 Alpha  occ. eigenvalues -- -105.14741 -76.20900 -11.37003 -11.36919 -11.35100
 Alpha  occ. eigenvalues --   -5.54528  -2.73084  -2.18044  -2.16635  -2.16419
 Alpha  occ. eigenvalues --   -1.45558  -1.44481  -1.40758  -1.04407  -1.02525
 Alpha  occ. eigenvalues --   -0.96485  -0.72837  -0.61508  -0.57141  -0.56730
 Alpha  occ. eigenvalues --   -0.56140  -0.55513  -0.55313  -0.54540  -0.46188
 Alpha  occ. eigenvalues --   -0.42259  -0.20304  -0.13787  -0.01190
 Alpha virt. eigenvalues --    0.04146   0.04716   0.05717   0.06264   0.06576
 Alpha virt. eigenvalues --    0.06756   0.07192   0.07390   0.07941   0.08250
 Alpha virt. eigenvalues --    0.08838   0.09585   0.09744   0.10997   0.11897

 Mulliken charges:
               1
     1  P    5.209431
     2  C   -6.025501
     3  H    1.204230
     4  H    1.092249
     5  H    1.207928
     6  Si   4.895038
     7  C   -5.978492
     8  H    1.094036
     9  H    1.164731
    10  H    1.244952
    11  C   -4.982485
    12  H    1.479673
    13  H    1.120964
    14  H    1.147065
    15  H   -1.728582
    16  H   -2.145237
 Sum of Mulliken charges =  -0.00000

 Dipole moment (field-independent basis, Debye):
    X=              2.4113    Y=              1.5999    Z=             -3.4191  Tot=              4.4793

 Test job not archived.
 1\1\GINC-SE334\SP\RHF\Aug-CC-pVDZ\C3H11P1Si1\OHZDE\08-Apr-2025\0\\#t h
 f aug-cc-pvdz iop(5/13=1,5/36=2,99/5=2) pseudo=read geom=check guess=(
 read,tcheck) scf=(maxcycle=1)\\title\\0,1\P,0,0.830561,0.130263,-0.640
 708\C,0,1.100236,1.640814,0.428447\H,0,1.042225,1.429749,1.499585\H,0,
 0.359665,2.403309,0.176429\H,0,2.086825,2.055931,0.206661\Si,0,-1.0976
 45,-0.653695,0.279475\C,0,2.03981,-1.053799,0.153073\H,0,3.056303,-0.7
 2838,-0.082788\H,0,1.903289,-2.049921,-0.273644\H,0,1.935845,-1.116687
 ,1.239505\C,0,-2.568326,0.420178,-0.200205\H,0,-2.45568,1.439333,0.179

 Normal termination of Gaussian 16 at Tue Apr  8 23:42:38 2025.
