 Gaussian 16, Revision C.01,

 ----------------------------------------------------------------------
 #t hf aug-cc-pvdz symm=none int=(grid=ultrafine) guess=(read,tcheck) s
 table=opt
 ----------------------------------------------------------------------
 -----
 title
 -----
 Symbolic Z-matrix:
 Charge =  0 Multiplicity = 2

 SCF Done:  E(UHF) =  -426.307249356     A.U. after   19 cycles
 Normal termination of Gaussian 16 at Wed Apr  9 00:34:03 2025.
 Gaussian 16:  ES64L-G16RevC.01  3-Jul-2019

 ----------------------------------------------------------------------
 #t hf aug-cc-pvdz iop(5/13=1,5/36=2,99/5=2) pseudo=read geom=check gue
 ss=(read,tcheck) scf=(maxcycle=1)
 ----------------------------------------------------------------------
 -----
 title
 -----
 Structure from the checkpoint file:  "BDE49_nonexpt_420_mol2.chk"
 Charge =  0 Multiplicity = 2

                         Standard orientation:
 ---------------------------------------------------------------------
 Center     Atomic      Atomic             Coordinates (Angstroms)
 Number     Number       Type             X           Y           Z
 ---------------------------------------------------------------------
      1          9           0       -2.984105   -0.363892   -0.021826
      2          5           0       -1.703577   -0.462358    0.260138
      3          8           0       -0.866130    0.530800   -0.146843
      4          6           0        0.497242    0.514871   -0.026990
      5          8           0        1.140044    1.512610    0.079717
      6          8           0        0.957078   -0.736435   -0.086619
      7          6           0        2.390821   -0.869068    0.023584
      8          1           0        2.881609   -0.323588   -0.782607
      9          1           0        2.584852   -1.935499   -0.056378
     10          1           0        2.732057   -0.484716    0.985127
 ---------------------------------------------------------------------

 SCF Done:  E(UHF) =  -427.973136972     A.U. after    2 cycles

 The electronic state is 2-A.
 Alpha  occ. eigenvalues --  -29.27159 -21.12450 -21.10101 -21.07489 -11.56842
 Alpha  occ. eigenvalues --  -11.43843  -7.72886  -1.94502  -1.77886  -1.69606
 Alpha  occ. eigenvalues --   -1.05993  -0.98638  -0.78447  -0.71622  -0.68039
 Alpha  occ. eigenvalues --   -0.65350  -0.60651  -0.57968  -0.52310  -0.50134
 Alpha  occ. eigenvalues --   -0.48461  -0.46198  -0.40382  -0.37392  -0.35294
 Alpha  occ. eigenvalues --   -0.32332  -0.23829
 Alpha virt. eigenvalues --    0.03132   0.04058   0.04442   0.05946   0.05997
 Alpha virt. eigenvalues --    0.06565   0.08856   0.12272   0.12767   0.13007
 Alpha virt. eigenvalues --    0.14175   0.14680   0.15525   0.16011   0.17189

  Beta  occ. eigenvalues --  -29.26845 -21.12421 -21.09851 -21.07493 -11.56839
  Beta  occ. eigenvalues --  -11.43845  -7.70650  -1.94169  -1.77431  -1.69542
  Beta  occ. eigenvalues --   -1.05658  -0.96173  -0.77594  -0.71001  -0.67452
  Beta  occ. eigenvalues --   -0.64515  -0.60333  -0.57506  -0.50726  -0.47736
  Beta  occ. eigenvalues --   -0.46007  -0.41897  -0.38932  -0.37554  -0.35205
  Beta  occ. eigenvalues --   -0.32137
  Beta virt. eigenvalues --    0.02928   0.04112   0.04581   0.05362   0.05973
  Beta virt. eigenvalues --    0.06243   0.07478   0.10107   0.12588   0.12931
  Beta virt. eigenvalues --    0.14329   0.15147   0.15615   0.15918   0.17039

 Mulliken charges and spin densities:
               1          2
     1  F   -0.651015  -0.120190
     2  B    1.458139   1.318663
     3  O   -3.526810  -0.209955
     4  C    6.721250   0.047756
     5  O   -2.563536  -0.017937
     6  O   -2.593529   0.011850
     7  C   -2.807504  -0.026735
     8  H    1.294270   0.002027
     9  H    1.350727  -0.002857
    10  H    1.318009  -0.002623
 Sum of Mulliken charges =  -0.00000   1.00000

 Dipole moment (field-independent basis, Debye):
    X=             -1.5161    Y=             -1.5635    Z=             -0.6266  Tot=              2.2662
                          Isotropic Fermi Contact Couplings
        Atom                 a.u.       MegaHertz       Gauss      10(-4) cm-1
     1  F(19)              0.11151     469.15487     167.40612     156.49322
     2  B(11)              0.29166     418.35311     149.27879     139.54758
     3  O(17)              0.08110     -49.16397     -17.54293     -16.39933
     4  C(13)              0.00121       1.35623       0.48394       0.45239
     5  O(17)              0.00216      -1.30812      -0.46677      -0.43634
     6  O(17)              0.00943      -5.71559      -2.03946      -1.90651
     7  C(13)             -0.00024      -0.27453      -0.09796      -0.09157
     8  H(1)               0.00022       0.99427       0.35478       0.33165

 Normal termination of Gaussian 16 at Wed Apr  9 00:34:07 2025.
