 Gaussian 16, Revision C.01,

 ----------------------------------------------------------------------
 #t hf aug-cc-pvdz symm=none int=(grid=ultrafine) guess=(read,tcheck) s
 table=(opt,rrhf)
 ----------------------------------------------------------------------
 -----
 title
 -----
 Symbolic Z-matrix:
 Charge =  0 Multiplicity = 1

 SCF Done:  E(RHF) =  -867.353966514     A.U. after   12 cycles
 Normal termination of Gaussian 16 at Tue Apr  8 23:44:29 2025.
 Gaussian 16:  ES64L-G16RevC.01  3-Jul-2019

 ----------------------------------------------------------------------
 #t hf aug-cc-pvdz iop(5/13=1,5/36=2,99/5=2) pseudo=read geom=check gue
 ss=(read,tcheck) scf=(maxcycle=1)
 ----------------------------------------------------------------------
 -----
 title
 -----
 Structure from the checkpoint file:  "BDE49_nonexpt_1729_mol1.chk"
 Charge =  0 Multiplicity = 1

                         Standard orientation:
 ---------------------------------------------------------------------
 Center     Atomic      Atomic             Coordinates (Angstroms)
 Number     Number       Type             X           Y           Z
 ---------------------------------------------------------------------
      1         14           0       -0.918808    0.922580    0.137009
      2          6           0        0.854799    0.684071   -0.412365
      3          6           0        1.672677   -0.340214    0.395646
      4         17           0       -1.994915   -0.859141   -0.084462
      5          6           0        3.118918   -0.468060   -0.093700
      6          1           0        3.647354    0.487535   -0.020945
      7          1           0        3.153520   -0.787492   -1.139686
      8          1           0        3.673325   -1.202056    0.497526
      9          1           0        1.331027    1.673526   -0.357755
     10          1           0        0.848734    0.411788   -1.474836
     11          1           0        1.183837   -1.318331    0.343106
     12          1           0        1.671699   -0.056040    1.454143
     13          1           0       -1.605563    1.937811   -0.687866
     14          1           0       -1.005435    1.287763    1.566553
 ---------------------------------------------------------------------

 SCF Done:  E(RHF) =  -868.384015449     A.U. after    2 cycles

 The electronic state is 1-A.
 Alpha  occ. eigenvalues --  -99.87519 -76.25149 -11.41918 -11.38073 -11.35155
 Alpha  occ. eigenvalues --  -10.44906  -9.64817  -9.64242  -9.64153  -5.58740
 Alpha  occ. eigenvalues --   -2.22500  -2.20915  -2.20656  -1.28082  -1.21135
 Alpha  occ. eigenvalues --   -1.00714  -0.85801  -0.75661  -0.64645  -0.58451
 Alpha  occ. eigenvalues --   -0.56134  -0.55814  -0.53599  -0.53016  -0.50883
 Alpha  occ. eigenvalues --   -0.47753  -0.47154  -0.45437  -0.39492
 Alpha virt. eigenvalues --    0.03714   0.04851   0.05453   0.05678   0.06066
 Alpha virt. eigenvalues --    0.06180   0.06484   0.06703   0.08761   0.09804
 Alpha virt. eigenvalues --    0.09866   0.10330   0.12027   0.13349   0.14035

 Mulliken charges:
               1
     1  Si   5.405588
     2  C   -3.849310
     3  C   -2.762112
     4  Cl  -0.882263
     5  C   -3.628193
     6  H    1.268532
     7  H    1.252103
     8  H    1.154395
     9  H    1.502621
    10  H    1.465217
    11  H    1.382616
    12  H    1.490997
    13  H   -1.883509
    14  H   -1.916683
 Sum of Mulliken charges =   0.00000

 Dipole moment (field-independent basis, Debye):
    X=              1.9761    Y=              1.0407    Z=             -0.0539  Tot=              2.2341

 Test job not archived.
 1\1\GINC-SE461\SP\RHF\Aug-CC-pVDZ\C3H9Cl1Si1\OHZDE\08-Apr-2025\0\\#t h
 f aug-cc-pvdz iop(5/13=1,5/36=2,99/5=2) pseudo=read geom=check guess=(
 read,tcheck) scf=(maxcycle=1)\\title\\0,1\Si,0,-0.918808,0.92258,0.137
 009\C,0,0.854799,0.684071,-0.412365\C,0,1.672677,-0.340214,0.395646\Cl
 ,0,-1.994915,-0.859141,-0.084462\C,0,3.118918,-0.46806,-0.0937\H,0,3.6
 47354,0.487535,-0.020945\H,0,3.15352,-0.787492,-1.139686\H,0,3.673325,
 -1.202056,0.497526\H,0,1.331027,1.673526,-0.357755\H,0,0.848734,0.4117
 88,-1.474836\H,0,1.183837,-1.318331,0.343106\H,0,1.671699,-0.05604,1.4

 Normal termination of Gaussian 16 at Tue Apr  8 23:44:33 2025.
