 Gaussian 16, Revision C.01,

 ----------------------------------------------------------------------
 #t hf aug-cc-pvdz symm=none int=(grid=ultrafine) guess=(read,tcheck) s
 table=(opt,rrhf)
 ----------------------------------------------------------------------
 -----
 title
 -----
 Symbolic Z-matrix:
 Charge =  0 Multiplicity = 1

 SCF Done:  E(RHF) =  -443.485599286     A.U. after   14 cycles
 Normal termination of Gaussian 16 at Tue Apr  8 22:43:14 2025.
 Gaussian 16:  ES64L-G16RevC.01  3-Jul-2019

 ----------------------------------------------------------------------
 #t hf aug-cc-pvdz iop(5/13=1,5/36=2,99/5=2) pseudo=read geom=check gue
 ss=(read,tcheck) scf=(maxcycle=1)
 ----------------------------------------------------------------------
 -----
 title
 -----
 Structure from the checkpoint file:  "BDE49_expt_1400_mol1.chk"
 Charge =  0 Multiplicity = 1

                         Standard orientation:
 ---------------------------------------------------------------------
 Center     Atomic      Atomic             Coordinates (Angstroms)
 Number     Number       Type             X           Y           Z
 ---------------------------------------------------------------------
      1          6           0        0.424763   -1.785341    0.000000
      2          6           0        1.519200   -0.929273    0.000000
      3          6           0        1.303278    0.440719    0.000000
      4          6           0       -0.869916   -1.302272    0.000000
      5          6           0       -1.087514    0.077605    0.000000
      6          6           0        0.000000    0.954743    0.000000
      7          9           0        0.635106   -3.124082    0.000000
      8          1           0        2.520786   -1.341034    0.000000
      9          1           0        2.132511    1.137122    0.000000
     10          1           0       -1.700452   -1.997182    0.000000
     11          1           0       -2.103646    0.447177    0.000000
     12          8           0       -0.098830    2.316117    0.000000
     13          6           0       -1.392660    2.898769    0.000000
     14          1           0       -1.234594    3.976043    0.000000
     15          1           0       -1.961412    2.617986    0.894082
     16          1           0       -1.961412    2.617986   -0.894082
 ---------------------------------------------------------------------

 SCF Done:  E(RHF) =  -445.421816371     A.U. after    2 cycles

 The electronic state is 1-A'.
 Alpha  occ. eigenvalues --  -29.27637 -21.07794 -11.54205 -11.47602 -11.44934
 Alpha  occ. eigenvalues --  -11.43573 -11.41954 -11.41159 -11.37956  -1.79193
 Alpha  occ. eigenvalues --   -1.35350  -1.13592  -1.11397  -1.01008  -0.90046
 Alpha  occ. eigenvalues --   -0.87392  -0.76622  -0.67773  -0.64949  -0.62896
 Alpha  occ. eigenvalues --   -0.62555  -0.59528  -0.56395  -0.55230  -0.51206
 Alpha  occ. eigenvalues --   -0.47498  -0.46483  -0.39918  -0.37865  -0.34700
 Alpha  occ. eigenvalues --   -0.32826  -0.26737  -0.20470
 Alpha virt. eigenvalues --    0.03367   0.04796   0.05418   0.06121   0.06251
 Alpha virt. eigenvalues --    0.06788   0.07938   0.09173   0.10665   0.11587
 Alpha virt. eigenvalues --    0.12645   0.12767   0.13506   0.13855   0.13976

 Mulliken charges:
               1
     1  C    2.910231
     2  C   -3.752641
     3  C   -2.008995
     4  C   -3.521390
     5  C   -1.614533
     6  C    4.646516
     7  F    0.604500
     8  H    1.684378
     9  H    1.812013
    10  H    1.670195
    11  H    1.834371
    12  O   -4.727764
    13  C   -3.662391
    14  H    1.397572
    15  H    1.363968
    16  H    1.363968
 Sum of Mulliken charges =  -0.00000

 Dipole moment (field-independent basis, Debye):
    X=             -0.2905    Y=             -0.8184    Z=              0.0000  Tot=              0.8685

 Test job not archived.
 1\1\GINC-SE457\SP\RHF\Aug-CC-pVDZ\C7H7F1O1\OHZDE\08-Apr-2025\0\\#t hf
 aug-cc-pvdz iop(5/13=1,5/36=2,99/5=2) pseudo=read geom=check guess=(re
 ad,tcheck) scf=(maxcycle=1)\\title\\0,1\C,0,-0.424763,-1.785341,0.\C,0
 ,-1.5192,-0.929273,0.\C,0,-1.303278,0.440719,0.\C,0,0.869916,-1.302272
 ,0.\C,0,1.087514,0.077605,0.\C,0,0.,0.954743,0.\F,0,-0.635106,-3.12408
 2,0.\H,0,-2.520786,-1.341034,0.\H,0,-2.132511,1.137122,0.\H,0,1.700452
 ,-1.997182,0.\H,0,2.103646,0.447177,0.\O,0,0.09883,2.316117,0.\C,0,1.3
 9266,2.898769,0.\H,0,1.234594,3.976043,0.\H,0,1.961412,2.617986,-0.894

 Normal termination of Gaussian 16 at Tue Apr  8 22:43:20 2025.
