 Gaussian 16, Revision C.01,

 ----------------------------------------------------------------------
 #t hf aug-cc-pvdz symm=none int=(grid=ultrafine) guess=(read,tcheck) s
 table=opt
 ----------------------------------------------------------------------
 -----
 title
 -----
 Symbolic Z-matrix:
 Charge =  0 Multiplicity = 2

 SCF Done:  E(UHF) =  -931.598118526     A.U. after   15 cycles
 Normal termination of Gaussian 16 at Tue Apr  8 23:58:10 2025.
 Gaussian 16:  ES64L-G16RevC.01  3-Jul-2019

 ----------------------------------------------------------------------
 #t hf aug-cc-pvdz iop(5/13=1,5/36=2,99/5=2) pseudo=read geom=check gue
 ss=(read,tcheck) scf=(maxcycle=1)
 ----------------------------------------------------------------------
 -----
 title
 -----
 Structure from the checkpoint file:  "BDE49_nonexpt_2040_mol2.chk"
 Charge =  0 Multiplicity = 2

                         Standard orientation:
 ---------------------------------------------------------------------
 Center     Atomic      Atomic             Coordinates (Angstroms)
 Number     Number       Type             X           Y           Z
 ---------------------------------------------------------------------
      1         14           0        2.275307   -0.093358    0.057868
      2         15           0       -0.720424    0.006121    0.106279
      3          8           0       -0.811017    0.020626    1.567583
      4          8           0       -1.674856   -1.059626   -0.607125
      5          1           0       -1.893462   -1.783944   -0.009075
      6          8           0       -1.074923    1.357815   -0.659183
      7          1           0       -1.841806    1.799307   -0.275399
      8          8           0        0.704044   -0.294484   -0.504171
      9          1           0        2.416315    1.261440    0.649201
     10          1           0        3.125024   -0.256256   -1.145891
 ---------------------------------------------------------------------

 SCF Done:  E(UHF) =  -933.166475032     A.U. after    2 cycles

 The electronic state is 2-A.
 Alpha  occ. eigenvalues -- -105.33271 -76.27476 -21.12349 -21.12157 -21.09307
 Alpha  occ. eigenvalues --  -21.02950  -5.60701  -2.96789  -2.26427  -2.22306
 Alpha  occ. eigenvalues --   -2.21284  -2.01027  -1.93136  -1.91854  -1.74917
 Alpha  occ. eigenvalues --   -1.41348  -1.40607  -1.25879  -0.77368  -0.68283
 Alpha  occ. eigenvalues --   -0.61450  -0.56276  -0.53023  -0.50546  -0.47268
 Alpha  occ. eigenvalues --   -0.45341  -0.39995  -0.35492  -0.34942  -0.31224
 Alpha  occ. eigenvalues --   -0.30350  -0.28398  -0.17324
 Alpha virt. eigenvalues --    0.03681   0.04933   0.05862   0.06422   0.07571
 Alpha virt. eigenvalues --    0.08179   0.09541   0.11475   0.11808   0.12810
 Alpha virt. eigenvalues --    0.14203   0.14580   0.16943   0.17664   0.17793

  Beta  occ. eigenvalues -- -105.33274 -76.26916 -21.12344 -21.12161 -21.09035
  Beta  occ. eigenvalues --  -21.02957  -5.59795  -2.96790  -2.25777  -2.21713
  Beta  occ. eigenvalues --   -2.17852  -2.00967  -1.93024  -1.91762  -1.74770
  Beta  occ. eigenvalues --   -1.41339  -1.40315  -1.25820  -0.74370  -0.66803
  Beta  occ. eigenvalues --   -0.61398  -0.56038  -0.52158  -0.48514  -0.46512
  Beta  occ. eigenvalues --   -0.45111  -0.39743  -0.35299  -0.34924  -0.31001
  Beta  occ. eigenvalues --   -0.29670  -0.17443
  Beta virt. eigenvalues --    0.03265   0.04041   0.05273   0.05874   0.06640
  Beta virt. eigenvalues --    0.08341   0.09451   0.10246   0.11538   0.11936
  Beta virt. eigenvalues --    0.13540   0.14560   0.15263   0.18042   0.19169

 Mulliken charges and spin densities:
               1          2
     1  Si   4.265686   0.972361
     2  P    8.552362   0.011134
     3  O   -2.711574  -0.002563
     4  O   -2.516004   0.003003
     5  H    0.818043  -0.001106
     6  O   -2.551972   0.004444
     7  H    0.833282   0.001091
     8  O   -3.778874  -0.044591
     9  H   -1.389113   0.036214
    10  H   -1.521836   0.020014
 Sum of Mulliken charges =   0.00000   1.00000

 Dipole moment (field-independent basis, Debye):
    X=             -0.6027    Y=             -0.4992    Z=             -2.2363  Tot=              2.3693
                          Isotropic Fermi Contact Couplings
        Atom                 a.u.       MegaHertz       Gauss      10(-4) cm-1
     1  Si(29)             0.58956    -523.95602    -186.96054    -174.77292
     2  P(31)             -0.00271      -4.90342      -1.74966      -1.63560
     3  O(17)              0.00025      -0.15224      -0.05432      -0.05078
     4  O(17)             -0.00049       0.29979       0.10697       0.10000
     5  H(1)               0.00001       0.05767       0.02058       0.01924
     6  O(17)              0.00052      -0.31393      -0.11202      -0.10472
     7  H(1)               0.00021       0.94002       0.33542       0.31356
     8  O(17)              0.03020     -18.30701      -6.53240      -6.10656

 Normal termination of Gaussian 16 at Tue Apr  8 23:58:15 2025.
