 Gaussian 16, Revision C.01,

 ----------------------------------------------------------------------
 #t hf aug-cc-pvdz symm=none int=(grid=ultrafine) guess=(read,tcheck) s
 table=(opt,rrhf)
 ----------------------------------------------------------------------
 -----
 title
 -----
 Symbolic Z-matrix:
 Charge =  0 Multiplicity = 1

 SCF Done:  E(RHF) =  -733.358840192     A.U. after   12 cycles
 Normal termination of Gaussian 16 at Tue Apr  8 22:51:00 2025.
 Gaussian 16:  ES64L-G16RevC.01  3-Jul-2019

 ----------------------------------------------------------------------
 #t hf aug-cc-pvdz iop(5/13=1,5/36=2,99/5=2) pseudo=read geom=check gue
 ss=(read,tcheck) scf=(maxcycle=1)
 ----------------------------------------------------------------------
 -----
 title
 -----
 Structure from the checkpoint file:  "BDE49_expt_1662_mol1.chk"
 Charge =  0 Multiplicity = 1

                         Standard orientation:
 ---------------------------------------------------------------------
 Center     Atomic      Atomic             Coordinates (Angstroms)
 Number     Number       Type             X           Y           Z
 ---------------------------------------------------------------------
      1          6           0       -2.868895    0.702504    0.395243
      2          6           0       -1.508026    1.075400   -0.171927
      3          1           0       -3.641300    1.403574    0.084358
      4          1           0       -2.855707    0.639924    1.483163
      5         17           0       -3.443901   -0.931288   -0.181841
      6          6           0       -0.345986    0.206275    0.318556
      7          1           0       -1.327549    2.120924    0.113271
      8          1           0       -1.558421    1.056549   -1.265567
      9          6           0        1.008310    0.638208   -0.255079
     10          1           0       -0.538394   -0.838077    0.052651
     11          1           0       -0.305822    0.243822    1.414855
     12          6           0        2.178903   -0.223066    0.231866
     13          1           0        1.198097    1.687432    0.006401
     14          1           0        0.964056    0.601079   -1.351030
     15          6           0        3.534893    0.201956   -0.343180
     16          1           0        1.988949   -1.272090   -0.028813
     17          1           0        2.224620   -0.186513    1.328061
     18          6           0        4.698668   -0.663441    0.148535
     19          1           0        3.724334    1.250509   -0.083091
     20          1           0        3.489412    0.164364   -1.438308
     21          1           0        4.792112   -0.618693    1.238129
     22          1           0        5.649648   -0.335123   -0.279644
     23          1           0        4.555070   -1.712798   -0.127227
 ---------------------------------------------------------------------

 SCF Done:  E(RHF) =  -735.043009900     A.U. after    2 cycles

 The electronic state is 1-A.
 Alpha  occ. eigenvalues --  -99.86910 -11.45592 -11.42674 -11.41978 -11.40178
 Alpha  occ. eigenvalues --  -11.37884 -11.36208 -11.34184 -10.44148  -9.64059
 Alpha  occ. eigenvalues --   -9.63459  -9.63319  -1.33772  -1.26076  -1.17285
 Alpha  occ. eigenvalues --   -1.07724  -0.98167  -0.89557  -0.83676  -0.82182
 Alpha  occ. eigenvalues --   -0.67549  -0.64928  -0.63755  -0.59869  -0.58927
 Alpha  occ. eigenvalues --   -0.57262  -0.54181  -0.53000  -0.51332  -0.49527
 Alpha  occ. eigenvalues --   -0.47630  -0.47067  -0.46057  -0.45283  -0.45051
 Alpha  occ. eigenvalues --   -0.44359  -0.38750
 Alpha virt. eigenvalues --    0.03836   0.04438   0.04757   0.05397   0.05515
 Alpha virt. eigenvalues --    0.05962   0.06275   0.06897   0.07114   0.07481
 Alpha virt. eigenvalues --    0.07892   0.07987   0.09126   0.10160   0.10709

 Mulliken charges:
               1
     1  C   -4.671305
     2  C   -2.736215
     3  H    1.418485
     4  H    1.710350
     5  Cl   0.082025
     6  C   -2.506792
     7  H    1.403524
     8  H    1.496307
     9  C   -1.980426
    10  H    1.542272
    11  H    1.517458
    12  C   -2.401126
    13  H    1.554563
    14  H    1.604971
    15  C   -3.268516
    16  H    1.575390
    17  H    1.558151
    18  C   -4.587086
    19  H    1.464563
    20  H    1.459936
    21  H    1.342245
    22  H    1.082423
    23  H    1.338803
 Sum of Mulliken charges =   0.00000

 Dipole moment (field-independent basis, Debye):
    X=              1.2568    Y=              2.1635    Z=              0.5858  Tot=              2.5697

 Test job not archived.
 1\1\GINC-SE051\SP\RHF\Aug-CC-pVDZ\C7H15Cl1\OHZDE\08-Apr-2025\0\\#t hf
 aug-cc-pvdz iop(5/13=1,5/36=2,99/5=2) pseudo=read geom=check guess=(re
 ad,tcheck) scf=(maxcycle=1)\\title\\0,1\C,0,-2.868895,0.702504,0.39524
 3\C,0,-1.508026,1.0754,-0.171927\H,0,-3.6413,1.403574,0.084358\H,0,-2.
 855707,0.639924,1.483163\Cl,0,-3.443901,-0.931288,-0.181841\C,0,-0.345
 986,0.206275,0.318556\H,0,-1.327549,2.120924,0.113271\H,0,-1.558421,1.
 056549,-1.265567\C,0,1.00831,0.638208,-0.255079\H,0,-0.538394,-0.83807
 7,0.052651\H,0,-0.305822,0.243822,1.414855\C,0,2.178903,-0.223066,0.23

 Normal termination of Gaussian 16 at Tue Apr  8 22:51:11 2025.
