 Gaussian 16, Revision C.01,

 ----------------------------------------------------------------------
 #t hf aug-cc-pvdz symm=none int=(grid=ultrafine) guess=(read,tcheck) s
 table=(opt,rrhf)
 ----------------------------------------------------------------------
 -----
 title
 -----
 Symbolic Z-matrix:
 Charge =  0 Multiplicity = 1

 SCF Done:  E(RHF) =  -995.799856954     A.U. after   13 cycles
 Normal termination of Gaussian 16 at Tue Apr  8 23:48:29 2025.
 Gaussian 16:  ES64L-G16RevC.01  3-Jul-2019

 ----------------------------------------------------------------------
 #t hf aug-cc-pvdz iop(5/13=1,5/36=2,99/5=2) pseudo=read geom=check gue
 ss=(read,tcheck) scf=(maxcycle=1)
 ----------------------------------------------------------------------
 -----
 title
 -----
 Structure from the checkpoint file:  "BDE49_nonexpt_1791_mol1.chk"
 Charge =  0 Multiplicity = 1

                         Standard orientation:
 ---------------------------------------------------------------------
 Center     Atomic      Atomic             Coordinates (Angstroms)
 Number     Number       Type             X           Y           Z
 ---------------------------------------------------------------------
      1          6           0       -2.360075    1.140462   -0.216117
      2          6           0       -1.020345    1.193992    0.161620
      3          7           0       -3.030155   -0.000014   -0.404790
      4          6           0       -2.360064   -1.140479   -0.216078
      5          6           0       -1.020335   -1.193984    0.161661
      6          6           0       -0.314432    0.000011    0.358690
      7          1           0       -2.922543    2.056816   -0.372831
      8          1           0       -0.543471    2.158536    0.299722
      9          1           0       -2.922525   -2.056843   -0.372762
     10          1           0       -0.543451   -2.158519    0.299794
     11         14           0        1.484512    0.000028    0.865206
     12         17           0        2.718145   -0.000023   -0.817024
     13          1           0        1.801475   -1.221231    1.628773
     14          1           0        1.801471    1.221335    1.628698
 ---------------------------------------------------------------------

 SCF Done:  E(RHF) =  -997.354520213     A.U. after    2 cycles

 The electronic state is 1-A.
 Alpha  occ. eigenvalues --  -99.88666 -76.27142 -15.75111 -11.48921 -11.45749
 Alpha  occ. eigenvalues --  -11.43897 -11.42586 -11.38654 -10.46051  -9.65963
 Alpha  occ. eigenvalues --   -9.65346  -9.65314  -5.60731  -2.25127  -2.23603
 Alpha  occ. eigenvalues --   -2.22802  -1.45487  -1.29061  -1.19816  -1.12296
 Alpha  occ. eigenvalues --   -0.90127  -0.90087  -0.79630  -0.69849  -0.66116
 Alpha  occ. eigenvalues --   -0.61804  -0.60196  -0.56815  -0.55595  -0.54433
 Alpha  occ. eigenvalues --   -0.54295  -0.48908  -0.47409  -0.46558  -0.38732
 Alpha  occ. eigenvalues --   -0.35777  -0.34997
 Alpha virt. eigenvalues --    0.02918   0.04913   0.05086   0.05322   0.05805
 Alpha virt. eigenvalues --    0.06590   0.07978   0.08164   0.08209   0.09262
 Alpha virt. eigenvalues --    0.09853   0.10867   0.11580   0.12022   0.12881

 Mulliken charges:
               1
     1  C   -0.898716
     2  C   -1.013964
     3  N   -3.463532
     4  C   -0.898721
     5  C   -1.013938
     6  C    0.350081
     7  H    1.517752
     8  H    1.708161
     9  H    1.517749
    10  H    1.708159
    11  Si   4.814431
    12  Cl  -0.951327
    13  H   -1.688066
    14  H   -1.688069
 Sum of Mulliken charges =  -0.00000

 Dipole moment (field-independent basis, Debye):
    X=             -0.3993    Y=              0.0000    Z=              1.2952  Tot=              1.3553

 Test job not archived.
 1\1\GINC-SE097\SP\RHF\Aug-CC-pVDZ\C5H6Cl1N1Si1\OHZDE\08-Apr-2025\0\\#t
  hf aug-cc-pvdz iop(5/13=1,5/36=2,99/5=2) pseudo=read geom=check guess
 =(read,tcheck) scf=(maxcycle=1)\\title\\0,1\C,0,-2.360075,1.140462,-0.
 216117\C,0,-1.020345,1.193992,0.16162\N,0,-3.030155,-0.000014,-0.40479
 \C,0,-2.360064,-1.140479,-0.216078\C,0,-1.020335,-1.193984,0.161661\C,
 0,-0.314432,0.000011,0.35869\H,0,-2.922543,2.056816,-0.372831\H,0,-0.5
 43471,2.158536,0.299722\H,0,-2.922525,-2.056843,-0.372762\H,0,-0.54345
 1,-2.158519,0.299794\Si,0,1.484512,0.000028,0.865206\Cl,0,2.718145,-0.

 Normal termination of Gaussian 16 at Tue Apr  8 23:48:35 2025.
