 Gaussian 16, Revision C.01,

 ----------------------------------------------------------------------
 #t hf aug-cc-pvdz symm=none int=(grid=ultrafine) guess=(read,tcheck) s
 table=(opt,rrhf)
 ----------------------------------------------------------------------
 -----
 title
 -----
 Symbolic Z-matrix:
 Charge =  0 Multiplicity = 1

 SCF Done:  E(RHF) =  -2004.34786218     A.U. after   12 cycles
 Normal termination of Gaussian 16 at Tue Apr  8 23:48:17 2025.
 Gaussian 16:  ES64L-G16RevC.01  3-Jul-2019

 ----------------------------------------------------------------------
 #t hf aug-cc-pvdz iop(5/13=1,5/36=2,99/5=2) pseudo=read geom=check gue
 ss=(read,tcheck) scf=(maxcycle=1)
 ----------------------------------------------------------------------
 -----
 title
 -----
 Structure from the checkpoint file:  "BDE49_nonexpt_1801_mol1.chk"
 Charge =  0 Multiplicity = 1

                         Standard orientation:
 ---------------------------------------------------------------------
 Center     Atomic      Atomic             Coordinates (Angstroms)
 Number     Number       Type             X           Y           Z
 ---------------------------------------------------------------------
      1         14           0        0.001212    0.000000    0.000000
      2         16           0        1.303474    1.514995   -0.749177
      3         17           0       -1.251717    0.800096    1.441733
      4         17           0       -1.251536   -0.800378   -1.441733
      5          1           0        0.410551    2.507716   -0.580283
      6         16           0        1.303817   -1.514700    0.749177
      7          1           0        0.411119   -2.507623    0.580282
 ---------------------------------------------------------------------

 SCF Done:  E(RHF) =  -2005.42654870     A.U. after    2 cycles

 The electronic state is 1-A.
 Alpha  occ. eigenvalues --  -99.90734 -99.90733 -76.35374 -75.71609 -75.71544
 Alpha  occ. eigenvalues --  -13.16460 -13.16223 -13.09843 -13.09468 -13.06185
 Alpha  occ. eigenvalues --  -13.05216 -10.48169 -10.48149  -9.68019  -9.68011
 Alpha  occ. eigenvalues --   -9.67501  -9.67406  -9.67381  -9.67307  -8.05652
 Alpha  occ. eigenvalues --   -8.05608  -5.68816  -2.30371  -2.30336  -2.29444
 Alpha  occ. eigenvalues --   -1.33397  -1.29672  -1.15115  -1.11624  -0.76536
 Alpha  occ. eigenvalues --   -0.61003  -0.59976  -0.57760  -0.56833  -0.54457
 Alpha  occ. eigenvalues --   -0.52712  -0.50654  -0.42540  -0.35950  -0.30938
 Alpha  occ. eigenvalues --   -0.29917
 Alpha virt. eigenvalues --    0.01602   0.03939   0.04920   0.05414   0.06550
 Alpha virt. eigenvalues --    0.08439   0.08868   0.09403   0.11403   0.11550
 Alpha virt. eigenvalues --    0.12490   0.13192   0.13394   0.13977   0.14374

 Mulliken charges:
               1
     1  Si   4.103642
     2  S   -2.091272
     3  Cl  -0.862729
     4  Cl  -0.862729
     5  H    0.902179
     6  S   -2.091272
     7  H    0.902179
 Sum of Mulliken charges =  -0.00000

 Dipole moment (field-independent basis, Debye):
    X=              5.4196    Y=              0.0006    Z=             -0.0000  Tot=              5.4196

 Test job not archived.
 1\1\GINC-SE366\SP\RHF\Aug-CC-pVDZ\Cl2H2S2Si1\OHZDE\08-Apr-2025\0\\#t h
 f aug-cc-pvdz iop(5/13=1,5/36=2,99/5=2) pseudo=read geom=check guess=(
 read,tcheck) scf=(maxcycle=1)\\title\\0,1\Si,0,-0.001212,0.,0.\S,0,-1.
 303639,1.514853,0.749177\Cl,0,1.25163,0.800232,-1.441733\Cl,0,1.251623
 ,-0.800242,1.441733\H,0,-0.410824,2.507671,0.580283\S,0,-1.303652,-1.5
 14842,-0.749177\H,0,-0.410846,-2.507668,-0.580282\\Version=ES64L-G16Re
 vC.01\State=1-A\HF=-2005.4265487\RMSD=8.118e-02\Dipole=-2.1322528,0.00
 00085,0.0000002\Quadrupole=2.4720437,2.3601206,-4.8321643,-0.0000002,0

 Normal termination of Gaussian 16 at Tue Apr  8 23:48:20 2025.
