 Gaussian 16, Revision C.01,

 ----------------------------------------------------------------------
 #t hf aug-cc-pvdz symm=none int=(grid=ultrafine) guess=(read,tcheck) s
 table=opt
 ----------------------------------------------------------------------
 -----
 title
 -----
 Symbolic Z-matrix:
 Charge =  0 Multiplicity = 2

 SCF Done:  E(UHF) =  -230.399491747     A.U. after   19 cycles
 Normal termination of Gaussian 16 at Tue Apr  8 22:40:40 2025.
 Gaussian 16:  ES64L-G16RevC.01  3-Jul-2019

 ----------------------------------------------------------------------
 #t hf aug-cc-pvdz iop(5/13=1,5/36=2,99/5=2) pseudo=read geom=check gue
 ss=(read,tcheck) scf=(maxcycle=1)
 ----------------------------------------------------------------------
 -----
 title
 -----
 Structure from the checkpoint file:  "BDE49_expt_1296_mol2.chk"
 Charge =  0 Multiplicity = 2

                         Standard orientation:
 ---------------------------------------------------------------------
 Center     Atomic      Atomic             Coordinates (Angstroms)
 Number     Number       Type             X           Y           Z
 ---------------------------------------------------------------------
      1          6           0       -2.270673   -0.100075    0.000023
      2          6           0       -0.784497   -0.465309   -0.000002
      3          1           0       -2.536926    0.488162    0.883548
      4          1           0       -2.894174   -0.997969    0.000007
      5          1           0       -2.536945    0.488208   -0.883465
      6          6           0        0.122713    0.773421    0.000020
      7          1           0       -0.546768   -1.078074   -0.874547
      8          1           0       -0.546749   -1.078119    0.874505
      9          6           0        1.611465    0.469004   -0.000005
     10          1           0       -0.061409    1.412924    0.871343
     11          1           0       -0.061428    1.412969   -0.871266
     12          8           0        2.138793   -0.588793   -0.000042
 ---------------------------------------------------------------------

 SCF Done:  E(UHF) =  -231.466997944     A.U. after    2 cycles

 The electronic state is 2-A.
 Alpha  occ. eigenvalues --  -21.09997 -11.48058 -11.43085 -11.40347 -11.36654
 Alpha  occ. eigenvalues --   -1.74009  -1.23690  -1.05657  -0.88259  -0.74741
 Alpha  occ. eigenvalues --   -0.66032  -0.61766  -0.59464  -0.56877  -0.51546
 Alpha  occ. eigenvalues --   -0.48378  -0.48119  -0.45976  -0.44450  -0.25533
 Alpha virt. eigenvalues --    0.03600   0.05232   0.05466   0.05855   0.06234
 Alpha virt. eigenvalues --    0.07027   0.07681   0.09476   0.10752   0.12518
 Alpha virt. eigenvalues --    0.13119   0.13232   0.14766   0.15508   0.16761

  Beta  occ. eigenvalues --  -21.08974 -11.46332 -11.42648 -11.40123 -11.36555
  Beta  occ. eigenvalues --   -1.71657  -1.22740  -1.04053  -0.87312  -0.70604
  Beta  occ. eigenvalues --   -0.65756  -0.58918  -0.56546  -0.54915  -0.48793
  Beta  occ. eigenvalues --   -0.48233  -0.47093  -0.43956  -0.39305
  Beta virt. eigenvalues --    0.03289   0.05074   0.05480   0.05801   0.06245
  Beta virt. eigenvalues --    0.06902   0.07700   0.09385   0.10762   0.11737
  Beta virt. eigenvalues --    0.12637   0.13177   0.13453   0.14857   0.16102

 Mulliken charges and spin densities:
               1          2
     1  C   -3.702063  -0.012160
     2  C   -2.870392  -0.062180
     3  H    1.247037   0.004120
     4  H    1.113505  -0.003964
     5  H    1.247038   0.004120
     6  C   -2.004901  -0.097834
     7  H    1.449827   0.009072
     8  H    1.449827   0.009072
     9  C    1.087650   1.067514
    10  H    1.555502  -0.043060
    11  H    1.555502  -0.043060
    12  O   -2.128533   0.168362
 Sum of Mulliken charges =  -0.00000   1.00000

 Dipole moment (field-independent basis, Debye):
    X=             -1.7289    Y=             -0.3466    Z=              0.0000  Tot=              1.7633
                          Isotropic Fermi Contact Couplings
        Atom                 a.u.       MegaHertz       Gauss      10(-4) cm-1
     1  C(13)              0.00560       6.29430       2.24596       2.09955
     2  C(13)              0.00867       9.74636       3.47774       3.25103
     3  H(1)               0.00019       0.83007       0.29619       0.27688
     4  H(1)               0.00161       7.20270       2.57010       2.40256
     5  H(1)               0.00019       0.83006       0.29619       0.27688
     6  C(13)              0.10234     115.05394      41.05411      38.37786
     7  H(1)              -0.00055      -2.43768      -0.86983      -0.81312
     8  H(1)              -0.00055      -2.43768      -0.86982      -0.81312

 Normal termination of Gaussian 16 at Tue Apr  8 22:40:43 2025.
