 Gaussian 16, Revision C.01,

 ----------------------------------------------------------------------
 #t hf aug-cc-pvdz symm=none int=(grid=ultrafine) guess=(read,tcheck) s
 table=opt
 ----------------------------------------------------------------------
 -----
 title
 -----
 Symbolic Z-matrix:
 Charge =  0 Multiplicity = 2

 SCF Done:  E(UHF) =  -287.019671204     a.u. after   11 cycles
 Normal termination of Gaussian 16 at Tue Apr  8 22:57:38 2025.
 Gaussian 16:  ES64L-G16RevC.01  3-Jul-2019

 ----------------------------------------------------------------------
 #t hf aug-cc-pvdz iop(5/13=1,5/36=2,99/5=2) pseudo=read geom=check gue
 ss=(read,tcheck) scf=(maxcycle=1)
 ----------------------------------------------------------------------
 -----
 title
 -----
 Structure from the checkpoint file:  "BDE49_expt_1871_mol2.chk"
 Charge =  0 Multiplicity = 2

                         Standard orientation:
 ---------------------------------------------------------------------
 Center     Atomic      Atomic             Coordinates (Angstroms)
 Number     Number       Type             X           Y           Z
 ---------------------------------------------------------------------
      1          8           0       -0.681777    1.069572   -0.000046
      2          6           0       -0.066721   -0.000000    0.000184
      3          8           0       -0.681780   -1.069571   -0.000046
      4          9           0        1.256531   -0.000001   -0.000041
 ---------------------------------------------------------------------

 SCF Done:  E(UHF) =  -288.047954009     A.U. after    2 cycles

 The electronic state is 2-A.
 Alpha  occ. eigenvalues --  -29.37001 -21.25502 -21.09791 -11.60858  -1.94453
 Alpha  occ. eigenvalues --   -1.70589  -1.08301  -0.75842  -0.68538  -0.65959
 Alpha  occ. eigenvalues --   -0.53249  -0.44696  -0.42404  -0.38801  -0.33815
 Alpha  occ. eigenvalues --   -0.30625
 Alpha virt. eigenvalues --    0.08343   0.09488   0.10704   0.13004   0.17551
 Alpha virt. eigenvalues --    0.18173   0.19570   0.20100   0.21582   0.24819
 Alpha virt. eigenvalues --    0.28487   0.30302   0.31321   0.32099   0.35276

  Beta  occ. eigenvalues --  -29.36906 -21.21709 -21.09162 -11.61154  -1.86679
  Beta  occ. eigenvalues --   -1.65234  -1.06970  -0.71208  -0.67910  -0.61329
  Beta  occ. eigenvalues --   -0.47667  -0.39777  -0.36301  -0.33542  -0.30686
  Beta virt. eigenvalues --    0.06774   0.08564   0.09459   0.12026   0.13258
  Beta virt. eigenvalues --    0.17780   0.18133   0.19859   0.21428   0.21895
  Beta virt. eigenvalues --    0.24875   0.30358   0.30679   0.32191   0.32470

 Mulliken charges and spin densities:
               1          2
     1  O   -1.900694   1.052811
     2  C    3.172970  -0.212858
     3  O   -2.220649   0.124122
     4  F    0.948373   0.035925
 Sum of Mulliken charges =  -0.00000   1.00000

 Dipole moment (field-independent basis, Debye):
    X=              3.3879    Y=              1.2930    Z=             -0.0003  Tot=              3.6262
                          Isotropic Fermi Contact Couplings
        Atom                 a.u.       MegaHertz       Gauss      10(-4) cm-1
     1  O(17)              0.17775    -107.74885     -38.44747     -35.94115
     2  C(13)             -0.02818     -31.67613     -11.30283     -10.56602
     3  O(17)              0.02615     -15.85147      -5.65620      -5.28748
     4  F(19)              0.00368      15.49302       5.52830       5.16792
 --------------------------------------------------------
       Center         ----  Spin Dipole Couplings  ----
                      3XX-RR        3YY-RR        3ZZ-RR
 --------------------------------------------------------

 Normal termination of Gaussian 16 at Tue Apr  8 22:57:40 2025.
