 Gaussian 16, Revision C.01,

 ----------------------------------------------------------------------
 #t hf aug-cc-pvdz symm=none int=(grid=ultrafine) guess=(read,tcheck) s
 table=(opt,rrhf)
 ----------------------------------------------------------------------
 -----
 title
 -----
 Symbolic Z-matrix:
 Charge =  0 Multiplicity = 1

 SCF Done:  E(RHF) =  -839.597676858     A.U. after   16 cycles
 Normal termination of Gaussian 16 at Tue Apr  8 23:32:30 2025.
 Gaussian 16:  ES64L-G16RevC.01  3-Jul-2019

 ----------------------------------------------------------------------
 #t hf aug-cc-pvdz iop(5/13=1,5/36=2,99/5=2) pseudo=read geom=check gue
 ss=(read,tcheck) scf=(maxcycle=1)
 ----------------------------------------------------------------------
 -----
 title
 -----
 Structure from the checkpoint file:  "BDE49_nonexpt_1358_mol1.chk"
 Charge =  0 Multiplicity = 1

                         Standard orientation:
 ---------------------------------------------------------------------
 Center     Atomic      Atomic             Coordinates (Angstroms)
 Number     Number       Type             X           Y           Z
 ---------------------------------------------------------------------
      1          9           0        3.862449    0.535127    0.012469
      2          7           0        0.313759   -0.978199   -0.030816
      3         15           0        2.946120   -0.828325   -0.077028
      4          6           0        1.265868   -0.070264   -0.018776
      5          6           0        1.034241    1.327938   -0.009358
      6          1           0        1.873613    2.011138   -0.003260
      7          6           0       -0.264858    1.767262   -0.000913
      8          1           0       -0.492448    2.828572    0.008708
      9          6           0       -2.694893    1.199645    0.013405
     10          1           0       -2.953524    2.253407    0.022065
     11          6           0       -3.676559    0.238716    0.015632
     12          1           0       -4.720933    0.528702    0.025908
     13          6           0       -3.333723   -1.134664    0.004283
     14          1           0       -4.120992   -1.879996    0.005761
     15          6           0       -2.017588   -1.527338   -0.009480
     16          1           0       -1.730383   -2.571646   -0.020096
     17          6           0       -0.982402   -0.559052   -0.011190
     18          6           0       -1.326707    0.828643    0.001156
     19          1           0        2.974246   -1.139363    1.311282
 ---------------------------------------------------------------------

 SCF Done:  E(RHF) =  -841.999155306     A.U. after    2 cycles

 The electronic state is 1-A.
 Alpha  occ. eigenvalues -- -105.24176 -29.26600 -15.74857 -11.53142 -11.49485
 Alpha  occ. eigenvalues --  -11.47031 -11.46094 -11.44346 -11.42944 -11.42333
 Alpha  occ. eigenvalues --  -11.41335 -11.38122  -2.82235  -1.56974  -1.54481
 Alpha  occ. eigenvalues --   -1.48447  -1.46292  -1.29483  -1.20921  -1.09711
 Alpha  occ. eigenvalues --   -1.08568  -0.92247  -0.90165  -0.86683  -0.81770
 Alpha  occ. eigenvalues --   -0.73066  -0.71199  -0.64566  -0.62160  -0.60556
 Alpha  occ. eigenvalues --   -0.57552  -0.56333  -0.56040  -0.50101  -0.47790
 Alpha  occ. eigenvalues --   -0.47601  -0.46409  -0.41532  -0.38197  -0.33991
 Alpha  occ. eigenvalues --   -0.32704  -0.32382  -0.30443  -0.24641  -0.20361
 Alpha  occ. eigenvalues --   -0.00979
 Alpha virt. eigenvalues --    0.03333   0.04722   0.05012   0.06185   0.06577
 Alpha virt. eigenvalues --    0.07021   0.07221   0.07861   0.08379   0.09755
 Alpha virt. eigenvalues --    0.10109   0.10416   0.11109   0.11600   0.12147

 Mulliken charges:
               1
     1  F   -0.732821
     2  N   -3.505056
     3  P    2.306082
     4  C   -0.753583
     5  C   -5.400617
     6  H    1.639463
     7  C   -1.144184
     8  H    1.800273
     9  C   -1.888981
    10  H    1.671773
    11  C   -2.192853
    12  H    1.448426
    13  C   -1.461772
    14  H    1.498561
    15  C   -2.679261
    16  H    1.781997
    17  C    3.297916
    18  C    5.087108
    19  H   -0.772470
 Sum of Mulliken charges =  -0.00000

 Dipole moment (field-independent basis, Debye):
    X=              1.1823    Y=              3.9014    Z=             -0.6429  Tot=              4.1270

 Test job not archived.
 1\1\GINC-SE074\SP\RHF\Aug-CC-pVDZ\C9H7F1N1P1\OHZDE\08-Apr-2025\0\\#t h
 f aug-cc-pvdz iop(5/13=1,5/36=2,99/5=2) pseudo=read geom=check guess=(
 read,tcheck) scf=(maxcycle=1)\\title\\0,1\F,0,3.862449,0.535127,0.0124
 69\N,0,0.313759,-0.978199,-0.030816\P,0,2.94612,-0.828325,-0.077028\C,
 0,1.265868,-0.070264,-0.018776\C,0,1.034241,1.327938,-0.009358\H,0,1.8
 73613,2.011138,-0.00326\C,0,-0.264858,1.767262,-0.000913\H,0,-0.492448
 ,2.828572,0.008708\C,0,-2.694893,1.199645,0.013405\H,0,-2.953524,2.253
 407,0.022065\C,0,-3.676559,0.238716,0.015632\H,0,-4.720933,0.528702,0.

 Normal termination of Gaussian 16 at Tue Apr  8 23:32:43 2025.
