 Gaussian 16, Revision C.01,

 ----------------------------------------------------------------------
 #t hf aug-cc-pvdz symm=none int=(grid=ultrafine) guess=(read,tcheck) s
 table=(opt,rrhf)
 ----------------------------------------------------------------------
 -----
 title
 -----
 Symbolic Z-matrix:
 Charge =  0 Multiplicity = 1

 SCF Done:  E(RHF) =  -418.855567490     A.U. after   14 cycles
 Normal termination of Gaussian 16 at Wed Apr  9 00:28:49 2025.
 Gaussian 16:  ES64L-G16RevC.01  3-Jul-2019

 ----------------------------------------------------------------------
 #t hf aug-cc-pvdz iop(5/13=1,5/36=2,99/5=2) pseudo=read geom=check gue
 ss=(read,tcheck) scf=(maxcycle=1)
 ----------------------------------------------------------------------
 -----
 title
 -----
 Structure from the checkpoint file:  "BDE49_nonexpt_305_mol1.chk"
 Charge =  0 Multiplicity = 1

                         Standard orientation:
 ---------------------------------------------------------------------
 Center     Atomic      Atomic             Coordinates (Angstroms)
 Number     Number       Type             X           Y           Z
 ---------------------------------------------------------------------
      1          6           0        0.085287   -0.795874    0.447878
      2          7           0        1.344496   -0.088783    0.031686
      3          5           0       -1.256393   -0.038256    0.011681
      4          1           0        0.128434   -0.827866    1.541381
      5          1           0        0.154450   -1.812185    0.068588
      6          8           0        2.238398   -0.744137   -0.462701
      7          8           0        1.398189    1.127360    0.232916
      8          8           0       -2.357351   -0.825512   -0.103808
      9          8           0       -1.319331    1.296117   -0.192940
     10          1           0       -0.455927    1.714368   -0.046694
     11          1           0       -3.147430   -0.316937   -0.318485
 ---------------------------------------------------------------------

 SCF Done:  E(RHF) =  -420.602704466     A.U. after    2 cycles

 The electronic state is 1-A.
 Alpha  occ. eigenvalues --  -21.11641 -21.10081 -21.07831 -21.06762 -16.00749
 Alpha  occ. eigenvalues --  -11.42879  -7.66821  -2.01023  -1.83621  -1.70418
 Alpha  occ. eigenvalues --   -1.67761  -1.21183  -0.89982  -0.78325  -0.72520
 Alpha  occ. eigenvalues --   -0.69469  -0.67170  -0.63675  -0.59028  -0.57077
 Alpha  occ. eigenvalues --   -0.49706  -0.46130  -0.40886  -0.38245  -0.35568
 Alpha  occ. eigenvalues --   -0.32760  -0.32422
 Alpha virt. eigenvalues --    0.03013   0.04049   0.04803   0.05371   0.07518
 Alpha virt. eigenvalues --    0.08180   0.08762   0.08859   0.12620   0.12929
 Alpha virt. eigenvalues --    0.14818   0.15241   0.16453   0.16853   0.17224

 Mulliken charges:
               1
     1  C   -4.125324
     2  N    4.259112
     3  B    7.638891
     4  H    1.206337
     5  H    1.614280
     6  O   -2.714914
     7  O   -2.699496
     8  O   -3.884961
     9  O   -3.882571
    10  H    1.558097
    11  H    1.030549
 Sum of Mulliken charges =  -0.00000

 Dipole moment (field-independent basis, Debye):
    X=             -1.3022    Y=             -0.4808    Z=              0.6175  Tot=              1.5193

 Test job not archived.
 1\1\GINC-SE340\SP\RHF\Aug-CC-pVDZ\C1H4B1N1O4\OHZDE\09-Apr-2025\0\\#t h
 f aug-cc-pvdz iop(5/13=1,5/36=2,99/5=2) pseudo=read geom=check guess=(
 read,tcheck) scf=(maxcycle=1)\\title\\0,1\C,0,0.085287,-0.795874,0.447
 878\N,0,1.344496,-0.088783,0.031686\B,0,-1.256393,-0.038256,0.011681\H
 ,0,0.128434,-0.827866,1.541381\H,0,0.15445,-1.812185,0.068588\O,0,2.23
 8398,-0.744137,-0.462701\O,0,1.398189,1.12736,0.232916\O,0,-2.357351,-
 0.825512,-0.103808\O,0,-1.319331,1.296117,-0.19294\H,0,-0.455927,1.714
 368,-0.046694\H,0,-3.14743,-0.316937,-0.318485\\Version=ES64L-G16RevC.

 Normal termination of Gaussian 16 at Wed Apr  9 00:28:52 2025.
