 Gaussian 16, Revision C.01,

 ----------------------------------------------------------------------
 #t hf aug-cc-pvdz symm=none int=(grid=ultrafine) guess=(read,tcheck) s
 table=(opt,rrhf)
 ----------------------------------------------------------------------
 -----
 title
 -----
 Symbolic Z-matrix:
 Charge =  0 Multiplicity = 1

 SCF Done:  E(RHF) =  -751.983635306     A.U. after   15 cycles
 Normal termination of Gaussian 16 at Tue Apr  8 23:34:29 2025.
 Gaussian 16:  ES64L-G16RevC.01  3-Jul-2019

 ----------------------------------------------------------------------
 #t hf aug-cc-pvdz iop(5/13=1,5/36=2,99/5=2) pseudo=read geom=check gue
 ss=(read,tcheck) scf=(maxcycle=1)
 ----------------------------------------------------------------------
 -----
 title
 -----
 Structure from the checkpoint file:  "BDE49_nonexpt_1409_mol1.chk"
 Charge =  0 Multiplicity = 1

                         Standard orientation:
 ---------------------------------------------------------------------
 Center     Atomic      Atomic             Coordinates (Angstroms)
 Number     Number       Type             X           Y           Z
 ---------------------------------------------------------------------
      1          6           0       -1.071358    0.129335   -0.005106
      2          7           0       -1.270564    1.478957    0.028959
      3          6           0       -0.212917    2.265353    0.036659
      4          7           0        1.090805    1.894426    0.005719
      5          6           0        1.261761    0.592095   -0.046416
      6          6           0        0.215354   -0.358286   -0.054800
      7          7           0        0.779273   -1.635541   -0.148540
      8          6           0        2.223405   -1.507940    0.131508
      9          7           0        2.458076   -0.083133   -0.114118
     10          1           0        2.808606   -2.129446   -0.551805
     11          1           0        2.472448   -1.792964    1.169192
     12          1           0       -0.397192    3.334229    0.076004
     13         15           0       -2.612664   -0.872487   -0.102202
     14          1           0        0.303693   -2.390158    0.326079
     15          1           0        3.304752    0.363457    0.202413
     16          1           0       -3.127705   -0.502765    1.165821
     17          1           0       -2.075239   -2.101353    0.370130
 ---------------------------------------------------------------------

 SCF Done:  E(RHF) =  -754.048573676     A.U. after    2 cycles

 The electronic state is 1-A.
 Alpha  occ. eigenvalues -- -105.19071 -15.76895 -15.76057 -15.73336 -15.72611
 Alpha  occ. eigenvalues --  -11.50654 -11.47001 -11.45351 -11.43125 -11.40457
 Alpha  occ. eigenvalues --   -2.76078  -1.58650  -1.51184  -1.45925  -1.43998
 Alpha  occ. eigenvalues --   -1.43603  -1.33104  -1.25583  -1.13095  -0.95531
 Alpha  occ. eigenvalues --   -0.91274  -0.88928  -0.76802  -0.71180  -0.68333
 Alpha  occ. eigenvalues --   -0.65939  -0.63681  -0.59228  -0.58451  -0.57004
 Alpha  occ. eigenvalues --   -0.54140  -0.47109  -0.45334  -0.41489  -0.37251
 Alpha  occ. eigenvalues --   -0.35972  -0.26900  -0.26598  -0.23048  -0.03342
 Alpha virt. eigenvalues --    0.03257   0.05113   0.05243   0.05312   0.06293
 Alpha virt. eigenvalues --    0.07081   0.07867   0.09311   0.10407   0.10598
 Alpha virt. eigenvalues --    0.10790   0.11494   0.12133   0.12764   0.13117

 Mulliken charges:
               1
     1  C    3.379652
     2  N   -3.362729
     3  C    1.128992
     4  N   -3.724171
     5  C    4.650001
     6  C    0.364519
     7  N   -2.936954
     8  C   -2.772103
     9  N   -3.195269
    10  H    1.530075
    11  H    1.631510
    12  H    1.684876
    13  P    1.600876
    14  H    0.511227
    15  H    0.824676
    16  H   -0.479809
    17  H   -0.835369
 Sum of Mulliken charges =  -0.00000

 Dipole moment (field-independent basis, Debye):
    X=              0.5930    Y=             -1.9294    Z=             -2.2106  Tot=              2.9935

 Test job not archived.
 1\1\GINC-SE212\SP\RHF\Aug-CC-pVDZ\C5H7N4P1\OHZDE\08-Apr-2025\0\\#t hf
 aug-cc-pvdz iop(5/13=1,5/36=2,99/5=2) pseudo=read geom=check guess=(re
 ad,tcheck) scf=(maxcycle=1)\\title\\0,1\C,0,-1.071358,0.129335,-0.0051
 06\N,0,-1.270564,1.478957,0.028959\C,0,-0.212917,2.265353,0.036659\N,0
 ,1.090805,1.894426,0.005719\C,0,1.261761,0.592095,-0.046416\C,0,0.2153
 54,-0.358286,-0.0548\N,0,0.779273,-1.635541,-0.14854\C,0,2.223405,-1.5
 0794,0.131508\N,0,2.458076,-0.083133,-0.114118\H,0,2.808606,-2.129446,
 -0.551805\H,0,2.472448,-1.792964,1.169192\H,0,-0.397192,3.334229,0.076

 Normal termination of Gaussian 16 at Tue Apr  8 23:34:39 2025.
