 Gaussian 16, Revision C.01,

 ----------------------------------------------------------------------
 #t hf aug-cc-pvdz symm=none int=(grid=ultrafine) guess=(read,tcheck) s
 table=opt
 ----------------------------------------------------------------------
 -----
 title
 -----
 Symbolic Z-matrix:
 Charge =  0 Multiplicity = 2

 SCF Done:  E(UHF) =  -666.959694489     A.U. after   19 cycles
 Normal termination of Gaussian 16 at Tue Apr  8 23:07:59 2025.
 Gaussian 16:  ES64L-G16RevC.01  3-Jul-2019

 ----------------------------------------------------------------------
 #t hf aug-cc-pvdz iop(5/13=1,5/36=2,99/5=2) pseudo=read geom=check gue
 ss=(read,tcheck) scf=(maxcycle=1)
 ----------------------------------------------------------------------
 -----
 title
 -----
 Structure from the checkpoint file:  "BDE49_expt_389_mol2.chk"
 Charge =  0 Multiplicity = 2

                         Standard orientation:
 ---------------------------------------------------------------------
 Center     Atomic      Atomic             Coordinates (Angstroms)
 Number     Number       Type             X           Y           Z
 ---------------------------------------------------------------------
      1          8           0       -0.013301   -1.172841   -0.593585
      2          6           0        1.345842   -1.217459   -0.162445
      3          6           0        1.820082    0.197185   -0.020085
      4          1           0        1.896239   -1.775656   -0.926444
      5          1           0        1.433241   -1.780052    0.783788
      6         16           0        0.517191    1.321564    0.067185
      7          1           0        2.824658    0.482884    0.253437
      8          6           0       -0.731696   -0.108088   -0.005771
      9          6           0       -1.886513    0.238909   -0.932384
     10          1           0       -2.574961   -0.609022   -0.984405
     11          1           0       -1.512787    0.449532   -1.934233
     12          1           0       -2.436444    1.107930   -0.564992
     13          6           0       -1.191814   -0.448261    1.412896
     14          1           0       -0.345350   -0.683541    2.059771
     15          1           0       -1.856062   -1.317246    1.375287
     16          1           0       -1.732589    0.389165    1.858255
 ---------------------------------------------------------------------

 SCF Done:  E(UHF) =  -668.459166262     A.U. after    2 cycles

 The electronic state is 2-A.
 Alpha  occ. eigenvalues --  -75.68123 -21.05457 -13.13784 -13.12020 -13.04599
 Alpha  occ. eigenvalues --  -11.47958 -11.44597 -11.40003 -11.38906 -11.36682
 Alpha  occ. eigenvalues --   -8.02395  -1.78353  -1.23265  -1.18245  -1.02847
 Alpha  occ. eigenvalues --   -1.01014  -0.84129  -0.78453  -0.67378  -0.65784
 Alpha  occ. eigenvalues --   -0.61100  -0.60455  -0.57528  -0.54978  -0.49931
 Alpha  occ. eigenvalues --   -0.47030  -0.44483  -0.43128  -0.40420  -0.34527
 Alpha  occ. eigenvalues --   -0.29481  -0.18599
 Alpha virt. eigenvalues --    0.03523   0.04367   0.05680   0.05933   0.05971
 Alpha virt. eigenvalues --    0.06172   0.06730   0.06996   0.08558   0.09097
 Alpha virt. eigenvalues --    0.11028   0.11724   0.12847   0.13687   0.14445

  Beta  occ. eigenvalues --  -75.68042 -21.05462 -13.13854 -13.12249 -13.03751
  Beta  occ. eigenvalues --  -11.47913 -11.44540 -11.39999 -11.37021 -11.36631
  Beta  occ. eigenvalues --   -8.02299  -1.78319  -1.22012  -1.15886  -1.02735
  Beta  occ. eigenvalues --   -1.00332  -0.79451  -0.78272  -0.66649  -0.64240
  Beta  occ. eigenvalues --   -0.60939  -0.59974  -0.56809  -0.54881  -0.49867
  Beta  occ. eigenvalues --   -0.46957  -0.43262  -0.40882  -0.35027  -0.29336
  Beta  occ. eigenvalues --   -0.27336
  Beta virt. eigenvalues --    0.03532   0.04427   0.05673   0.05857   0.05950
  Beta virt. eigenvalues --    0.06176   0.06732   0.07012   0.08624   0.09107
  Beta virt. eigenvalues --    0.10635   0.11078   0.11792   0.12995   0.13851

 Mulliken charges and spin densities:
               1          2
     1  O   -3.687072  -0.002984
     2  C   -2.073385  -0.328452
     3  C   -2.206046   1.342939
     4  H    1.391444   0.006502
     5  H    1.540920   0.009086
     6  S    0.857500   0.049009
     7  H    1.443393  -0.038003
     8  C    3.613636  -0.059084
     9  C   -4.214626   0.015237
    10  H    1.209047   0.001213
    11  H    1.379031   0.003165
    12  H    1.208933  -0.004969
    13  C   -4.288259   0.010534
    14  H    1.398025  -0.002792
    15  H    1.186947  -0.002186
    16  H    1.240510   0.000784
 Sum of Mulliken charges =   0.00000   1.00000

 Dipole moment (field-independent basis, Debye):
    X=             -0.3171    Y=              0.6938    Z=              0.2505  Tot=              0.8029
                          Isotropic Fermi Contact Couplings
        Atom                 a.u.       MegaHertz       Gauss      10(-4) cm-1
     1  O(17)             -0.00233       1.41362       0.50441       0.47153
     2  C(13)             -0.03412     -38.35993     -13.68778     -12.79549
     3  C(13)              0.14157     159.15509      56.79049      53.08842
     4  H(1)               0.01036      46.29921      16.52071      15.44375
     5  H(1)               0.01494      66.79314      23.83345      22.27979
     6  S(33)              0.08495      29.17822      10.41152       9.73281
     7  H(1)              -0.01622     -72.50977     -25.87329     -24.18666
     8  C(13)             -0.00107      -1.20147      -0.42871      -0.40077

 Normal termination of Gaussian 16 at Tue Apr  8 23:08:06 2025.
