 Gaussian 16, Revision C.01,

 ----------------------------------------------------------------------
 #t hf aug-cc-pvdz symm=none int=(grid=ultrafine) guess=(read,tcheck) s
 table=opt
 ----------------------------------------------------------------------
 -----
 title
 -----
 Symbolic Z-matrix:
 Charge =  0 Multiplicity = 2

 SCF Done:  E(UHF) =  -641.423333552     a.u. after    7 cycles
 Normal termination of Gaussian 16 at Tue Apr  8 23:39:27 2025.
 Gaussian 16:  ES64L-G16RevC.01  3-Jul-2019

 ----------------------------------------------------------------------
 #t hf aug-cc-pvdz iop(5/13=1,5/36=2,99/5=2) pseudo=read geom=check gue
 ss=(read,tcheck) scf=(maxcycle=1)
 ----------------------------------------------------------------------
 -----
 title
 -----
 Structure from the checkpoint file:  "BDE49_nonexpt_1591_mol2.chk"
 Charge =  0 Multiplicity = 2

                         Standard orientation:
 ---------------------------------------------------------------------
 Center     Atomic      Atomic             Coordinates (Angstroms)
 Number     Number       Type             X           Y           Z
 ---------------------------------------------------------------------
      1         15           0       -0.081665   -0.030395    0.000649
      2          8           0       -1.006439   -0.048653    1.193150
      3          8           0       -1.014440   -0.146417   -1.180005
      4          8           0        0.864294    1.256530   -0.047942
      5          1           0        0.379537    2.091263   -0.044585
      6          8           0        1.021314   -1.161587    0.030931
      7          1           0        1.927601   -0.834327    0.065775
 ---------------------------------------------------------------------

 SCF Done:  E(UHF) =  -642.794228390     A.U. after    2 cycles

 The electronic state is 2-A.
 Alpha  occ. eigenvalues -- -105.34282 -21.19025 -21.14872 -21.14466 -21.04245
 Alpha  occ. eigenvalues --   -2.98662  -2.03575  -1.97170  -1.93432  -1.77260
 Alpha  occ. eigenvalues --   -1.43342  -1.37790  -1.28657  -0.71727  -0.66101
 Alpha  occ. eigenvalues --   -0.56002  -0.53534  -0.50402  -0.47174  -0.44329
 Alpha  occ. eigenvalues --   -0.36661  -0.36148  -0.31613  -0.28938  -0.19496
 Alpha virt. eigenvalues --    0.03085   0.05087   0.09695   0.10585   0.11279
 Alpha virt. eigenvalues --    0.12690   0.18164   0.18447   0.19982   0.20929
 Alpha virt. eigenvalues --    0.21699   0.22357   0.24916   0.25846   0.26135

  Beta  occ. eigenvalues -- -105.34381 -21.15563 -21.14867 -21.14445 -21.03167
  Beta  occ. eigenvalues --   -2.98885  -2.01906  -1.94852  -1.93610  -1.74701
  Beta  occ. eigenvalues --   -1.43610  -1.32856  -1.24864  -0.70718  -0.65966
  Beta  occ. eigenvalues --   -0.53108  -0.48743  -0.46766  -0.42947  -0.36270
  Beta  occ. eigenvalues --   -0.35610  -0.30895  -0.25377  -0.16848
  Beta virt. eigenvalues --    0.03053   0.05023   0.05239   0.10276   0.11134
  Beta virt. eigenvalues --    0.11555   0.12824   0.18202   0.18959   0.20039
  Beta virt. eigenvalues --    0.20986   0.21871   0.22441   0.24932   0.26058

 Mulliken charges and spin densities:
               1          2
     1  P    8.163705  -0.171774
     2  O   -2.530185   0.214891
     3  O   -2.067941   0.927332
     4  O   -2.614396   0.009614
     5  H    0.899166   0.000362
     6  O   -2.760586   0.021098
     7  H    0.910237  -0.001523
 Sum of Mulliken charges =  -0.00000   1.00000

 Dipole moment (field-independent basis, Debye):
    X=              3.4206    Y=              1.0209    Z=             -2.0504  Tot=              4.1167
                          Isotropic Fermi Contact Couplings
        Atom                 a.u.       MegaHertz       Gauss      10(-4) cm-1
     1  P(31)             -0.11585    -209.81872     -74.86854     -69.98799
     2  O(17)              0.06222     -37.71450     -13.45747     -12.58020
     3  O(17)              0.14502     -87.90933     -31.36823     -29.32339
     4  O(17)             -0.00303       1.83468       0.65466       0.61198
     5  H(1)              -0.00006      -0.26644      -0.09507      -0.08887
     6  O(17)             -0.00366       2.21658       0.79093       0.73937
     7  H(1)              -0.00027      -1.20463      -0.42984      -0.40182
 --------------------------------------------------------

 Normal termination of Gaussian 16 at Tue Apr  8 23:39:30 2025.
