 Gaussian 16, Revision C.01,

 ----------------------------------------------------------------------
 #t hf aug-cc-pvdz symm=none int=(grid=ultrafine) guess=(read,tcheck) s
 table=(opt,rrhf)
 ----------------------------------------------------------------------
 -----
 title
 -----
 Symbolic Z-matrix:
 Charge =  0 Multiplicity = 1

 SCF Done:  E(RHF) =  -739.852099694     A.U. after   16 cycles
 Normal termination of Gaussian 16 at Tue Apr  8 23:35:31 2025.
 Gaussian 16:  ES64L-G16RevC.01  3-Jul-2019

 ----------------------------------------------------------------------
 #t hf aug-cc-pvdz iop(5/13=1,5/36=2,99/5=2) pseudo=read geom=check gue
 ss=(read,tcheck) scf=(maxcycle=1)
 ----------------------------------------------------------------------
 -----
 title
 -----
 Structure from the checkpoint file:  "BDE49_nonexpt_1441_mol1.chk"
 Charge =  0 Multiplicity = 1

                         Standard orientation:
 ---------------------------------------------------------------------
 Center     Atomic      Atomic             Coordinates (Angstroms)
 Number     Number       Type             X           Y           Z
 ---------------------------------------------------------------------
      1          6           0        0.660748    0.134686   -0.039676
      2          6           0       -0.800717    0.474496   -0.106111
      3          8           0       -1.191473    1.599970   -0.366587
      4          7           0       -1.686438   -0.549650    0.150683
      5         15           0       -3.406873   -0.260628   -0.005242
      6          1           0       -1.333568   -1.375597    0.609718
      7          6           0        1.153093   -1.167938   -0.179703
      8          6           0        2.522913   -1.411101   -0.125459
      9          6           0        3.411217   -0.355877    0.070877
     10          6           0        2.927500    0.945881    0.199454
     11          6           0        1.560716    1.190866    0.136972
     12          1           0        0.476036   -1.993659   -0.368165
     13          1           0        2.896333   -2.421663   -0.245308
     14          1           0        4.477590   -0.546426    0.115343
     15          1           0        3.617317    1.769446    0.344307
     16          1           0        1.164269    2.195137    0.218737
     17          1           0       -3.718875    0.086039    1.342609
     18          1           0       -3.751978   -1.622153    0.201187
 ---------------------------------------------------------------------

 SCF Done:  E(RHF) =  -741.875009680     A.U. after    2 cycles

 The electronic state is 1-A.
 Alpha  occ. eigenvalues -- -105.21239 -21.02998 -15.76442 -11.53069 -11.51538
 Alpha  occ. eigenvalues --  -11.44719 -11.44175 -11.42475 -11.41865 -11.37760
 Alpha  occ. eigenvalues --   -2.77976  -1.71757  -1.55530  -1.46684  -1.45172
 Alpha  occ. eigenvalues --   -1.35878  -1.26478  -1.11616  -1.10522  -0.91553
 Alpha  occ. eigenvalues --   -0.87729  -0.80557  -0.75283  -0.72821  -0.67785
 Alpha  occ. eigenvalues --   -0.61943  -0.59692  -0.58580  -0.56025  -0.51526
 Alpha  occ. eigenvalues --   -0.49912  -0.46917  -0.45323  -0.35977  -0.35161
 Alpha  occ. eigenvalues --   -0.34197  -0.31570  -0.28304  -0.26410  -0.03149
 Alpha virt. eigenvalues --    0.03067   0.04782   0.04883   0.05747   0.06441
 Alpha virt. eigenvalues --    0.06934   0.07379   0.08360   0.09279   0.09953
 Alpha virt. eigenvalues --    0.10225   0.10875   0.11975   0.12541   0.12887

 Mulliken charges:
               1
     1  C    3.349695
     2  C    2.692827
     3  O   -3.630817
     4  N   -1.974902
     5  P    1.840828
     6  H    0.574201
     7  C   -0.118829
     8  C   -2.209780
     9  C   -2.781978
    10  C   -1.406440
    11  C   -2.779262
    12  H    1.857536
    13  H    1.459497
    14  H    1.528676
    15  H    1.462649
    16  H    1.691011
    17  H   -0.819549
    18  H   -0.735364
 Sum of Mulliken charges =   0.00000

 Dipole moment (field-independent basis, Debye):
    X=              1.6330    Y=              1.1008    Z=             -2.3655  Tot=              3.0780

 Test job not archived.
 1\1\GINC-SE118\SP\RHF\Aug-CC-pVDZ\C7H8N1O1P1\OHZDE\08-Apr-2025\0\\#t h
 f aug-cc-pvdz iop(5/13=1,5/36=2,99/5=2) pseudo=read geom=check guess=(
 read,tcheck) scf=(maxcycle=1)\\title\\0,1\C,0,0.660748,0.134686,-0.039
 676\C,0,-0.800717,0.474496,-0.106111\O,0,-1.191473,1.59997,-0.366587\N
 ,0,-1.686438,-0.54965,0.150683\P,0,-3.406873,-0.260628,-0.005242\H,0,-
 1.333568,-1.375597,0.609718\C,0,1.153093,-1.167938,-0.179703\C,0,2.522
 913,-1.411101,-0.125459\C,0,3.411217,-0.355877,0.070877\C,0,2.9275,0.9
 45881,0.199454\C,0,1.560716,1.190866,0.136972\H,0,0.476036,-1.993659,-

 Normal termination of Gaussian 16 at Tue Apr  8 23:35:41 2025.
