 Gaussian 16, Revision C.01,

 ----------------------------------------------------------------------
 #t hf aug-cc-pvdz symm=none int=(grid=ultrafine) guess=(read,tcheck) s
 table=(opt,rrhf)
 ----------------------------------------------------------------------
 -----
 title
 -----
 Symbolic Z-matrix:
 Charge =  0 Multiplicity = 1

 SCF Done:  E(RHF) =  -341.226832464     A.U. after   15 cycles
 Normal termination of Gaussian 16 at Tue Apr  8 23:21:52 2025.
 Gaussian 16:  ES64L-G16RevC.01  3-Jul-2019

 ----------------------------------------------------------------------
 #t hf aug-cc-pvdz iop(5/13=1,5/36=2,99/5=2) pseudo=read geom=check gue
 ss=(read,tcheck) scf=(maxcycle=1)
 ----------------------------------------------------------------------
 -----
 title
 -----
 Structure from the checkpoint file:  "BDE49_nonexpt_1156_mol1.chk"
 Charge =  0 Multiplicity = 1

                         Standard orientation:
 ---------------------------------------------------------------------
 Center     Atomic      Atomic             Coordinates (Angstroms)
 Number     Number       Type             X           Y           Z
 ---------------------------------------------------------------------
      1          9           0        1.612274   -0.693869   -0.185727
      2          8           0        1.007510    0.404505    0.487055
      3          6           0       -1.149542    0.066582   -0.063157
      4          7           0       -2.115186   -0.537457    0.132860
      5          8           0       -0.108374    0.796436   -0.346997
 ---------------------------------------------------------------------

 SCF Done:  E(RHF) =  -342.538570279     A.U. after    2 cycles

 The electronic state is 1-A.
 Alpha  occ. eigenvalues --  -29.37020 -21.27951 -21.25035 -15.80571 -11.51264
 Alpha  occ. eigenvalues --   -2.10249  -1.61497  -1.32209  -0.83023  -0.75373
 Alpha  occ. eigenvalues --   -0.68809  -0.59914  -0.57324  -0.51991  -0.47825
 Alpha  occ. eigenvalues --   -0.44410  -0.37685  -0.31603  -0.28024
 Alpha virt. eigenvalues --    0.06933   0.08763   0.10263   0.11128   0.12940
 Alpha virt. eigenvalues --    0.16817   0.17008   0.17690   0.18955   0.20514
 Alpha virt. eigenvalues --    0.21037   0.22250   0.23682   0.25662   0.27818

 Mulliken charges:
               1
     1  F    0.093487
     2  O   -0.058635
     3  C    3.652998
     4  N   -2.237258
     5  O   -1.450591
 Sum of Mulliken charges =  -0.00000

 Dipole moment (field-independent basis, Debye):
    X=              3.5590    Y=             -0.0748    Z=             -0.7120  Tot=              3.6303

 Test job not archived.
 1\1\GINC-SE179\SP\RHF\Aug-CC-pVDZ\C1F1N1O2\OHZDE\08-Apr-2025\0\\#t hf
 aug-cc-pvdz iop(5/13=1,5/36=2,99/5=2) pseudo=read geom=check guess=(re
 ad,tcheck) scf=(maxcycle=1)\\title\\0,1\F,0,1.612274,-0.693869,-0.1857
 27\O,0,1.00751,0.404505,0.487055\C,0,-1.149542,0.066582,-0.063157\N,0,
 -2.115186,-0.537457,0.13286\O,0,-0.108374,0.796436,-0.346997\\Version=
 ES64L-G16RevC.01\State=1-A\HF=-342.5385703\RMSD=4.293e-02\Dipole=1.400
 2199,-0.0294341,-0.2801236\Quadrupole=-1.4629554,0.6034334,0.859522,-2
 .6297651,0.3097537,0.2464402\PG=C01 [X(C1F1N1O2)]\\@

 Normal termination of Gaussian 16 at Tue Apr  8 23:21:53 2025.
