 Gaussian 16, Revision C.01,

 ----------------------------------------------------------------------
 #t hf aug-cc-pvdz symm=none int=(grid=ultrafine) guess=(read,tcheck) s
 table=(opt,rrhf)
 ----------------------------------------------------------------------
 -----
 title
 -----
 Symbolic Z-matrix:
 Charge =  0 Multiplicity = 1

 SCF Done:  E(RHF) =  -746.930261696     A.U. after   13 cycles
 Normal termination of Gaussian 16 at Wed Apr  9 00:10:07 2025.
 Gaussian 16:  ES64L-G16RevC.01  3-Jul-2019

 ----------------------------------------------------------------------
 #t hf aug-cc-pvdz iop(5/13=1,5/36=2,99/5=2) pseudo=read geom=check gue
 ss=(read,tcheck) scf=(maxcycle=1)
 ----------------------------------------------------------------------
 -----
 title
 -----
 Structure from the checkpoint file:  "BDE49_nonexpt_2277_mol1.chk"
 Charge =  0 Multiplicity = 1

                         Standard orientation:
 ---------------------------------------------------------------------
 Center     Atomic      Atomic             Coordinates (Angstroms)
 Number     Number       Type             X           Y           Z
 ---------------------------------------------------------------------
      1         14           0        0.973666    1.391177   -0.068556
      2          6           0       -0.479534    0.152291   -0.010156
      3          6           0       -1.799293    0.931276   -0.039441
      4          8           0       -2.886953    0.004754    0.038217
      5          1           0       -1.834888    1.633216    0.806225
      6          1           0       -1.864908    1.520197   -0.966280
      7          1           0       -3.709886    0.501603    0.018756
      8          6           0       -0.382277   -0.663946    1.304202
      9          8           0        2.403757    0.549223   -0.117219
     10          1           0        2.440772   -0.095767    0.605781
     11          6           0       -0.430766   -0.797967   -1.235713
     12          8           0        0.896244   -1.292710    1.476984
     13          1           0       -1.180925   -1.412956    1.333713
     14          1           0       -0.515681   -0.006856    2.168004
     15          1           0        0.986278   -1.890358    0.718771
     16          8           0        0.719906   -1.655287   -1.259206
     17          1           0       -0.491097   -0.217721   -2.166537
     18          1           0       -1.292642   -1.465871   -1.208418
     19          1           0        1.503790   -1.100610   -1.370411
     20          1           0        0.886197    2.290185    1.109637
     21          1           0        0.929248    2.190703   -1.313019
 ---------------------------------------------------------------------

 SCF Done:  E(RHF) =  -749.110744242     A.U. after    2 cycles

 The electronic state is 1-A.
 Alpha  occ. eigenvalues --  -76.23146 -21.08192 -21.07358 -21.07048 -21.06381
 Alpha  occ. eigenvalues --  -11.46597 -11.45326 -11.44214 -11.37779  -5.57078
 Alpha  occ. eigenvalues --   -2.24326  -2.20637  -2.19345  -1.74260  -1.70814
 Alpha  occ. eigenvalues --   -1.69686  -1.65853  -1.20225  -0.97306  -0.97037
 Alpha  occ. eigenvalues --   -0.82482  -0.75100  -0.67949  -0.67010  -0.65039
 Alpha  occ. eigenvalues --   -0.62196  -0.59172  -0.57103  -0.54229  -0.53209
 Alpha  occ. eigenvalues --   -0.51734  -0.48807  -0.45711  -0.43957  -0.43537
 Alpha  occ. eigenvalues --   -0.40662  -0.38280  -0.36285  -0.33579  -0.31341
 Alpha  occ. eigenvalues --   -0.29343
 Alpha virt. eigenvalues --    0.03726   0.04639   0.04887   0.05057   0.05177
 Alpha virt. eigenvalues --    0.05953   0.06959   0.07179   0.07232   0.08622
 Alpha virt. eigenvalues --    0.08800   0.09384   0.09644   0.09826   0.11530

 Mulliken charges:
               1
     1  Si   6.322231
     2  C    1.607109
     3  C   -1.177043
     4  O   -2.805195
     5  H    1.471980
     6  H    1.450044
     7  H    0.780994
     8  C   -1.642351
     9  O   -2.731282
    10  H    1.189721
    11  C   -1.726163
    12  O   -2.885263
    13  H    1.401113
    14  H    1.253122
    15  H    1.022413
    16  O   -2.952980
    17  H    1.253251
    18  H    1.366666
    19  H    0.851567
    20  H   -2.005067
    21  H   -2.044868
 Sum of Mulliken charges =  -0.00000

 Dipole moment (field-independent basis, Debye):
    X=             -1.1637    Y=              0.1330    Z=             -0.1115  Tot=              1.1766

 Test job not archived.
 1\1\GINC-SE393\SP\RHF\Aug-CC-pVDZ\C4H12O4Si1\OHZDE\09-Apr-2025\0\\#t h
 f aug-cc-pvdz iop(5/13=1,5/36=2,99/5=2) pseudo=read geom=check guess=(
 read,tcheck) scf=(maxcycle=1)\\title\\0,1\Si,0,0.973666,1.391177,-0.06
 8556\C,0,-0.479534,0.152291,-0.010156\C,0,-1.799293,0.931276,-0.039441
 \O,0,-2.886953,0.004754,0.038217\H,0,-1.834888,1.633216,0.806225\H,0,-
 1.864908,1.520197,-0.96628\H,0,-3.709886,0.501603,0.018756\C,0,-0.3822
 77,-0.663946,1.304202\O,0,2.403757,0.549223,-0.117219\H,0,2.440772,-0.
 095767,0.605781\C,0,-0.430766,-0.797967,-1.235713\O,0,0.896244,-1.2927

 Normal termination of Gaussian 16 at Wed Apr  9 00:10:27 2025.
