 Gaussian 16, Revision C.01,

 ----------------------------------------------------------------------
 #t hf aug-cc-pvdz symm=none int=(grid=ultrafine) guess=(read,tcheck) s
 table=(opt,rrhf)
 ----------------------------------------------------------------------
 -----
 title
 -----
 Symbolic Z-matrix:
 Charge =  0 Multiplicity = 1

 SCF Done:  E(RHF) =  -825.217320473     A.U. after   15 cycles
 Normal termination of Gaussian 16 at Wed Apr  9 00:31:01 2025.
 Gaussian 16:  ES64L-G16RevC.01  3-Jul-2019

 ----------------------------------------------------------------------
 #t hf aug-cc-pvdz iop(5/13=1,5/36=2,99/5=2) pseudo=read geom=check gue
 ss=(read,tcheck) scf=(maxcycle=1)
 ----------------------------------------------------------------------
 -----
 title
 -----
 Structure from the checkpoint file:  "BDE49_nonexpt_330_mol1.chk"
 Charge =  0 Multiplicity = 1

                         Standard orientation:
 ---------------------------------------------------------------------
 Center     Atomic      Atomic             Coordinates (Angstroms)
 Number     Number       Type             X           Y           Z
 ---------------------------------------------------------------------
      1          6           0        1.642631   -0.349931   -0.000010
      2          6           0        1.284001    0.992640   -0.000002
      3          6           0       -0.062011    1.332150    0.000008
      4          6           0        0.660117   -1.333787   -0.000008
      5          6           0       -0.677867   -0.962223    0.000002
      6          6           0       -1.086555    0.377709    0.000011
      7          9           0        2.928918   -0.695051   -0.000019
      8          9           0        2.232648    1.934747   -0.000004
      9          9           0       -0.355064    2.640893    0.000015
     10          9           0        1.015156   -2.622782   -0.000016
     11          9           0       -1.576584   -1.950870    0.000003
     12          5           0       -2.582657    0.842129    0.000024
     13          8           0       -3.571347   -0.079433    0.000006
     14          1           0       -4.447146    0.317380    0.000001
     15          1           0       -2.836351    2.005654    0.000015
 ---------------------------------------------------------------------

 SCF Done:  E(RHF) =  -828.340431611     A.U. after    2 cycles

 The electronic state is 1-A.
 Alpha  occ. eigenvalues --  -29.33226 -29.32147 -29.32007 -29.31970 -29.31394
 Alpha  occ. eigenvalues --  -21.08325 -11.60756 -11.55093 -11.54087 -11.51706
 Alpha  occ. eigenvalues --  -11.49520 -11.43066  -7.68472  -1.76976  -1.47748
 Alpha  occ. eigenvalues --   -1.28364  -1.26329  -1.08381  -1.06588  -0.91368
 Alpha  occ. eigenvalues --   -0.89463  -0.79391  -0.76682  -0.75765  -0.68717
 Alpha  occ. eigenvalues --   -0.66991  -0.65002  -0.62205  -0.55869  -0.53161
 Alpha  occ. eigenvalues --   -0.51193  -0.45266  -0.44776  -0.44081  -0.42919
 Alpha  occ. eigenvalues --   -0.42297  -0.41396  -0.41062  -0.39289  -0.38259
 Alpha  occ. eigenvalues --   -0.31250  -0.30772  -0.30447  -0.30217  -0.29444
 Alpha  occ. eigenvalues --   -0.27012  -0.23302  -0.18723
 Alpha virt. eigenvalues --    0.03163   0.04416   0.04954   0.05447   0.09021
 Alpha virt. eigenvalues --    0.09248   0.09395   0.11009   0.11504   0.12047
 Alpha virt. eigenvalues --    0.12320   0.12507   0.12571   0.13471   0.13946

 Mulliken charges:
               1
     1  C    1.214124
     2  C   -1.783806
     3  C    4.419620
     4  C   -3.095466
     5  C    3.635203
     6  C   -8.713272
     7  F    1.077946
     8  F    1.158246
     9  F    1.040551
    10  F    1.164379
    11  F    0.923581
    12  B    4.997121
    13  O   -3.674958
    14  H    1.135299
    15  H   -3.498566
 Sum of Mulliken charges =  -0.00000

 Dipole moment (field-independent basis, Debye):
    X=              1.4415    Y=             -0.8551    Z=             -0.0000  Tot=              1.6760

 Test job not archived.
 1\1\GINC-SE340\SP\RHF\Aug-CC-pVDZ\C6H2B1F5O1\OHZDE\09-Apr-2025\0\\#t h
 f aug-cc-pvdz iop(5/13=1,5/36=2,99/5=2) pseudo=read geom=check guess=(
 read,tcheck) scf=(maxcycle=1)\\title\\0,1\C,0,1.642631,-0.349931,-0.00
 001\C,0,1.284001,0.99264,-0.000002\C,0,-0.062011,1.33215,0.000008\C,0,
 0.660117,-1.333787,-0.000008\C,0,-0.677867,-0.962223,0.000002\C,0,-1.0
 86555,0.377709,0.000011\F,0,2.928918,-0.695052,-0.000019\F,0,2.232648,
 1.934747,-0.000004\F,0,-0.355064,2.640893,0.000015\F,0,1.015156,-2.622
 782,-0.000016\F,0,-1.576584,-1.95087,0.000003\B,0,-2.582657,0.842129,0

 Normal termination of Gaussian 16 at Wed Apr  9 00:31:09 2025.
