 Gaussian 16, Revision C.01,

 ----------------------------------------------------------------------
 #t hf aug-cc-pvdz symm=none int=(grid=ultrafine) guess=(read,tcheck) s
 table=opt
 ----------------------------------------------------------------------
 -----
 title
 -----
 Symbolic Z-matrix:
 Charge =  0 Multiplicity = 2

 SCF Done:  E(UHF) =  -1514.33834774     A.U. after   18 cycles
 Normal termination of Gaussian 16 at Tue Apr  8 23:26:19 2025.
 Gaussian 16:  ES64L-G16RevC.01  3-Jul-2019

 ----------------------------------------------------------------------
 #t hf aug-cc-pvdz iop(5/13=1,5/36=2,99/5=2) pseudo=read geom=check gue
 ss=(read,tcheck) scf=(maxcycle=1)
 ----------------------------------------------------------------------
 -----
 title
 -----
 Structure from the checkpoint file:  "BDE49_nonexpt_1243_mol2.chk"
 Charge =  0 Multiplicity = 2

                         Standard orientation:
 ---------------------------------------------------------------------
 Center     Atomic      Atomic             Coordinates (Angstroms)
 Number     Number       Type             X           Y           Z
 ---------------------------------------------------------------------
      1         15           0       -0.000002    1.401874   -0.000172
      2         16           0        1.703737   -0.041456   -0.168917
      3         16           0       -1.703765   -0.041388    0.168917
      4          8           0        1.349274   -1.067150   -1.139461
      5          8           0        2.853491    0.816374   -0.393069
      6          8           0       -1.349489   -1.066628    1.140009
      7          8           0       -2.853569    0.816539    0.392444
      8          6           0        1.869700   -0.822008    1.438348
      9          1           0        2.692805   -1.531872    1.331999
     10          1           0        0.934719   -1.327346    1.674093
     11          1           0        2.116609   -0.053303    2.169441
     12          6           0       -1.869406   -0.822693   -1.438014
     13          1           0       -0.934372   -1.328134   -1.673337
     14          1           0       -2.116175   -0.054332   -2.169516
     15          1           0       -2.692525   -1.532515   -1.331497
 ---------------------------------------------------------------------

 SCF Done:  E(UHF) =  -1516.67692204     A.U. after    2 cycles

 The electronic state is 2-A.
 Alpha  occ. eigenvalues -- -105.27317 -75.90686 -75.90684 -21.06832 -21.06830
 Alpha  occ. eigenvalues --  -21.06669 -21.06667 -13.52907 -13.52729 -13.40613
 Alpha  occ. eigenvalues --  -13.40280 -13.34329 -13.32573 -11.43748 -11.43519
 Alpha  occ. eigenvalues --   -8.25641  -8.25623  -2.85155  -1.84755  -1.84632
 Alpha  occ. eigenvalues --   -1.67111  -1.66504  -1.55321  -1.52733  -1.51673
 Alpha  occ. eigenvalues --   -1.16205  -1.16183  -0.93552  -0.89179  -0.75838
 Alpha  occ. eigenvalues --   -0.65221  -0.64448  -0.64157  -0.62968  -0.59602
 Alpha  occ. eigenvalues --   -0.58681  -0.53835  -0.48217  -0.46956  -0.45922
 Alpha  occ. eigenvalues --   -0.42293  -0.41508  -0.39980  -0.39192  -0.37589
 Alpha  occ. eigenvalues --   -0.37283  -0.17937  -0.11256  -0.03443
 Alpha virt. eigenvalues --    0.03089   0.04329   0.05567   0.05633   0.06868
 Alpha virt. eigenvalues --    0.07166   0.07811   0.09397   0.09946   0.11572
 Alpha virt. eigenvalues --    0.11906   0.12926   0.13267   0.13418   0.13572

  Beta  occ. eigenvalues -- -105.26640 -75.90730 -75.90729 -21.06817 -21.06814
  Beta  occ. eigenvalues --  -21.06714 -21.06712 -13.52931 -13.52753 -13.40683
  Beta  occ. eigenvalues --  -13.40417 -13.34450 -13.32753 -11.43751 -11.43521
  Beta  occ. eigenvalues --   -8.25697  -8.25678  -2.83094  -1.84770  -1.84641
  Beta  occ. eigenvalues --   -1.67128  -1.66529  -1.50048  -1.49768  -1.30144
  Beta  occ. eigenvalues --   -1.16206  -1.16165  -0.93139  -0.89415  -0.72830
  Beta  occ. eigenvalues --   -0.65166  -0.64428  -0.64109  -0.62037  -0.59482
  Beta  occ. eigenvalues --   -0.58310  -0.53860  -0.47637  -0.45997  -0.45565
  Beta  occ. eigenvalues --   -0.42320  -0.41542  -0.39972  -0.39098  -0.37512
  Beta  occ. eigenvalues --   -0.37227  -0.18910  -0.09904
  Beta virt. eigenvalues --    0.03150   0.03418   0.05475   0.05658   0.06589
  Beta virt. eigenvalues --    0.07243   0.07828   0.08230   0.09586   0.10165
  Beta virt. eigenvalues --    0.12325   0.12612   0.13295   0.13535   0.13853

 Mulliken charges and spin densities:
               1          2
     1  P    2.962366   1.282597
     2  S    4.217166  -0.080367
     3  S    4.217095  -0.080415
     4  O   -2.570506  -0.048502
     5  O   -2.430459  -0.012830
     6  O   -2.570337  -0.048490
     7  O   -2.430454  -0.012802
     8  C   -4.870284  -0.055901
     9  H    1.306382   0.007689
    10  H    1.555696  -0.004833
    11  H    1.310715   0.053460
    12  C   -4.870371  -0.055927
    13  H    1.555931  -0.004825
    14  H    1.310673   0.053462
    15  H    1.306388   0.007685
 Sum of Mulliken charges =  -0.00000   1.00000

 Dipole moment (field-independent basis, Debye):
    X=              0.0004    Y=              6.8610    Z=             -0.0006  Tot=              6.8610
                          Isotropic Fermi Contact Couplings
        Atom                 a.u.       MegaHertz       Gauss      10(-4) cm-1
     1  P(31)              0.19956     361.43083     128.96751     120.56035
     2  S(33)             -0.05952     -20.44371      -7.29482      -6.81929
     3  S(33)             -0.05951     -20.43921      -7.29322      -6.81779
     4  O(17)              0.01536      -9.30919      -3.32175      -3.10521
     5  O(17)              0.00236      -1.43100      -0.51062      -0.47733
     6  O(17)              0.01536      -9.31255      -3.32295      -3.10633
     7  O(17)              0.00236      -1.42859      -0.50975      -0.47652
     8  C(13)              0.00992      11.15480       3.98031       3.72084

 Normal termination of Gaussian 16 at Tue Apr  8 23:26:27 2025.
