 Gaussian 16, Revision C.01,

 ----------------------------------------------------------------------
 #t hf aug-cc-pvdz symm=none int=(grid=ultrafine) guess=(read,tcheck) s
 table=(opt,rrhf)
 ----------------------------------------------------------------------
 -----
 title
 -----
 Symbolic Z-matrix:
 Charge =  0 Multiplicity = 1

 SCF Done:  E(RHF) =  -1662.50542149     A.U. after   15 cycles
 Normal termination of Gaussian 16 at Tue Apr  8 22:52:40 2025.
 Gaussian 16:  ES64L-G16RevC.01  3-Jul-2019

 ----------------------------------------------------------------------
 #t hf aug-cc-pvdz iop(5/13=1,5/36=2,99/5=2) pseudo=read geom=check gue
 ss=(read,tcheck) scf=(maxcycle=1)
 ----------------------------------------------------------------------
 -----
 title
 -----
 Structure from the checkpoint file:  "BDE49_expt_1730_mol1.chk"
 Charge =  0 Multiplicity = 1

                         Standard orientation:
 ---------------------------------------------------------------------
 Center     Atomic      Atomic             Coordinates (Angstroms)
 Number     Number       Type             X           Y           Z
 ---------------------------------------------------------------------
      1          6           0        2.738890    1.156852   -0.000016
      2          6           0        1.344933    1.234662   -0.000016
      3          7           0        3.421995    0.013901   -0.000006
      4          6           0        2.707185   -1.117280    0.000005
      5          6           0        1.319230   -1.155150    0.000006
      6          6           0        0.613267    0.051888   -0.000005
      7          1           0        3.327558    2.069635   -0.000025
      8          1           0        0.859645    2.199571   -0.000025
      9          1           0        3.274452   -2.043120    0.000013
     10          1           0        0.802339   -2.105912    0.000015
     11          6           0       -0.907574    0.016840   -0.000000
     12         17           0       -1.659024    1.646712   -0.000043
     13         17           0       -1.497350   -0.862854    1.466727
     14         17           0       -1.497364   -0.862937   -1.466670
 ---------------------------------------------------------------------

 SCF Done:  E(RHF) =  -1664.58010816     A.U. after    2 cycles

 The electronic state is 1-A.
 Alpha  occ. eigenvalues --  -99.92363 -99.92066 -99.92065 -15.75582 -11.58783
 Alpha  occ. eigenvalues --  -11.51410 -11.46948 -11.46480 -11.44057 -11.40096
 Alpha  occ. eigenvalues --  -10.49799 -10.49376 -10.49254  -9.69742  -9.69366
 Alpha  occ. eigenvalues --   -9.69229  -9.69016  -9.68765  -9.68604  -9.68505
 Alpha  occ. eigenvalues --   -9.68443  -9.68387  -1.50203  -1.42967  -1.31132
 Alpha  occ. eigenvalues --   -1.30828  -1.21957  -1.13423  -1.01867  -0.91606
 Alpha  occ. eigenvalues --   -0.87659  -0.76354  -0.71198  -0.71046  -0.68013
 Alpha  occ. eigenvalues --   -0.63657  -0.61708  -0.61163  -0.58415  -0.55679
 Alpha  occ. eigenvalues --   -0.54588  -0.51488  -0.51410  -0.50460  -0.49800
 Alpha  occ. eigenvalues --   -0.48680  -0.38795  -0.37975  -0.35741
 Alpha virt. eigenvalues --   -0.00270   0.03120   0.04270   0.04877   0.05931
 Alpha virt. eigenvalues --    0.06716   0.07092   0.07604   0.09071   0.09825
 Alpha virt. eigenvalues --    0.10257   0.10413   0.11978   0.12028   0.12471

 Mulliken charges:
               1
     1  C   -1.008292
     2  C   -2.887078
     3  N   -3.784420
     4  C   -0.701711
     5  C   -2.105535
     6  C    7.607936
     7  H    1.534123
     8  H    1.677084
     9  H    1.522937
    10  H    1.671511
    11  C   -3.966980
    12  Cl  -0.081639
    13  Cl   0.261038
    14  Cl   0.261026
 Sum of Mulliken charges =  -0.00000

 Dipole moment (field-independent basis, Debye):
    X=              0.6962    Y=              0.1547    Z=             -0.0000  Tot=              0.7132

 Test job not archived.
 1\1\GINC-SE073\SP\RHF\Aug-CC-pVDZ\C6H4Cl3N1\OHZDE\08-Apr-2025\0\\#t hf
  aug-cc-pvdz iop(5/13=1,5/36=2,99/5=2) pseudo=read geom=check guess=(r
 ead,tcheck) scf=(maxcycle=1)\\title\\0,1\C,0,2.73889,1.156852,-0.00001
 6\C,0,1.344933,1.234662,-0.000016\N,0,3.421995,0.013901,-0.000006\C,0,
 2.707185,-1.11728,0.000005\C,0,1.31923,-1.15515,0.000006\C,0,0.613267,
 0.051888,-0.000005\H,0,3.327558,2.069635,-0.000025\H,0,0.859645,2.1995
 71,-0.000025\H,0,3.274452,-2.04312,0.000013\H,0,0.802339,-2.105912,0.0
 00015\C,0,-0.907574,0.01684,0.\Cl,0,-1.659024,1.646712,-0.000043\Cl,0,

 Normal termination of Gaussian 16 at Tue Apr  8 22:52:48 2025.
