 Gaussian 16, Revision C.01,

 ----------------------------------------------------------------------
 #t hf aug-cc-pvdz symm=none int=(grid=ultrafine) guess=(read,tcheck) s
 table=opt
 ----------------------------------------------------------------------
 -----
 title
 -----
 Symbolic Z-matrix:
 Charge =  0 Multiplicity = 2

 SCF Done:  E(UHF) =  -688.210754452     A.U. after   13 cycles

 1\1\GINC-SE403\Stability\UHF\Aug-CC-pVDZ\H3S1Si1\OHZDE\09-Apr-2025\0\\
 #t hf aug-cc-pvdz symm=none int=(grid=ultrafine) guess=(read,tcheck) s
 table=opt\\title\\0,2\S,0,1.149582,-0.006215,0.000121\Si,0,-0.99638,-0
 .002417,0.000044\H,0,-1.547793,-0.629547,1.22107\H,0,-1.348415,1.43905
 4,-0.027752\H,0,-1.547777,-0.676221,-1.195867\\Version=ES64L-G16RevC.0
 1\HF=-688.2107545\S2=0.760438\S2-1=0.\S2A=0.750035\RMSD=6.602e-09\Dipo
 le=-0.4824026,-0.0417179,0.000789\Quadrupole=-0.1661056,1.1628663,-0.9
 967607,-0.0819169,0.0016332,-0.0416395\PG=Unknown\\@

 Normal termination of Gaussian 16 at Wed Apr  9 00:16:33 2025.
 Gaussian 16:  ES64L-G16RevC.01  3-Jul-2019

 ----------------------------------------------------------------------
 #t hf aug-cc-pvdz iop(5/13=1,5/36=2,99/5=2) pseudo=read geom=check gue
 ss=(read,tcheck) scf=(maxcycle=1)
 ----------------------------------------------------------------------
 -----
 title
 -----
 Structure from the checkpoint file:  "BDE49_nonexpt_2534_mol2.chk"
 Charge =  0 Multiplicity = 2

                         Standard orientation:
 ---------------------------------------------------------------------
 Center     Atomic      Atomic             Coordinates (Angstroms)
 Number     Number       Type             X           Y           Z
 ---------------------------------------------------------------------
      1         16           0        1.149582   -0.006215    0.000119
      2         14           0       -0.996380   -0.002417    0.000044
      3          1           0       -1.547793   -0.629815    1.220932
      4          1           0       -1.348415    1.439060   -0.027436
      5          1           0       -1.547777   -0.675958   -1.196015
 ---------------------------------------------------------------------

 SCF Done:  E(UHF) =  -688.564606943     A.U. after    2 cycles

 The electronic state is 2-A.
 Alpha  occ. eigenvalues --  -76.25188 -75.71002 -13.08352 -13.05396 -13.03458
 Alpha  occ. eigenvalues --   -8.04649  -5.58538  -2.20515  -2.20345  -2.20083
 Alpha  occ. eigenvalues --   -1.10698  -0.76592  -0.50219  -0.49336  -0.36536
 Alpha  occ. eigenvalues --   -0.32965  -0.28418
 Alpha virt. eigenvalues --    0.03676   0.03920   0.05826   0.06096   0.09676
 Alpha virt. eigenvalues --    0.09883   0.11294   0.13747   0.14419   0.14496
 Alpha virt. eigenvalues --    0.15137   0.18345   0.19089   0.21611   0.22183

  Beta  occ. eigenvalues --  -76.25232 -75.70053 -13.07796 -13.02888 -12.99644
  Beta  occ. eigenvalues --   -8.03592  -5.58605  -2.20631  -2.20402  -2.20213
  Beta  occ. eigenvalues --   -1.01480  -0.75415  -0.49147  -0.48783  -0.35018
  Beta  occ. eigenvalues --   -0.26790
  Beta virt. eigenvalues --    0.01118   0.03711   0.04181   0.06116   0.06347
  Beta virt. eigenvalues --    0.09830   0.09912   0.11439   0.14582   0.14674
  Beta virt. eigenvalues --    0.14775   0.15626   0.19356   0.19364   0.22033

 Mulliken charges and spin densities:
               1          2
     1  S   -1.252977   1.116632
     2  Si   5.981874  -0.183921
     3  H   -1.571017   0.005857
     4  H   -1.586873   0.055574
     5  H   -1.571008   0.005858
 Sum of Mulliken charges =  -0.00000   1.00000

 Dipole moment (field-independent basis, Debye):
    X=              1.2971    Y=             -0.1161    Z=              0.0022  Tot=              1.3023
                          Isotropic Fermi Contact Couplings
        Atom                 a.u.       MegaHertz       Gauss      10(-4) cm-1
     1  S(33)              0.22050      75.73639      27.02463      25.26294
     2  Si(29)            -0.03986      35.42559      12.64073      11.81670
     3  H(1)               0.00190       8.51277       3.03757       2.83956
     4  H(1)               0.01222      54.62176      19.49040      18.21986
     5  H(1)               0.00190       8.51406       3.03803       2.83998
 --------------------------------------------------------
       Center         ----  Spin Dipole Couplings  ----
                      3XX-RR        3YY-RR        3ZZ-RR

 Normal termination of Gaussian 16 at Wed Apr  9 00:16:34 2025.
