 Gaussian 16, Revision C.01,

 ----------------------------------------------------------------------
 #t hf aug-cc-pvdz symm=none int=(grid=ultrafine) guess=(read,tcheck) s
 table=(opt,rrhf)
 ----------------------------------------------------------------------
 -----
 title
 -----
 Symbolic Z-matrix:
 Charge =  0 Multiplicity = 1

 SCF Done:  E(RHF) =  -1154.07428197     A.U. after   12 cycles
 Normal termination of Gaussian 16 at Tue Apr  8 23:43:23 2025.
 Gaussian 16:  ES64L-G16RevC.01  3-Jul-2019

 ----------------------------------------------------------------------
 #t hf aug-cc-pvdz iop(5/13=1,5/36=2,99/5=2) pseudo=read geom=check gue
 ss=(read,tcheck) scf=(maxcycle=1)
 ----------------------------------------------------------------------
 -----
 title
 -----
 Structure from the checkpoint file:  "BDE49_nonexpt_1682_mol1.chk"
 Charge =  0 Multiplicity = 1

                         Standard orientation:
 ---------------------------------------------------------------------
 Center     Atomic      Atomic             Coordinates (Angstroms)
 Number     Number       Type             X           Y           Z
 ---------------------------------------------------------------------
      1         14           0       -1.097336    0.006828    0.007901
      2         15           0        1.155488    0.016745    0.129211
      3          9           0       -1.721726   -0.846683    1.182117
      4          9           0       -1.632064   -0.569050   -1.364179
      5          9           0       -1.604915    1.500318    0.145028
      6          8           0        1.718750    0.485924    1.400929
      7          8           0        1.445299   -1.486677   -0.324204
      8          1           0        2.354533   -1.784445   -0.181096
      9          8           0        1.629412    0.867595   -1.155451
     10          1           0        1.956488    1.741670   -0.904574
 ---------------------------------------------------------------------

 SCF Done:  E(RHF) =  -1156.36314510     A.U. after    2 cycles

 The electronic state is 1-A.
 Alpha  occ. eigenvalues -- -105.32994 -76.34504 -29.31643 -29.31583 -29.31575
 Alpha  occ. eigenvalues --  -21.14416 -21.13953 -21.04910  -5.71389  -2.95191
 Alpha  occ. eigenvalues --   -2.35551  -2.35494  -2.31375  -2.00374  -1.92406
 Alpha  occ. eigenvalues --   -1.81050  -1.53394  -1.42371  -1.27967  -1.01566
 Alpha  occ. eigenvalues --   -0.74304  -0.74147  -0.72890  -0.62773  -0.56604
 Alpha  occ. eigenvalues --   -0.48575  -0.47772  -0.44680  -0.44286  -0.43882
 Alpha  occ. eigenvalues --   -0.43548  -0.38933  -0.38265  -0.36487  -0.35769
 Alpha  occ. eigenvalues --   -0.32382  -0.32197  -0.31589  -0.30603  -0.22373
 Alpha  occ. eigenvalues --   -0.12556
 Alpha virt. eigenvalues --    0.03661   0.05328   0.06871   0.08173   0.08356
 Alpha virt. eigenvalues --    0.10538   0.11896   0.13669   0.14533   0.16733
 Alpha virt. eigenvalues --    0.18273   0.19623   0.19737   0.20268   0.22438

 Mulliken charges:
               1
     1  Si   3.347390
     2  P    6.046645
     3  F   -0.933859
     4  F   -0.874207
     5  F   -0.752153
     6  O   -2.949838
     7  O   -2.765918
     8  H    0.864469
     9  O   -2.694196
    10  H    0.711666
 Sum of Mulliken charges =   0.00000

 Dipole moment (field-independent basis, Debye):
    X=             -1.9020    Y=             -0.7094    Z=             -2.6818  Tot=              3.3634

 Test job not archived.
 1\1\GINC-SE108\SP\RHF\Aug-CC-pVDZ\F3H2O3P1Si1\OHZDE\08-Apr-2025\0\\#t
 hf aug-cc-pvdz iop(5/13=1,5/36=2,99/5=2) pseudo=read geom=check guess=
 (read,tcheck) scf=(maxcycle=1)\\title\\0,1\Si,0,1.097336,0.006828,-0.0
 07901\P,0,-1.155488,0.016745,-0.129211\F,0,1.721726,-0.846683,-1.18211
 7\F,0,1.632064,-0.56905,1.364179\F,0,1.604915,1.500318,-0.145028\O,0,-
 1.71875,0.485924,-1.400929\O,0,-1.445299,-1.486677,0.324204\H,0,-2.354
 533,-1.784445,0.181096\O,0,-1.629412,0.867595,1.155451\H,0,-1.956487,1
 .74167,0.904574\\Version=ES64L-G16RevC.01\State=1-A\HF=-1156.3631451\R

 Normal termination of Gaussian 16 at Tue Apr  8 23:43:27 2025.
