 Gaussian 16, Revision C.01,

 ----------------------------------------------------------------------
 #t hf aug-cc-pvdz symm=none int=(grid=ultrafine) guess=(read,tcheck) s
 table=(opt,rrhf)
 ----------------------------------------------------------------------
 -----
 title
 -----
 Symbolic Z-matrix:
 Charge =  0 Multiplicity = 1

 SCF Done:  E(RHF) =  -952.382326821     A.U. after   13 cycles

 1\1\GINC-SE331\Stability\RHF\Aug-CC-pVDZ\C4H10S2\OHZDE\08-Apr-2025\0\\
 #t hf aug-cc-pvdz symm=none int=(grid=ultrafine) guess=(read,tcheck) s
 table=(opt,rrhf)\\title\\0,1\S,0,-0.590979,-0.856444,-0.581576\S,0,0.5
 90978,0.856441,-0.581579\C,0,1.873888,0.50887,0.696432\C,0,-1.873888,-
 0.508868,0.696434\C,0,-2.84998,0.600847,0.328286\H,0,-1.370911,-0.3090
 65,1.644363\H,0,-2.385834,-1.471889,0.794841\H,0,-2.326869,1.549813,0.
 193476\H,0,-3.59097,0.733547,1.123218\H,0,-3.377651,0.367192,-0.59897\
 C,0,2.849982,-0.600845,0.328286\H,0,1.370912,0.309069,1.644361\H,0,2.3

 Normal termination of Gaussian 16 at Tue Apr  8 23:01:05 2025.
 Gaussian 16:  ES64L-G16RevC.01  3-Jul-2019

 ----------------------------------------------------------------------
 #t hf aug-cc-pvdz iop(5/13=1,5/36=2,99/5=2) pseudo=read geom=check gue
 ss=(read,tcheck) scf=(maxcycle=1)
 ----------------------------------------------------------------------
 -----
 title
 -----
 Structure from the checkpoint file:  "BDE49_expt_1957_mol1.chk"
 Charge =  0 Multiplicity = 1

                         Standard orientation:
 ---------------------------------------------------------------------
 Center     Atomic      Atomic             Coordinates (Angstroms)
 Number     Number       Type             X           Y           Z
 ---------------------------------------------------------------------
      1         16           0        0.590979    0.856444   -0.581576
      2         16           0       -0.590978   -0.856441   -0.581579
      3          6           0       -1.873888   -0.508870    0.696432
      4          6           0        1.873888    0.508868    0.696434
      5          6           0        2.849980   -0.600847    0.328286
      6          1           0        1.370911    0.309065    1.644363
      7          1           0        2.385834    1.471889    0.794841
      8          1           0        2.326869   -1.549813    0.193476
      9          1           0        3.590970   -0.733547    1.123218
     10          1           0        3.377651   -0.367192   -0.598970
     11          6           0       -2.849982    0.600845    0.328286
     12          1           0       -1.370912   -0.309069    1.644361
     13          1           0       -2.385832   -1.471892    0.794836
     14          1           0       -2.326871    1.549812    0.193478
     15          1           0       -3.590972    0.733541    1.123218
     16          1           0       -3.377652    0.367191   -0.598971
 ---------------------------------------------------------------------

 SCF Done:  E(RHF) =  -953.666820219     A.U. after    2 cycles

 The electronic state is 1-A.
 Alpha  occ. eigenvalues --  -75.69441 -75.69346 -13.14334 -13.10849 -13.09612
 Alpha  occ. eigenvalues --  -13.08023 -13.05061 -13.03950 -11.42309 -11.41712
 Alpha  occ. eigenvalues --  -11.36710 -11.36672  -8.03283  -8.03274  -1.27443
 Alpha  occ. eigenvalues --   -1.18824  -1.08318  -0.98368  -0.87838  -0.82693
 Alpha  occ. eigenvalues --   -0.63702  -0.62901  -0.58640  -0.58310  -0.52660
 Alpha  occ. eigenvalues --   -0.51619  -0.50971  -0.49703  -0.43226  -0.40090
 Alpha  occ. eigenvalues --   -0.33161  -0.24444  -0.22965
 Alpha virt. eigenvalues --    0.03074   0.03799   0.04229   0.05336   0.06411
 Alpha virt. eigenvalues --    0.06752   0.06908   0.07499   0.07802   0.09167
 Alpha virt. eigenvalues --    0.09267   0.10405   0.12543   0.12773   0.13750

 Mulliken charges:
               1
     1  S    0.313675
     2  S    0.313674
     3  C   -3.848194
     4  C   -3.848195
     5  C   -3.583725
     6  H    1.613714
     7  H    1.545067
     8  H    1.423512
     9  H    1.188409
    10  H    1.347543
    11  C   -3.583727
    12  H    1.613715
    13  H    1.545069
    14  H    1.423511
    15  H    1.188409
    16  H    1.347543
 Sum of Mulliken charges =  -0.00000

 Dipole moment (field-independent basis, Debye):
    X=             -0.0000    Y=             -0.0000    Z=             -0.2082  Tot=              0.2082

 Test job not archived.
 1\1\GINC-SE331\SP\RHF\Aug-CC-pVDZ\C4H10S2\OHZDE\08-Apr-2025\0\\#t hf a
 ug-cc-pvdz iop(5/13=1,5/36=2,99/5=2) pseudo=read geom=check guess=(rea
 d,tcheck) scf=(maxcycle=1)\\title\\0,1\S,0,-0.590979,-0.856444,-0.5815
 76\S,0,0.590978,0.856441,-0.581579\C,0,1.873888,0.50887,0.696432\C,0,-
 1.873888,-0.508868,0.696434\C,0,-2.84998,0.600847,0.328286\H,0,-1.3709
 11,-0.309065,1.644363\H,0,-2.385834,-1.471889,0.794841\H,0,-2.326869,1
 .549813,0.193476\H,0,-3.59097,0.733547,1.123218\H,0,-3.377651,0.367192
 ,-0.59897\C,0,2.849982,-0.600845,0.328286\H,0,1.370912,0.309069,1.6443

 Normal termination of Gaussian 16 at Tue Apr  8 23:01:11 2025.
