 Gaussian 16, Revision C.01,

 ----------------------------------------------------------------------
 #t hf aug-cc-pvdz symm=none int=(grid=ultrafine) guess=(read,tcheck) s
 table=(opt,rrhf)
 ----------------------------------------------------------------------
 -----
 title
 -----
 Symbolic Z-matrix:
 Charge =  0 Multiplicity = 1

 SCF Done:  E(RHF) =  -266.448885406     A.U. after   14 cycles
 Normal termination of Gaussian 16 at Tue Apr  8 23:20:50 2025.
 Gaussian 16:  ES64L-G16RevC.01  3-Jul-2019

 ----------------------------------------------------------------------
 #t hf aug-cc-pvdz iop(5/13=1,5/36=2,99/5=2) pseudo=read geom=check gue
 ss=(read,tcheck) scf=(maxcycle=1)
 ----------------------------------------------------------------------
 -----
 title
 -----
 Structure from the checkpoint file:  "BDE49_nonexpt_1137_mol1.chk"
 Charge =  0 Multiplicity = 1

                         Standard orientation:
 ---------------------------------------------------------------------
 Center     Atomic      Atomic             Coordinates (Angstroms)
 Number     Number       Type             X           Y           Z
 ---------------------------------------------------------------------
      1          9           0       -0.201042   -1.503637    0.000000
      2          8           0        0.727377   -0.345389    0.000000
      3          6           0       -0.000000    0.709974    0.000000
      4          7           0       -0.572806    1.719429    0.000000
 ---------------------------------------------------------------------

 SCF Done:  E(RHF) =  -267.463856475     A.U. after    2 cycles

 The electronic state is 1-A'.
 Alpha  occ. eigenvalues --  -29.38155 -21.27707 -15.81608 -11.52045  -1.91998
 Alpha  occ. eigenvalues --   -1.33219  -0.87014  -0.72006  -0.65090  -0.57526
 Alpha  occ. eigenvalues --   -0.51045  -0.45510  -0.39619  -0.33339  -0.29565
 Alpha virt. eigenvalues --    0.06496   0.09942   0.10454   0.12354   0.13646
 Alpha virt. eigenvalues --    0.17394   0.17946   0.18723   0.21141   0.22071
 Alpha virt. eigenvalues --    0.25638   0.26182   0.27292   0.28712   0.30415

 Mulliken charges:
               1
     1  F    0.125149
     2  O   -1.447576
     3  C    3.483636
     4  N   -2.161210
 Sum of Mulliken charges =  -0.00000

 Dipole moment (field-independent basis, Debye):
    X=              0.5689    Y=             -3.8234    Z=              0.0000  Tot=              3.8655

 Test job not archived.
 1\1\GINC-SE403\SP\RHF\Aug-CC-pVDZ\C1F1N1O1\OHZDE\08-Apr-2025\0\\#t hf
 aug-cc-pvdz iop(5/13=1,5/36=2,99/5=2) pseudo=read geom=check guess=(re
 ad,tcheck) scf=(maxcycle=1)\\title\\0,1\F,0,-0.201041,-1.503637,0.\O,0
 ,0.727377,-0.345389,0.\C,0,0.,0.709974,0.\N,0,-0.572806,1.719429,0.\\V
 ersion=ES64L-G16RevC.01\State=1-A'\HF=-267.4638565\RMSD=4.671e-02\Dipo
 le=0.223812,-1.5042582,0.\Quadrupole=0.2554176,-0.8396696,0.584252,1.8
 058189,0.,0.\PG=CS [SG(C1F1N1O1)]\\@

 Normal termination of Gaussian 16 at Tue Apr  8 23:20:51 2025.
