 Gaussian 16, Revision C.01,

 ----------------------------------------------------------------------
 #t hf aug-cc-pvdz symm=none int=(grid=ultrafine) guess=(read,tcheck) s
 table=(opt,rrhf)
 ----------------------------------------------------------------------
 -----
 title
 -----
 Symbolic Z-matrix:
 Charge =  0 Multiplicity = 1

 SCF Done:  E(RHF) =  -704.284528798     A.U. after   15 cycles
 Normal termination of Gaussian 16 at Wed Apr  9 00:23:14 2025.
 Gaussian 16:  ES64L-G16RevC.01  3-Jul-2019

 ----------------------------------------------------------------------
 #t hf aug-cc-pvdz iop(5/13=1,5/36=2,99/5=2) pseudo=read geom=check gue
 ss=(read,tcheck) scf=(maxcycle=1)
 ----------------------------------------------------------------------
 -----
 title
 -----
 Structure from the checkpoint file:  "BDE49_nonexpt_2676_mol1.chk"
 Charge =  0 Multiplicity = 1

                         Standard orientation:
 ---------------------------------------------------------------------
 Center     Atomic      Atomic             Coordinates (Angstroms)
 Number     Number       Type             X           Y           Z
 ---------------------------------------------------------------------
      1          9           0       -2.205524    0.379407   -0.503001
      2         16           0       -1.200464   -0.699887    0.302515
      3          6           0        0.348423    0.084417    0.033751
      4          7           0        1.273050   -0.774385   -0.193632
      5          8           0        2.542937   -0.192222   -0.121992
      6          1           0        3.119418   -0.925295   -0.362358
      7          6           0        0.496441    1.562371    0.223578
      8          1           0       -0.441750    2.064808   -0.009136
      9          1           0        1.293270    1.941308   -0.416802
     10          1           0        0.762180    1.780450    1.262450
 ---------------------------------------------------------------------

 SCF Done:  E(RHF) =  -705.766041907     A.U. after    2 cycles

 The electronic state is 1-A.
 Alpha  occ. eigenvalues --  -75.77281 -29.27619 -21.11864 -15.80500 -13.22459
 Alpha  occ. eigenvalues --  -13.18644 -13.09267 -11.47195 -11.39707  -8.11329
 Alpha  occ. eigenvalues --   -1.81072  -1.35154  -1.16987  -1.08715  -0.79146
 Alpha  occ. eigenvalues --   -0.69757  -0.64860  -0.62528  -0.60221  -0.55492
 Alpha  occ. eigenvalues --   -0.51927  -0.48311  -0.42140  -0.37855  -0.35536
 Alpha  occ. eigenvalues --   -0.31225  -0.28982  -0.18091
 Alpha virt. eigenvalues --    0.03556   0.05490   0.06417   0.06721   0.07758
 Alpha virt. eigenvalues --    0.09804   0.11026   0.12369   0.13057   0.14709
 Alpha virt. eigenvalues --    0.15015   0.15934   0.16555   0.17695   0.18661

 Mulliken charges:
               1
     1  F   -0.248294
     2  S    1.094043
     3  C    1.248246
     4  N   -0.815622
     5  O   -2.280875
     6  H    0.893471
     7  C   -3.778473
     8  H    1.357814
     9  H    1.287195
    10  H    1.242494
 Sum of Mulliken charges =  -0.00000

 Dipole moment (field-independent basis, Debye):
    X=             -1.3795    Y=              1.6038    Z=             -0.7924  Tot=              2.2590

 Test job not archived.
 1\1\GINC-SE128\SP\RHF\Aug-CC-pVDZ\C2H4F1N1O1S1\OHZDE\09-Apr-2025\0\\#t
  hf aug-cc-pvdz iop(5/13=1,5/36=2,99/5=2) pseudo=read geom=check guess
 =(read,tcheck) scf=(maxcycle=1)\\title\\0,1\F,0,-2.205524,0.379407,-0.
 503001\S,0,-1.200464,-0.699887,0.302515\C,0,0.348423,0.084417,0.033751
 \N,0,1.27305,-0.774385,-0.193632\O,0,2.542937,-0.192222,-0.121992\H,0,
 3.119418,-0.925295,-0.362358\C,0,0.496441,1.562371,0.223578\H,0,-0.441
 75,2.064808,-0.009136\H,0,1.29327,1.941308,-0.416802\H,0,0.76218,1.780
 45,1.26245\\Version=ES64L-G16RevC.01\State=1-A\HF=-705.7660419\RMSD=1.

 Normal termination of Gaussian 16 at Wed Apr  9 00:23:18 2025.
