 Gaussian 16, Revision C.01,

 ----------------------------------------------------------------------
 #t hf aug-cc-pvdz symm=none int=(grid=ultrafine) guess=(read,tcheck) s
 table=(opt,rrhf)
 ----------------------------------------------------------------------
 -----
 title
 -----
 Symbolic Z-matrix:
 Charge =  0 Multiplicity = 1

 SCF Done:  E(RHF) =  -848.764148609     A.U. after   15 cycles
 Normal termination of Gaussian 16 at Tue Apr  8 23:27:47 2025.
 Gaussian 16:  ES64L-G16RevC.01  3-Jul-2019

 ----------------------------------------------------------------------
 #t hf aug-cc-pvdz iop(5/13=1,5/36=2,99/5=2) pseudo=read geom=check gue
 ss=(read,tcheck) scf=(maxcycle=1)
 ----------------------------------------------------------------------
 -----
 title
 -----
 Structure from the checkpoint file:  "BDE49_nonexpt_1283_mol1.chk"
 Charge =  0 Multiplicity = 1

                         Standard orientation:
 ---------------------------------------------------------------------
 Center     Atomic      Atomic             Coordinates (Angstroms)
 Number     Number       Type             X           Y           Z
 ---------------------------------------------------------------------
      1          6           0       -0.507949    0.539778   -0.553476
      2         15           0        1.067024   -0.125274    0.166961
      3          7           0       -1.666340   -0.336267   -0.071998
      4          8           0        1.140515    0.017676    1.622979
      5          8           0        2.166285    0.694542   -0.657476
      6          8           0       -2.652499    0.200621    0.377319
      7          8           0       -1.526917   -1.554573   -0.197631
      8          1           0       -0.475096    0.357919   -1.630601
      9          6           0       -0.736039    2.004788   -0.223435
     10          1           0       -0.755854    2.159108    0.855403
     11          1           0       -1.675703    2.357264   -0.647731
     12          1           0        0.082259    2.588111   -0.649054
     13          1           0        2.763680    1.172400   -0.069388
     14          8           0        1.222468   -1.560371   -0.492148
     15          1           0        0.384847   -2.052364   -0.421920
 ---------------------------------------------------------------------

 SCF Done:  E(RHF) =  -851.134554800     A.U. after    2 cycles

 The electronic state is 1-A.
 Alpha  occ. eigenvalues -- -105.32677 -21.13784 -21.13211 -21.12289 -21.11341
 Alpha  occ. eigenvalues --  -21.04041 -16.02041 -11.49982 -11.41711  -2.95333
 Alpha  occ. eigenvalues --   -2.02641  -2.01270  -1.93063  -1.81488  -1.72007
 Alpha  occ. eigenvalues --   -1.57462  -1.41575  -1.28010  -1.22619  -1.04925
 Alpha  occ. eigenvalues --   -0.84477  -0.74982  -0.74352  -0.66765  -0.65402
 Alpha  occ. eigenvalues --   -0.62295  -0.60484  -0.57921  -0.56838  -0.54844
 Alpha  occ. eigenvalues --   -0.46142  -0.43816  -0.38468  -0.36670  -0.35833
 Alpha  occ. eigenvalues --   -0.34501  -0.34064  -0.29837  -0.28570  -0.17507
 Alpha virt. eigenvalues --    0.03208   0.04900   0.05141   0.06145   0.06526
 Alpha virt. eigenvalues --    0.07412   0.10069   0.10281   0.11112   0.12267
 Alpha virt. eigenvalues --    0.12981   0.13280   0.14161   0.14444   0.15114

 Mulliken charges:
               1
     1  C   -4.287637
     2  P   10.276630
     3  N    4.494118
     4  O   -3.021787
     5  O   -2.985124
     6  O   -2.755831
     7  O   -2.887153
     8  H    1.724004
     9  C   -2.893891
    10  H    1.188712
    11  H    1.193715
    12  H    1.146191
    13  H    0.868688
    14  O   -3.295601
    15  H    1.234966
 Sum of Mulliken charges =  -0.00000

 Dipole moment (field-independent basis, Debye):
    X=              1.0025    Y=              1.4422    Z=             -3.1683  Tot=              3.6225

 Test job not archived.
 1\1\GINC-SE342\SP\RHF\Aug-CC-pVDZ\C2H6N1O5P1\OHZDE\08-Apr-2025\0\\#t h
 f aug-cc-pvdz iop(5/13=1,5/36=2,99/5=2) pseudo=read geom=check guess=(
 read,tcheck) scf=(maxcycle=1)\\title\\0,1\C,0,-0.507949,0.539778,-0.55
 3476\P,0,1.067024,-0.125274,0.166961\N,0,-1.66634,-0.336267,-0.071998\
 O,0,1.140515,0.017676,1.622979\O,0,2.166285,0.694542,-0.657476\O,0,-2.
 652499,0.200621,0.377319\O,0,-1.526917,-1.554573,-0.197631\H,0,-0.4750
 96,0.357919,-1.630601\C,0,-0.736039,2.004788,-0.223435\H,0,-0.755854,2
 .159108,0.855403\H,0,-1.675703,2.357264,-0.647731\H,0,0.082259,2.58811

 Normal termination of Gaussian 16 at Tue Apr  8 23:27:54 2025.
