 Gaussian 16, Revision C.01,

 ----------------------------------------------------------------------
 #t hf aug-cc-pvdz symm=none int=(grid=ultrafine) guess=(read,tcheck) s
 table=(opt,rrhf)
 ----------------------------------------------------------------------
 -----
 title
 -----
 Symbolic Z-matrix:
 Charge =  0 Multiplicity = 1

 SCF Done:  E(RHF) =  -1009.39413871     A.U. after   14 cycles
 Normal termination of Gaussian 16 at Wed Apr  9 00:17:36 2025.
 Gaussian 16:  ES64L-G16RevC.01  3-Jul-2019

 ----------------------------------------------------------------------
 #t hf aug-cc-pvdz iop(5/13=1,5/36=2,99/5=2) pseudo=read geom=check gue
 ss=(read,tcheck) scf=(maxcycle=1)
 ----------------------------------------------------------------------
 -----
 title
 -----
 Structure from the checkpoint file:  "BDE49_nonexpt_2553_mol1.chk"
 Charge =  0 Multiplicity = 1

                         Standard orientation:
 ---------------------------------------------------------------------
 Center     Atomic      Atomic             Coordinates (Angstroms)
 Number     Number       Type             X           Y           Z
 ---------------------------------------------------------------------
      1         17           0        1.872446    0.321210   -0.000447
      2         16           0        0.248969   -0.984190    0.000342
      3          6           0       -1.250244    0.040210    0.000374
      4          8           0       -2.258619   -0.611372   -0.000179
      5          6           0       -1.147826    1.537269    0.000162
      6          1           0       -0.600641    1.882323    0.880051
      7          1           0       -2.156958    1.948182   -0.000197
      8          1           0       -0.600122    1.882063   -0.879508
 ---------------------------------------------------------------------

 SCF Done:  E(RHF) =  -1010.53371218     A.U. after    2 cycles

 The electronic state is 1-A.
 Alpha  occ. eigenvalues --  -99.92491 -75.76085 -21.09222 -13.17591 -13.12237
 Alpha  occ. eigenvalues --  -13.07187 -11.53332 -11.41721 -10.49603  -9.69329
 Alpha  occ. eigenvalues --   -9.68829  -9.68620  -8.09961  -1.75315  -1.35486
 Alpha  occ. eigenvalues --   -1.16676  -1.08344  -0.77900  -0.66372  -0.62713
 Alpha  occ. eigenvalues --   -0.61357  -0.56604  -0.55893  -0.53134  -0.48088
 Alpha  occ. eigenvalues --   -0.47249  -0.29840  -0.27307
 Alpha virt. eigenvalues --    0.02583   0.04517   0.06193   0.06424   0.07018
 Alpha virt. eigenvalues --    0.09383   0.12163   0.12247   0.12915   0.13432
 Alpha virt. eigenvalues --    0.13877   0.14141   0.14875   0.15718   0.17564

 Mulliken charges:
               1
     1  Cl  -0.390038
     2  S    0.935454
     3  C    2.393827
     4  O   -2.839580
     5  C   -3.945753
     6  H    1.290196
     7  H    1.265550
     8  H    1.290344
 Sum of Mulliken charges =  -0.00000

 Dipole moment (field-independent basis, Debye):
    X=             -1.7099    Y=             -1.0665    Z=              0.0004  Tot=              2.0153

 Test job not archived.
 1\1\GINC-SE071\SP\RHF\Aug-CC-pVDZ\C2H3Cl1O1S1\OHZDE\09-Apr-2025\0\\#t
 hf aug-cc-pvdz iop(5/13=1,5/36=2,99/5=2) pseudo=read geom=check guess=
 (read,tcheck) scf=(maxcycle=1)\\title\\0,1\Cl,0,-1.872446,0.32121,0.00
 0447\S,0,-0.248969,-0.98419,-0.000342\C,0,1.250244,0.04021,-0.000374\O
 ,0,2.258619,-0.611372,0.000179\C,0,1.147826,1.537269,-0.000162\H,0,0.6
 00641,1.882323,-0.880051\H,0,2.156958,1.948182,0.000197\H,0,0.600122,1
 .882063,0.879508\\Version=ES64L-G16RevC.01\State=1-A\HF=-1010.5337122\
 RMSD=1.484e-01\Dipole=0.6727368,-0.4195909,-0.0001733\Quadrupole=-2.67

 Normal termination of Gaussian 16 at Wed Apr  9 00:17:39 2025.
