 Gaussian 16, Revision C.01,

 ----------------------------------------------------------------------
 #t hf aug-cc-pvdz symm=none int=(grid=ultrafine) guess=(read,tcheck) s
 table=(opt,rrhf)
 ----------------------------------------------------------------------
 -----
 title
 -----
 Symbolic Z-matrix:
 Charge =  0 Multiplicity = 1

 SCF Done:  E(RHF) =  -868.646331285     A.U. after   15 cycles
 Normal termination of Gaussian 16 at Tue Apr  8 23:40:50 2025.
 Gaussian 16:  ES64L-G16RevC.01  3-Jul-2019

 ----------------------------------------------------------------------
 #t hf aug-cc-pvdz iop(5/13=1,5/36=2,99/5=2) pseudo=read geom=check gue
 ss=(read,tcheck) scf=(maxcycle=1)
 ----------------------------------------------------------------------
 -----
 title
 -----
 Structure from the checkpoint file:  "BDE49_nonexpt_1610_mol1.chk"
 Charge =  0 Multiplicity = 1

                         Standard orientation:
 ---------------------------------------------------------------------
 Center     Atomic      Atomic             Coordinates (Angstroms)
 Number     Number       Type             X           Y           Z
 ---------------------------------------------------------------------
      1          8           0       -0.187273   -0.562618   -0.988382
      2         15           0       -1.244516   -0.031652    0.197010
      3          8           0       -0.935297   -0.579990    1.511726
      4          8           0       -2.615364   -0.432105   -0.488259
      5          8           0        1.112059   -0.933838   -0.474521
      6          6           0        1.873119    0.142468   -0.126811
      7          6           0        3.237248   -0.335867    0.285531
      8          1           0        3.328644   -0.204577    1.366044
      9          1           0        3.983237    0.294322   -0.199991
     10          1           0        3.398863   -1.381734    0.032398
     11          8           0        1.485646    1.281496   -0.126976
     12          8           0       -1.289406    1.525816   -0.027587
     13          1           0       -0.376881    1.862157   -0.105808
     14          1           0       -2.891238   -1.325088   -0.248101
 ---------------------------------------------------------------------

 SCF Done:  E(RHF) =  -871.039191716     A.U. after    2 cycles

 The electronic state is 1-A.
 Alpha  occ. eigenvalues -- -105.34057 -21.17215 -21.13999 -21.13631 -21.11697
 Alpha  occ. eigenvalues --  -21.09304 -21.04068 -11.56542 -11.42479  -2.97262
 Alpha  occ. eigenvalues --   -2.05420  -2.02818  -1.93963  -1.82216  -1.75455
 Alpha  occ. eigenvalues --   -1.64487  -1.41255  -1.36626  -1.25508  -1.12876
 Alpha  occ. eigenvalues --   -0.80759  -0.70514  -0.68860  -0.65385  -0.64802
 Alpha  occ. eigenvalues --   -0.59807  -0.58671  -0.55942  -0.52410  -0.50005
 Alpha  occ. eigenvalues --   -0.45964  -0.43812  -0.42747  -0.39173  -0.35946
 Alpha  occ. eigenvalues --   -0.34781  -0.33368  -0.28663  -0.26738  -0.16941
 Alpha virt. eigenvalues --    0.03066   0.04965   0.05645   0.05795   0.07331
 Alpha virt. eigenvalues --    0.09021   0.10333   0.11342   0.12550   0.12684
 Alpha virt. eigenvalues --    0.13347   0.13750   0.14787   0.15401   0.15836

 Mulliken charges:
               1
     1  O   -1.849300
     2  P    8.648929
     3  O   -2.933479
     4  O   -2.698127
     5  O   -1.859438
     6  C    5.008013
     7  C   -4.073794
     8  H    1.227063
     9  H    1.163683
    10  H    1.447442
    11  O   -3.058514
    12  O   -3.074590
    13  H    1.200297
    14  H    0.851813
 Sum of Mulliken charges =  -0.00000

 Dipole moment (field-independent basis, Debye):
    X=              0.8655    Y=             -0.4402    Z=             -2.2122  Tot=              2.4159

 Test job not archived.
 1\1\GINC-SE453\SP\RHF\Aug-CC-pVDZ\C2H5O6P1\OHZDE\08-Apr-2025\0\\#t hf
 aug-cc-pvdz iop(5/13=1,5/36=2,99/5=2) pseudo=read geom=check guess=(re
 ad,tcheck) scf=(maxcycle=1)\\title\\0,1\O,0,-0.187273,-0.562618,-0.988
 382\P,0,-1.244516,-0.031652,0.19701\O,0,-0.935297,-0.57999,1.511726\O,
 0,-2.615364,-0.432105,-0.488259\O,0,1.112059,-0.933838,-0.474521\C,0,1
 .873119,0.142468,-0.126811\C,0,3.237248,-0.335867,0.285531\H,0,3.32864
 4,-0.204577,1.366044\H,0,3.983237,0.294322,-0.199991\H,0,3.398863,-1.3
 81734,0.032398\O,0,1.485646,1.281496,-0.126976\O,0,-1.289406,1.525816,

 Normal termination of Gaussian 16 at Tue Apr  8 23:40:56 2025.
