 Gaussian 16, Revision C.01,

 ----------------------------------------------------------------------
 #t hf aug-cc-pvdz symm=none int=(grid=ultrafine) guess=(read,tcheck) s
 table=(opt,rrhf)
 ----------------------------------------------------------------------
 -----
 title
 -----
 Symbolic Z-matrix:
 Charge =  0 Multiplicity = 1

 SCF Done:  E(RHF) =  -167.791131706     A.U. after   13 cycles
 Normal termination of Gaussian 16 at Tue Apr  8 23:06:41 2025.
 Gaussian 16:  ES64L-G16RevC.01  3-Jul-2019

 ----------------------------------------------------------------------
 #t hf aug-cc-pvdz iop(5/13=1,5/36=2,99/5=2) pseudo=read geom=check gue
 ss=(read,tcheck) scf=(maxcycle=1)
 ----------------------------------------------------------------------
 -----
 title
 -----
 Structure from the checkpoint file:  "BDE49_expt_404_mol1.chk"
 Charge =  0 Multiplicity = 1

                         Standard orientation:
 ---------------------------------------------------------------------
 Center     Atomic      Atomic             Coordinates (Angstroms)
 Number     Number       Type             X           Y           Z
 ---------------------------------------------------------------------
      1          7           0       -1.158273   -0.122680   -0.000002
      2          6           0        0.044436    0.020519    0.000001
      3          1           0       -1.836398    0.620485    0.000023
      4          8           0        1.209712    0.014395   -0.000002
 ---------------------------------------------------------------------

 SCF Done:  E(RHF) =  -168.489104981     A.U. after    2 cycles

 The electronic state is 1-A.
 Alpha  occ. eigenvalues --  -21.13330 -15.78798 -11.57850  -1.77842  -1.36382
 Alpha  occ. eigenvalues --   -0.80231  -0.63014  -0.59879  -0.58519  -0.39415
 Alpha  occ. eigenvalues --   -0.35325
 Alpha virt. eigenvalues --    0.03247   0.08544   0.10647   0.10870   0.11928
 Alpha virt. eigenvalues --    0.16713   0.18003   0.18354   0.18497   0.22284
 Alpha virt. eigenvalues --    0.25089   0.27548   0.30048   0.32287   0.33717

 Mulliken charges:
               1
     1  N   -2.441427
     2  C    3.694589
     3  H    0.805191
     4  O   -2.058353
 Sum of Mulliken charges =   0.00000

 Dipole moment (field-independent basis, Debye):
    X=              0.0526    Y=              1.2711    Z=              0.0000  Tot=              1.2722

 Test job not archived.
 1\1\GINC-SE069\SP\RHF\Aug-CC-pVDZ\C1H1N1O1\OHZDE\08-Apr-2025\0\\#t hf
 aug-cc-pvdz iop(5/13=1,5/36=2,99/5=2) pseudo=read geom=check guess=(re
 ad,tcheck) scf=(maxcycle=1)\\title\\0,1\N,0,-1.158273,-0.12268,-0.0000
 02\C,0,0.044436,0.020519,0.000001\H,0,-1.836398,0.620485,0.000023\O,0,
 1.209712,0.014395,-0.000002\\Version=ES64L-G16RevC.01\State=1-A\HF=-16
 8.489105\RMSD=6.102e-02\Dipole=0.0207124,0.5000761,0.0000161\Quadrupol
 e=0.309079,0.2658147,-0.5748937,-1.9542883,-0.000064,0.0000304\PG=C01
 [X(C1H1N1O1)]\\@

 Normal termination of Gaussian 16 at Tue Apr  8 23:06:42 2025.
