 Gaussian 16, Revision C.01,

 ----------------------------------------------------------------------
 #t hf aug-cc-pvdz symm=none int=(grid=ultrafine) guess=(read,tcheck) s
 table=opt
 ----------------------------------------------------------------------
 -----
 title
 -----
 Symbolic Z-matrix:
 Charge =  0 Multiplicity = 2

 SCF Done:  E(UHF) =  -808.016321229     A.U. after   16 cycles
 Normal termination of Gaussian 16 at Tue Apr  8 23:27:23 2025.
 Gaussian 16:  ES64L-G16RevC.01  3-Jul-2019

 ----------------------------------------------------------------------
 #t hf aug-cc-pvdz iop(5/13=1,5/36=2,99/5=2) pseudo=read geom=check gue
 ss=(read,tcheck) scf=(maxcycle=1)
 ----------------------------------------------------------------------
 -----
 title
 -----
 Structure from the checkpoint file:  "BDE49_expt_823_mol2.chk"
 Charge =  0 Multiplicity = 2

                         Standard orientation:
 ---------------------------------------------------------------------
 Center     Atomic      Atomic             Coordinates (Angstroms)
 Number     Number       Type             X           Y           Z
 ---------------------------------------------------------------------
      1         15           0        0.000002   -1.403658   -0.000556
      2          6           0        1.435967   -0.208821    0.184604
      3          6           0        2.612577   -0.892303    0.910074
      4          6           0       -1.435962   -0.208669   -0.184752
      5          6           0       -1.897312    0.353369    1.179864
      6          6           0        3.822428    0.044372    1.053721
      7          1           0        2.911189   -1.785615    0.345784
      8          1           0        2.290950   -1.244583    1.895137
      9          6           0        4.268315    0.609141   -0.301560
     10          1           0        4.649683   -0.488466    1.534041
     11          1           0        3.557557    0.874461    1.721519
     12          6           0        3.104804    1.294769   -1.029929
     13          1           0        4.651279   -0.209089   -0.925120
     14          1           0        5.097255    1.311348   -0.166052
     15          6           0        1.897285    0.354354   -1.179554
     16          1           0        3.426413    1.643404   -2.017026
     17          1           0        2.799966    2.186738   -0.467502
     18          1           0        1.074499    0.881061   -1.672856
     19          1           0        2.169586   -0.481659   -1.836114
     20          1           0        1.091303    0.632096    0.801789
     21          6           0       -3.104828    1.293906    1.030993
     22          1           0       -1.074538    0.879666    1.673624
     23          1           0       -2.169628   -0.483191    1.835721
     24          6           0       -2.612553   -0.891548   -0.910818
     25          1           0       -1.091285    0.632762   -0.801229
     26          6           0       -3.822402    0.045244   -1.053715
     27          1           0       -2.911179   -1.785330   -0.347279
     28          1           0       -2.290902   -1.243008   -1.896166
     29          6           0       -4.268321    0.608884    0.302025
     30          1           0       -4.649645   -0.487194   -1.534499
     31          1           0       -3.557514    0.875890   -1.720815
     32          1           0       -5.097259    1.311203    0.167082
     33          1           0       -4.651300   -0.209866    0.924893
     34          1           0       -2.799978    2.186344    0.469316
     35          1           0       -3.426462    1.641718    2.018372
 ---------------------------------------------------------------------

 SCF Done:  E(UHF) =  -810.602976547     A.U. after    2 cycles

 The electronic state is 2-A.
 Alpha  occ. eigenvalues -- -105.15945 -11.44155 -11.43475 -11.43420 -11.43162
 Alpha  occ. eigenvalues --  -11.42464 -11.42028 -11.37410 -11.37324 -11.37198
 Alpha  occ. eigenvalues --  -11.37112 -11.34130 -11.33795  -2.73640  -1.49999
 Alpha  occ. eigenvalues --   -1.46213  -1.46030  -1.30919  -1.28767  -1.10124
 Alpha  occ. eigenvalues --   -1.09873  -1.08991  -1.07574  -0.88264  -0.88153
 Alpha  occ. eigenvalues --   -0.87203  -0.85385  -0.78005  -0.77630  -0.68352
 Alpha  occ. eigenvalues --   -0.64916  -0.64008  -0.61202  -0.61039  -0.60621
 Alpha  occ. eigenvalues --   -0.60510  -0.57951  -0.55942  -0.52558  -0.52473
 Alpha  occ. eigenvalues --   -0.48711  -0.48384  -0.47180  -0.46905  -0.46619
 Alpha  occ. eigenvalues --   -0.46224  -0.45185  -0.43947  -0.43612  -0.40590
 Alpha  occ. eigenvalues --   -0.39078  -0.38836  -0.15894  -0.05109   0.02865
 Alpha virt. eigenvalues --    0.04453   0.04585   0.04638   0.05201   0.05366
 Alpha virt. eigenvalues --    0.05484   0.05678   0.05812   0.06347   0.06352
 Alpha virt. eigenvalues --    0.06460   0.06925   0.07461   0.07951   0.08225

  Beta  occ. eigenvalues -- -105.15312 -11.44113 -11.43463 -11.43445 -11.43210
  Beta  occ. eigenvalues --  -11.42459 -11.42020 -11.37433 -11.37296 -11.37165
  Beta  occ. eigenvalues --  -11.37143 -11.34123 -11.33790  -2.71711  -1.48019
  Beta  occ. eigenvalues --   -1.44812  -1.30778  -1.28645  -1.23080  -1.09981
  Beta  occ. eigenvalues --   -1.09799  -1.08855  -1.07484  -0.88114  -0.88026
  Beta  occ. eigenvalues --   -0.86970  -0.85391  -0.77903  -0.77575  -0.66795
  Beta  occ. eigenvalues --   -0.64875  -0.62888  -0.61141  -0.60999  -0.60590
  Beta  occ. eigenvalues --   -0.60465  -0.57923  -0.54658  -0.52503  -0.52417
  Beta  occ. eigenvalues --   -0.48601  -0.48163  -0.47006  -0.46826  -0.46550
  Beta  occ. eigenvalues --   -0.46185  -0.45210  -0.43774  -0.43563  -0.39804
  Beta  occ. eigenvalues --   -0.38997  -0.38755  -0.16972  -0.02926
  Beta virt. eigenvalues --    0.04254   0.04440   0.04692   0.05164   0.05370
  Beta virt. eigenvalues --    0.05500   0.05534   0.05750   0.05883   0.06359
  Beta virt. eigenvalues --    0.06486   0.06630   0.06930   0.07577   0.08310

 Mulliken charges and spin densities:
               1          2
     1  P    4.094390   1.265847
     2  C   -0.929786  -0.289121
     3  C   -3.261410  -0.160307
     4  C   -0.929807  -0.289149
     5  C   -2.935378  -0.195066
     6  C   -3.551897  -0.069959
     7  H    1.405505  -0.035707
     8  H    1.156812   0.389446
     9  C   -3.226881  -0.027315
    10  H    1.343717   0.000377
    11  H    1.365837   0.037035
    12  C   -3.435497  -0.046156
    13  H    1.393409   0.012122
    14  H    1.252486  -0.015807
    15  C   -2.935402  -0.195072
    16  H    1.298013   0.067594
    17  H    1.355896  -0.011147
    18  H    1.758085  -0.136622
    19  H    0.995283   0.356890
    20  H    1.968599  -0.009174
    21  C   -3.435474  -0.046153
    22  H    1.758077  -0.136619
    23  H    0.995291   0.356893
    24  C   -3.261418  -0.160293
    25  H    1.968640  -0.009172
    26  C   -3.551889  -0.069963
    27  H    1.405511  -0.035710
    28  H    1.156814   0.389449
    29  C   -3.226879  -0.027316
    30  H    1.343714   0.000376
    31  H    1.365835   0.037036
    32  H    1.252487  -0.015807
    33  H    1.393406   0.012122
    34  H    1.355900  -0.011147
    35  H    1.298013   0.067594
 Sum of Mulliken charges =   0.00000   1.00000

 Dipole moment (field-independent basis, Debye):
    X=              0.0000    Y=             -1.9025    Z=             -0.0007  Tot=              1.9025
                          Isotropic Fermi Contact Couplings
        Atom                 a.u.       MegaHertz       Gauss      10(-4) cm-1
     1  P(31)              0.29158     528.08487     188.43381     176.15015
     2  C(13)             -0.00360      -4.04246      -1.44245      -1.34842
     3  C(13)              0.00534       6.00769       2.14369       2.00395
     4  C(13)             -0.00360      -4.04272      -1.44254      -1.34850
     5  C(13)              0.02144      24.10823       8.60242       8.04164
     6  C(13)              0.00170       1.91501       0.68332       0.63878
     7  H(1)              -0.00032      -1.43588      -0.51236      -0.47896
     8  H(1)               0.00002       0.10745       0.03834       0.03584

 Normal termination of Gaussian 16 at Tue Apr  8 23:28:11 2025.
