 Gaussian 16, Revision C.01,

 ----------------------------------------------------------------------
 #t hf aug-cc-pvdz symm=none int=(grid=ultrafine) guess=(read,tcheck) s
 table=(opt,rrhf)
 ----------------------------------------------------------------------
 -----
 title
 -----
 Symbolic Z-matrix:
 Charge =  0 Multiplicity = 1

 SCF Done:  E(RHF) =  -1342.38670307     A.U. after   17 cycles
 Normal termination of Gaussian 16 at Tue Apr  8 23:45:27 2025.
 Gaussian 16:  ES64L-G16RevC.01  3-Jul-2019

 ----------------------------------------------------------------------
 #t hf aug-cc-pvdz iop(5/13=1,5/36=2,99/5=2) pseudo=read geom=check gue
 ss=(read,tcheck) scf=(maxcycle=1)
 ----------------------------------------------------------------------
 -----
 title
 -----
 Structure from the checkpoint file:  "BDE49_nonexpt_1650_mol1.chk"
 Charge =  0 Multiplicity = 1

                         Standard orientation:
 ---------------------------------------------------------------------
 Center     Atomic      Atomic             Coordinates (Angstroms)
 Number     Number       Type             X           Y           Z
 ---------------------------------------------------------------------
      1         14           0        0.473925   -0.035640   -0.299544
      2          7           0        1.324633   -0.251277    1.369127
      3          7           0        0.687957    1.813580   -0.579087
      4         15           0       -1.727890   -0.414987    0.087033
      5          6           0        1.409111   -0.951995   -1.606308
      6          8           0       -2.062934    0.454258    1.384997
      7          8           0       -0.316556    2.432199   -0.943549
      8          8           0        2.498873   -0.576106    1.390224
      9          8           0        1.796306    2.303692   -0.440350
     10          8           0        0.633400   -0.051651    2.374574
     11          8           0       -1.971170   -1.859229    0.105884
     12          6           0        1.395152   -2.482730   -1.403082
     13          1           0        2.430252   -0.557628   -1.607612
     14          1           0        0.960677   -0.682595   -2.569916
     15          1           0        1.909119   -2.758537   -0.480386
     16          1           0        1.912850   -2.971053   -2.230940
     17          1           0        0.377250   -2.874165   -1.357650
     18          1           0       -1.456691    0.257919    2.120109
     19          8           0       -2.510812    0.378730   -1.047477
     20          1           0       -2.300631    1.326903   -1.053849
 ---------------------------------------------------------------------

 SCF Done:  E(RHF) =  -1345.75233334     A.U. after    2 cycles

 The electronic state is 1-A.
 Alpha  occ. eigenvalues -- -105.34210 -76.34723 -21.14532 -21.14423 -21.14236
 Alpha  occ. eigenvalues --  -21.13904 -21.13543 -21.13276 -21.05381 -16.00975
 Alpha  occ. eigenvalues --  -16.00863 -11.45292 -11.40470  -5.68770  -2.96268
 Alpha  occ. eigenvalues --   -2.33149  -2.32735  -2.31157  -2.02368  -2.01762
 Alpha  occ. eigenvalues --   -2.01631  -1.93660  -1.80740  -1.72680  -1.72558
 Alpha  occ. eigenvalues --   -1.54647  -1.42475  -1.27819  -1.20887  -1.07969
 Alpha  occ. eigenvalues --   -1.00185  -0.94112  -0.78263  -0.74346  -0.73532
 Alpha  occ. eigenvalues --   -0.70556  -0.67942  -0.66560  -0.64836  -0.64615
 Alpha  occ. eigenvalues --   -0.63709  -0.62585  -0.55745  -0.54966  -0.53957
 Alpha  occ. eigenvalues --   -0.52542  -0.47257  -0.44849  -0.39537  -0.38673
 Alpha  occ. eigenvalues --   -0.37408  -0.36694  -0.35979  -0.35233  -0.35109
 Alpha  occ. eigenvalues --   -0.34349  -0.29945  -0.25980  -0.18120
 Alpha virt. eigenvalues --    0.02854   0.04860   0.05398   0.05707   0.06107
 Alpha virt. eigenvalues --    0.06634   0.06785   0.07226   0.07616   0.08326
 Alpha virt. eigenvalues --    0.08920   0.09357   0.10334   0.11125   0.11397

 Mulliken charges:
               1
     1  Si   4.760107
     2  N    3.354913
     3  N    2.690628
     4  P    7.569542
     5  C   -4.407842
     6  O   -3.273479
     7  O   -2.106892
     8  O   -2.340431
     9  O   -2.211041
    10  O   -2.362041
    11  O   -3.313192
    12  C   -3.883266
    13  H    1.260944
    14  H    1.259123
    15  H    1.343589
    16  H    1.108996
    17  H    1.396279
    18  H    1.293988
    19  O   -3.278618
    20  H    1.138693
 Sum of Mulliken charges =  -0.00000

 Dipole moment (field-independent basis, Debye):
    X=             -0.6991    Y=              0.5492    Z=             -1.4887  Tot=              1.7340

 Test job not archived.
 1\1\GINC-SE069\SP\RHF\Aug-CC-pVDZ\C2H7N2O7P1Si1\OHZDE\08-Apr-2025\0\\#
 t hf aug-cc-pvdz iop(5/13=1,5/36=2,99/5=2) pseudo=read geom=check gues
 s=(read,tcheck) scf=(maxcycle=1)\\title\\0,1\Si,0,0.473925,-0.03564,-0
 .299544\N,0,1.324633,-0.251277,1.369127\N,0,0.687957,1.81358,-0.579087
 \P,0,-1.72789,-0.414987,0.087033\C,0,1.409111,-0.951995,-1.606308\O,0,
 -2.062934,0.454258,1.384997\O,0,-0.316556,2.432199,-0.943549\O,0,2.498
 873,-0.576106,1.390224\O,0,1.796306,2.303692,-0.44035\O,0,0.6334,-0.05
 1651,2.374574\O,0,-1.97117,-1.859229,0.105884\C,0,1.395152,-2.48273,-1

 Normal termination of Gaussian 16 at Tue Apr  8 23:45:43 2025.
