 Gaussian 16, Revision C.01,

 ----------------------------------------------------------------------
 #t hf aug-cc-pvdz symm=none int=(grid=ultrafine) guess=(read,tcheck) s
 table=(opt,rrhf)
 ----------------------------------------------------------------------
 -----
 title
 -----
 Symbolic Z-matrix:
 Charge =  0 Multiplicity = 1

 SCF Done:  E(RHF) =  -735.128064080     A.U. after   12 cycles
 Normal termination of Gaussian 16 at Wed Apr  9 00:09:27 2025.
 Gaussian 16:  ES64L-G16RevC.01  3-Jul-2019

 ----------------------------------------------------------------------
 #t hf aug-cc-pvdz iop(5/13=1,5/36=2,99/5=2) pseudo=read geom=check gue
 ss=(read,tcheck) scf=(maxcycle=1)
 ----------------------------------------------------------------------
 -----
 title
 -----
 Structure from the checkpoint file:  "BDE49_nonexpt_2303_mol1.chk"
 Charge =  0 Multiplicity = 1

                         Standard orientation:
 ---------------------------------------------------------------------
 Center     Atomic      Atomic             Coordinates (Angstroms)
 Number     Number       Type             X           Y           Z
 ---------------------------------------------------------------------
      1         14           0        1.053779   -0.933700    0.534799
      2         14           0       -1.053779   -0.933700   -0.534799
      3          6           0       -2.171582    0.494429   -0.059703
      4          1           0       -1.730902   -2.213159   -0.193670
      5          1           0       -0.871099   -0.939590   -2.010867
      6          6           0        2.171582    0.494429    0.059702
      7          1           0        1.730902   -2.213159    0.193670
      8          1           0        0.871100   -0.939588    2.010867
      9          6           0        1.855911    1.486195   -0.776152
     10          6           0       -1.855912    1.486194    0.776153
     11          1           0        3.167451    0.506313    0.504328
     12          1           0        0.885777    1.551062   -1.260539
     13          1           0        2.555179    2.283433   -1.014676
     14          1           0       -3.167450    0.506314   -0.504332
     15          1           0       -0.885779    1.551060    1.260542
     16          1           0       -2.555179    2.283432    1.014677
 ---------------------------------------------------------------------

 SCF Done:  E(RHF) =  -736.216632333     A.U. after    2 cycles

 The electronic state is 1-A.
 Alpha  occ. eigenvalues --  -76.20961 -76.20957 -11.41844 -11.41657 -11.36903
 Alpha  occ. eigenvalues --  -11.36817  -5.54569  -5.54566  -2.18751  -2.18707
 Alpha  occ. eigenvalues --   -2.16725  -2.16591  -2.16428  -2.15649  -1.14494
 Alpha  occ. eigenvalues --   -1.13785  -0.84839  -0.83145  -0.75725  -0.68762
 Alpha  occ. eigenvalues --   -0.62667  -0.62268  -0.54453  -0.53947  -0.47976
 Alpha  occ. eigenvalues --   -0.47005  -0.42602  -0.41718  -0.37423  -0.36812
 Alpha  occ. eigenvalues --   -0.33884
 Alpha virt. eigenvalues --    0.03523   0.04795   0.05453   0.05538   0.05870
 Alpha virt. eigenvalues --    0.06316   0.07486   0.07534   0.07645   0.07813
 Alpha virt. eigenvalues --    0.08814   0.08828   0.09452   0.10368   0.10677

 Mulliken charges:
               1
     1  Si   4.794770
     2  Si   4.794770
     3  C   -2.782444
     4  H   -2.032609
     5  H   -1.749431
     6  C   -2.782447
     7  H   -2.032608
     8  H   -1.749432
     9  C   -2.433987
    10  C   -2.433989
    11  H    1.180442
    12  H    1.682680
    13  H    1.340581
    14  H    1.180443
    15  H    1.682680
    16  H    1.340582
 Sum of Mulliken charges =   0.00000

 Dipole moment (field-independent basis, Debye):
    X=             -0.0000    Y=              1.8674    Z=              0.0000  Tot=              1.8674

 Test job not archived.
 1\1\GINC-SE127\SP\RHF\Aug-CC-pVDZ\C4H10Si2\OHZDE\09-Apr-2025\0\\#t hf
 aug-cc-pvdz iop(5/13=1,5/36=2,99/5=2) pseudo=read geom=check guess=(re
 ad,tcheck) scf=(maxcycle=1)\\title\\0,1\Si,0,1.053779,-0.9337,0.534799
 \Si,0,-1.053779,-0.9337,-0.534799\C,0,-2.171582,0.494429,-0.059703\H,0
 ,-1.730902,-2.213159,-0.19367\H,0,-0.871099,-0.93959,-2.010867\C,0,2.1
 71582,0.494429,0.059702\H,0,1.730902,-2.213159,0.19367\H,0,0.8711,-0.9
 39588,2.010867\C,0,1.855911,1.486195,-0.776152\C,0,-1.855912,1.486194,
 0.776153\H,0,3.167451,0.506313,0.504328\H,0,0.885777,1.551062,-1.26053

 Normal termination of Gaussian 16 at Wed Apr  9 00:09:33 2025.
