 Gaussian 16, Revision C.01,

 ----------------------------------------------------------------------
 #t hf aug-cc-pvdz symm=none int=(grid=ultrafine) guess=(read,tcheck) s
 table=opt
 ----------------------------------------------------------------------
 -----
 title
 -----
 Symbolic Z-matrix:
 Charge =  0 Multiplicity = 2

 SCF Done:  E(UHF) =  -269.430408864     A.U. after   16 cycles
 Normal termination of Gaussian 16 at Tue Apr  8 23:02:08 2025.
 Gaussian 16:  ES64L-G16RevC.01  3-Jul-2019

 ----------------------------------------------------------------------
 #t hf aug-cc-pvdz iop(5/13=1,5/36=2,99/5=2) pseudo=read geom=check gue
 ss=(read,tcheck) scf=(maxcycle=1)
 ----------------------------------------------------------------------
 -----
 title
 -----
 Structure from the checkpoint file:  "BDE49_expt_197_mol2.chk"
 Charge =  0 Multiplicity = 2

                         Standard orientation:
 ---------------------------------------------------------------------
 Center     Atomic      Atomic             Coordinates (Angstroms)
 Number     Number       Type             X           Y           Z
 ---------------------------------------------------------------------
      1          8           0       -0.050688   -1.125557   -0.082544
      2          6           0        1.342614   -0.851062    0.161860
      3          6           0        1.543704    0.634069   -0.162170
      4          1           0        1.938076   -1.524254   -0.457411
      5          1           0        1.553166   -1.066494    1.215743
      6          6           0        0.150145    1.215393    0.136494
      7          1           0        1.783424    0.762945   -1.220591
      8          1           0        2.342376    1.085423    0.429236
      9          6           0       -0.740126    0.065805   -0.227291
     10          1           0       -0.069307    2.122442   -0.432323
     11          1           0        0.061271    1.477127    1.207073
     12          6           0       -2.201250   -0.018476    0.028533
     13          1           0       -2.430638   -0.122110    1.104047
     14          1           0       -2.634137   -0.884785   -0.478577
     15          1           0       -2.709240    0.879788   -0.331406
 ---------------------------------------------------------------------

 SCF Done:  E(UHF) =  -270.699129453     A.U. after    2 cycles

 The electronic state is 2-A.
 Alpha  occ. eigenvalues --  -21.04793 -11.44921 -11.42384 -11.40175 -11.37442
 Alpha  occ. eigenvalues --  -11.35138  -1.77224  -1.20020  -1.12786  -0.98420
 Alpha  occ. eigenvalues --   -0.84800  -0.77451  -0.67694  -0.66367  -0.59445
 Alpha  occ. eigenvalues --   -0.57461  -0.56064  -0.50300  -0.47271  -0.46622
 Alpha  occ. eigenvalues --   -0.44812  -0.40568  -0.37619  -0.20967
 Alpha virt. eigenvalues --    0.03946   0.05252   0.05463   0.05739   0.05896
 Alpha virt. eigenvalues --    0.06164   0.06257   0.07332   0.07913   0.11179
 Alpha virt. eigenvalues --    0.12396   0.13267   0.13504   0.14575   0.14869

  Beta  occ. eigenvalues --  -21.04247 -11.44941 -11.41779 -11.39493 -11.37362
  Beta  occ. eigenvalues --  -11.34546  -1.75674  -1.19246  -1.10596  -0.98101
  Beta  occ. eigenvalues --   -0.84564  -0.73398  -0.66319  -0.65666  -0.57216
  Beta  occ. eigenvalues --   -0.56349  -0.54707  -0.48855  -0.46788  -0.46195
  Beta  occ. eigenvalues --   -0.44257  -0.37127  -0.33696
  Beta virt. eigenvalues --    0.03758   0.05229   0.05416   0.05745   0.05893
  Beta virt. eigenvalues --    0.06124   0.06253   0.07319   0.07943   0.10956
  Beta virt. eigenvalues --    0.12406   0.13153   0.13531   0.14422   0.14672

 Mulliken charges and spin densities:
               1          2
     1  O   -3.559838   0.109457
     2  C   -1.531544  -0.031302
     3  C   -2.911500  -0.085311
     4  H    1.403492  -0.005119
     5  H    1.487110   0.011166
     6  C   -3.702688  -0.206164
     7  H    1.402380   0.000346
     8  H    1.277689  -0.006955
     9  C    3.758427   1.523725
    10  H    1.288058   0.003465
    11  H    1.322472   0.023668
    12  C   -3.950120  -0.380282
    13  H    1.154709   0.039960
    14  H    1.320329   0.004080
    15  H    1.241026  -0.000735
 Sum of Mulliken charges =  -0.00000   1.00000

 Dipole moment (field-independent basis, Debye):
    X=              0.7446    Y=              0.5017    Z=              0.3327  Tot=              0.9576
                          Isotropic Fermi Contact Couplings
        Atom                 a.u.       MegaHertz       Gauss      10(-4) cm-1
     1  O(17)              0.05360     -32.49022     -11.59332     -10.83757
     2  C(13)             -0.00252      -2.83507      -1.01162      -0.94568
     3  C(13)              0.00262       2.94757       1.05177       0.98320
     4  H(1)               0.00007       0.31269       0.11158       0.10430
     5  H(1)               0.00235      10.50930       3.74998       3.50552
     6  C(13)             -0.01729     -19.44139      -6.93717      -6.48495
     7  H(1)              -0.00037      -1.63830      -0.58458      -0.54648
     8  H(1)              -0.00071      -3.16983      -1.13107      -1.05734

 Normal termination of Gaussian 16 at Tue Apr  8 23:02:12 2025.
