 Gaussian 16, Revision C.01,

 ----------------------------------------------------------------------
 #t hf aug-cc-pvdz symm=none int=(grid=ultrafine) guess=(read,tcheck) s
 table=(opt,rrhf)
 ----------------------------------------------------------------------
 -----
 title
 -----
 Symbolic Z-matrix:
 Charge =  0 Multiplicity = 1

 SCF Done:  E(RHF) =  -363.830761510     A.U. after   14 cycles

 1\1\GINC-SE457\Stability\RHF\Aug-CC-pVDZ\C8H11N1\OHZDE\08-Apr-2025\0\\
 #t hf aug-cc-pvdz symm=none int=(grid=ultrafine) guess=(read,tcheck) s
 table=(opt,rrhf)\\title\\0,1\C,0,-0.003342,0.307808,-0.360749\N,0,-2.4
 07764,-0.316973,-0.342968\C,0,-2.732139,-0.261694,1.079577\H,0,-3.0798
 68,0.729599,1.418993\H,0,-1.848653,-0.521969,1.667414\H,0,-3.508697,-0
 .996072,1.305174\C,0,0.430088,-1.020477,-0.418703\C,0,1.743187,-1.3515
 76,-0.096157\C,0,2.644925,-0.359427,0.287529\C,0,2.221134,0.965489,0.3
 52108\C,0,0.904248,1.293358,0.033443\H,0,0.57744,2.327143,0.094572\H,0

 Normal termination of Gaussian 16 at Tue Apr  8 22:41:41 2025.
 Gaussian 16:  ES64L-G16RevC.01  3-Jul-2019

 ----------------------------------------------------------------------
 #t hf aug-cc-pvdz iop(5/13=1,5/36=2,99/5=2) pseudo=read geom=check gue
 ss=(read,tcheck) scf=(maxcycle=1)
 ----------------------------------------------------------------------
 -----
 title
 -----
 Structure from the checkpoint file:  "BDE49_expt_1301_mol1.chk"
 Charge =  0 Multiplicity = 1

                         Standard orientation:
 ---------------------------------------------------------------------
 Center     Atomic      Atomic             Coordinates (Angstroms)
 Number     Number       Type             X           Y           Z
 ---------------------------------------------------------------------
      1          6           0       -0.003342    0.307808   -0.360749
      2          7           0       -2.407764   -0.316973   -0.342968
      3          6           0       -2.732139   -0.261694    1.079577
      4          1           0       -3.079868    0.729599    1.418993
      5          1           0       -1.848653   -0.521969    1.667414
      6          1           0       -3.508697   -0.996072    1.305174
      7          6           0        0.430088   -1.020477   -0.418703
      8          6           0        1.743187   -1.351576   -0.096157
      9          6           0        2.644925   -0.359427    0.287529
     10          6           0        2.221134    0.965489    0.352108
     11          6           0        0.904248    1.293358    0.033443
     12          1           0        0.577440    2.327143    0.094572
     13          1           0       -0.281671   -1.785645   -0.705780
     14          1           0        2.064692   -2.386473   -0.144162
     15          1           0        3.667381   -0.618319    0.539310
     16          1           0        2.912322    1.743581    0.657333
     17          6           0       -1.421855    0.676451   -0.761957
     18          1           0       -1.469005    0.742851   -1.855235
     19          1           0       -1.645254    1.687226   -0.375875
     20          1           0       -3.251812   -0.202698   -0.891520
 ---------------------------------------------------------------------

 SCF Done:  E(RHF) =  -365.613020848     A.U. after    2 cycles

 The electronic state is 1-A.
 Alpha  occ. eigenvalues --  -15.71640 -11.50864 -11.43577 -11.42189 -11.41319
 Alpha  occ. eigenvalues --  -11.39888 -11.39643 -11.37755 -11.35144  -1.39981
 Alpha  occ. eigenvalues --   -1.31047  -1.11433  -1.08210  -1.00437  -0.90714
 Alpha  occ. eigenvalues --   -0.85533  -0.81295  -0.70070  -0.66558  -0.63781
 Alpha  occ. eigenvalues --   -0.62258  -0.58396  -0.56948  -0.54531  -0.52941
 Alpha  occ. eigenvalues --   -0.51349  -0.49916  -0.47202  -0.43391  -0.42090
 Alpha  occ. eigenvalues --   -0.33169  -0.32157  -0.31215
 Alpha virt. eigenvalues --    0.03631   0.04721   0.05073   0.05415   0.05971
 Alpha virt. eigenvalues --    0.06098   0.06433   0.06974   0.07590   0.08197
 Alpha virt. eigenvalues --    0.08669   0.11329   0.11613   0.12288   0.13166

 Mulliken charges:
               1
     1  C    4.058049
     2  N   -2.329870
     3  C   -3.570988
     4  H    1.290841
     5  H    1.588586
     6  H    1.301376
     7  C   -1.540276
     8  C   -1.748950
     9  C   -2.879862
    10  C   -1.628765
    11  C   -2.159403
    12  H    1.745437
    13  H    1.940172
    14  H    1.488353
    15  H    1.568507
    16  H    1.486266
    17  C   -3.784172
    18  H    1.147929
    19  H    1.407560
    20  H    0.619212
 Sum of Mulliken charges =  -0.00000

 Dipole moment (field-independent basis, Debye):
    X=             -0.8413    Y=              0.4013    Z=             -0.0937  Tot=              0.9368

 Test job not archived.
 1\1\GINC-SE457\SP\RHF\Aug-CC-pVDZ\C8H11N1\OHZDE\08-Apr-2025\0\\#t hf a
 ug-cc-pvdz iop(5/13=1,5/36=2,99/5=2) pseudo=read geom=check guess=(rea
 d,tcheck) scf=(maxcycle=1)\\title\\0,1\C,0,-0.003342,0.307808,-0.36074
 9\N,0,-2.407764,-0.316973,-0.342968\C,0,-2.732139,-0.261694,1.079577\H
 ,0,-3.079868,0.729599,1.418993\H,0,-1.848653,-0.521969,1.667414\H,0,-3
 .508697,-0.996072,1.305174\C,0,0.430088,-1.020477,-0.418703\C,0,1.7431
 87,-1.351576,-0.096157\C,0,2.644925,-0.359427,0.287529\C,0,2.221134,0.
 965489,0.352108\C,0,0.904248,1.293358,0.033443\H,0,0.57744,2.327143,0.

 Normal termination of Gaussian 16 at Tue Apr  8 22:41:50 2025.
