 Gaussian 16, Revision C.01,

 ----------------------------------------------------------------------
 #t hf aug-cc-pvdz symm=none int=(grid=ultrafine) guess=(read,tcheck) s
 table=(opt,rrhf)
 ----------------------------------------------------------------------
 -----
 title
 -----
 Symbolic Z-matrix:
 Charge =  0 Multiplicity = 1

 SCF Done:  E(RHF) =  -663.780111388     A.U. after   16 cycles
 Normal termination of Gaussian 16 at Tue Apr  8 23:33:58 2025.
 Gaussian 16:  ES64L-G16RevC.01  3-Jul-2019

 ----------------------------------------------------------------------
 #t hf aug-cc-pvdz iop(5/13=1,5/36=2,99/5=2) pseudo=read geom=check gue
 ss=(read,tcheck) scf=(maxcycle=1)
 ----------------------------------------------------------------------
 -----
 title
 -----
 Structure from the checkpoint file:  "BDE49_nonexpt_1421_mol1.chk"
 Charge =  0 Multiplicity = 1

                         Standard orientation:
 ---------------------------------------------------------------------
 Center     Atomic      Atomic             Coordinates (Angstroms)
 Number     Number       Type             X           Y           Z
 ---------------------------------------------------------------------
      1          6           0       -2.333722   -0.770309    0.000207
      2          6           0       -1.083765   -1.382910    0.009536
      3          6           0        0.094272   -0.628857    0.016317
      4          6           0       -2.438158    0.619449   -0.000999
      5          6           0       -1.285661    1.392599    0.001955
      6          6           0       -0.024789    0.778077    0.002207
      7          1           0       -3.228837   -1.381835    0.000501
      8          1           0       -1.024567   -2.465247    0.019107
      9         15           0        1.747676   -1.445981   -0.116607
     10          1           0       -1.344667    2.474075    0.002508
     11          1           0       -3.410446    1.097005   -0.003615
     12          6           0        1.145087    1.602533   -0.000718
     13          7           0        2.093758    2.262618   -0.002083
     14          1           0        1.366477   -2.649088    0.527054
     15          1           0        2.331020   -0.887013    1.047110
 ---------------------------------------------------------------------

 SCF Done:  E(RHF) =  -665.471862677     A.U. after    2 cycles

 The electronic state is 1-A.
 Alpha  occ. eigenvalues -- -105.20026 -15.76554 -11.55028 -11.48485 -11.46915
 Alpha  occ. eigenvalues --  -11.44931 -11.43929 -11.43671 -11.39497  -2.77004
 Alpha  occ. eigenvalues --   -1.52860  -1.47564  -1.44799  -1.37965  -1.29266
 Alpha  occ. eigenvalues --   -1.13837  -1.11155  -0.92330  -0.88652  -0.78718
 Alpha  occ. eigenvalues --   -0.73712  -0.66998  -0.62695  -0.61505  -0.55644
 Alpha  occ. eigenvalues --   -0.54718  -0.51954  -0.48083  -0.46970  -0.44223
 Alpha  occ. eigenvalues --   -0.36663  -0.34401  -0.27201  -0.25761  -0.03917
 Alpha virt. eigenvalues --    0.02898   0.04608   0.04805   0.06394   0.06612
 Alpha virt. eigenvalues --    0.07466   0.07818   0.08554   0.09629   0.10625
 Alpha virt. eigenvalues --    0.10925   0.11858   0.12588   0.12820   0.12901

 Mulliken charges:
               1
     1  C   -1.697172
     2  C   -2.961909
     3  C    0.726448
     4  C   -1.650223
     5  C   -1.996660
     6  C    4.344701
     7  H    1.540666
     8  H    1.847486
     9  P    1.148842
    10  H    1.711652
    11  H    1.509843
    12  C   -1.217306
    13  N   -2.137323
    14  H   -0.748574
    15  H   -0.420471
 Sum of Mulliken charges =   0.00000

 Dipole moment (field-independent basis, Debye):
    X=             -1.4514    Y=             -2.0034    Z=             -3.1145  Tot=              3.9775

 Test job not archived.
 1\1\GINC-SE250\SP\RHF\Aug-CC-pVDZ\C7H6N1P1\OHZDE\08-Apr-2025\0\\#t hf
 aug-cc-pvdz iop(5/13=1,5/36=2,99/5=2) pseudo=read geom=check guess=(re
 ad,tcheck) scf=(maxcycle=1)\\title\\0,1\C,0,-2.333722,-0.770309,0.0002
 07\C,0,-1.083765,-1.38291,0.009536\C,0,0.094272,-0.628857,0.016317\C,0
 ,-2.438158,0.619449,-0.000999\C,0,-1.285661,1.392599,0.001955\C,0,-0.0
 24789,0.778077,0.002207\H,0,-3.228837,-1.381835,0.000501\H,0,-1.024567
 ,-2.465247,0.019107\P,0,1.747676,-1.445981,-0.116607\H,0,-1.344667,2.4
 74075,0.002508\H,0,-3.410446,1.097005,-0.003615\C,0,1.145087,1.602533,

 Normal termination of Gaussian 16 at Tue Apr  8 23:34:05 2025.
