 Gaussian 16, Revision C.01,

 ----------------------------------------------------------------------
 #t hf aug-cc-pvdz symm=none int=(grid=ultrafine) guess=(read,tcheck) s
 table=(opt,rrhf)
 ----------------------------------------------------------------------
 -----
 title
 -----
 Symbolic Z-matrix:
 Charge =  0 Multiplicity = 1

 SCF Done:  E(RHF) =  -1178.57916302     A.U. after   13 cycles
 Normal termination of Gaussian 16 at Tue Apr  8 23:31:22 2025.
 Gaussian 16:  ES64L-G16RevC.01  3-Jul-2019

 ----------------------------------------------------------------------
 #t hf aug-cc-pvdz iop(5/13=1,5/36=2,99/5=2) pseudo=read geom=check gue
 ss=(read,tcheck) scf=(maxcycle=1)
 ----------------------------------------------------------------------
 -----
 title
 -----
 Structure from the checkpoint file:  "BDE49_nonexpt_1351_mol1.chk"
 Charge =  0 Multiplicity = 1

                         Standard orientation:
 ---------------------------------------------------------------------
 Center     Atomic      Atomic             Coordinates (Angstroms)
 Number     Number       Type             X           Y           Z
 ---------------------------------------------------------------------
      1          9           0       -1.530133   -1.511993   -0.636519
      2          7           0       -0.330801    1.028122    0.523238
      3          7           0       -2.325146    1.343316   -0.990599
      4         15           0       -2.339311   -0.821920    0.614105
      5          6           0       -1.794290    0.950648    0.290629
      6          9           0        1.530134   -1.511993    0.636519
      7          7           0        0.330801    1.028121   -0.523239
      8          7           0        2.325144    1.343317    0.990599
      9         15           0        2.339312   -0.821919   -0.614105
     10          6           0        1.794289    0.950648   -0.290629
     11          1           0        2.157303    2.331299    1.155588
     12          1           0        1.836980    0.837509    1.723562
     13          1           0       -1.836982    0.837509   -1.723561
     14          1           0       -2.157305    2.331298   -1.155587
     15          1           0        1.361763   -1.074176   -1.614262
     16          1           0        2.257623    1.538155   -1.089769
     17          1           0       -1.361761   -1.074176    1.614262
     18          1           0       -2.257624    1.538154    1.089770
 ---------------------------------------------------------------------

 SCF Done:  E(RHF) =  -1181.01728322     A.U. after    2 cycles

 The electronic state is 1-A.
 Alpha  occ. eigenvalues -- -105.23879-105.23855 -29.26466 -29.26461 -15.79927
 Alpha  occ. eigenvalues --  -15.79286 -15.75004 -15.74974 -11.43270 -11.42802
 Alpha  occ. eigenvalues --   -2.81979  -2.81956  -1.58921  -1.55000  -1.54835
 Alpha  occ. eigenvalues --   -1.53956  -1.51028  -1.49071  -1.48820  -1.35219
 Alpha  occ. eigenvalues --   -1.30480  -1.09884  -0.95098  -0.84379  -0.80342
 Alpha  occ. eigenvalues --   -0.75847  -0.71050  -0.66983  -0.64193  -0.62732
 Alpha  occ. eigenvalues --   -0.56502  -0.55594  -0.52981  -0.49663  -0.48115
 Alpha  occ. eigenvalues --   -0.41638  -0.38328  -0.35078  -0.33889  -0.32959
 Alpha  occ. eigenvalues --   -0.31951  -0.30650  -0.26179  -0.24289  -0.20960
 Alpha  occ. eigenvalues --   -0.17853  -0.02289  -0.00289
 Alpha virt. eigenvalues --    0.04135   0.04952   0.05558   0.06215   0.06799
 Alpha virt. eigenvalues --    0.07169   0.07919   0.08502   0.10390   0.10776
 Alpha virt. eigenvalues --    0.11372   0.11652   0.11701   0.12117   0.13145

 Mulliken charges:
               1
     1  F   -0.720898
     2  N   -1.616209
     3  N   -3.017027
     4  P    3.117131
     5  C    0.690690
     6  F   -0.720898
     7  N   -1.616209
     8  N   -3.017028
     9  P    3.117131
    10  C    0.690698
    11  H    0.568721
    12  H    0.748444
    13  H    0.748446
    14  H    0.568720
    15  H   -1.393778
    16  H    1.622921
    17  H   -1.393777
    18  H    1.622921
 Sum of Mulliken charges =  -0.00000

 Dipole moment (field-independent basis, Debye):
    X=             -0.0000    Y=             -2.4255    Z=             -0.0000  Tot=              2.4255

 Test job not archived.
 1\1\GINC-SE252\SP\RHF\Aug-CC-pVDZ\C2H8F2N4P2\OHZDE\08-Apr-2025\0\\#t h
 f aug-cc-pvdz iop(5/13=1,5/36=2,99/5=2) pseudo=read geom=check guess=(
 read,tcheck) scf=(maxcycle=1)\\title\\0,1\F,0,-1.530133,-1.511993,-0.6
 36519\N,0,-0.330801,1.028122,0.523238\N,0,-2.325146,1.343316,-0.990599
 \P,0,-2.339311,-0.82192,0.614105\C,0,-1.79429,0.950648,0.290629\F,0,1.
 530134,-1.511993,0.636519\N,0,0.330801,1.028121,-0.523239\N,0,2.325144
 ,1.343317,0.990599\P,0,2.339312,-0.821919,-0.614105\C,0,1.794289,0.950
 648,-0.290629\H,0,2.157303,2.331299,1.155588\H,0,1.83698,0.837509,1.72

 Normal termination of Gaussian 16 at Tue Apr  8 23:31:31 2025.
