 Gaussian 16, Revision C.01,

 ----------------------------------------------------------------------
 #t hf aug-cc-pvdz symm=none int=(grid=ultrafine) guess=(read,tcheck) s
 table=(opt,rrhf)
 ----------------------------------------------------------------------
 -----
 title
 -----
 Symbolic Z-matrix:
 Charge =  0 Multiplicity = 1

 SCF Done:  E(RHF) =  -1871.55337220     A.U. after   15 cycles
 Normal termination of Gaussian 16 at Wed Apr  9 00:53:28 2025.
 Gaussian 16:  ES64L-G16RevC.01  3-Jul-2019

 ----------------------------------------------------------------------
 #t hf aug-cc-pvdz iop(5/13=1,5/36=2,99/5=2) pseudo=read geom=check gue
 ss=(read,tcheck) scf=(maxcycle=1)
 ----------------------------------------------------------------------
 -----
 title
 -----
 Structure from the checkpoint file:  "BDE49_nonexpt_887_mol1.chk"
 Charge =  0 Multiplicity = 1

                         Standard orientation:
 ---------------------------------------------------------------------
 Center     Atomic      Atomic             Coordinates (Angstroms)
 Number     Number       Type             X           Y           Z
 ---------------------------------------------------------------------
      1          5           0       -0.000000   -0.000000    2.991922
      2         16           0        1.554140    0.424804    3.835799
      3         16           0       -1.554140   -0.424804    3.835799
      4          6           0       -0.000000   -0.000000    1.430279
      5          6           0       -0.826531   -0.871014    0.696584
      6          1           0       -1.475389   -1.563655    1.221511
      7          6           0        0.826531    0.871014    0.696584
      8          1           0        1.475389    1.563655    1.221511
      9          6           0       -0.814284   -0.882594   -0.692501
     10          6           0        0.000000    0.000000   -1.424523
     11          5           0        0.000000    0.000000   -2.986075
     12         16           0        0.000000    1.527814   -3.973903
     13         16           0       -0.000000   -1.527814   -3.973903
     14          6           0        0.814284    0.882594   -0.692501
     15          1           0        1.465232    1.573425   -1.217626
     16          1           0       -1.465232   -1.573425   -1.217626
     17          1           0        0.192948   -2.381463   -2.954202
     18          1           0       -0.192948    2.381463   -2.954202
     19          1           0        1.110731    0.455246    5.103587
     20          1           0       -1.110731   -0.455246    5.103587
 ---------------------------------------------------------------------

 SCF Done:  E(RHF) =  -1873.77240492     A.U. after    2 cycles

 The electronic state is 1-A.
 Alpha  occ. eigenvalues --  -75.70277 -75.70173 -75.69684 -75.69657 -13.18230
 Alpha  occ. eigenvalues --  -13.18102 -13.17665 -13.15856 -13.12093 -13.11292
 Alpha  occ. eigenvalues --  -13.10895 -13.10745 -13.06966 -13.06545 -13.04655
 Alpha  occ. eigenvalues --  -13.04098 -11.52439 -11.44729 -11.43780 -11.42429
 Alpha  occ. eigenvalues --  -11.41829 -11.37164  -8.04233  -8.04108  -8.03900
 Alpha  occ. eigenvalues --   -8.03325  -7.69750  -7.68624  -1.37569  -1.23242
 Alpha  occ. eigenvalues --   -1.19771  -1.11412  -1.10314  -1.09864  -1.09204
 Alpha  occ. eigenvalues --   -0.89602  -0.87773  -0.75763  -0.72835  -0.63941
 Alpha  occ. eigenvalues --   -0.62675  -0.61083  -0.58525  -0.53703  -0.53473
 Alpha  occ. eigenvalues --   -0.50823  -0.49690  -0.47781  -0.45959  -0.41751
 Alpha  occ. eigenvalues --   -0.40302  -0.35581  -0.35068  -0.34708  -0.34095
 Alpha  occ. eigenvalues --   -0.32272  -0.29612  -0.26129  -0.25283
 Alpha virt. eigenvalues --    0.01568   0.02037   0.03041   0.03479   0.03661
 Alpha virt. eigenvalues --    0.03967   0.04203   0.06752   0.07001   0.07695
 Alpha virt. eigenvalues --    0.08532   0.08717   0.09227   0.09539   0.09613

 Mulliken charges:
               1
     1  B    3.238854
     2  S   -2.877413
     3  S   -2.877413
     4  C   -0.617262
     5  C   -1.029817
     6  H    2.004414
     7  C   -1.029817
     8  H    2.004414
     9  C   -1.102816
    10  C   -1.039171
    11  B    3.514829
    12  S   -3.020156
    13  S   -3.020156
    14  C   -1.102816
    15  H    1.888028
    16  H    1.888028
    17  H    0.761438
    18  H    0.761438
    19  H    0.827697
    20  H    0.827697
 Sum of Mulliken charges =   0.00000

 Dipole moment (field-independent basis, Debye):
    X=             -0.0000    Y=              0.0000    Z=             -3.2043  Tot=              3.2043

 Test job not archived.
 1\1\GINC-SE115\SP\RHF\Aug-CC-pVDZ\C6H8B2S4\OHZDE\09-Apr-2025\0\\#t hf
 aug-cc-pvdz iop(5/13=1,5/36=2,99/5=2) pseudo=read geom=check guess=(re
 ad,tcheck) scf=(maxcycle=1)\\title\\0,1\B,0,0.,0.,-2.991922\S,0,-1.554
 14,0.424804,-3.835799\S,0,1.55414,-0.424804,-3.835799\C,0,0.,0.,-1.430
 279\C,0,0.826531,-0.871014,-0.696584\H,0,1.475389,-1.563655,-1.221511\
 C,0,-0.826531,0.871014,-0.696584\H,0,-1.475389,1.563655,-1.221511\C,0,
 0.814284,-0.882594,0.692501\C,0,0.,0.,1.424523\B,0,0.,0.,2.986075\S,0,
 0.,1.527814,3.973903\S,0,0.,-1.527814,3.973903\C,0,-0.814284,0.882594,

 Normal termination of Gaussian 16 at Wed Apr  9 00:53:45 2025.
