 Gaussian 16, Revision C.01,

 ----------------------------------------------------------------------
 #t hf aug-cc-pvdz symm=none int=(grid=ultrafine) guess=(read,tcheck) s
 table=(opt,rrhf)
 ----------------------------------------------------------------------
 -----
 title
 -----
 Symbolic Z-matrix:
 Charge =  0 Multiplicity = 1

 SCF Done:  E(RHF) =  -656.293944372     A.U. after   10 cycles

 1\1\GINC-SE221\Stability\RHF\Aug-CC-pVDZ\H6O1Si2\OHZDE\08-Apr-2025\0\\
 #t hf aug-cc-pvdz symm=none int=(grid=ultrafine) guess=(read,tcheck) s
 table=(opt,rrhf)\\title\\0,1\Si,0,-1.59638,-0.054896,0.000002\O,0,0.,0
 .313339,-0.000005\H,0,-1.93837,-0.844385,1.205533\H,0,-1.938306,-0.844
 715,-1.205332\H,0,-2.369485,1.204287,-0.00019\Si,0,1.59638,-0.054896,0
 .\H,0,2.369485,1.204287,-0.000204\H,0,1.938302,-0.844724,-1.205329\H,0
 ,1.938373,-0.844376,1.205536\\Version=ES64L-G16RevC.01\HF=-656.2939444
 \RMSD=7.552e-09\Dipole=0.0000006,-0.1133527,0.0000018\Quadrupole=0.839

 Normal termination of Gaussian 16 at Tue Apr  8 22:58:36 2025.
 Gaussian 16:  ES64L-G16RevC.01  3-Jul-2019

 ----------------------------------------------------------------------
 #t hf aug-cc-pvdz iop(5/13=1,5/36=2,99/5=2) pseudo=read geom=check gue
 ss=(read,tcheck) scf=(maxcycle=1)
 ----------------------------------------------------------------------
 -----
 title
 -----
 Structure from the checkpoint file:  "BDE49_expt_1906_mol1.chk"
 Charge =  0 Multiplicity = 1

                         Standard orientation:
 ---------------------------------------------------------------------
 Center     Atomic      Atomic             Coordinates (Angstroms)
 Number     Number       Type             X           Y           Z
 ---------------------------------------------------------------------
      1         14           0       -1.596380   -0.054896    0.000002
      2          8           0        0.000000    0.313339   -0.000005
      3          1           0       -1.938370   -0.844385    1.205533
      4          1           0       -1.938306   -0.844715   -1.205332
      5          1           0       -2.369485    1.204287   -0.000190
      6         14           0        1.596380   -0.054896   -0.000000
      7          1           0        2.369485    1.204287   -0.000204
      8          1           0        1.938302   -0.844724   -1.205329
      9          1           0        1.938373   -0.844376    1.205536
 ---------------------------------------------------------------------

 SCF Done:  E(RHF) =  -656.947049062     A.U. after    2 cycles

 The electronic state is 1-A.
 Alpha  occ. eigenvalues --  -76.24379 -76.24368 -21.05453  -5.58265  -5.57510
 Alpha  occ. eigenvalues --   -2.27006  -2.22647  -2.19570  -2.19297  -2.19147
 Alpha  occ. eigenvalues --   -2.19118  -1.66000  -0.81034  -0.71074  -0.52494
 Alpha  occ. eigenvalues --   -0.52494  -0.49580  -0.47598  -0.47016  -0.39906
 Alpha  occ. eigenvalues --   -0.39550
 Alpha virt. eigenvalues --    0.03951   0.04837   0.06122   0.06520   0.06553
 Alpha virt. eigenvalues --    0.07421   0.07704   0.08642   0.09227   0.09924
 Alpha virt. eigenvalues --    0.10945   0.11036   0.13443   0.16309   0.17170

 Mulliken charges:
               1
     1  Si   6.552443
     2  O   -3.468867
     3  H   -1.600160
     4  H   -1.600148
     5  H   -1.617702
     6  Si   6.552444
     7  H   -1.617702
     8  H   -1.600148
     9  H   -1.600161
 Sum of Mulliken charges =  -0.00000

 Dipole moment (field-independent basis, Debye):
    X=              0.0000    Y=              0.2387    Z=             -0.0000  Tot=              0.2387

 Test job not archived.
 1\1\GINC-SE221\SP\RHF\Aug-CC-pVDZ\H6O1Si2\OHZDE\08-Apr-2025\0\\#t hf a
 ug-cc-pvdz iop(5/13=1,5/36=2,99/5=2) pseudo=read geom=check guess=(rea
 d,tcheck) scf=(maxcycle=1)\\title\\0,1\Si,0,-1.59638,-0.054896,0.00000
 2\O,0,0.,0.313339,-0.000005\H,0,-1.93837,-0.844385,1.205533\H,0,-1.938
 306,-0.844715,-1.205332\H,0,-2.369485,1.204287,-0.00019\Si,0,1.59638,-
 0.054896,0.\H,0,2.369485,1.204287,-0.000204\H,0,1.938302,-0.844724,-1.
 205329\H,0,1.938373,-0.844376,1.205536\\Version=ES64L-G16RevC.01\State
 =1-A\HF=-656.9470491\RMSD=9.310e-02\Dipole=0.0000008,0.0938953,-0.0000

 Normal termination of Gaussian 16 at Tue Apr  8 22:58:38 2025.
