 Gaussian 16, Revision C.01,

 ----------------------------------------------------------------------
 #t hf aug-cc-pvdz symm=none int=(grid=ultrafine) guess=(read,tcheck) s
 table=(opt,rrhf)
 ----------------------------------------------------------------------
 -----
 title
 -----
 Symbolic Z-matrix:
 Charge =  0 Multiplicity = 1

 SCF Done:  E(RHF) =  -824.766002679     A.U. after   11 cycles
 Normal termination of Gaussian 16 at Tue Apr  8 23:49:57 2025.
 Gaussian 16:  ES64L-G16RevC.01  3-Jul-2019

 ----------------------------------------------------------------------
 #t hf aug-cc-pvdz iop(5/13=1,5/36=2,99/5=2) pseudo=read geom=check gue
 ss=(read,tcheck) scf=(maxcycle=1)
 ----------------------------------------------------------------------
 -----
 title
 -----
 Structure from the checkpoint file:  "BDE49_nonexpt_1837_mol1.chk"
 Charge =  0 Multiplicity = 1

                         Standard orientation:
 ---------------------------------------------------------------------
 Center     Atomic      Atomic             Coordinates (Angstroms)
 Number     Number       Type             X           Y           Z
 ---------------------------------------------------------------------
      1         14           0        0.954509   -0.000000   -0.404443
      2          6           0       -0.913213    0.000000    0.011378
      3          9           0       -1.157597   -0.000003    1.338098
      4          9           0        1.593837   -1.291436    0.260924
      5          9           0       -1.519363   -1.091001   -0.516579
      6          9           0        1.593838    1.291436    0.260923
      7          9           0       -1.519362    1.091004   -0.516574
      8          1           0        1.193964   -0.000000   -1.847193
 ---------------------------------------------------------------------

 SCF Done:  E(RHF) =  -826.768288377     A.U. after    2 cycles

 The electronic state is 1-A.
 Alpha  occ. eigenvalues --  -76.32642 -29.32549 -29.32522 -29.32447 -29.31505
 Alpha  occ. eigenvalues --  -29.31503 -11.57002  -5.68441  -2.33639  -2.31965
 Alpha  occ. eigenvalues --   -2.29278  -1.40180  -0.98906  -0.89045  -0.88958
 Alpha  occ. eigenvalues --   -0.74120  -0.72820  -0.60883  -0.49781  -0.45446
 Alpha  occ. eigenvalues --   -0.45118  -0.43606  -0.42021  -0.39931  -0.38160
 Alpha  occ. eigenvalues --   -0.37796  -0.36848  -0.36327  -0.32068  -0.27711
 Alpha  occ. eigenvalues --   -0.26999  -0.24449  -0.22952
 Alpha virt. eigenvalues --    0.05058   0.06707   0.07340   0.07458   0.10454
 Alpha virt. eigenvalues --    0.13929   0.14679   0.16531   0.17708   0.18687
 Alpha virt. eigenvalues --    0.21817   0.22050   0.22367   0.24244   0.25070

 Mulliken charges:
               1
     1  Si   4.605208
     2  C   -1.488527
     3  F    0.265577
     4  F   -0.952677
     5  F    0.263032
     6  F   -0.952677
     7  F    0.263032
     8  H   -2.002969
 Sum of Mulliken charges =  -0.00000

 Dipole moment (field-independent basis, Debye):
    X=              0.5416    Y=             -0.0000    Z=              2.0664  Tot=              2.1362

 Test job not archived.
 1\1\GINC-SE100\SP\RHF\Aug-CC-pVDZ\C1H1F5Si1\OHZDE\08-Apr-2025\0\\#t hf
  aug-cc-pvdz iop(5/13=1,5/36=2,99/5=2) pseudo=read geom=check guess=(r
 ead,tcheck) scf=(maxcycle=1)\\title\\0,1\Si,0,0.954509,0.,-0.404443\C,
 0,-0.913213,0.,0.011378\F,0,-1.157597,-0.000003,1.338098\F,0,1.593837,
 -1.291436,0.260924\F,0,-1.519363,-1.091001,-0.516579\F,0,1.593838,1.29
 1436,0.260923\F,0,-1.519362,1.091004,-0.516574\H,0,1.193964,0.,-1.8471
 93\\Version=ES64L-G16RevC.01\State=1-A\HF=-826.7682884\RMSD=6.525e-02\
 Dipole=0.2130684,-0.0000002,0.8129695\Quadrupole=1.8918214,0.9204964,-

 Normal termination of Gaussian 16 at Tue Apr  8 23:50:00 2025.
