 Gaussian 16, Revision C.01,

 ----------------------------------------------------------------------
 #t hf aug-cc-pvdz symm=none int=(grid=ultrafine) guess=(read,tcheck) s
 table=(opt,rrhf)
 ----------------------------------------------------------------------
 -----
 title
 -----
 Symbolic Z-matrix:
 Charge =  0 Multiplicity = 1

 SCF Done:  E(RHF) =  -271.978824348     A.U. after   14 cycles
 Normal termination of Gaussian 16 at Wed Apr  9 00:28:02 2025.
 Gaussian 16:  ES64L-G16RevC.01  3-Jul-2019

 ----------------------------------------------------------------------
 #t hf aug-cc-pvdz iop(5/13=1,5/36=2,99/5=2) pseudo=read geom=check gue
 ss=(read,tcheck) scf=(maxcycle=1)
 ----------------------------------------------------------------------
 -----
 title
 -----
 Structure from the checkpoint file:  "BDE49_nonexpt_282_mol1.chk"
 Charge =  0 Multiplicity = 1

                         Standard orientation:
 ---------------------------------------------------------------------
 Center     Atomic      Atomic             Coordinates (Angstroms)
 Number     Number       Type             X           Y           Z
 ---------------------------------------------------------------------
      1          6           0        0.000000   -0.000000   -1.004500
      2          6           0        0.000000    1.194470   -0.261610
      3          6           0        0.000000    1.143402    1.129515
      4          7           0        0.000000    0.000000    1.822669
      5          6           0       -0.000000   -1.143402    1.129515
      6          6           0       -0.000000   -1.194470   -0.261610
      7          1           0        0.000000    2.153136   -0.768664
      8          1           0        0.000000    2.056971    1.717647
      9          1           0       -0.000000   -2.056971    1.717647
     10          1           0       -0.000000   -2.153136   -0.768664
     11          5           0        0.000000   -0.000000   -2.549491
     12          1           0        0.000000    1.030555   -3.148529
     13          1           0       -0.000000   -1.030555   -3.148529
 ---------------------------------------------------------------------

 SCF Done:  E(RHF) =  -273.255833192     A.U. after    2 cycles

 The electronic state is 1-A1.
 Alpha  occ. eigenvalues --  -15.75033 -11.48036 -11.45357 -11.42862 -11.42160
 Alpha  occ. eigenvalues --  -11.37243  -7.64668  -1.45130  -1.20625  -1.11580
 Alpha  occ. eigenvalues --   -0.94130  -0.89294  -0.81280  -0.68276  -0.65397
 Alpha  occ. eigenvalues --   -0.61469  -0.59567  -0.54261  -0.49943  -0.47078
 Alpha  occ. eigenvalues --   -0.44863  -0.38180  -0.35725  -0.34293
 Alpha virt. eigenvalues --    0.03193   0.03521   0.03865   0.04320   0.05764
 Alpha virt. eigenvalues --    0.06251   0.06912   0.08139   0.08277   0.10410
 Alpha virt. eigenvalues --    0.10885   0.11890   0.12153   0.13734   0.14100

 Mulliken charges:
               1
     1  C   -0.105613
     2  C    0.227333
     3  C   -1.284020
     4  N   -3.432610
     5  C   -1.284020
     6  C    0.227333
     7  H    1.673269
     8  H    1.527397
     9  H    1.527397
    10  H    1.673269
    11  B    6.274641
    12  H   -3.512188
    13  H   -3.512188
 Sum of Mulliken charges =   0.00000

 Dipole moment (field-independent basis, Debye):
    X=             -0.0000    Y=             -0.0000    Z=             -0.6314  Tot=              0.6314

 Test job not archived.
 1\1\GINC-SE212\SP\RHF\Aug-CC-pVDZ\C5H6B1N1\OHZDE\09-Apr-2025\0\\#t hf
 aug-cc-pvdz iop(5/13=1,5/36=2,99/5=2) pseudo=read geom=check guess=(re
 ad,tcheck) scf=(maxcycle=1)\\title\\0,1\C,0,0.,0.,-1.0045\C,0,0.,1.194
 47,-0.26161\C,0,0.,1.143402,1.129515\N,0,0.,0.,1.822669\C,0,0.,-1.1434
 02,1.129515\C,0,0.,-1.19447,-0.26161\H,0,0.,2.153136,-0.768664\H,0,0.,
 2.056971,1.717647\H,0,0.,-2.056971,1.717647\H,0,0.,-2.153136,-0.768664
 \B,0,0.,0.,-2.549491\H,0,0.,1.030555,-3.148529\H,0,0.,-1.030555,-3.148
 529\\Version=ES64L-G16RevC.01\State=1-A1\HF=-273.2558332\RMSD=1.573e+0

 Normal termination of Gaussian 16 at Wed Apr  9 00:28:06 2025.
