 Gaussian 16, Revision C.01,

 ----------------------------------------------------------------------
 #t hf aug-cc-pvdz symm=none int=(grid=ultrafine) guess=(read,tcheck) s
 table=(opt,rrhf)
 ----------------------------------------------------------------------
 -----
 title
 -----
 Symbolic Z-matrix:
 Charge =  0 Multiplicity = 1

 SCF Done:  E(RHF) =  -1209.59617484     A.U. after   16 cycles
 Normal termination of Gaussian 16 at Tue Apr  8 23:39:20 2025.
 Gaussian 16:  ES64L-G16RevC.01  3-Jul-2019

 ----------------------------------------------------------------------
 #t hf aug-cc-pvdz iop(5/13=1,5/36=2,99/5=2) pseudo=read geom=check gue
 ss=(read,tcheck) scf=(maxcycle=1)
 ----------------------------------------------------------------------
 -----
 title
 -----
 Structure from the checkpoint file:  "BDE49_nonexpt_1583_mol1.chk"
 Charge =  0 Multiplicity = 1

                         Standard orientation:
 ---------------------------------------------------------------------
 Center     Atomic      Atomic             Coordinates (Angstroms)
 Number     Number       Type             X           Y           Z
 ---------------------------------------------------------------------
      1         15           0       -0.246472   -0.227090   -0.892962
      2          7           0        0.898183   -1.150862    0.012035
      3          7           0        0.040693    1.463669    0.013005
      4         17           0       -1.987651   -0.786753    0.044556
      5          8           0        1.235381    1.763695   -0.063725
      6          8           0        0.856896   -0.935727    1.405071
      7          8           0        2.191833   -0.905654   -0.481375
      8          8           0       -0.831390    2.125372    0.511590
      9          1           0        2.367797    0.035869   -0.285762
     10          1           0        0.925445   -1.825861    1.774977
 ---------------------------------------------------------------------

 SCF Done:  E(RHF) =  -1211.72015481     A.U. after    2 cycles

 The electronic state is 1-A.
 Alpha  occ. eigenvalues -- -105.33008 -99.93630 -21.14396 -21.13369 -21.12918
 Alpha  occ. eigenvalues --  -21.10801 -15.99666 -15.84778 -10.51009  -9.70866
 Alpha  occ. eigenvalues --   -9.70097  -9.70076  -2.90774  -2.00604  -1.91253
 Alpha  occ. eigenvalues --   -1.72676  -1.71401  -1.63930  -1.60013  -1.56050
 Alpha  occ. eigenvalues --   -1.27584  -1.07858  -0.94097  -0.78465  -0.72677
 Alpha  occ. eigenvalues --   -0.66395  -0.64231  -0.62886  -0.61114  -0.57698
 Alpha  occ. eigenvalues --   -0.56634  -0.54841  -0.52164  -0.39598  -0.37223
 Alpha  occ. eigenvalues --   -0.35768  -0.34496  -0.33530  -0.26261  -0.10757
 Alpha virt. eigenvalues --    0.04310   0.06609   0.07159   0.07870   0.08294
 Alpha virt. eigenvalues --    0.11372   0.12743   0.13832   0.14191   0.14611
 Alpha virt. eigenvalues --    0.15389   0.15876   0.16612   0.17762   0.19313

 Mulliken charges:
               1
     1  P    3.876125
     2  N    1.784034
     3  N    3.747874
     4  Cl  -1.273236
     5  O   -2.461082
     6  O   -2.504921
     7  O   -2.241013
     8  O   -2.614894
     9  H    0.876323
    10  H    0.810789
 Sum of Mulliken charges =   0.00000

 Dipole moment (field-independent basis, Debye):
    X=              1.7064    Y=             -1.3518    Z=             -3.1542  Tot=              3.8325

 Test job not archived.
 1\1\GINC-SE364\SP\RHF\Aug-CC-pVDZ\Cl1H2N2O4P1\OHZDE\08-Apr-2025\0\\#t
 hf aug-cc-pvdz iop(5/13=1,5/36=2,99/5=2) pseudo=read geom=check guess=
 (read,tcheck) scf=(maxcycle=1)\\title\\0,1\P,0,-0.246472,-0.22709,-0.8
 92962\N,0,0.898183,-1.150862,0.012035\N,0,0.040693,1.463669,0.013005\C
 l,0,-1.987651,-0.786752,0.044556\O,0,1.235382,1.763695,-0.063725\O,0,0
 .856896,-0.935727,1.405071\O,0,2.191833,-0.905655,-0.481375\O,0,-0.831
 389,2.125372,0.51159\H,0,2.367797,0.035868,-0.285762\H,0,0.925444,-1.8
 25861,1.774977\\Version=ES64L-G16RevC.01\State=1-A\HF=-1211.7201548\RM

 Normal termination of Gaussian 16 at Tue Apr  8 23:39:25 2025.
