 Gaussian 16, Revision C.01,

 ----------------------------------------------------------------------
 #t hf aug-cc-pvdz symm=none int=(grid=ultrafine) guess=(read,tcheck) s
 table=(opt,rrhf)
 ----------------------------------------------------------------------
 -----
 title
 -----
 Symbolic Z-matrix:
 Charge =  0 Multiplicity = 1

 SCF Done:  E(RHF) =  -764.519833974     A.U. after   17 cycles
 Normal termination of Gaussian 16 at Tue Apr  8 23:12:19 2025.
 Gaussian 16:  ES64L-G16RevC.01  3-Jul-2019

 ----------------------------------------------------------------------
 #t hf aug-cc-pvdz iop(5/13=1,5/36=2,99/5=2) pseudo=read geom=check gue
 ss=(read,tcheck) scf=(maxcycle=1)
 ----------------------------------------------------------------------
 -----
 title
 -----
 Structure from the checkpoint file:  "BDE49_expt_726_mol1.chk"
 Charge =  0 Multiplicity = 1

                         Standard orientation:
 ---------------------------------------------------------------------
 Center     Atomic      Atomic             Coordinates (Angstroms)
 Number     Number       Type             X           Y           Z
 ---------------------------------------------------------------------
      1          6           0       -1.791712   -1.324675    0.000001
      2          6           0       -0.406666   -1.470668    0.000001
      3          6           0        0.415161   -0.350283   -0.000000
      4          6           0       -2.347803   -0.048714    0.000001
      5          6           0       -1.524544    1.072991   -0.000000
      6          6           0       -0.133799    0.939190   -0.000000
      7          1           0       -3.423745    0.079764    0.000001
      8          1           0       -1.957662    2.069128   -0.000001
      9          8           0        0.710591    2.003366   -0.000001
     10          1           0        0.194069    2.815944   -0.000002
     11          1           0       -2.425638   -2.202733    0.000002
     12          1           0        0.048681   -2.452810    0.000001
     13         17           0        2.153867   -0.543722   -0.000000
 ---------------------------------------------------------------------

 SCF Done:  E(RHF) =  -766.164556572     A.U. after    2 cycles

 The electronic state is 1-A.
 Alpha  occ. eigenvalues --  -99.88921 -21.11581 -11.53822 -11.47558 -11.45632
 Alpha  occ. eigenvalues --  -11.43176 -11.41872 -11.38062 -10.46280  -9.66298
 Alpha  occ. eigenvalues --   -9.65438  -9.65217  -1.77403  -1.38094  -1.27710
 Alpha  occ. eigenvalues --   -1.09903  -1.07527  -0.89570  -0.86057  -0.72362
 Alpha  occ. eigenvalues --   -0.68891  -0.64510  -0.60343  -0.59246  -0.58857
 Alpha  occ. eigenvalues --   -0.53281  -0.51081  -0.49795  -0.46474  -0.44215
 Alpha  occ. eigenvalues --   -0.43142  -0.34343  -0.28349
 Alpha virt. eigenvalues --    0.03020   0.04765   0.05022   0.05886   0.07126
 Alpha virt. eigenvalues --    0.08640   0.09644   0.10714   0.11701   0.12555
 Alpha virt. eigenvalues --    0.13056   0.13384   0.13601   0.13860   0.14359

 Mulliken charges:
               1
     1  C   -0.908515
     2  C   -0.688378
     3  C   -2.563937
     4  C   -1.142668
     5  C   -3.724538
     6  C    6.665918
     7  H    1.490889
     8  H    1.649226
     9  O   -4.413524
    10  H    1.073355
    11  H    1.526906
    12  H    1.750639
    13  Cl  -0.715373
 Sum of Mulliken charges =  -0.00000

 Dipole moment (field-independent basis, Debye):
    X=             -2.4900    Y=              1.1505    Z=             -0.0000  Tot=              2.7430

 Test job not archived.
 1\1\GINC-SE458\SP\RHF\Aug-CC-pVDZ\C6H5Cl1O1\OHZDE\08-Apr-2025\0\\#t hf
  aug-cc-pvdz iop(5/13=1,5/36=2,99/5=2) pseudo=read geom=check guess=(r
 ead,tcheck) scf=(maxcycle=1)\\title\\0,1\C,0,-1.791712,-1.324675,0.000
 001\C,0,-0.406666,-1.470668,0.000001\C,0,0.415161,-0.350283,0.\C,0,-2.
 347803,-0.048714,0.000001\C,0,-1.524544,1.072991,0.\C,0,-0.133799,0.93
 919,0.\H,0,-3.423745,0.079764,0.000001\H,0,-1.957662,2.069128,-0.00000
 1\O,0,0.710591,2.003366,-0.000001\H,0,0.194069,2.815944,-0.000002\H,0,
 -2.425638,-2.202733,0.000002\H,0,0.048681,-2.45281,0.000001\Cl,0,2.153

 Normal termination of Gaussian 16 at Tue Apr  8 23:12:24 2025.
