 Gaussian 16, Revision C.01,

 ----------------------------------------------------------------------
 #t hf aug-cc-pvdz symm=none int=(grid=ultrafine) guess=(read,tcheck) s
 table=opt
 ----------------------------------------------------------------------
 -----
 title
 -----
 Symbolic Z-matrix:
 Charge =  0 Multiplicity = 2

 SCF Done:  E(UHF) =  -280.866663773     A.U. after   16 cycles
 Normal termination of Gaussian 16 at Wed Apr  9 00:32:42 2025.
 Gaussian 16:  ES64L-G16RevC.01  3-Jul-2019

 ----------------------------------------------------------------------
 #t hf aug-cc-pvdz iop(5/13=1,5/36=2,99/5=2) pseudo=read geom=check gue
 ss=(read,tcheck) scf=(maxcycle=1)
 ----------------------------------------------------------------------
 -----
 title
 -----
 Structure from the checkpoint file:  "BDE49_nonexpt_372_mol2.chk"
 Charge =  0 Multiplicity = 2

                         Standard orientation:
 ---------------------------------------------------------------------
 Center     Atomic      Atomic             Coordinates (Angstroms)
 Number     Number       Type             X           Y           Z
 ---------------------------------------------------------------------
      1          9           0        1.922434   -1.219940   -0.178395
      2          5           0        2.072994   -0.003415    0.313878
      3          6           0        1.030874    1.146422    0.111700
      4          6           0       -0.340738    0.743045   -0.470362
      5          1           0        0.914296    1.692239    1.056217
      6          6           0       -1.187482   -0.104390    0.486912
      7          1           0       -0.192321    0.190167   -1.404773
      8          1           0       -0.898436    1.649423   -0.734948
      9          6           0       -2.557058   -0.472356   -0.090246
     10          1           0       -1.322063    0.442776    1.428062
     11          1           0       -0.641909   -1.020807    0.738406
     12          1           0       -3.142218    0.422927   -0.322640
     13          1           0       -3.137290   -1.074659    0.613830
     14          1           0       -2.453905   -1.049411   -1.014327
     15          1           0        1.533394    1.867553   -0.551693
 ---------------------------------------------------------------------

 SCF Done:  E(UHF) =  -282.107237770     A.U. after    2 cycles

 The electronic state is 2-A.
 Alpha  occ. eigenvalues --  -29.25537 -11.41927 -11.39270 -11.36327 -11.34199
 Alpha  occ. eigenvalues --   -7.66835  -1.25394  -1.11008  -0.97429  -0.88720
 Alpha  occ. eigenvalues --   -0.82595  -0.64717  -0.59990  -0.58938  -0.57004
 Alpha  occ. eigenvalues --   -0.52506  -0.50046  -0.47127  -0.46400  -0.45698
 Alpha  occ. eigenvalues --   -0.43390  -0.40220  -0.36471  -0.20615
 Alpha virt. eigenvalues --    0.03819   0.04123   0.04425   0.04880   0.06024
 Alpha virt. eigenvalues --    0.06226   0.06454   0.06797   0.08268   0.09134
 Alpha virt. eigenvalues --    0.09633   0.09930   0.12878   0.13430   0.13889

  Beta  occ. eigenvalues --  -29.25235 -11.41860 -11.39204 -11.36212 -11.34084
  Beta  occ. eigenvalues --   -7.64995  -1.24894  -1.10003  -0.95817  -0.87385
  Beta  occ. eigenvalues --   -0.82275  -0.64286  -0.59768  -0.58383  -0.56155
  Beta  occ. eigenvalues --   -0.51642  -0.49521  -0.46118  -0.45730  -0.43292
  Beta  occ. eigenvalues --   -0.40235  -0.39727  -0.34096
  Beta virt. eigenvalues --    0.03499   0.04026   0.04204   0.04958   0.06029
  Beta virt. eigenvalues --    0.06119   0.06440   0.06808   0.08249   0.09145
  Beta virt. eigenvalues --    0.09636   0.09887   0.11289   0.12937   0.13573

 Mulliken charges and spin densities:
               1          2
     1  F   -0.805555  -0.108944
     2  B    1.138778   1.129732
     3  C   -4.099422   0.037968
     4  C   -2.388743  -0.011881
     5  H    1.928084  -0.023469
     6  C   -2.701820   0.019127
     7  H    1.464491  -0.003130
     8  H    1.437695  -0.006875
     9  C   -4.099156   0.000081
    10  H    1.499081  -0.004082
    11  H    1.504387  -0.003147
    12  H    1.282479   0.000355
    13  H    1.099318  -0.000449
    14  H    1.308998   0.000963
    15  H    1.431387  -0.026249
 Sum of Mulliken charges =  -0.00000   1.00000

 Dipole moment (field-independent basis, Debye):
    X=             -1.2481    Y=             -2.5405    Z=             -1.4748  Tot=              3.1917
                          Isotropic Fermi Contact Couplings
        Atom                 a.u.       MegaHertz       Gauss      10(-4) cm-1
     1  F(19)              0.05883     247.54159      88.32900      82.57099
     2  B(11)              0.17902     256.77952      91.62532      85.65243
     3  C(13)              0.06926      77.85933      27.78215      25.97108
     4  C(13)              0.01457      16.37465       5.84288       5.46200
     5  H(1)               0.00030       1.33298       0.47564       0.44464
     6  C(13)             -0.00110      -1.23441      -0.44047      -0.41175
     7  H(1)              -0.00048      -2.16505      -0.77254      -0.72218
     8  H(1)               0.00142       6.33336       2.25990       2.11258

 Normal termination of Gaussian 16 at Wed Apr  9 00:32:55 2025.
