 Gaussian 16, Revision C.01,

 ----------------------------------------------------------------------
 #t hf aug-cc-pvdz symm=none int=(grid=ultrafine) guess=(read,tcheck) s
 table=opt
 ----------------------------------------------------------------------
 -----
 title
 -----
 Symbolic Z-matrix:
 Charge =  0 Multiplicity = 2

 SCF Done:  E(UHF) =  -801.716575000     A.U. after   21 cycles
 Normal termination of Gaussian 16 at Tue Apr  8 23:12:30 2025.
 Gaussian 16:  ES64L-G16RevC.01  3-Jul-2019

 ----------------------------------------------------------------------
 #t hf aug-cc-pvdz iop(5/13=1,5/36=2,99/5=2) pseudo=read geom=check gue
 ss=(read,tcheck) scf=(maxcycle=1)
 ----------------------------------------------------------------------
 -----
 title
 -----
 Structure from the checkpoint file:  "BDE49_expt_685_mol2.chk"
 Charge =  0 Multiplicity = 2

                         Standard orientation:
 ---------------------------------------------------------------------
 Center     Atomic      Atomic             Coordinates (Angstroms)
 Number     Number       Type             X           Y           Z
 ---------------------------------------------------------------------
      1          6           0        1.275729   -0.122907   -0.007331
      2          7           0        0.006752    0.600486   -0.052671
      3          6           0       -1.287658   -0.098532   -0.002719
      4          8           0        0.050748    1.869123   -0.011509
      5          9           0        1.055911   -1.424446   -0.196651
      6          9           0        1.871541    0.051289    1.172458
      7          9           0        2.082272    0.335227   -0.957514
      8          9           0       -1.468906   -0.832459   -1.103804
      9          9           0       -1.338519   -0.913980    1.056156
     10          9           0       -2.244707    0.803508    0.087252
 ---------------------------------------------------------------------

 SCF Done:  E(UHF) =  -804.572879060     A.U. after    2 cycles

 The electronic state is 2-A.
 Alpha  occ. eigenvalues --  -29.35487 -29.35457 -29.34839 -29.34828 -29.34710
 Alpha  occ. eigenvalues --  -29.34589 -21.17705 -15.86700 -11.65086 -11.64159
 Alpha  occ. eigenvalues --   -1.92778  -1.53332  -1.46573  -1.16705  -0.98446
 Alpha  occ. eigenvalues --   -0.96833  -0.95248  -0.92527  -0.85761  -0.67095
 Alpha  occ. eigenvalues --   -0.65382  -0.52724  -0.52052  -0.48960  -0.48138
 Alpha  occ. eigenvalues --   -0.47878  -0.46602  -0.45172  -0.42463  -0.41764
 Alpha  occ. eigenvalues --   -0.40236  -0.39652  -0.37331  -0.32453  -0.32053
 Alpha  occ. eigenvalues --   -0.31543  -0.28678  -0.27176  -0.25785  -0.25169
 Alpha  occ. eigenvalues --   -0.23856
 Alpha virt. eigenvalues --    0.09465   0.10108   0.11045   0.11582   0.12255
 Alpha virt. eigenvalues --    0.12644   0.13159   0.16564   0.18926   0.19285
 Alpha virt. eigenvalues --    0.20049   0.21067   0.21699   0.22879   0.23355

  Beta  occ. eigenvalues --  -29.35498 -29.35467 -29.34816 -29.34791 -29.34675
  Beta  occ. eigenvalues --  -29.34552 -21.14248 -15.85671 -11.65193 -11.64263
  Beta  occ. eigenvalues --   -1.86135  -1.50631  -1.46645  -1.13282  -0.97016
  Beta  occ. eigenvalues --   -0.96369  -0.95150  -0.92519  -0.85626  -0.64934
  Beta  occ. eigenvalues --   -0.54791  -0.52530  -0.51738  -0.48694  -0.48003
  Beta  occ. eigenvalues --   -0.47590  -0.46101  -0.44518  -0.41631  -0.40476
  Beta  occ. eigenvalues --   -0.39495  -0.36924  -0.35925  -0.31838  -0.31274
  Beta  occ. eigenvalues --   -0.28752  -0.28592  -0.25861  -0.25352  -0.23875
  Beta virt. eigenvalues --    0.09508   0.10122   0.10677   0.11598   0.12254
  Beta virt. eigenvalues --    0.12588   0.13249   0.13435   0.16651   0.19052
  Beta virt. eigenvalues --    0.19989   0.20168   0.21117   0.21745   0.23219

 Mulliken charges and spin densities:
               1          2
     1  C   -0.831325  -0.038524
     2  N    0.740077   0.144774
     3  C   -1.152701  -0.041444
     4  O   -2.423665   0.904459
     5  F    0.716544  -0.003324
     6  F    0.601552   0.011668
     7  F    0.615408   0.003432
     8  F    0.494482   0.009464
     9  F    0.515698   0.013739
    10  F    0.723931  -0.004244
 Sum of Mulliken charges =  -0.00000   1.00000

 Dipole moment (field-independent basis, Debye):
    X=             -0.1465    Y=             -2.6216    Z=              0.1527  Tot=              2.6302
                          Isotropic Fermi Contact Couplings
        Atom                 a.u.       MegaHertz       Gauss      10(-4) cm-1
     1  C(13)             -0.00767      -8.62367      -3.07714      -2.87655
     2  N(14)              0.07768      25.09989       8.95626       8.37242
     3  C(13)             -0.00894     -10.04770      -3.58527      -3.35155
     4  O(17)              0.20312    -123.13092     -43.93618     -41.07205
     5  F(19)             -0.00147      -6.18917      -2.20845      -2.06448
     6  F(19)              0.00369      15.53916       5.54476       5.18331
     7  F(19)              0.00063       2.63202       0.93917       0.87795
     8  F(19)              0.00919      38.68511      13.80381      12.90396

 Normal termination of Gaussian 16 at Tue Apr  8 23:12:37 2025.
