 Gaussian 16, Revision C.01,

 ----------------------------------------------------------------------
 #t hf aug-cc-pvdz symm=none int=(grid=ultrafine) guess=(read,tcheck) s
 table=opt
 ----------------------------------------------------------------------
 -----
 title
 -----
 Symbolic Z-matrix:
 Charge =  0 Multiplicity = 2

 SCF Done:  E(UHF) =  -292.761048444     A.U. after   15 cycles
 Normal termination of Gaussian 16 at Tue Apr  8 23:55:50 2025.
 Gaussian 16:  ES64L-G16RevC.01  3-Jul-2019

 ----------------------------------------------------------------------
 #t hf aug-cc-pvdz iop(5/13=1,5/36=2,99/5=2) pseudo=read geom=check gue
 ss=(read,tcheck) scf=(maxcycle=1)
 ----------------------------------------------------------------------
 -----
 title
 -----
 Structure from the checkpoint file:  "BDE49_nonexpt_1959_mol2.chk"
 Charge =  0 Multiplicity = 2

                         Standard orientation:
 ---------------------------------------------------------------------
 Center     Atomic      Atomic             Coordinates (Angstroms)
 Number     Number       Type             X           Y           Z
 ---------------------------------------------------------------------
      1          6           0        0.753121    1.813269   -0.000082
      2          5           0        0.005103    0.467784   -0.000016
      3          8           0       -1.362541    0.506116   -0.000021
      4          8           0        0.604986   -0.767449    0.000020
      5          6           0       -2.127906   -0.695263    0.000022
      6          1           0       -3.180510   -0.410254    0.000011
      7          1           0       -1.914622   -1.299746    0.886437
      8          1           0       -1.914622   -1.299811   -0.886349
      9          6           0        2.015104   -0.936320    0.000014
     10          1           0        2.218294   -2.008036    0.000048
     11          1           0        2.472130   -0.492937    0.890743
     12          1           0        2.472118   -0.492996   -0.890751
     13          1           0        1.833539    1.914795    0.000105
     14          1           0        0.206679    2.750617    0.000122
 ---------------------------------------------------------------------

 SCF Done:  E(UHF) =  -294.054141580     A.U. after    2 cycles

 The electronic state is 2-A.
 Alpha  occ. eigenvalues --  -21.02146 -21.01215 -11.40905 -11.39413 -11.35639
 Alpha  occ. eigenvalues --   -7.62213  -1.83198  -1.68372  -1.06912  -0.99267
 Alpha  occ. eigenvalues --   -0.96339  -0.69403  -0.63833  -0.61921  -0.61176
 Alpha  occ. eigenvalues --   -0.59231  -0.56671  -0.53321  -0.49725  -0.45339
 Alpha  occ. eigenvalues --   -0.39664  -0.33733  -0.33534  -0.32426
 Alpha virt. eigenvalues --    0.03190   0.04369   0.04593   0.05571   0.06665
 Alpha virt. eigenvalues --    0.07101   0.07191   0.07773   0.08306   0.09051
 Alpha virt. eigenvalues --    0.09471   0.10235   0.14085   0.14451   0.15124

  Beta  occ. eigenvalues --  -21.02060 -21.01053 -11.40909 -11.39428 -11.33763
  Beta  occ. eigenvalues --   -7.62341  -1.82884  -1.68109  -1.03033  -0.98434
  Beta  occ. eigenvalues --   -0.92643  -0.68686  -0.63616  -0.61592  -0.60599
  Beta  occ. eigenvalues --   -0.59086  -0.56048  -0.52765  -0.49347  -0.41926
  Beta  occ. eigenvalues --   -0.39379  -0.33023  -0.31966
  Beta virt. eigenvalues --    0.03321   0.04388   0.04645   0.04676   0.06688
  Beta virt. eigenvalues --    0.07004   0.07108   0.07568   0.07795   0.09223
  Beta virt. eigenvalues --    0.09248   0.09579   0.10252   0.14132   0.14628

 Mulliken charges and spin densities:
               1          2
     1  C   -5.411148   1.292574
     2  B    8.349416  -0.271789
     3  O   -4.640489   0.072530
     4  O   -4.143633   0.004867
     5  C   -2.549745  -0.006910
     6  H    1.306551   0.000178
     7  H    1.324484   0.002761
     8  H    1.324467   0.002761
     9  C   -2.470178   0.009916
    10  H    1.404054   0.000326
    11  H    1.325102  -0.002853
    12  H    1.325120  -0.002851
    13  H    1.357734  -0.053609
    14  H    1.498264  -0.047902
 Sum of Mulliken charges =   0.00000   1.00000

 Dipole moment (field-independent basis, Debye):
    X=              0.9006    Y=             -0.5536    Z=              0.0003  Tot=              1.0571
                          Isotropic Fermi Contact Couplings
        Atom                 a.u.       MegaHertz       Gauss      10(-4) cm-1
     1  C(13)              0.09237     103.83637      37.05140      34.63608
     2  B(11)             -0.02581     -37.01829     -13.20905     -12.34797
     3  O(17)              0.00491      -2.97596      -1.06190      -0.99267
     4  O(17)              0.00547      -3.31661      -1.18345      -1.10630
     5  C(13)             -0.00276      -3.09873      -1.10571      -1.03363
     6  H(1)               0.00004       0.16348       0.05833       0.05453
     7  H(1)               0.00076       3.40983       1.21671       1.13740
     8  H(1)               0.00076       3.41031       1.21688       1.13756

 Normal termination of Gaussian 16 at Tue Apr  8 23:55:54 2025.
