 Gaussian 16, Revision C.01,

 ----------------------------------------------------------------------
 #t hf aug-cc-pvdz symm=none int=(grid=ultrafine) guess=(read,tcheck) s
 table=(opt,rrhf)
 ----------------------------------------------------------------------
 -----
 title
 -----
 Symbolic Z-matrix:
 Charge =  0 Multiplicity = 1

 SCF Done:  E(RHF) =  -1189.93855285     A.U. after   15 cycles
 Normal termination of Gaussian 16 at Wed Apr  9 00:12:16 2025.
 Gaussian 16:  ES64L-G16RevC.01  3-Jul-2019

 ----------------------------------------------------------------------
 #t hf aug-cc-pvdz iop(5/13=1,5/36=2,99/5=2) pseudo=read geom=check gue
 ss=(read,tcheck) scf=(maxcycle=1)
 ----------------------------------------------------------------------
 -----
 title
 -----
 Structure from the checkpoint file:  "BDE49_nonexpt_238_mol1.chk"
 Charge =  0 Multiplicity = 1

                         Standard orientation:
 ---------------------------------------------------------------------
 Center     Atomic      Atomic             Coordinates (Angstroms)
 Number     Number       Type             X           Y           Z
 ---------------------------------------------------------------------
      1         17           0       -2.074523    1.499732   -0.000001
      2          5           0       -1.146150   -0.010179   -0.000015
      3         17           0       -2.042278   -1.517142   -0.000000
      4          6           0        0.414725    0.012665   -0.000005
      5          6           0        1.139697    1.214113   -0.000004
      6          7           0        1.037478   -1.189417    0.000001
      7          6           0        2.365225   -1.212937    0.000008
      8          6           0        2.530938    1.175463    0.000004
      9          6           0        3.159711   -0.062420    0.000010
     10          1           0        0.616788    2.161973   -0.000009
     11          1           0        3.108823    2.092615    0.000005
     12          1           0        4.240224   -0.146108    0.000016
     13          1           0        2.826419   -2.197005    0.000012
 ---------------------------------------------------------------------

 SCF Done:  E(RHF) =  -1191.67862243     A.U. after    2 cycles

 The electronic state is 1-A.
 Alpha  occ. eigenvalues --  -99.89760 -99.89044 -15.75463 -11.50559 -11.45987
 Alpha  occ. eigenvalues --  -11.44648 -11.42909 -11.39140 -10.47091 -10.46342
 Alpha  occ. eigenvalues --   -9.67085  -9.66634  -9.66369  -9.66316  -9.65865
 Alpha  occ. eigenvalues --   -9.65652  -7.72523  -1.47108  -1.38269  -1.29214
 Alpha  occ. eigenvalues --   -1.20316  -1.13418  -0.92755  -0.90464  -0.80711
 Alpha  occ. eigenvalues --   -0.72897  -0.66062  -0.65141  -0.62377  -0.58552
 Alpha  occ. eigenvalues --   -0.58254  -0.56671  -0.54617  -0.51909  -0.51489
 Alpha  occ. eigenvalues --   -0.49766  -0.44974  -0.38336  -0.36700  -0.36167
 Alpha virt. eigenvalues --    0.02541   0.03255   0.04512   0.04802   0.05131
 Alpha virt. eigenvalues --    0.05234   0.05415   0.07169   0.08985   0.09877
 Alpha virt. eigenvalues --    0.11600   0.12589   0.12905   0.13210   0.13216

 Mulliken charges:
               1
     1  Cl  -1.366550
     2  B    2.049127
     3  Cl  -1.331277
     4  C   -0.357186
     5  C   -0.605909
     6  N   -3.375172
     7  C   -0.804030
     8  C    0.203517
     9  C   -0.927647
    10  H    1.824250
    11  H    1.559574
    12  H    1.455894
    13  H    1.675408
 Sum of Mulliken charges =   0.00000

 Dipole moment (field-independent basis, Debye):
    X=              3.6015    Y=              1.3006    Z=             -0.0000  Tot=              3.8291

 Test job not archived.
 1\1\GINC-SE069\SP\RHF\Aug-CC-pVDZ\C5H4B1Cl2N1\OHZDE\09-Apr-2025\0\\#t
 hf aug-cc-pvdz iop(5/13=1,5/36=2,99/5=2) pseudo=read geom=check guess=
 (read,tcheck) scf=(maxcycle=1)\\title\\0,1\Cl,0,-2.074523,1.499732,-0.
 000001\B,0,-1.14615,-0.010179,-0.000015\Cl,0,-2.042278,-1.517142,0.\C,
 0,0.414725,0.012665,-0.000005\C,0,1.139697,1.214113,-0.000004\N,0,1.03
 7478,-1.189417,0.000001\C,0,2.365225,-1.212937,0.000008\C,0,2.530938,1
 .175463,0.000004\C,0,3.159711,-0.06242,0.00001\H,0,0.616788,2.161973,-
 0.000009\H,0,3.108823,2.092615,0.000005\H,0,4.240224,-0.146108,0.00001

 Normal termination of Gaussian 16 at Wed Apr  9 00:12:22 2025.
