 Gaussian 16, Revision C.01,

 ----------------------------------------------------------------------
 #t hf aug-cc-pvdz symm=none int=(grid=ultrafine) guess=(read,tcheck) s
 table=(opt,rrhf)
 ----------------------------------------------------------------------
 -----
 title
 -----
 Symbolic Z-matrix:
 Charge =  0 Multiplicity = 1

 SCF Done:  E(RHF) =  -691.101124833     A.U. after   12 cycles
 Normal termination of Gaussian 16 at Tue Apr  8 22:42:02 2025.
 Gaussian 16:  ES64L-G16RevC.01  3-Jul-2019

 ----------------------------------------------------------------------
 #t hf aug-cc-pvdz iop(5/13=1,5/36=2,99/5=2) pseudo=read geom=check gue
 ss=(read,tcheck) scf=(maxcycle=1)
 ----------------------------------------------------------------------
 -----
 title
 -----
 Structure from the checkpoint file:  "BDE49_expt_1364_mol1.chk"
 Charge =  0 Multiplicity = 1

                         Standard orientation:
 ---------------------------------------------------------------------
 Center     Atomic      Atomic             Coordinates (Angstroms)
 Number     Number       Type             X           Y           Z
 ---------------------------------------------------------------------
      1          6           0       -2.244142   -0.559640    0.000001
      2          8           0       -1.108759    0.298191    0.000001
      3          6           0        0.121897   -0.397822   -0.000000
      4          6           0        1.212568    0.659471   -0.000000
      5          6           0       -3.493414    0.301285    0.000002
      6          1           0        0.215589   -1.037585   -0.888901
      7          1           0        0.215590   -1.037586    0.888900
      8         17           0        2.847657   -0.119422   -0.000002
      9          1           0        1.154039    1.282518    0.889792
     10          1           0        1.154039    1.282518   -0.889792
     11          1           0       -2.219315   -1.210069    0.887174
     12          1           0       -2.219316   -1.210069   -0.887172
     13          1           0       -3.516649    0.940346    0.885382
     14          1           0       -4.388882   -0.325546    0.000003
     15          1           0       -3.516651    0.940346   -0.885377
 ---------------------------------------------------------------------

 SCF Done:  E(RHF) =  -692.456091972     A.U. after    2 cycles

 The electronic state is 1-A.
 Alpha  occ. eigenvalues --  -99.87758 -21.05079 -11.46411 -11.43578 -11.41082
 Alpha  occ. eigenvalues --  -11.36820 -10.44998  -9.64923  -9.64180  -9.64104
 Alpha  occ. eigenvalues --   -1.76404  -1.32634  -1.14702  -1.06105  -0.89873
 Alpha  occ. eigenvalues --   -0.87144  -0.69444  -0.64102  -0.63973  -0.61117
 Alpha  occ. eigenvalues --   -0.57589  -0.56460  -0.52316  -0.50388  -0.50386
 Alpha  occ. eigenvalues --   -0.47121  -0.43762  -0.39903  -0.31042
 Alpha virt. eigenvalues --    0.03859   0.04960   0.05585   0.05605   0.05793
 Alpha virt. eigenvalues --    0.06053   0.06410   0.07191   0.08116   0.09878
 Alpha virt. eigenvalues --    0.10272   0.12553   0.14089   0.14368   0.14980

 Mulliken charges:
               1
     1  C   -1.368294
     2  O   -3.306096
     3  C   -0.076166
     4  C   -4.629386
     5  C   -4.020834
     6  H    1.608671
     7  H    1.608672
     8  Cl   0.035989
     9  H    1.614751
    10  H    1.614753
    11  H    1.593233
    12  H    1.593234
    13  H    1.310849
    14  H    1.109775
    15  H    1.310850
 Sum of Mulliken charges =  -0.00000

 Dipole moment (field-independent basis, Debye):
    X=             -2.5835    Y=              0.4267    Z=              0.0000  Tot=              2.6185

 Test job not archived.
 1\1\GINC-SE186\SP\RHF\Aug-CC-pVDZ\C4H9Cl1O1\OHZDE\08-Apr-2025\0\\#t hf
  aug-cc-pvdz iop(5/13=1,5/36=2,99/5=2) pseudo=read geom=check guess=(r
 ead,tcheck) scf=(maxcycle=1)\\title\\0,1\C,0,-2.244142,-0.55964,0.0000
 01\O,0,-1.108759,0.298191,0.000001\C,0,0.121897,-0.397822,0.\C,0,1.212
 568,0.659471,0.\C,0,-3.493414,0.301285,0.000002\H,0,0.215589,-1.037585
 ,-0.888901\H,0,0.21559,-1.037586,0.8889\Cl,0,2.847657,-0.119422,-0.000
 002\H,0,1.154039,1.282518,0.889792\H,0,1.154039,1.282518,-0.889792\H,0
 ,-2.219315,-1.210069,0.887174\H,0,-2.219316,-1.210069,-0.887172\H,0,-3

 Normal termination of Gaussian 16 at Tue Apr  8 22:42:07 2025.
