 Gaussian 16, Revision C.01,

 ----------------------------------------------------------------------
 #t hf aug-cc-pvdz symm=none int=(grid=ultrafine) guess=(read,tcheck) s
 table=(opt,rrhf)
 ----------------------------------------------------------------------
 -----
 title
 -----
 Symbolic Z-matrix:
 Charge =  0 Multiplicity = 1

 SCF Done:  E(RHF) =  -611.077903702     A.U. after   15 cycles
 Normal termination of Gaussian 16 at Tue Apr  8 23:33:57 2025.
 Gaussian 16:  ES64L-G16RevC.01  3-Jul-2019

 ----------------------------------------------------------------------
 #t hf aug-cc-pvdz iop(5/13=1,5/36=2,99/5=2) pseudo=read geom=check gue
 ss=(read,tcheck) scf=(maxcycle=1)
 ----------------------------------------------------------------------
 -----
 title
 -----
 Structure from the checkpoint file:  "BDE49_nonexpt_1425_mol1.chk"
 Charge =  0 Multiplicity = 1

                         Standard orientation:
 ---------------------------------------------------------------------
 Center     Atomic      Atomic             Coordinates (Angstroms)
 Number     Number       Type             X           Y           Z
 ---------------------------------------------------------------------
      1          6           0       -1.865732   -1.313296    0.004632
      2          6           0       -0.482962   -1.471769    0.013891
      3          6           0        0.372385   -0.363274    0.013690
      4          6           0       -2.411525   -0.033606   -0.000964
      5          6           0       -1.568696    1.074304   -0.002276
      6          6           0       -0.178019    0.935298   -0.002451
      7          1           0       -2.509752   -2.185504    0.007459
      8          1           0       -0.064117   -2.472093    0.026658
      9         15           0        2.201309   -0.593191   -0.112676
     10          1           0       -1.995737    2.072099   -0.007323
     11          1           0       -3.486992    0.103638   -0.005216
     12          6           0        0.704037    2.159975    0.000999
     13          1           0        0.116599    3.067614   -0.147422
     14          1           0        1.458965    2.114623   -0.791030
     15          1           0        1.241237    2.264216    0.950238
     16          1           0        2.232441   -1.934577    0.341316
     17          1           0        2.570804   -0.057942    1.150330
 ---------------------------------------------------------------------

 SCF Done:  E(RHF) =  -612.595898923     A.U. after    2 cycles

 The electronic state is 1-A.
 Alpha  occ. eigenvalues -- -105.18305 -11.51090 -11.44144 -11.43012 -11.40965
 Alpha  occ. eigenvalues --  -11.40882 -11.38822 -11.35996  -2.75234  -1.51072
 Alpha  occ. eigenvalues --   -1.46121  -1.43344  -1.33620  -1.14527  -1.07996
 Alpha  occ. eigenvalues --   -0.99265  -0.85779  -0.83379  -0.73811  -0.67146
 Alpha  occ. eigenvalues --   -0.61721  -0.60570  -0.58010  -0.55808  -0.52033
 Alpha  occ. eigenvalues --   -0.49067  -0.48136  -0.43782  -0.33891  -0.32065
 Alpha  occ. eigenvalues --   -0.26069  -0.22961  -0.02612
 Alpha virt. eigenvalues --    0.03603   0.04894   0.05312   0.06068   0.06439
 Alpha virt. eigenvalues --    0.07172   0.07247   0.07856   0.09010   0.09652
 Alpha virt. eigenvalues --    0.10255   0.11717   0.12201   0.12507   0.12854

 Mulliken charges:
               1
     1  C   -1.273597
     2  C   -4.465616
     3  C    2.531341
     4  C   -2.313432
     5  C   -0.288898
     6  C    1.712288
     7  H    1.523456
     8  H    1.848449
     9  P    1.205654
    10  H    1.769159
    11  H    1.489369
    12  C   -5.790496
    13  H    1.223869
    14  H    1.105228
    15  H    1.200258
    16  H   -0.861642
    17  H   -0.615390
 Sum of Mulliken charges =  -0.00000

 Dipole moment (field-independent basis, Debye):
    X=             -0.0262    Y=              1.0131    Z=             -2.4242  Tot=              2.6275

 Test job not archived.
 1\1\GINC-SE252\SP\RHF\Aug-CC-pVDZ\C7H9P1\OHZDE\08-Apr-2025\0\\#t hf au
 g-cc-pvdz iop(5/13=1,5/36=2,99/5=2) pseudo=read geom=check guess=(read
 ,tcheck) scf=(maxcycle=1)\\title\\0,1\C,0,-1.865732,-1.313296,0.004632
 \C,0,-0.482962,-1.471769,0.013891\C,0,0.372385,-0.363274,0.01369\C,0,-
 2.411525,-0.033606,-0.000964\C,0,-1.568696,1.074304,-0.002276\C,0,-0.1
 78019,0.935298,-0.002451\H,0,-2.509751,-2.185504,0.007459\H,0,-0.06411
 6,-2.472093,0.026658\P,0,2.201309,-0.593191,-0.112676\H,0,-1.995737,2.
 072099,-0.007323\H,0,-3.486992,0.103637,-0.005216\C,0,0.704037,2.15997

 Normal termination of Gaussian 16 at Tue Apr  8 23:34:04 2025.
