 Gaussian 16, Revision C.01,

 ----------------------------------------------------------------------
 #t hf aug-cc-pvdz symm=none int=(grid=ultrafine) guess=(read,tcheck) s
 table=(opt,rrhf)
 ----------------------------------------------------------------------
 -----
 title
 -----
 Symbolic Z-matrix:
 Charge =  0 Multiplicity = 1

 SCF Done:  E(RHF) =  -536.967829548     A.U. after   13 cycles

 1\1\GINC-SE393\Stability\RHF\Aug-CC-pVDZ\C2H3Cl1\OHZDE\08-Apr-2025\0\\
 #t hf aug-cc-pvdz symm=none int=(grid=ultrafine) guess=(read,tcheck) s
 table=(opt,rrhf)\\title\\0,1\C,0,-0.577735,0.503288,0.000008\C,0,-1.63
 9866,-0.284724,0.000013\H,0,-2.629441,0.157,0.000041\Cl,0,1.065432,-0.
 099299,-0.000011\H,0,-0.615935,1.583968,0.00003\H,0,-1.561363,-1.36427
 5,0.\\Version=ES64L-G16RevC.01\HF=-536.9678295\RMSD=1.947e-09\Dipole=-
 0.6741628,0.1817277,0.0000161\Quadrupole=0.9839503,1.1716875,-2.155637
 7,-0.0867618,-0.0000605,0.0000486\PG=Unknown\\@

 Normal termination of Gaussian 16 at Tue Apr  8 22:43:26 2025.
 Gaussian 16:  ES64L-G16RevC.01  3-Jul-2019

 ----------------------------------------------------------------------
 #t hf aug-cc-pvdz iop(5/13=1,5/36=2,99/5=2) pseudo=read geom=check gue
 ss=(read,tcheck) scf=(maxcycle=1)
 ----------------------------------------------------------------------
 -----
 title
 -----
 Structure from the checkpoint file:  "BDE49_expt_142_mol1.chk"
 Charge =  0 Multiplicity = 1

                         Standard orientation:
 ---------------------------------------------------------------------
 Center     Atomic      Atomic             Coordinates (Angstroms)
 Number     Number       Type             X           Y           Z
 ---------------------------------------------------------------------
      1          6           0       -0.577735    0.503288    0.000008
      2          6           0       -1.639866   -0.284724    0.000013
      3          1           0       -2.629441    0.157000    0.000041
      4         17           0        1.065432   -0.099299   -0.000011
      5          1           0       -0.615935    1.583968    0.000030
      6          1           0       -1.561363   -1.364275   -0.000000
 ---------------------------------------------------------------------

 SCF Done:  E(RHF) =  -537.593062741     A.U. after    2 cycles

 The electronic state is 1-A.
 Alpha  occ. eigenvalues --  -99.89469 -11.45432 -11.39983 -10.46825  -9.66637
 Alpha  occ. eigenvalues --   -9.65867  -9.65776  -1.35106  -1.11674  -0.84498
 Alpha  occ. eigenvalues --   -0.68319  -0.61323  -0.55499  -0.53687  -0.49559
 Alpha  occ. eigenvalues --   -0.37327
 Alpha virt. eigenvalues --    0.03281   0.05402   0.06151   0.07601   0.09362
 Alpha virt. eigenvalues --    0.11279   0.12719   0.13710   0.15487   0.16327
 Alpha virt. eigenvalues --    0.16897   0.17664   0.18781   0.19685   0.20302

 Mulliken charges:
               1
     1  C   -2.091221
     2  C   -1.737363
     3  H    1.385929
     4  Cl  -0.347187
     5  H    1.353942
     6  H    1.435899
 Sum of Mulliken charges =   0.00000

 Dipole moment (field-independent basis, Debye):
    X=             -1.9435    Y=              0.3874    Z=              0.0000  Tot=              1.9817

 Test job not archived.
 1\1\GINC-SE393\SP\RHF\Aug-CC-pVDZ\C2H3Cl1\OHZDE\08-Apr-2025\0\\#t hf a
 ug-cc-pvdz iop(5/13=1,5/36=2,99/5=2) pseudo=read geom=check guess=(rea
 d,tcheck) scf=(maxcycle=1)\\title\\0,1\C,0,-0.577735,0.503288,0.000008
 \C,0,-1.639866,-0.284724,0.000013\H,0,-2.629441,0.157,0.000041\Cl,0,1.
 065432,-0.099299,-0.000011\H,0,-0.615935,1.583968,0.00003\H,0,-1.56136
 3,-1.364275,0.\\Version=ES64L-G16RevC.01\State=1-A\HF=-537.5930627\RMS
 D=3.297e-01\Dipole=-0.7646275,0.1524033,0.0000166\Quadrupole=1.6284167
 ,0.8496805,-2.4780972,-0.2303756,-0.0000697,0.0000491\PG=C01 [X(C2H3Cl

 Normal termination of Gaussian 16 at Tue Apr  8 22:43:27 2025.
