 Gaussian 16, Revision C.01,

 ----------------------------------------------------------------------
 #t hf aug-cc-pvdz symm=none int=(grid=ultrafine) guess=(read,tcheck) s
 table=(opt,rrhf)
 ----------------------------------------------------------------------
 -----
 title
 -----
 Symbolic Z-matrix:
 Charge =  0 Multiplicity = 1

 SCF Done:  E(RHF) =  -762.523290200     A.U. after   13 cycles
 Normal termination of Gaussian 16 at Wed Apr  9 00:15:32 2025.
 Gaussian 16:  ES64L-G16RevC.01  3-Jul-2019

 ----------------------------------------------------------------------
 #t hf aug-cc-pvdz iop(5/13=1,5/36=2,99/5=2) pseudo=read geom=check gue
 ss=(read,tcheck) scf=(maxcycle=1)
 ----------------------------------------------------------------------
 -----
 title
 -----
 Structure from the checkpoint file:  "BDE49_nonexpt_2503_mol1.chk"
 Charge =  0 Multiplicity = 1

                         Standard orientation:
 ---------------------------------------------------------------------
 Center     Atomic      Atomic             Coordinates (Angstroms)
 Number     Number       Type             X           Y           Z
 ---------------------------------------------------------------------
      1         16           0       -1.424101   -0.080689   -0.000000
      2         14           0        0.635977    0.394707   -0.000000
      3          1           0       -1.209581   -1.410789   -0.000000
      4          8           0        1.795240   -0.586375   -0.000000
      5          1           0        0.729600    1.866921    0.000001
 ---------------------------------------------------------------------

 SCF Done:  E(RHF) =  -763.202354442     A.U. after    2 cycles

 The electronic state is 1-A.
 Alpha  occ. eigenvalues --  -76.28648 -75.73029 -21.02811 -13.16658 -13.10990
 Alpha  occ. eigenvalues --  -13.04994  -8.07093  -5.63318  -2.31779  -2.24089
 Alpha  occ. eigenvalues --   -2.20181  -1.52803  -1.14619  -0.70003  -0.52833
 Alpha  occ. eigenvalues --   -0.45896  -0.37888  -0.36729  -0.31968  -0.31154
 Alpha virt. eigenvalues --    0.02276   0.04909   0.05624   0.06102   0.08288
 Alpha virt. eigenvalues --    0.09178   0.09481   0.11352   0.12379   0.14847
 Alpha virt. eigenvalues --    0.15073   0.18401   0.19986   0.20910   0.22843

 Mulliken charges:
               1
     1  S   -2.164913
     2  Si   5.006043
     3  H    0.983946
     4  O   -2.300241
     5  H   -1.524835
 Sum of Mulliken charges =  -0.00000

 Dipole moment (field-independent basis, Debye):
    X=             -3.8492    Y=              1.6853    Z=             -0.0000  Tot=              4.2020

 Test job not archived.
 1\1\GINC-SE404\SP\RHF\Aug-CC-pVDZ\H2O1S1Si1\OHZDE\09-Apr-2025\0\\#t hf
  aug-cc-pvdz iop(5/13=1,5/36=2,99/5=2) pseudo=read geom=check guess=(r
 ead,tcheck) scf=(maxcycle=1)\\title\\0,1\S,0,1.424101,-0.080689,0.\Si,
 0,-0.635978,0.394707,0.\H,0,1.209581,-1.410789,0.\O,0,-1.79524,-0.5863
 76,0.\H,0,-0.729601,1.866921,-0.000001\\Version=ES64L-G16RevC.01\State
 =1-A\HF=-763.2023544\RMSD=9.082e-02\Dipole=1.5143749,0.6630661,0.00000
 02\Quadrupole=-1.1921161,0.7635412,0.428575,-2.3234808,-0.0000007,0.00
 00017\PG=C01 [X(H2O1S1Si1)]\\@

 Normal termination of Gaussian 16 at Wed Apr  9 00:15:33 2025.
