 Gaussian 16, Revision C.01,

 ----------------------------------------------------------------------
 #t hf aug-cc-pvdz symm=none int=(grid=ultrafine) guess=(read,tcheck) s
 table=opt
 ----------------------------------------------------------------------
 -----
 title
 -----
 Symbolic Z-matrix:
 Charge =  0 Multiplicity = 2

 SCF Done:  E(UHF) =  -1020.14859691     A.U. after   23 cycles
 Normal termination of Gaussian 16 at Wed Apr  9 00:17:09 2025.
 Gaussian 16:  ES64L-G16RevC.01  3-Jul-2019

 ----------------------------------------------------------------------
 #t hf aug-cc-pvdz iop(5/13=1,5/36=2,99/5=2) pseudo=read geom=check gue
 ss=(read,tcheck) scf=(maxcycle=1)
 ----------------------------------------------------------------------
 -----
 title
 -----
 Structure from the checkpoint file:  "BDE49_nonexpt_2550_mol2.chk"
 Charge =  0 Multiplicity = 2

                         Standard orientation:
 ---------------------------------------------------------------------
 Center     Atomic      Atomic             Coordinates (Angstroms)
 Number     Number       Type             X           Y           Z
 ---------------------------------------------------------------------
      1         16           0       -1.671321   -0.055067   -0.101118
      2         16           0        0.381037    0.122321    0.090951
      3          8           0        0.809689    1.384267   -0.423099
      4          8           0        0.647183   -0.322602    1.436319
      5          8           0        1.005067   -0.965904   -0.928268
      6          1           0        0.949029   -1.842146   -0.516946
 ---------------------------------------------------------------------

 SCF Done:  E(UHF) =  -1021.52428029     A.U. after    2 cycles

 The electronic state is 2-A.
 Alpha  occ. eigenvalues --  -75.95841 -75.78037 -21.16022 -21.09337 -21.09159
 Alpha  occ. eigenvalues --  -13.58974 -13.47508 -13.37857 -13.15734 -13.11559
 Alpha  occ. eigenvalues --  -13.09328  -8.30928  -8.11771  -1.93378  -1.74497
 Alpha  occ. eigenvalues --   -1.69612  -1.20626  -0.93850  -0.70142  -0.62841
 Alpha  occ. eigenvalues --   -0.60035  -0.50870  -0.47854  -0.44539  -0.41311
 Alpha  occ. eigenvalues --   -0.39385  -0.37184  -0.33983  -0.31339
 Alpha virt. eigenvalues --    0.02460   0.05169   0.09495   0.09829   0.10720
 Alpha virt. eigenvalues --    0.12542   0.12818   0.13764   0.17046   0.18494
 Alpha virt. eigenvalues --    0.19169   0.20475   0.20953   0.22416   0.24032

  Beta  occ. eigenvalues --  -75.95878 -75.77023 -21.16052 -21.09136 -21.09087
  Beta  occ. eigenvalues --  -13.59022 -13.47540 -13.37999 -13.15145 -13.08741
  Beta  occ. eigenvalues --  -13.05467  -8.30981  -8.10639  -1.93324  -1.74445
  Beta  occ. eigenvalues --   -1.69297  -1.13264  -0.91465  -0.69586  -0.62173
  Beta  occ. eigenvalues --   -0.59996  -0.48336  -0.47605  -0.44074  -0.40921
  Beta  occ. eigenvalues --   -0.39176  -0.35985  -0.29847
  Beta virt. eigenvalues --   -0.00502   0.02604   0.05371   0.09611   0.11040
  Beta virt. eigenvalues --    0.11205   0.12706   0.13681   0.13925   0.17442
  Beta virt. eigenvalues --    0.18697   0.19480   0.20904   0.23344   0.23628

 Mulliken charges and spin densities:
               1          2
     1  S    0.438300   1.054887
     2  S    5.738997  -0.081527
     3  O   -2.376894   0.012001
     4  O   -2.276995   0.018412
     5  O   -2.387013  -0.006434
     6  H    0.863606   0.002661
 Sum of Mulliken charges =  -0.00000   1.00000

 Dipole moment (field-independent basis, Debye):
    X=             -2.0659    Y=             -1.6121    Z=             -0.8007  Tot=              2.7400
                          Isotropic Fermi Contact Couplings
        Atom                 a.u.       MegaHertz       Gauss      10(-4) cm-1
     1  S(33)              0.27093      93.05692      33.20502      31.04045
     2  S(33)             -0.06060     -20.81394      -7.42693      -6.94278
     3  O(17)              0.00406      -2.46164      -0.87838      -0.82112
     4  O(17)              0.01619      -9.81139      -3.50095      -3.27273
     5  O(17)             -0.00323       1.95826       0.69875       0.65320
     6  H(1)               0.00008       0.36675       0.13087       0.12233
 --------------------------------------------------------
       Center         ----  Spin Dipole Couplings  ----

 Normal termination of Gaussian 16 at Wed Apr  9 00:17:12 2025.
