 Gaussian 16, Revision C.01,

 ----------------------------------------------------------------------
 #t hf aug-cc-pvdz symm=none int=(grid=ultrafine) guess=(read,tcheck) s
 table=opt
 ----------------------------------------------------------------------
 -----
 title
 -----
 Symbolic Z-matrix:
 Charge =  0 Multiplicity = 2

 SCF Done:  E(UHF) =  -270.597941733     A.U. after   17 cycles

 1\1\GINC-SE402\Stability\UHF\Aug-CC-pVDZ\C5H11O1\OHZDE\08-Apr-2025\0\\
 #t hf aug-cc-pvdz symm=none int=(grid=ultrafine) guess=(read,tcheck) s
 table=opt\\title\\0,2\C,0,-0.383002,-0.006931,-0.015087\C,0,-1.544976,
 -0.794921,-0.645303\H,0,-1.535403,-1.841113,-0.323105\H,0,-1.485298,-0
 .776763,-1.737005\H,0,-2.505919,-0.36454,-0.349516\C,0,-0.429132,1.462
 157,-0.486753\H,0,-0.383945,1.520938,-1.577681\H,0,0.414036,2.026492,-
 0.083777\H,0,-1.354931,1.942061,-0.15507\C,0,-0.503158,-0.050529,1.530
 407\H,0,-1.430848,0.427975,1.861326\H,0,0.337285,0.470105,1.994645\H,0

 Normal termination of Gaussian 16 at Tue Apr  8 22:49:17 2025.
 Gaussian 16:  ES64L-G16RevC.01  3-Jul-2019

 ----------------------------------------------------------------------
 #t hf aug-cc-pvdz iop(5/13=1,5/36=2,99/5=2) pseudo=read geom=check gue
 ss=(read,tcheck) scf=(maxcycle=1)
 ----------------------------------------------------------------------
 -----
 title
 -----
 Structure from the checkpoint file:  "BDE49_expt_163_mol2.chk"
 Charge =  0 Multiplicity = 2

                         Standard orientation:
 ---------------------------------------------------------------------
 Center     Atomic      Atomic             Coordinates (Angstroms)
 Number     Number       Type             X           Y           Z
 ---------------------------------------------------------------------
      1          6           0       -0.383002   -0.006931   -0.015087
      2          6           0       -1.544976   -0.794921   -0.645303
      3          1           0       -1.535403   -1.841113   -0.323105
      4          1           0       -1.485298   -0.776763   -1.737005
      5          1           0       -2.505919   -0.364540   -0.349516
      6          6           0       -0.429132    1.462157   -0.486753
      7          1           0       -0.383945    1.520938   -1.577681
      8          1           0        0.414036    2.026492   -0.083777
      9          1           0       -1.354931    1.942061   -0.155070
     10          6           0       -0.503158   -0.050529    1.530407
     11          1           0       -1.430848    0.427975    1.861326
     12          1           0        0.337285    0.470105    1.994645
     13          1           0       -0.506272   -1.082621    1.893632
     14          6           0        0.907740   -0.643484   -0.447075
     15          8           0        2.046734    0.014370   -0.041124
     16          1           0        0.976978   -1.728654   -0.522097
     17          1           0        2.815615   -0.506592   -0.289492
 ---------------------------------------------------------------------

 SCF Done:  E(UHF) =  -271.902956814     A.U. after    2 cycles

 The electronic state is 2-A.
 Alpha  occ. eigenvalues --  -21.09014 -11.42295 -11.39801 -11.38070 -11.37607
 Alpha  occ. eigenvalues --  -11.34024  -1.73764  -1.26663  -0.99903  -0.99613
 Alpha  occ. eigenvalues --   -0.94918  -0.76008  -0.67182  -0.61420  -0.60746
 Alpha  occ. eigenvalues --   -0.57491  -0.54775  -0.52654  -0.50438  -0.49020
 Alpha  occ. eigenvalues --   -0.45630  -0.42808  -0.41569  -0.39887  -0.23934
 Alpha virt. eigenvalues --    0.03843   0.05178   0.05552   0.05765   0.06011
 Alpha virt. eigenvalues --    0.06157   0.06572   0.06855   0.07379   0.08842
 Alpha virt. eigenvalues --    0.09556   0.12366   0.12661   0.13564   0.14035

  Beta  occ. eigenvalues --  -21.08492 -11.41006 -11.39138 -11.38002 -11.37473
  Beta  occ. eigenvalues --  -11.33785  -1.72112  -1.25951  -0.99711  -0.99244
  Beta  occ. eigenvalues --   -0.89851  -0.74421  -0.66498  -0.61120  -0.59180
  Beta  occ. eigenvalues --   -0.57343  -0.53265  -0.52524  -0.50372  -0.45101
  Beta  occ. eigenvalues --   -0.43677  -0.42093  -0.40422  -0.37166
  Beta virt. eigenvalues --    0.03886   0.05192   0.05555   0.05728   0.06013
  Beta virt. eigenvalues --    0.06144   0.06525   0.06873   0.07403   0.08844
  Beta virt. eigenvalues --    0.09545   0.11577   0.12719   0.13088   0.13657

 Mulliken charges and spin densities:
               1          2
     1  C    2.011475  -0.573340
     2  C   -4.108973   0.042999
     3  H    1.206200  -0.008551
     4  H    1.240286   0.003637
     5  H    1.234691  -0.000119
     6  C   -4.567399   0.026855
     7  H    1.265003  -0.020855
     8  H    1.323634  -0.005487
     9  H    1.247966  -0.001824
    10  C   -4.406712   0.072346
    11  H    1.226339   0.003850
    12  H    1.305320  -0.007549
    13  H    1.290976  -0.020033
    14  C    0.393149   1.374026
    15  O   -3.169394   0.123316
    16  H    1.559369   0.006495
    17  H    0.948071  -0.015766
 Sum of Mulliken charges =   0.00000   1.00000

 Dipole moment (field-independent basis, Debye):
    X=              0.5503    Y=             -0.5071    Z=              0.1563  Tot=              0.7645
                          Isotropic Fermi Contact Couplings
        Atom                 a.u.       MegaHertz       Gauss      10(-4) cm-1
     1  C(13)             -0.02397     -26.94825      -9.61581      -8.98897
     2  C(13)              0.00595       6.69250       2.38805       2.23238
     3  H(1)              -0.00042      -1.88064      -0.67106      -0.62731
     4  H(1)              -0.00038      -1.71003      -0.61018      -0.57040
     5  H(1)              -0.00071      -3.16236      -1.12841      -1.05485
     6  C(13)              0.01510      16.97407       6.05677       5.66194
     7  H(1)              -0.00046      -2.04950      -0.73131      -0.68364
     8  H(1)              -0.00049      -2.20747      -0.78768      -0.73633

 Normal termination of Gaussian 16 at Tue Apr  8 22:49:23 2025.
