 Gaussian 16, Revision C.01,

 ----------------------------------------------------------------------
 #t hf aug-cc-pvdz symm=none int=(grid=ultrafine) guess=(read,tcheck) s
 table=(opt,rrhf)
 ----------------------------------------------------------------------
 -----
 title
 -----
 Symbolic Z-matrix:
 Charge =  0 Multiplicity = 1

 SCF Done:  E(RHF) =  -874.302177277     A.U. after   13 cycles
 Normal termination of Gaussian 16 at Tue Apr  8 22:47:31 2025.
 Gaussian 16:  ES64L-G16RevC.01  3-Jul-2019

 ----------------------------------------------------------------------
 #t hf aug-cc-pvdz iop(5/13=1,5/36=2,99/5=2) pseudo=read geom=check gue
 ss=(read,tcheck) scf=(maxcycle=1)
 ----------------------------------------------------------------------
 -----
 title
 -----
 Structure from the checkpoint file:  "BDE49_expt_1591_mol1.chk"
 Charge =  0 Multiplicity = 1

                         Standard orientation:
 ---------------------------------------------------------------------
 Center     Atomic      Atomic             Coordinates (Angstroms)
 Number     Number       Type             X           Y           Z
 ---------------------------------------------------------------------
      1          6           0        0.981697    1.638087    0.797075
      2         16           0        0.981697    0.340471   -0.494338
      3          1           0        1.982927    2.075740    0.778776
      4          1           0        0.794418    1.214724    1.783365
      5          1           0        0.245582    2.406190    0.564810
      6         16           0       -0.981697   -0.340471   -0.494338
      7          6           0       -0.981697   -1.638087    0.797075
      8          1           0       -1.982927   -2.075740    0.778776
      9          1           0       -0.794418   -1.214724    1.783365
     10          1           0       -0.245582   -2.406190    0.564810
 ---------------------------------------------------------------------

 SCF Done:  E(RHF) =  -875.177952939     A.U. after    2 cycles

 The electronic state is 1-A.
 Alpha  occ. eigenvalues --  -75.69998 -75.69824 -13.13007 -13.09952 -13.08266
 Alpha  occ. eigenvalues --  -13.06904 -13.03817 -13.02635 -11.39891 -11.39767
 Alpha  occ. eigenvalues --   -8.03844  -8.03759  -1.25460  -1.12286  -0.97759
 Alpha  occ. eigenvalues --   -0.86800  -0.59978  -0.59187  -0.59100  -0.58420
 Alpha  occ. eigenvalues --   -0.46718  -0.42817  -0.33513  -0.24658  -0.23559
 Alpha virt. eigenvalues --    0.02698   0.03250   0.04737   0.05658   0.07151
 Alpha virt. eigenvalues --    0.08087   0.08730   0.08997   0.12820   0.12855
 Alpha virt. eigenvalues --    0.14526   0.14557   0.15443   0.16339   0.17004

 Mulliken charges:
               1
     1  C   -4.541151
     2  S    0.197975
     3  H    1.363357
     4  H    1.482549
     5  H    1.497270
     6  S    0.197975
     7  C   -4.541151
     8  H    1.363357
     9  H    1.482549
    10  H    1.497270
 Sum of Mulliken charges =   0.00000

 Dipole moment (field-independent basis, Debye):
    X=              0.0000    Y=             -0.0000    Z=             -0.4786  Tot=              0.4786

 Test job not archived.
 1\1\GINC-SE273\SP\RHF\Aug-CC-pVDZ\C2H6S2\OHZDE\08-Apr-2025\0\\#t hf au
 g-cc-pvdz iop(5/13=1,5/36=2,99/5=2) pseudo=read geom=check guess=(read
 ,tcheck) scf=(maxcycle=1)\\title\\0,1\C,0,0.981697,1.638087,0.797075\S
 ,0,0.981697,0.340471,-0.494338\H,0,1.982927,2.07574,0.778776\H,0,0.794
 418,1.214724,1.783365\H,0,0.245582,2.40619,0.56481\S,0,-0.981697,-0.34
 0471,-0.494338\C,0,-0.981697,-1.638087,0.797075\H,0,-1.982927,-2.07574
 ,0.778776\H,0,-0.794418,-1.214724,1.783365\H,0,-0.245582,-2.40619,0.56
 481\\Version=ES64L-G16RevC.01\State=1-A\HF=-875.1779529\RMSD=7.486e-02

 Normal termination of Gaussian 16 at Tue Apr  8 22:47:34 2025.
