 Gaussian 16, Revision C.01,

 ----------------------------------------------------------------------
 #t hf aug-cc-pvdz symm=none int=(grid=ultrafine) guess=(read,tcheck) s
 table=opt
 ----------------------------------------------------------------------
 -----
 title
 -----
 Symbolic Z-matrix:
 Charge =  0 Multiplicity = 2

 SCF Done:  E(UHF) =  -607.580294516     A.U. after   20 cycles
 Normal termination of Gaussian 16 at Tue Apr  8 23:34:21 2025.
 Gaussian 16:  ES64L-G16RevC.01  3-Jul-2019

 ----------------------------------------------------------------------
 #t hf aug-cc-pvdz iop(5/13=1,5/36=2,99/5=2) pseudo=read geom=check gue
 ss=(read,tcheck) scf=(maxcycle=1)
 ----------------------------------------------------------------------
 -----
 title
 -----
 Structure from the checkpoint file:  "BDE49_nonexpt_1453_mol2.chk"
 Charge =  0 Multiplicity = 2

                         Standard orientation:
 ---------------------------------------------------------------------
 Center     Atomic      Atomic             Coordinates (Angstroms)
 Number     Number       Type             X           Y           Z
 ---------------------------------------------------------------------
      1          6           0        0.648910    0.413118   -0.000120
      2         15           0        2.130956   -0.730957    0.000035
      3          8           0       -0.474198   -0.337684   -0.000070
      4          8           0        0.662468    1.617661    0.000025
      5          6           0       -1.733348    0.387898   -0.000002
      6          6           0       -2.847582   -0.637038    0.000039
      7          1           0       -1.762046    1.031281   -0.882487
      8          1           0       -1.761963    1.031260    0.882501
      9          1           0       -2.791799   -1.273036   -0.885831
     10          1           0       -3.816215   -0.130472    0.000091
     11          1           0       -2.791716   -1.273058    0.885888
     12          1           0        3.045367    0.354686    0.000170
 ---------------------------------------------------------------------

 SCF Done:  E(UHF) =  -608.909245397     A.U. after    2 cycles

 The electronic state is 2-A.
 Alpha  occ. eigenvalues -- -105.20658 -21.09442 -21.06638 -11.50141 -11.44713
 Alpha  occ. eigenvalues --  -11.37699  -2.78370  -1.84410  -1.67535  -1.49327
 Alpha  occ. eigenvalues --   -1.46930  -1.46565  -1.14037  -0.91559  -0.80206
 Alpha  occ. eigenvalues --   -0.71299  -0.66443  -0.59189  -0.55528  -0.54843
 Alpha  occ. eigenvalues --   -0.52637  -0.49662  -0.45634  -0.36935  -0.33648
 Alpha  occ. eigenvalues --   -0.22778  -0.07224   0.00228
 Alpha virt. eigenvalues --    0.03729   0.05802   0.05863   0.06435   0.06580
 Alpha virt. eigenvalues --    0.06686   0.08899   0.10575   0.11443   0.12101
 Alpha virt. eigenvalues --    0.12709   0.14715   0.14867   0.14904   0.16397

  Beta  occ. eigenvalues -- -105.20033 -21.09447 -21.06111 -11.50481 -11.44719
  Beta  occ. eigenvalues --  -11.37700  -2.76456  -1.84304  -1.66682  -1.47485
  Beta  occ. eigenvalues --   -1.45108  -1.22365  -1.14046  -0.91511  -0.78640
  Beta  occ. eigenvalues --   -0.69816  -0.66461  -0.59043  -0.54945  -0.54891
  Beta  occ. eigenvalues --   -0.52495  -0.49573  -0.45166  -0.36688  -0.32142
  Beta  occ. eigenvalues --   -0.23299  -0.05486
  Beta virt. eigenvalues --    0.03740   0.05825   0.05883   0.06210   0.06448
  Beta virt. eigenvalues --    0.06767   0.08243   0.09352   0.10840   0.11526
  Beta virt. eigenvalues --    0.12730   0.14796   0.14976   0.15385   0.15631

 Mulliken charges and spin densities:
               1          2
     1  C    2.241676  -0.256594
     2  P    2.704539   1.306088
     3  O   -2.596963  -0.051382
     4  O   -2.476301   0.144848
     5  C   -2.184054   0.058346
     6  C   -3.492533  -0.011235
     7  H    1.611029  -0.012902
     8  H    1.611007  -0.012908
     9  H    1.241242   0.006438
    10  H    1.101732   0.000940
    11  H    1.241254   0.006443
    12  H   -1.002628  -0.178083
 Sum of Mulliken charges =  -0.00000   1.00000

 Dipole moment (field-independent basis, Debye):
    X=             -1.1448    Y=             -2.9645    Z=              0.0009  Tot=              3.1779
                          Isotropic Fermi Contact Couplings
        Atom                 a.u.       MegaHertz       Gauss      10(-4) cm-1
     1  C(13)             -0.01626     -18.27924      -6.52249      -6.09730
     2  P(31)              0.25676     465.02220     165.93148     155.11471
     3  O(17)             -0.00360       2.17957       0.77772       0.72703
     4  O(17)              0.02998     -18.17316      -6.48463      -6.06191
     5  C(13)             -0.00055      -0.61406      -0.21911      -0.20483
     6  C(13)              0.00008       0.09464       0.03377       0.03157
     7  H(1)               0.00055       2.47243       0.88222       0.82471
     8  H(1)               0.00055       2.47216       0.88213       0.82462

 Normal termination of Gaussian 16 at Tue Apr  8 23:34:26 2025.
