 Gaussian 16, Revision C.01,

 ----------------------------------------------------------------------
 #t hf aug-cc-pvdz symm=none int=(grid=ultrafine) guess=(read,tcheck) s
 table=(opt,rrhf)
 ----------------------------------------------------------------------
 -----
 title
 -----
 Symbolic Z-matrix:
 Charge =  0 Multiplicity = 1

 SCF Done:  E(RHF) =  -2092.78485562     A.U. after   16 cycles
 Normal termination of Gaussian 16 at Tue Apr  8 23:17:09 2025.
 Gaussian 16:  ES64L-G16RevC.01  3-Jul-2019

 ----------------------------------------------------------------------
 #t hf aug-cc-pvdz iop(5/13=1,5/36=2,99/5=2) pseudo=read geom=check gue
 ss=(read,tcheck) scf=(maxcycle=1)
 ----------------------------------------------------------------------
 -----
 title
 -----
 Structure from the checkpoint file:  "BDE49_nonexpt_1013_mol1.chk"
 Charge =  0 Multiplicity = 1

                         Standard orientation:
 ---------------------------------------------------------------------
 Center     Atomic      Atomic             Coordinates (Angstroms)
 Number     Number       Type             X           Y           Z
 ---------------------------------------------------------------------
      1         16           0        1.302625    1.081419   -0.438650
      2          7           0        2.541186   -0.260169   -0.106939
      3          8           0        2.225305   -1.406882   -0.245540
      4          8           0        3.603370    0.223734    0.214119
      5          8           0       -0.010270    0.163747   -0.923742
      6          6           0       -1.072112   -0.046431   -0.037308
      7         17           0       -2.194361   -1.096598   -0.926576
      8         17           0       -1.877926    1.518037    0.360127
      9         17           0       -0.559764   -0.836011    1.485986
 ---------------------------------------------------------------------

 SCF Done:  E(RHF) =  -2095.07565031     A.U. after    2 cycles

 The electronic state is 1-A.
 Alpha  occ. eigenvalues --  -99.93785 -99.93691 -99.93627 -75.83356 -21.16728
 Alpha  occ. eigenvalues --  -21.14256 -21.13377 -16.04355 -13.30353 -13.25029
 Alpha  occ. eigenvalues --  -13.17005 -11.61264 -10.51280 -10.51019 -10.50934
 Alpha  occ. eigenvalues --   -9.71082  -9.70992  -9.70743  -9.70223  -9.70174
 Alpha  occ. eigenvalues --   -9.70147  -9.70074  -9.70018  -9.69958  -8.16757
 Alpha  occ. eigenvalues --   -2.03656  -1.88196  -1.74297  -1.44216  -1.33140
 Alpha  occ. eigenvalues --   -1.32880  -1.20225  -0.98544  -0.89747  -0.76725
 Alpha  occ. eigenvalues --   -0.75674  -0.73756  -0.70911  -0.69443  -0.64476
 Alpha  occ. eigenvalues --   -0.59794  -0.59398  -0.53613  -0.53484  -0.53102
 Alpha  occ. eigenvalues --   -0.52086  -0.49118  -0.45486  -0.35934  -0.35240
 Alpha  occ. eigenvalues --   -0.33918  -0.31553
 Alpha virt. eigenvalues --   -0.01463   0.03901   0.04388   0.05313   0.06340
 Alpha virt. eigenvalues --    0.08063   0.08455   0.09968   0.10825   0.11619
 Alpha virt. eigenvalues --    0.12578   0.13452   0.13833   0.14428   0.16271

 Mulliken charges:
               1
     1  S    1.765320
     2  N    4.472881
     3  O   -2.676826
     4  O   -2.576187
     5  O   -2.092989
     6  C   -0.019378
     7  Cl   0.359367
     8  Cl   0.432296
     9  Cl   0.335515
 Sum of Mulliken charges =  -0.00000

 Dipole moment (field-independent basis, Debye):
    X=              0.6409    Y=              2.1835    Z=             -1.1123  Tot=              2.5329

 Test job not archived.
 1\1\GINC-SE367\SP\RHF\Aug-CC-pVDZ\C1Cl3N1O3S1\OHZDE\08-Apr-2025\0\\#t
 hf aug-cc-pvdz iop(5/13=1,5/36=2,99/5=2) pseudo=read geom=check guess=
 (read,tcheck) scf=(maxcycle=1)\\title\\0,1\S,0,1.302625,1.081419,-0.43
 865\N,0,2.541186,-0.260169,-0.106939\O,0,2.225305,-1.406882,-0.24554\O
 ,0,3.60337,0.223734,0.214119\O,0,-0.01027,0.163747,-0.923742\C,0,-1.07
 2112,-0.046431,-0.037308\Cl,0,-2.194361,-1.096598,-0.926576\Cl,0,-1.87
 7926,1.518037,0.360127\Cl,0,-0.559764,-0.836011,1.485986\\Version=ES64
 L-G16RevC.01\State=1-A\HF=-2095.0756503\RMSD=6.258e-02\Dipole=0.252138

 Normal termination of Gaussian 16 at Tue Apr  8 23:17:13 2025.
