 Gaussian 16, Revision C.01,

 ----------------------------------------------------------------------
 #t hf aug-cc-pvdz symm=none int=(grid=ultrafine) guess=(read,tcheck) s
 table=(opt,rrhf)
 ----------------------------------------------------------------------
 -----
 title
 -----
 Symbolic Z-matrix:
 Charge =  0 Multiplicity = 1

 SCF Done:  E(RHF) =  -978.179299393     A.U. after   12 cycles
 Normal termination of Gaussian 16 at Tue Apr  8 23:49:42 2025.
 Gaussian 16:  ES64L-G16RevC.01  3-Jul-2019

 ----------------------------------------------------------------------
 #t hf aug-cc-pvdz iop(5/13=1,5/36=2,99/5=2) pseudo=read geom=check gue
 ss=(read,tcheck) scf=(maxcycle=1)
 ----------------------------------------------------------------------
 -----
 title
 -----
 Structure from the checkpoint file:  "BDE49_nonexpt_1820_mol1.chk"
 Charge =  0 Multiplicity = 1

                         Standard orientation:
 ---------------------------------------------------------------------
 Center     Atomic      Atomic             Coordinates (Angstroms)
 Number     Number       Type             X           Y           Z
 ---------------------------------------------------------------------
      1          6           0        2.464102    0.570166    0.086983
      2          6           0        1.511410   -0.387178   -0.649505
      3          1           0        2.552175    0.307514    1.144405
      4          1           0        2.115885    1.604364    0.027788
      5          1           0        3.466834    0.533996   -0.346309
      6         14           0       -0.218641   -0.437369    0.012279
      7          1           0        1.890437   -1.415099   -0.602848
      8          1           0        1.453120   -0.133208   -1.713085
      9         17           0       -1.115471    1.457878   -0.159502
     10          8           0       -0.305778   -0.824224    1.604383
     11          1           0       -0.538890   -0.136288    2.231511
     12          8           0       -1.046082   -1.524730   -0.877934
     13          1           0       -1.953764   -1.728328   -0.638299
 ---------------------------------------------------------------------

 SCF Done:  E(RHF) =  -979.607442484     A.U. after    2 cycles

 The electronic state is 1-A.
 Alpha  occ. eigenvalues --  -99.87817 -76.27274 -21.08775 -21.08752 -11.40066
 Alpha  occ. eigenvalues --  -11.35341 -10.45222  -9.65130  -9.64634  -9.64566
 Alpha  occ. eigenvalues --   -5.61953  -2.29531  -2.27012  -2.23827  -1.69825
 Alpha  occ. eigenvalues --   -1.65119  -1.28148  -1.15505  -0.90382  -0.73349
 Alpha  occ. eigenvalues --   -0.63562  -0.61885  -0.60717  -0.58851  -0.54298
 Alpha  occ. eigenvalues --   -0.53301  -0.50100  -0.49455  -0.45651  -0.44708
 Alpha  occ. eigenvalues --   -0.40776  -0.40218  -0.37031
 Alpha virt. eigenvalues --    0.03261   0.05167   0.05817   0.06572   0.06715
 Alpha virt. eigenvalues --    0.07066   0.07236   0.07585   0.09042   0.09224
 Alpha virt. eigenvalues --    0.11504   0.12812   0.13690   0.15157   0.15540

 Mulliken charges:
               1
     1  C   -3.529938
     2  C   -4.131325
     3  H    1.212946
     4  H    1.158795
     5  H    1.161430
     6  Si   6.149158
     7  H    1.432172
     8  H    1.254898
     9  Cl  -0.947166
    10  O   -2.820264
    11  H    0.909049
    12  O   -2.911665
    13  H    1.061908
 Sum of Mulliken charges =  -0.00000

 Dipole moment (field-independent basis, Debye):
    X=              0.7386    Y=             -1.5106    Z=              0.5481  Tot=              1.7686

 Test job not archived.
 1\1\GINC-SE333\SP\RHF\Aug-CC-pVDZ\C2H7Cl1O2Si1\OHZDE\08-Apr-2025\0\\#t
  hf aug-cc-pvdz iop(5/13=1,5/36=2,99/5=2) pseudo=read geom=check guess
 =(read,tcheck) scf=(maxcycle=1)\\title\\0,1\C,0,2.464102,0.570166,0.08
 6983\C,0,1.51141,-0.387178,-0.649505\H,0,2.552175,0.307514,1.144405\H,
 0,2.115885,1.604364,0.027788\H,0,3.466834,0.533996,-0.346309\Si,0,-0.2
 18641,-0.437369,0.012279\H,0,1.890437,-1.415099,-0.602848\H,0,1.45312,
 -0.133208,-1.713085\Cl,0,-1.115471,1.457878,-0.159502\O,0,-0.305778,-0
 .824224,1.604383\H,0,-0.53889,-0.136288,2.231511\O,0,-1.046082,-1.5247

 Normal termination of Gaussian 16 at Tue Apr  8 23:49:46 2025.
