 Gaussian 16, Revision C.01,

 ----------------------------------------------------------------------
 #t hf aug-cc-pvdz symm=none int=(grid=ultrafine) guess=(read,tcheck) s
 table=(opt,rrhf)
 ----------------------------------------------------------------------
 -----
 title
 -----
 Symbolic Z-matrix:
 Charge =  0 Multiplicity = 1

 SCF Done:  E(RHF) =  -760.171221396     A.U. after   17 cycles
 Normal termination of Gaussian 16 at Wed Apr  9 00:43:29 2025.
 Gaussian 16:  ES64L-G16RevC.01  3-Jul-2019

 ----------------------------------------------------------------------
 #t hf aug-cc-pvdz iop(5/13=1,5/36=2,99/5=2) pseudo=read geom=check gue
 ss=(read,tcheck) scf=(maxcycle=1)
 ----------------------------------------------------------------------
 -----
 title
 -----
 Structure from the checkpoint file:  "BDE49_nonexpt_705_mol1.chk"
 Charge =  0 Multiplicity = 1

                         Standard orientation:
 ---------------------------------------------------------------------
 Center     Atomic      Atomic             Coordinates (Angstroms)
 Number     Number       Type             X           Y           Z
 ---------------------------------------------------------------------
      1         15           0       -0.095689    0.624381    0.737490
      2          5           0        1.444559   -0.338638   -0.011058
      3          7           0       -1.423534   -0.436292   -0.010744
      4          8           0        2.549795    0.429844   -0.193609
      5          8           0        1.436833   -1.665684   -0.239915
      6          8           0       -1.295892   -1.660609    0.122698
      7          8           0       -2.392857    0.097878   -0.514516
      8          6           0       -0.228247    2.109371   -0.349251
      9          1           0       -1.049231    2.743687   -0.017522
     10          1           0       -0.365915    1.851778   -1.399138
     11          1           0        0.713005    2.653691   -0.234790
     12          1           0        3.310615   -0.083659   -0.492446
     13          1           0        0.555248   -2.051637   -0.089718
 ---------------------------------------------------------------------

 SCF Done:  E(RHF) =  -762.122399381     A.U. after    2 cycles

 The electronic state is 1-A.
 Alpha  occ. eigenvalues -- -105.22674 -21.11029 -21.09511 -21.08566 -21.06940
 Alpha  occ. eigenvalues --  -15.98524 -11.40388  -7.67889  -2.80891  -1.99354
 Alpha  occ. eigenvalues --   -1.83849  -1.69956  -1.68202  -1.53843  -1.51789
 Alpha  occ. eigenvalues --   -1.49142  -1.05076  -0.93525  -0.76838  -0.74798
 Alpha  occ. eigenvalues --   -0.65929  -0.65041  -0.61552  -0.59271  -0.58752
 Alpha  occ. eigenvalues --   -0.56123  -0.51702  -0.50118  -0.44664  -0.38547
 Alpha  occ. eigenvalues --   -0.33379  -0.32297  -0.25536  -0.17629  -0.04295
 Alpha virt. eigenvalues --    0.03437   0.04504   0.05153   0.05766   0.07163
 Alpha virt. eigenvalues --    0.07495   0.07989   0.09146   0.09484   0.10245
 Alpha virt. eigenvalues --    0.10752   0.11368   0.13399   0.15164   0.15547

 Mulliken charges:
               1
     1  P    3.096366
     2  B    5.271796
     3  N    4.120632
     4  O   -3.734059
     5  O   -4.060928
     6  O   -2.788186
     7  O   -2.537142
     8  C   -6.084239
     9  H    1.209338
    10  H    1.181073
    11  H    1.378781
    12  H    1.125132
    13  H    1.821435
 Sum of Mulliken charges =  -0.00000

 Dipole moment (field-independent basis, Debye):
    X=              0.2804    Y=              1.7925    Z=              2.4285  Tot=              3.0314

 Test job not archived.
 1\1\GINC-SE115\SP\RHF\Aug-CC-pVDZ\C1H5B1N1O4P1\OHZDE\09-Apr-2025\0\\#t
  hf aug-cc-pvdz iop(5/13=1,5/36=2,99/5=2) pseudo=read geom=check guess
 =(read,tcheck) scf=(maxcycle=1)\\title\\0,1\P,0,-0.095689,0.624381,0.7
 3749\B,0,1.444559,-0.338638,-0.011058\N,0,-1.423534,-0.436292,-0.01074
 4\O,0,2.549795,0.429843,-0.193609\O,0,1.436833,-1.665684,-0.239915\O,0
 ,-1.295892,-1.660609,0.122698\O,0,-2.392857,0.097879,-0.514516\C,0,-0.
 228247,2.109371,-0.349251\H,0,-1.04923,2.743687,-0.017522\H,0,-0.36591
 5,1.851778,-1.399138\H,0,0.713006,2.653691,-0.23479\H,0,3.310615,-0.08

 Normal termination of Gaussian 16 at Wed Apr  9 00:43:35 2025.
