 Gaussian 16, Revision C.01,

 ----------------------------------------------------------------------
 #t hf aug-cc-pvdz symm=none int=(grid=ultrafine) guess=(read,tcheck) s
 table=(opt,rrhf)
 ----------------------------------------------------------------------
 -----
 title
 -----
 Symbolic Z-matrix:
 Charge =  0 Multiplicity = 1

 SCF Done:  E(RHF) =  -940.230757045     A.U. after   15 cycles
 Normal termination of Gaussian 16 at Tue Apr  8 23:45:03 2025.
 Gaussian 16:  ES64L-G16RevC.01  3-Jul-2019

 ----------------------------------------------------------------------
 #t hf aug-cc-pvdz iop(5/13=1,5/36=2,99/5=2) pseudo=read geom=check gue
 ss=(read,tcheck) scf=(maxcycle=1)
 ----------------------------------------------------------------------
 -----
 title
 -----
 Structure from the checkpoint file:  "BDE49_nonexpt_1654_mol1.chk"
 Charge =  0 Multiplicity = 1

                         Standard orientation:
 ---------------------------------------------------------------------
 Center     Atomic      Atomic             Coordinates (Angstroms)
 Number     Number       Type             X           Y           Z
 ---------------------------------------------------------------------
      1         15           0        2.587328    0.000000   -0.015028
      2          6           0        2.121303    1.433258   -1.119392
      3          6           0       -0.878251   -0.000001    0.611810
      4          6           0        2.121302   -1.433256   -1.119395
      5          1           0        2.824886   -1.469676   -1.955197
      6          1           0        1.106282   -1.362970   -1.517982
      7          1           0        2.221839   -2.367818   -0.562557
      8          1           0        1.106282    1.362973   -1.517979
      9          1           0        2.824887    1.469680   -1.955193
     10          1           0        2.221840    2.367819   -0.562551
     11          6           0       -1.522923    1.203317    0.278866
     12          6           0       -1.522923   -1.203317    0.278865
     13          6           0       -2.760468   -1.205311   -0.360905
     14          6           0       -3.381106    0.000001   -0.683097
     15          6           0       -2.760468    1.205312   -0.360904
     16          1           0       -3.242381    2.146184   -0.603341
     17          1           0       -1.059800    2.152069    0.531815
     18          1           0       -3.242383   -2.146182   -0.603343
     19          1           0       -4.345699    0.000002   -1.178426
     20          1           0       -1.059801   -2.152069    0.531813
     21         14           0        0.817020   -0.000002    1.423153
     22          1           0        0.948525   -1.211949    2.269564
     23          1           0        0.948526    1.211943    2.269567
 ---------------------------------------------------------------------

 SCF Done:  E(RHF) =  -942.124257326     A.U. after    2 cycles

 The electronic state is 1-A.
 Alpha  occ. eigenvalues -- -105.15078 -76.21343 -11.51776 -11.43622 -11.42749
 Alpha  occ. eigenvalues --  -11.40973 -11.40605 -11.36979 -11.36888 -11.36333
 Alpha  occ. eigenvalues --   -5.55003  -2.73104  -2.19917  -2.18381  -2.17075
 Alpha  occ. eigenvalues --   -1.45676  -1.44634  -1.40893  -1.33801  -1.09386
 Alpha  occ. eigenvalues --   -1.09242  -1.02935  -0.96454  -0.86447  -0.86268
 Alpha  occ. eigenvalues --   -0.75984  -0.70042  -0.64027  -0.61110  -0.58719
 Alpha  occ. eigenvalues --   -0.57106  -0.57076  -0.56399  -0.55301  -0.54627
 Alpha  occ. eigenvalues --   -0.52849  -0.50642  -0.47368  -0.44754  -0.39981
 Alpha  occ. eigenvalues --   -0.34394  -0.33346  -0.20203  -0.13956  -0.01187
 Alpha virt. eigenvalues --    0.03434   0.05006   0.05035   0.05343   0.05890
 Alpha virt. eigenvalues --    0.06122   0.06395   0.06399   0.07366   0.08103
 Alpha virt. eigenvalues --    0.08291   0.08542   0.08667   0.09006   0.09546

 Mulliken charges:
               1
     1  P    4.973511
     2  C   -6.318217
     3  C    0.168855
     4  C   -6.318216
     5  H    1.112887
     6  H    1.466812
     7  H    1.202809
     8  H    1.466810
     9  H    1.112887
    10  H    1.202809
    11  C   -2.718778
    12  C   -2.718727
    13  C   -0.724650
    14  C   -2.308150
    15  C   -0.724651
    16  H    1.567713
    17  H    1.873127
    18  H    1.567713
    19  H    1.502871
    20  H    1.873128
    21  Si   4.922407
    22  H   -2.091475
    23  H   -2.091475
 Sum of Mulliken charges =  -0.00000

 Dipole moment (field-independent basis, Debye):
    X=              3.3619    Y=              0.0000    Z=             -1.5863  Tot=              3.7173

 Test job not archived.
 1\1\GINC-SE103\SP\RHF\Aug-CC-pVDZ\C8H13P1Si1\OHZDE\08-Apr-2025\0\\#t h
 f aug-cc-pvdz iop(5/13=1,5/36=2,99/5=2) pseudo=read geom=check guess=(
 read,tcheck) scf=(maxcycle=1)\\title\\0,1\P,0,2.587328,0.,-0.015028\C,
 0,2.121303,1.433258,-1.119392\C,0,-0.878251,-0.000001,0.61181\C,0,2.12
 1302,-1.433256,-1.119395\H,0,2.824886,-1.469676,-1.955197\H,0,1.106282
 ,-1.36297,-1.517982\H,0,2.221839,-2.367818,-0.562557\H,0,1.106282,1.36
 2973,-1.517979\H,0,2.824887,1.46968,-1.955193\H,0,2.22184,2.367819,-0.
 562551\C,0,-1.522923,1.203317,0.278866\C,0,-1.522923,-1.203317,0.27886

 Normal termination of Gaussian 16 at Tue Apr  8 23:45:19 2025.
