 Gaussian 16, Revision C.01,

 ----------------------------------------------------------------------
 #t hf aug-cc-pvdz symm=none int=(grid=ultrafine) guess=(read,tcheck) s
 table=opt
 ----------------------------------------------------------------------
 -----
 title
 -----
 Symbolic Z-matrix:
 Charge =  0 Multiplicity = 2

 SCF Done:  E(UHF) =  -80.8657937962     A.U. after   14 cycles
 Normal termination of Gaussian 16 at Wed Apr  9 00:28:55 2025.
 Gaussian 16:  ES64L-G16RevC.01  3-Jul-2019

 ----------------------------------------------------------------------
 #t hf aug-cc-pvdz iop(5/13=1,5/36=2,99/5=2) pseudo=read geom=check gue
 ss=(read,tcheck) scf=(maxcycle=1)
 ----------------------------------------------------------------------
 -----
 title
 -----
 Structure from the checkpoint file:  "BDE49_nonexpt_311_mol2.chk"
 Charge =  0 Multiplicity = 2

                         Standard orientation:
 ---------------------------------------------------------------------
 Center     Atomic      Atomic             Coordinates (Angstroms)
 Number     Number       Type             X           Y           Z
 ---------------------------------------------------------------------
      1          5           0        0.828972   -0.215946   -0.000003
      2          7           0       -0.525362    0.029395    0.000002
      3          1           0       -1.220083   -0.702970    0.000002
      4          1           0       -0.928555    0.960138    0.000005
      5          1           0        1.681314    0.616795   -0.000003
 ---------------------------------------------------------------------

 SCF Done:  E(UHF) =  -81.2207348251     A.U. after    2 cycles

 The electronic state is 2-A.
 Alpha  occ. eigenvalues --  -15.73597  -7.61860  -1.32147  -0.78922  -0.68221
 Alpha  occ. eigenvalues --   -0.52922  -0.42034  -0.30178
 Alpha virt. eigenvalues --    0.03169   0.03964   0.04584   0.05811   0.09016
 Alpha virt. eigenvalues --    0.10268   0.12932   0.15290   0.18565   0.20263
 Alpha virt. eigenvalues --    0.20303   0.21468   0.24612   0.26321   0.29865

  Beta  occ. eigenvalues --  -15.73827  -7.60032  -1.31641  -0.75385  -0.66733
  Beta  occ. eigenvalues --   -0.51171  -0.42771
  Beta virt. eigenvalues --    0.03104   0.03660   0.04687   0.05400   0.08367
  Beta virt. eigenvalues --    0.10189   0.10464   0.16727   0.17641   0.18950
  Beta virt. eigenvalues --    0.20294   0.20833   0.21890   0.25904   0.27093

 Mulliken charges and spin densities:
               1          2
     1  B    2.052757   1.031182
     2  N   -2.176252  -0.146025
     3  H    0.997296   0.012971
     4  H    0.808815   0.025817
     5  H   -1.682617   0.076055
 Sum of Mulliken charges =   0.00000   1.00000

 Dipole moment (field-independent basis, Debye):
    X=             -1.8795    Y=              0.8310    Z=              0.0000  Tot=              2.0550
                          Isotropic Fermi Contact Couplings
        Atom                 a.u.       MegaHertz       Gauss      10(-4) cm-1
     1  B(11)              0.22028     315.96010     112.74242     105.39295
     2  N(14)              0.01068       3.45092       1.23137       1.15110
     3  H(1)               0.00734      32.83070      11.71481      10.95114
     4  H(1)               0.01436      64.20584      22.91024      21.41676
     5  H(1)               0.01588      70.95968      25.32018      23.66960
 --------------------------------------------------------
       Center         ----  Spin Dipole Couplings  ----
                      3XX-RR        3YY-RR        3ZZ-RR

 Normal termination of Gaussian 16 at Wed Apr  9 00:28:56 2025.
