 Gaussian 16, Revision C.01,

 ----------------------------------------------------------------------
 #t hf aug-cc-pvdz symm=none int=(grid=ultrafine) guess=(read,tcheck) s
 table=(opt,rrhf)
 ----------------------------------------------------------------------
 -----
 title
 -----
 Symbolic Z-matrix:
 Charge =  0 Multiplicity = 1

 SCF Done:  E(RHF) =  -561.377873569     A.U. after   12 cycles
 Normal termination of Gaussian 16 at Wed Apr  9 00:07:31 2025.
 Gaussian 16:  ES64L-G16RevC.01  3-Jul-2019

 ----------------------------------------------------------------------
 #t hf aug-cc-pvdz iop(5/13=1,5/36=2,99/5=2) pseudo=read geom=check gue
 ss=(read,tcheck) scf=(maxcycle=1)
 ----------------------------------------------------------------------
 -----
 title
 -----
 Structure from the checkpoint file:  "BDE49_nonexpt_2227_mol1.chk"
 Charge =  0 Multiplicity = 1

                         Standard orientation:
 ---------------------------------------------------------------------
 Center     Atomic      Atomic             Coordinates (Angstroms)
 Number     Number       Type             X           Y           Z
 ---------------------------------------------------------------------
      1         14           0       -1.196653   -0.134366   -0.347496
      2          8           0        0.305669   -0.355324    0.311721
      3          6           0        1.557404    0.078584   -0.239180
      4          6           0        2.155073    1.149649    0.669271
      5          1           0        1.484997    2.008669    0.749126
      6          1           0        3.116890    1.497763    0.281480
      7          1           0        2.310370    0.743678    1.672429
      8          6           0        2.464174   -1.139283   -0.385791
      9          1           0        1.387547    0.511905   -1.235982
     10          1           0        3.437120   -0.855433   -0.797362
     11          1           0        2.009774   -1.877878   -1.049804
     12          1           0        2.620598   -1.606844    0.590035
     13          6           0       -1.736245    1.661820   -0.278162
     14          1           0       -1.795780    2.020384    0.753807
     15          1           0       -2.724670    1.781814   -0.734284
     16          1           0       -1.043972    2.311681   -0.821900
     17          6           0       -2.360702   -1.232022    0.615831
     18          1           0       -3.378654   -1.162428    0.220070
     19          1           0       -2.387420   -0.941314    1.669924
     20          1           0       -2.046221   -2.277354    0.561927
     21          1           0       -1.161009   -0.543411   -1.780101
 ---------------------------------------------------------------------

 SCF Done:  E(RHF) =  -562.888870166     A.U. after    2 cycles

 The electronic state is 1-A.
 Alpha  occ. eigenvalues --  -76.20618 -21.02190 -11.44438 -11.38678 -11.35300
 Alpha  occ. eigenvalues --  -11.34128 -11.33910  -5.54741  -2.21695  -2.18175
 Alpha  occ. eigenvalues --   -2.16896  -1.68787  -1.16190  -1.04908  -1.00743
 Alpha  occ. eigenvalues --   -1.00334  -0.82687  -0.70177  -0.62163  -0.59304
 Alpha  occ. eigenvalues --   -0.57954  -0.56313  -0.55245  -0.54255  -0.54138
 Alpha  occ. eigenvalues --   -0.53441  -0.49194  -0.47844  -0.46073  -0.42671
 Alpha  occ. eigenvalues --   -0.39976  -0.34828  -0.32331
 Alpha virt. eigenvalues --    0.03627   0.05072   0.05276   0.05570   0.05847
 Alpha virt. eigenvalues --    0.06059   0.06178   0.06217   0.06486   0.07908
 Alpha virt. eigenvalues --    0.08560   0.08658   0.08936   0.09740   0.09792

 Mulliken charges:
               1
     1  Si   7.338159
     2  O   -4.177290
     3  C   -0.056073
     4  C   -3.707289
     5  H    1.370710
     6  H    1.202921
     7  H    1.351339
     8  C   -3.891569
     9  H    2.055609
    10  H    1.214616
    11  H    1.332552
    12  H    1.308479
    13  C   -5.399708
    14  H    1.279014
    15  H    1.251070
    16  H    1.279917
    17  C   -5.259615
    18  H    1.258624
    19  H    1.289300
    20  H    1.279449
    21  H   -2.320217
 Sum of Mulliken charges =  -0.00000

 Dipole moment (field-independent basis, Debye):
    X=              0.2244    Y=              0.2423    Z=              0.4196  Tot=              0.5340

 Test job not archived.
 1\1\GINC-SE212\SP\RHF\Aug-CC-pVDZ\C5H14O1Si1\OHZDE\09-Apr-2025\0\\#t h
 f aug-cc-pvdz iop(5/13=1,5/36=2,99/5=2) pseudo=read geom=check guess=(
 read,tcheck) scf=(maxcycle=1)\\title\\0,1\Si,0,-1.196653,-0.134366,-0.
 347496\O,0,0.305669,-0.355324,0.311721\C,0,1.557404,0.078584,-0.23918\
 C,0,2.155073,1.149649,0.669271\H,0,1.484997,2.008669,0.749126\H,0,3.11
 689,1.497763,0.28148\H,0,2.31037,0.743678,1.672429\C,0,2.464174,-1.139
 283,-0.385791\H,0,1.387547,0.511905,-1.235982\H,0,3.43712,-0.855433,-0
 .797362\H,0,2.009774,-1.877878,-1.049804\H,0,2.620598,-1.606844,0.5900

 Normal termination of Gaussian 16 at Wed Apr  9 00:07:42 2025.
