 Gaussian 16, Revision C.01,

 ----------------------------------------------------------------------
 #t hf aug-cc-pvdz symm=none int=(grid=ultrafine) guess=(read,tcheck) s
 table=opt
 ----------------------------------------------------------------------
 -----
 title
 -----
 Symbolic Z-matrix:
 Charge =  0 Multiplicity = 2

 SCF Done:  E(UHF) =  -834.678018752     A.U. after   19 cycles
 Normal termination of Gaussian 16 at Tue Apr  8 22:47:28 2025.
 Gaussian 16:  ES64L-G16RevC.01  3-Jul-2019

 ----------------------------------------------------------------------
 #t hf aug-cc-pvdz iop(5/13=1,5/36=2,99/5=2) pseudo=read geom=check gue
 ss=(read,tcheck) scf=(maxcycle=1)
 ----------------------------------------------------------------------
 -----
 title
 -----
 Structure from the checkpoint file:  "BDE49_expt_1591_mol2.chk"
 Charge =  0 Multiplicity = 2

                         Standard orientation:
 ---------------------------------------------------------------------
 Center     Atomic      Atomic             Coordinates (Angstroms)
 Number     Number       Type             X           Y           Z
 ---------------------------------------------------------------------
      1         16           0        1.053600   -0.910058    0.000000
      2         16           0        0.000000    0.774043    0.000000
      3          6           0       -1.760380    0.269836    0.000000
      4          1           0       -2.352653    1.187333    0.000000
      5          1           0       -1.971333   -0.315051    0.894210
      6          1           0       -1.971333   -0.315051   -0.894210
 ---------------------------------------------------------------------

 SCF Done:  E(UHF) =  -835.310540731     A.U. after    2 cycles

 The electronic state is 2-A".
 Alpha  occ. eigenvalues --  -75.72948 -75.71540 -13.12792 -13.09709 -13.07094
 Alpha  occ. eigenvalues --  -13.05856 -13.03981 -13.03052 -11.40942  -8.07003
 Alpha  occ. eigenvalues --   -8.05312  -1.27052  -1.07137  -0.90484  -0.60627
 Alpha  occ. eigenvalues --   -0.60501  -0.47025  -0.38328  -0.36216  -0.25968
 Alpha  occ. eigenvalues --   -0.20519
 Alpha virt. eigenvalues --    0.02477   0.04620   0.05837   0.06411   0.07240
 Alpha virt. eigenvalues --    0.12668   0.13978   0.14063   0.14569   0.16249
 Alpha virt. eigenvalues --    0.16591   0.17899   0.18177   0.20505   0.21659

  Beta  occ. eigenvalues --  -75.72657 -75.70685 -13.12627 -13.09604 -13.06701
  Beta  occ. eigenvalues --  -13.03959 -13.02540 -12.98990 -11.41003  -8.06673
  Beta  occ. eigenvalues --   -8.04351  -1.24733  -1.03907  -0.85733  -0.60519
  Beta  occ. eigenvalues --   -0.60123  -0.46743  -0.34919  -0.30941  -0.24766
  Beta virt. eigenvalues --    0.02501   0.04732   0.05154   0.06486   0.07141
  Beta virt. eigenvalues --    0.07372   0.12796   0.14080   0.14328   0.14644
  Beta virt. eigenvalues --    0.16756   0.17113   0.17950   0.20755   0.21033

 Mulliken charges and spin densities:
               1          2
     1  S    0.045414   0.834246
     2  S    0.165521   0.201626
     3  C   -4.366611  -0.040588
     4  H    1.353974  -0.004929
     5  H    1.400851   0.004823
     6  H    1.400851   0.004823
 Sum of Mulliken charges =  -0.00000   1.00000

 Dipole moment (field-independent basis, Debye):
    X=             -0.0531    Y=              0.6056    Z=             -0.0000  Tot=              0.6079
                          Isotropic Fermi Contact Couplings
        Atom                 a.u.       MegaHertz       Gauss      10(-4) cm-1
     1  S(33)              0.27866      95.71167      34.15230      31.92598
     2  S(33)              0.17177      58.99823      21.05204      19.67969
     3  C(13)             -0.00772      -8.67498      -3.09545      -2.89366
     4  H(1)              -0.00019      -0.84010      -0.29977      -0.28023
     5  H(1)               0.00310      13.84658       4.94080       4.61872
     6  H(1)               0.00310      13.84658       4.94080       4.61872
 --------------------------------------------------------
       Center         ----  Spin Dipole Couplings  ----

 Normal termination of Gaussian 16 at Tue Apr  8 22:47:29 2025.
