 Gaussian 16, Revision C.01,

 ----------------------------------------------------------------------
 #t hf aug-cc-pvdz symm=none int=(grid=ultrafine) guess=(read,tcheck) s
 table=(opt,rrhf)
 ----------------------------------------------------------------------
 -----
 title
 -----
 Symbolic Z-matrix:
 Charge =  0 Multiplicity = 1

 SCF Done:  E(RHF) =  -845.853886322     A.U. after   15 cycles
 Normal termination of Gaussian 16 at Wed Apr  9 00:11:08 2025.
 Gaussian 16:  ES64L-G16RevC.01  3-Jul-2019

 ----------------------------------------------------------------------
 #t hf aug-cc-pvdz iop(5/13=1,5/36=2,99/5=2) pseudo=read geom=check gue
 ss=(read,tcheck) scf=(maxcycle=1)
 ----------------------------------------------------------------------
 -----
 title
 -----
 Structure from the checkpoint file:  "BDE49_nonexpt_2346_mol1.chk"
 Charge =  0 Multiplicity = 1

                         Standard orientation:
 ---------------------------------------------------------------------
 Center     Atomic      Atomic             Coordinates (Angstroms)
 Number     Number       Type             X           Y           Z
 ---------------------------------------------------------------------
      1         14           0       -1.683042   -0.801272    0.277400
      2         14           0        0.412834   -1.084079   -0.760503
      3          6           0        1.705745   -0.010538    0.222420
      4          8           0        2.044523   -0.430465    1.309295
      5          6           0       -2.081191    1.093563    0.196801
      6          8           0       -1.270237    1.897977   -0.209482
      7          6           0        2.213301    1.294948   -0.343624
      8          1           0        2.912509    1.760327    0.353156
      9          1           0        1.360540    1.956253   -0.527905
     10          1           0        2.701454    1.121251   -1.308404
     11          1           0        0.295776   -0.691936   -2.187283
     12          1           0        0.848078   -2.495680   -0.668068
     13          1           0       -1.685446   -1.193484    1.708509
     14          1           0       -2.790757   -1.527045   -0.396146
     15          1           0       -3.080649    1.457301    0.537500
 ---------------------------------------------------------------------

 SCF Done:  E(RHF) =  -847.318198545     A.U. after    2 cycles

 The electronic state is 1-A.
 Alpha  occ. eigenvalues --  -76.23603 -76.23003 -21.08810 -21.06246 -11.47207
 Alpha  occ. eigenvalues --  -11.46493 -11.37985  -5.57216  -5.56603  -2.20448
 Alpha  occ. eigenvalues --   -2.20335  -2.19226  -2.18993  -2.18970  -2.17763
 Alpha  occ. eigenvalues --   -1.72022  -1.70585  -1.10425  -0.90911  -0.83749
 Alpha  occ. eigenvalues --   -0.75554  -0.69227  -0.60263  -0.59903  -0.58756
 Alpha  occ. eigenvalues --   -0.54915  -0.51242  -0.50582  -0.48184  -0.46689
 Alpha  occ. eigenvalues --   -0.45392  -0.43465  -0.36611  -0.28819  -0.26418
 Alpha virt. eigenvalues --    0.03612   0.04198   0.04734   0.05667   0.06455
 Alpha virt. eigenvalues --    0.06595   0.07216   0.07855   0.07942   0.08180
 Alpha virt. eigenvalues --    0.08944   0.09145   0.09633   0.10545   0.11132

 Mulliken charges:
               1
     1  Si   4.699804
     2  Si   4.274254
     3  C    1.540763
     4  O   -2.643994
     5  C   -0.611222
     6  O   -2.123858
     7  C   -3.658005
     8  H    1.229745
     9  H    1.404326
    10  H    1.380715
    11  H   -1.553360
    12  H   -1.892087
    13  H   -1.734337
    14  H   -1.746782
    15  H    1.434037
 Sum of Mulliken charges =   0.00000

 Dipole moment (field-independent basis, Debye):
    X=             -0.1597    Y=              0.3197    Z=             -0.4455  Tot=              0.5712

 Test job not archived.
 1\1\GINC-SE284\SP\RHF\Aug-CC-pVDZ\C3H8O2Si2\OHZDE\09-Apr-2025\0\\#t hf
  aug-cc-pvdz iop(5/13=1,5/36=2,99/5=2) pseudo=read geom=check guess=(r
 ead,tcheck) scf=(maxcycle=1)\\title\\0,1\Si,0,-1.683042,-0.801272,0.27
 74\Si,0,0.412834,-1.084079,-0.760503\C,0,1.705745,-0.010538,0.22242\O,
 0,2.044523,-0.430465,1.309295\C,0,-2.081191,1.093563,0.196801\O,0,-1.2
 70237,1.897977,-0.209482\C,0,2.213301,1.294948,-0.343624\H,0,2.912509,
 1.760328,0.353156\H,0,1.36054,1.956253,-0.527905\H,0,2.701454,1.121252
 ,-1.308404\H,0,0.295776,-0.691936,-2.187283\H,0,0.848079,-2.49568,-0.6

 Normal termination of Gaussian 16 at Wed Apr  9 00:11:14 2025.
