 Gaussian 16, Revision C.01,

 ----------------------------------------------------------------------
 #t hf aug-cc-pvdz symm=none int=(grid=ultrafine) guess=(read,tcheck) s
 table=opt
 ----------------------------------------------------------------------
 -----
 title
 -----
 Symbolic Z-matrix:
 Charge =  0 Multiplicity = 2

 SCF Done:  E(UHF) =  -550.735167017     A.U. after   21 cycles
 Normal termination of Gaussian 16 at Tue Apr  8 23:15:29 2025.
 Gaussian 16:  ES64L-G16RevC.01  3-Jul-2019

 ----------------------------------------------------------------------
 #t hf aug-cc-pvdz iop(5/13=1,5/36=2,99/5=2) pseudo=read geom=check gue
 ss=(read,tcheck) scf=(maxcycle=1)
 ----------------------------------------------------------------------
 -----
 title
 -----
 Structure from the checkpoint file:  "BDE49_expt_819_mol2.chk"
 Charge =  0 Multiplicity = 2

                         Standard orientation:
 ---------------------------------------------------------------------
 Center     Atomic      Atomic             Coordinates (Angstroms)
 Number     Number       Type             X           Y           Z
 ---------------------------------------------------------------------
      1         15           0        2.557425   -0.287838   -0.021462
      2          6           0        0.761168   -0.157426    0.469922
      3          1           0        2.299184   -0.555718   -1.397785
      4          6           0       -0.049800    0.871392   -0.331439
      5          1           0        0.739132    0.092215    1.535814
      6          1           0        0.307995   -1.150383    0.367827
      7          6           0       -1.513926    1.003524    0.146172
      8          1           0       -0.043597    0.604033   -1.391678
      9          1           0        0.412774    1.859275   -0.250507
     10          6           0       -2.278056   -0.232704   -0.008557
     11          1           0       -2.021115    1.792116   -0.417968
     12          1           0       -1.544457    1.296940    1.200501
     13          7           0       -2.861087   -1.218517   -0.140124
 ---------------------------------------------------------------------

 SCF Done:  E(UHF) =  -551.906953222     A.U. after    2 cycles

 The electronic state is 2-A.
 Alpha  occ. eigenvalues -- -105.18809 -15.76023 -11.47744 -11.44219 -11.42196
 Alpha  occ. eigenvalues --  -11.38632  -2.76334  -1.48810  -1.46075  -1.44066
 Alpha  occ. eigenvalues --   -1.33002  -1.22140  -1.04367  -0.89126  -0.71602
 Alpha  occ. eigenvalues --   -0.69903  -0.64884  -0.61500  -0.57451  -0.53048
 Alpha  occ. eigenvalues --   -0.50829  -0.49709  -0.43291  -0.43085  -0.23305
 Alpha  occ. eigenvalues --   -0.08274   0.01045
 Alpha virt. eigenvalues --    0.03519   0.05234   0.05829   0.06010   0.06253
 Alpha virt. eigenvalues --    0.07518   0.08153   0.09457   0.10004   0.11003
 Alpha virt. eigenvalues --    0.12149   0.12686   0.13412   0.13806   0.14241

  Beta  occ. eigenvalues -- -105.18180 -15.76001 -11.47728 -11.44204 -11.42216
  Beta  occ. eigenvalues --  -11.38695  -2.74416  -1.47046  -1.42342  -1.32959
  Beta  occ. eigenvalues --   -1.22289  -1.21867  -1.04188  -0.88832  -0.71568
  Beta  occ. eigenvalues --   -0.66982  -0.64015  -0.61179  -0.56700  -0.52756
  Beta  occ. eigenvalues --   -0.50735  -0.49552  -0.43256  -0.42991  -0.24288
  Beta  occ. eigenvalues --   -0.05832
  Beta virt. eigenvalues --    0.03484   0.05240   0.05388   0.05986   0.06245
  Beta virt. eigenvalues --    0.06462   0.08012   0.09128   0.09655   0.11014
  Beta virt. eigenvalues --    0.11557   0.12390   0.13055   0.13787   0.14146

 Mulliken charges and spin densities:
               1          2
     1  P    2.713487   1.383042
     2  C   -3.508282  -0.520015
     3  H   -1.236403  -0.181271
     4  C   -2.466798  -0.104977
     5  H    1.291516  -0.020296
     6  H    1.258750   0.076449
     7  C   -3.553526   0.026442
     8  H    1.499479   0.094024
     9  H    0.875915   0.409320
    10  C    2.666747  -0.143894
    11  H    1.444781  -0.063670
    12  H    1.456794   0.022822
    13  N   -2.442461   0.022024
 Sum of Mulliken charges =  -0.00000   1.00000

 Dipole moment (field-independent basis, Debye):
    X=              4.3122    Y=              1.1786    Z=              2.4773  Tot=              5.1108
                          Isotropic Fermi Contact Couplings
        Atom                 a.u.       MegaHertz       Gauss      10(-4) cm-1
     1  P(31)              0.27350     495.33794     176.74889     165.22695
     2  C(13)             -0.00328      -3.68309      -1.31422      -1.22855
     3  H(1)              -0.00681     -30.45126     -10.86577     -10.15745
     4  C(13)              0.03637      40.89222      14.59136      13.64018
     5  H(1)               0.00017       0.74171       0.26466       0.24741
     6  H(1)               0.00557      24.91236       8.88935       8.30987
     7  C(13)              0.00079       0.88503       0.31580       0.29522
     8  H(1)              -0.00012      -0.54655      -0.19502      -0.18231

 Normal termination of Gaussian 16 at Tue Apr  8 23:15:34 2025.
