 Gaussian 16, Revision C.01,

 ----------------------------------------------------------------------
 #t hf aug-cc-pvdz symm=none int=(grid=ultrafine) guess=(read,tcheck) s
 table=opt
 ----------------------------------------------------------------------
 -----
 title
 -----
 Symbolic Z-matrix:
 Charge =  0 Multiplicity = 2

 SCF Done:  E(UHF) =  -1454.45056846     A.U. after   21 cycles
 Normal termination of Gaussian 16 at Tue Apr  8 23:48:30 2025.
 Gaussian 16:  ES64L-G16RevC.01  3-Jul-2019

 ----------------------------------------------------------------------
 #t hf aug-cc-pvdz iop(5/13=1,5/36=2,99/5=2) pseudo=read geom=check gue
 ss=(read,tcheck) scf=(maxcycle=1)
 ----------------------------------------------------------------------
 -----
 title
 -----
 Structure from the checkpoint file:  "BDE49_nonexpt_1785_mol2.chk"
 Charge =  0 Multiplicity = 2

                         Standard orientation:
 ---------------------------------------------------------------------
 Center     Atomic      Atomic             Coordinates (Angstroms)
 Number     Number       Type             X           Y           Z
 ---------------------------------------------------------------------
      1         14           0        0.853920    0.162101    0.562053
      2          6           0       -0.802694   -0.646485   -0.140351
      3         17           0        2.368390   -1.224040    0.268454
      4         17           0        1.245865    1.823966   -0.657000
      5          7           0       -1.998102   -0.076053    0.164079
      6          6           0       -2.142515    1.140486    0.944402
      7          8           0       -0.660973   -1.643837   -0.822953
      8          1           0       -1.199609    1.397241    1.431196
      9          1           0       -2.892920    0.993884    1.726848
     10          1           0       -2.448194    1.982982    0.315190
     11          6           0       -3.221254   -0.633128   -0.410223
     12          1           0       -3.935439   -0.865546    0.385191
     13          1           0       -2.966500   -1.541670   -0.950673
     14          1           0       -3.681282    0.082786   -1.099112
 ---------------------------------------------------------------------

 SCF Done:  E(UHF) =  -1456.19650481     A.U. after    2 cycles

 The electronic state is 2-A.
 Alpha  occ. eigenvalues --  -99.90176 -99.89620 -76.32473 -21.04509 -15.77015
 Alpha  occ. eigenvalues --  -11.48810 -11.42888 -11.40754 -10.47503 -10.47000
 Alpha  occ. eigenvalues --   -9.67457  -9.66971  -9.66842  -9.66762  -9.66237
 Alpha  occ. eigenvalues --   -9.66190  -5.65794  -2.28188  -2.27797  -2.26426
 Alpha  occ. eigenvalues --   -1.72080  -1.44768  -1.31598  -1.29059  -1.07587
 Alpha  occ. eigenvalues --   -1.01309  -0.83702  -0.73781  -0.67376  -0.66762
 Alpha  occ. eigenvalues --   -0.63977  -0.59784  -0.57787  -0.57439  -0.57051
 Alpha  occ. eigenvalues --   -0.54827  -0.54085  -0.52884  -0.51912  -0.50388
 Alpha  occ. eigenvalues --   -0.48297  -0.37590  -0.31026  -0.26517
 Alpha virt. eigenvalues --    0.02963   0.04841   0.04951   0.05173   0.05327
 Alpha virt. eigenvalues --    0.06714   0.06992   0.07328   0.08257   0.09172
 Alpha virt. eigenvalues --    0.09546   0.10753   0.12134   0.12499   0.13305

  Beta  occ. eigenvalues --  -99.90078 -99.89512 -76.31916 -21.04308 -15.77005
  Beta  occ. eigenvalues --  -11.48462 -11.42854 -11.40739 -10.47397 -10.46880
  Beta  occ. eigenvalues --   -9.67258  -9.66787  -9.66694  -9.66507  -9.66156
  Beta  occ. eigenvalues --   -9.65977  -5.64875  -2.27533  -2.27085  -2.23431
  Beta  occ. eigenvalues --   -1.71635  -1.44650  -1.30688  -1.28224  -1.07465
  Beta  occ. eigenvalues --   -1.00869  -0.80986  -0.72831  -0.67329  -0.65448
  Beta  occ. eigenvalues --   -0.63442  -0.58734  -0.57708  -0.57204  -0.55612
  Beta  occ. eigenvalues --   -0.54294  -0.53366  -0.52462  -0.51692  -0.50094
  Beta  occ. eigenvalues --   -0.47418  -0.30992  -0.29765
  Beta virt. eigenvalues --    0.00272   0.03482   0.04918   0.05306   0.05505
  Beta virt. eigenvalues --    0.05673   0.06940   0.07204   0.07374   0.08499
  Beta virt. eigenvalues --    0.09564   0.09981   0.11564   0.12596   0.12803

 Mulliken charges and spin densities:
               1          2
     1  Si   2.495210   0.686857
     2  C    3.113296   0.315513
     3  Cl  -0.846963   0.033526
     4  Cl  -0.878017   0.063245
     5  N   -2.695899  -0.167952
     6  C   -3.662331   0.029805
     7  O   -2.743814   0.085014
     8  H    1.447891  -0.022220
     9  H    1.447224   0.002481
    10  H    1.386151  -0.003243
    11  C   -3.393354  -0.012843
    12  H    1.413758   0.000819
    13  H    1.483329  -0.011418
    14  H    1.433520   0.000417
 Sum of Mulliken charges =  -0.00000   1.00000

 Dipole moment (field-independent basis, Debye):
    X=             -3.9020    Y=              0.6346    Z=              1.6486  Tot=              4.2832
                          Isotropic Fermi Contact Couplings
        Atom                 a.u.       MegaHertz       Gauss      10(-4) cm-1
     1  Si(29)             0.65467    -581.82232    -207.60867    -194.07504
     2  C(13)              0.04597      51.67742      18.43979      17.23773
     3  Cl(35)             0.07812      34.25290      12.22229      11.42554
     4  Cl(35)             0.05111      22.41058       7.99665       7.47536
     5  N(14)              0.00672       2.17108       0.77470       0.72420
     6  C(13)              0.00293       3.28903       1.17361       1.09710
     7  O(17)              0.01622      -9.83548      -3.50954      -3.28076
     8  H(1)              -0.00013      -0.60024      -0.21418      -0.20022

 Normal termination of Gaussian 16 at Tue Apr  8 23:48:37 2025.
