 Gaussian 16, Revision C.01,

 ----------------------------------------------------------------------
 #t hf aug-cc-pvdz symm=none int=(grid=ultrafine) guess=(read,tcheck) s
 table=(opt,rrhf)
 ----------------------------------------------------------------------
 -----
 title
 -----
 Symbolic Z-matrix:
 Charge =  0 Multiplicity = 1

 SCF Done:  E(RHF) =  -1069.22159866     A.U. after   14 cycles
 Normal termination of Gaussian 16 at Wed Apr  9 00:17:55 2025.
 Gaussian 16:  ES64L-G16RevC.01  3-Jul-2019

 ----------------------------------------------------------------------
 #t hf aug-cc-pvdz iop(5/13=1,5/36=2,99/5=2) pseudo=read geom=check gue
 ss=(read,tcheck) scf=(maxcycle=1)
 ----------------------------------------------------------------------
 -----
 title
 -----
 Structure from the checkpoint file:  "BDE49_nonexpt_2556_mol1.chk"
 Charge =  0 Multiplicity = 1

                         Standard orientation:
 ---------------------------------------------------------------------
 Center     Atomic      Atomic             Coordinates (Angstroms)
 Number     Number       Type             X           Y           Z
 ---------------------------------------------------------------------
      1         17           0       -1.863529    0.283240    0.000001
      2         16           0       -0.203170   -0.923313   -0.000001
      3          6           0        1.083989    0.302873    0.000003
      4          8           0        1.034627    1.476473    0.000017
      5          9           0        2.238862   -0.407899   -0.000017
 ---------------------------------------------------------------------

 SCF Done:  E(RHF) =  -1070.47560431     A.U. after    2 cycles

 The electronic state is 1-A.
 Alpha  occ. eigenvalues --  -99.94345 -75.79467 -29.34213 -21.12235 -13.20239
 Alpha  occ. eigenvalues --  -13.15471 -13.10478 -11.59146 -10.51509  -9.71206
 Alpha  occ. eigenvalues --   -9.70556  -9.70431  -8.13489  -1.79555  -1.38723
 Alpha  occ. eigenvalues --   -1.20871  -1.00749  -0.71759  -0.63928  -0.61899
 Alpha  occ. eigenvalues --   -0.58731  -0.57619  -0.52584  -0.46106  -0.33490
 Alpha  occ. eigenvalues --   -0.33101  -0.30470  -0.29876
 Alpha virt. eigenvalues --    0.04156   0.05167   0.09137   0.10363   0.10748
 Alpha virt. eigenvalues --    0.12548   0.12946   0.13493   0.14733   0.14785
 Alpha virt. eigenvalues --    0.15740   0.17117   0.20387   0.21585   0.22635

 Mulliken charges:
               1
     1  Cl  -0.376222
     2  S    0.930279
     3  C    0.825042
     4  O   -2.285485
     5  F    0.906387
 Sum of Mulliken charges =  -0.00000

 Dipole moment (field-independent basis, Debye):
    X=              4.2275    Y=             -4.5614    Z=             -0.0001  Tot=              6.2192

 Test job not archived.
 1\1\GINC-SE016\SP\RHF\Aug-CC-pVDZ\C1Cl1F1O1S1\OHZDE\09-Apr-2025\0\\#t
 hf aug-cc-pvdz iop(5/13=1,5/36=2,99/5=2) pseudo=read geom=check guess=
 (read,tcheck) scf=(maxcycle=1)\\title\\0,1\Cl,0,-1.863529,0.28324,0.00
 0001\S,0,-0.20317,-0.923313,-0.000001\C,0,1.083989,0.302873,0.000003\O
 ,0,1.034627,1.476473,0.000017\F,0,2.238862,-0.407899,-0.000017\\Versio
 n=ES64L-G16RevC.01\State=1-A\HF=-1070.4756043\RMSD=5.612e-02\Dipole=1.
 6632076,-1.7946074,-0.0000236\Quadrupole=3.5916728,-0.7198207,-2.87185
 21,-2.9358323,-0.0000707,-0.0000079\PG=C01 [X(C1Cl1F1O1S1)]\\@

 Normal termination of Gaussian 16 at Wed Apr  9 00:17:57 2025.
