 Gaussian 16, Revision C.01,

 ----------------------------------------------------------------------
 #t hf aug-cc-pvdz symm=none int=(grid=ultrafine) guess=(read,tcheck) s
 table=opt
 ----------------------------------------------------------------------
 -----
 title
 -----
 Symbolic Z-matrix:
 Charge =  0 Multiplicity = 2

 SCF Done:  E(UHF) =  -407.772720872     A.U. after   14 cycles

 1\1\GINC-SE118\Stability\UHF\Aug-CC-pVDZ\C3H9Si1\OHZDE\08-Apr-2025\0\\
 #t hf aug-cc-pvdz symm=none int=(grid=ultrafine) guess=(read,tcheck) s
 table=opt\\title\\0,2\Si,0,0.000007,0.000004,-0.426733\C,0,1.297362,1.
 235158,0.177601\H,0,2.297278,0.96723,-0.174047\H,0,1.323537,1.259676,1
 .274707\H,0,1.078494,2.247105,-0.173601\C,0,0.421002,-1.74113,0.177474
 \H,0,1.406758,-2.057582,-0.17384\H,0,-0.311056,-2.473073,-0.174129\H,0
 ,0.429263,-1.776052,1.274576\C,0,-1.718381,0.505964,0.177339\H,0,-2.48
 5279,-0.189496,-0.174059\H,0,-1.986199,1.505925,-0.174266\H,0,-1.75279

 Normal termination of Gaussian 16 at Tue Apr  8 22:45:55 2025.
 Gaussian 16:  ES64L-G16RevC.01  3-Jul-2019

 ----------------------------------------------------------------------
 #t hf aug-cc-pvdz iop(5/13=1,5/36=2,99/5=2) pseudo=read geom=check gue
 ss=(read,tcheck) scf=(maxcycle=1)
 ----------------------------------------------------------------------
 -----
 title
 -----
 Structure from the checkpoint file:  "BDE49_expt_1539_mol2.chk"
 Charge =  0 Multiplicity = 2

                         Standard orientation:
 ---------------------------------------------------------------------
 Center     Atomic      Atomic             Coordinates (Angstroms)
 Number     Number       Type             X           Y           Z
 ---------------------------------------------------------------------
      1         14           0       -0.000007   -0.000004   -0.426733
      2          6           0       -1.301555   -1.230739    0.177601
      3          1           0       -2.300554   -0.959411   -0.174047
      4          1           0       -1.327814   -1.255167    1.274707
      5          1           0       -1.086130   -2.243424   -0.173601
      6          6           0       -0.415078    1.742552    0.177474
      7          1           0       -1.399752    2.062354   -0.173840
      8          1           0        0.319465    2.472001   -0.174129
      9          1           0       -0.423220    1.777501    1.274576
     10          6           0        1.716650   -0.511806    0.177339
     11          1           0        2.485909    0.181042   -0.174059
     12          1           0        1.981066   -1.512672   -0.174266
     13          1           0        1.751027   -0.522209    1.274438
 ---------------------------------------------------------------------

 SCF Done:  E(UHF) =  -408.546757625     A.U. after    2 cycles

 The electronic state is 2-A.
 Alpha  occ. eigenvalues --  -76.19786 -11.34331 -11.34331 -11.34158  -5.53589
 Alpha  occ. eigenvalues --   -2.17093  -2.17093  -2.15029  -1.07488  -1.00565
 Alpha  occ. eigenvalues --   -1.00565  -0.64883  -0.56976  -0.56010  -0.56010
 Alpha  occ. eigenvalues --   -0.54325  -0.54324  -0.53107  -0.39228  -0.39228
 Alpha  occ. eigenvalues --   -0.24553
 Alpha virt. eigenvalues --    0.03353   0.05317   0.05317   0.06051   0.06748
 Alpha virt. eigenvalues --    0.06748   0.06824   0.07297   0.07297   0.08562
 Alpha virt. eigenvalues --    0.09400   0.09400   0.13038   0.15205   0.16698

  Beta  occ. eigenvalues --  -76.19269 -11.34259 -11.34259 -11.34084  -5.52778
  Beta  occ. eigenvalues --   -2.16519  -2.16518  -2.11590  -1.06464  -1.00256
  Beta  occ. eigenvalues --   -1.00256  -0.60874  -0.55908  -0.55865  -0.55864
  Beta  occ. eigenvalues --   -0.53785  -0.53784  -0.53028  -0.38453  -0.38453
  Beta virt. eigenvalues --    0.02216   0.05444   0.05444   0.06094   0.06512
  Beta virt. eigenvalues --    0.06764   0.06764   0.07323   0.07324   0.08564
  Beta virt. eigenvalues --    0.08998   0.09691   0.09691   0.14207   0.16278

 Mulliken charges and spin densities:
               1          2
     1  Si   4.855110   1.167983
     2  C   -5.392866  -0.026622
     3  H    1.284823  -0.016153
     4  H    1.204942   0.002902
     5  H    1.284785  -0.016117
     6  C   -5.392909  -0.026619
     7  H    1.284784  -0.016128
     8  H    1.284819  -0.016147
     9  H    1.204950   0.002901
    10  C   -5.392979  -0.026607
    11  H    1.284781  -0.016135
    12  H    1.284829  -0.016157
    13  H    1.204933   0.002898
 Sum of Mulliken charges =   0.00000   1.00000

 Dipole moment (field-independent basis, Debye):
    X=              0.0002    Y=              0.0000    Z=              0.4160  Tot=              0.4160
                          Isotropic Fermi Contact Couplings
        Atom                 a.u.       MegaHertz       Gauss      10(-4) cm-1
     1  Si(29)             0.41332    -367.32662    -131.07127    -122.52697
     2  C(13)              0.02434      27.35847       9.76218       9.12580
     3  H(1)               0.00013       0.58253       0.20786       0.19431
     4  H(1)               0.00655      29.29780      10.45418       9.77269
     5  H(1)               0.00013       0.57410       0.20485       0.19150
     6  C(13)              0.02434      27.35949       9.76255       9.12614
     7  H(1)               0.00013       0.57708       0.20592       0.19249
     8  H(1)               0.00013       0.57954       0.20679       0.19331

 Normal termination of Gaussian 16 at Tue Apr  8 22:45:58 2025.
