 Gaussian 16, Revision C.01,

 ----------------------------------------------------------------------
 #t hf aug-cc-pvdz symm=none int=(grid=ultrafine) guess=(read,tcheck) s
 table=(opt,rrhf)
 ----------------------------------------------------------------------
 -----
 title
 -----
 Symbolic Z-matrix:
 Charge =  0 Multiplicity = 1

 SCF Done:  E(RHF) =  -1121.10757432     A.U. after   15 cycles
 Normal termination of Gaussian 16 at Tue Apr  8 23:18:53 2025.
 Gaussian 16:  ES64L-G16RevC.01  3-Jul-2019

 ----------------------------------------------------------------------
 #t hf aug-cc-pvdz iop(5/13=1,5/36=2,99/5=2) pseudo=read geom=check gue
 ss=(read,tcheck) scf=(maxcycle=1)
 ----------------------------------------------------------------------
 -----
 title
 -----
 Structure from the checkpoint file:  "BDE49_nonexpt_1064_mol1.chk"
 Charge =  0 Multiplicity = 1

                         Standard orientation:
 ---------------------------------------------------------------------
 Center     Atomic      Atomic             Coordinates (Angstroms)
 Number     Number       Type             X           Y           Z
 ---------------------------------------------------------------------
      1         17           0       -2.089143    0.044016    0.011040
      2          8           0       -0.616969   -0.467081   -0.760801
      3         16           0        0.798732   -0.147249    0.089871
      4          8           0        1.748408   -0.856592   -0.714480
      5          6           0        0.971667    1.608519   -0.173670
      6          8           0        0.601007   -0.407428    1.483017
      7          1           0        1.022546    1.788107   -1.245392
      8          1           0        1.899864    1.901212    0.317185
      9          1           0        0.123740    2.116077    0.282710
 ---------------------------------------------------------------------

 SCF Done:  E(RHF) =  -1122.75764398     A.U. after    2 cycles

 The electronic state is 1-A.
 Alpha  occ. eigenvalues --  -99.97393 -75.93932 -21.15357 -21.08433 -21.08067
 Alpha  occ. eigenvalues --  -13.57520 -13.45723 -13.37459 -11.44926 -10.54056
 Alpha  occ. eigenvalues --   -9.73907  -9.73121  -9.73006  -8.29083  -1.91810
 Alpha  occ. eigenvalues --   -1.76638  -1.68673  -1.28551  -1.16776  -0.91429
 Alpha  occ. eigenvalues --   -0.69962  -0.67180  -0.65940  -0.63444  -0.61323
 Alpha  occ. eigenvalues --   -0.59042  -0.52068  -0.46372  -0.43944  -0.42590
 Alpha  occ. eigenvalues --   -0.40483  -0.39386  -0.38616
 Alpha virt. eigenvalues --    0.00819   0.02523   0.05344   0.05593   0.08234
 Alpha virt. eigenvalues --    0.10276   0.11422   0.12240   0.12806   0.13229
 Alpha virt. eigenvalues --    0.13563   0.15826   0.16409   0.17006   0.17704

 Mulliken charges:
               1
     1  Cl   0.532532
     2  O   -1.992975
     3  S    6.978999
     4  O   -2.504680
     5  C   -4.470879
     6  O   -2.482482
     7  H    1.298762
     8  H    1.340783
     9  H    1.299941
 Sum of Mulliken charges =  -0.00000

 Dipole moment (field-independent basis, Debye):
    X=              1.4319    Y=              1.4795    Z=             -1.0374  Tot=              2.3055

 Test job not archived.
 1\1\GINC-SE368\SP\RHF\Aug-CC-pVDZ\C1H3Cl1O3S1\OHZDE\08-Apr-2025\0\\#t
 hf aug-cc-pvdz iop(5/13=1,5/36=2,99/5=2) pseudo=read geom=check guess=
 (read,tcheck) scf=(maxcycle=1)\\title\\0,1\Cl,0,-2.089143,0.044016,0.0
 1104\O,0,-0.616969,-0.467081,-0.760801\S,0,0.798732,-0.147249,0.089871
 \O,0,1.748408,-0.856592,-0.71448\C,0,0.971667,1.608519,-0.17367\O,0,0.
 601007,-0.407428,1.483017\H,0,1.022546,1.788107,-1.245392\H,0,1.899864
 ,1.901212,0.317185\H,0,0.12374,2.116077,0.28271\\Version=ES64L-G16RevC
 .01\State=1-A\HF=-1122.757644\RMSD=8.470e-02\Dipole=0.5633372,0.582091

 Normal termination of Gaussian 16 at Tue Apr  8 23:18:56 2025.
