 Gaussian 16, Revision C.01,

 ----------------------------------------------------------------------
 #t hf aug-cc-pvdz symm=none int=(grid=ultrafine) guess=(read,tcheck) s
 table=(opt,rrhf)
 ----------------------------------------------------------------------
 -----
 title
 -----
 Symbolic Z-matrix:
 Charge =  0 Multiplicity = 1

 SCF Done:  E(RHF) =  -997.089528619     A.U. after   12 cycles

 1\1\GINC-SE398\Stability\RHF\Aug-CC-pVDZ\C2H4Cl2\OHZDE\08-Apr-2025\0\\
 #t hf aug-cc-pvdz symm=none int=(grid=ultrafine) guess=(read,tcheck) s
 table=(opt,rrhf)\\title\\0,1\C,0,-0.477575,0.588155,0.\C,0,0.477575,-0
 .588155,0.\Cl,0,0.477575,2.13178,0.\H,0,-1.10141,0.600674,0.890691\H,0
 ,-1.10141,0.600674,-0.890691\H,0,1.10141,-0.600674,0.890691\H,0,1.1014
 1,-0.600674,-0.890691\Cl,0,-0.477575,-2.13178,0.\\Version=ES64L-G16Rev
 C.01\HF=-997.0895286\RMSD=2.650e-09\Dipole=0.,0.,0.\Quadrupole=2.30599
 28,-4.3609618,2.0549689,-1.8150534,0.,0.\PG=Unknown\\@

 Normal termination of Gaussian 16 at Tue Apr  8 22:31:20 2025.
 Gaussian 16:  ES64L-G16RevC.01  3-Jul-2019

 ----------------------------------------------------------------------
 #t hf aug-cc-pvdz iop(5/13=1,5/36=2,99/5=2) pseudo=read geom=check gue
 ss=(read,tcheck) scf=(maxcycle=1)
 ----------------------------------------------------------------------
 -----
 title
 -----
 Structure from the checkpoint file:  "BDE49_expt_1018_mol1.chk"
 Charge =  0 Multiplicity = 1

                         Standard orientation:
 ---------------------------------------------------------------------
 Center     Atomic      Atomic             Coordinates (Angstroms)
 Number     Number       Type             X           Y           Z
 ---------------------------------------------------------------------
      1          6           0       -0.477575    0.588155    0.000000
      2          6           0        0.477575   -0.588155    0.000000
      3         17           0        0.477575    2.131780    0.000000
      4          1           0       -1.101410    0.600674    0.890691
      5          1           0       -1.101410    0.600674   -0.890691
      6          1           0        1.101410   -0.600674    0.890691
      7          1           0        1.101410   -0.600674   -0.890691
      8         17           0       -0.477575   -2.131780    0.000000
 ---------------------------------------------------------------------

 SCF Done:  E(RHF) =  -997.976642225     A.U. after    2 cycles

 The electronic state is 1-AG.
 Alpha  occ. eigenvalues --  -99.89239 -99.89223 -11.47885 -11.43852 -10.46487
 Alpha  occ. eigenvalues --  -10.46458  -9.66391  -9.66285  -9.65689  -9.65571
 Alpha  occ. eigenvalues --   -9.65569  -9.65557  -1.38052  -1.30320  -1.10587
 Alpha  occ. eigenvalues --   -0.92022  -0.70791  -0.65967  -0.62673  -0.59780
 Alpha  occ. eigenvalues --   -0.55632  -0.51360  -0.49439  -0.48418  -0.47239
 Alpha virt. eigenvalues --    0.02777   0.05242   0.05864   0.06178   0.07529
 Alpha virt. eigenvalues --    0.07774   0.11167   0.11326   0.12783   0.13590
 Alpha virt. eigenvalues --    0.13731   0.14801   0.17628   0.17921   0.18944

 Mulliken charges:
               1
     1  C   -3.213276
     2  C   -3.213276
     3  Cl   0.041310
     4  H    1.585983
     5  H    1.585983
     6  H    1.585983
     7  H    1.585983
     8  Cl   0.041310
 Sum of Mulliken charges =  -0.00000

 Dipole moment (field-independent basis, Debye):
    X=             -0.0000    Y=             -0.0000    Z=             -0.0000  Tot=              0.0000

 Test job not archived.
 1\1\GINC-SE398\SP\RHF\Aug-CC-pVDZ\C2H4Cl2\OHZDE\08-Apr-2025\0\\#t hf a
 ug-cc-pvdz iop(5/13=1,5/36=2,99/5=2) pseudo=read geom=check guess=(rea
 d,tcheck) scf=(maxcycle=1)\\title\\0,1\C,0,-0.477575,0.588155,0.\C,0,0
 .477575,-0.588155,0.\Cl,0,0.477575,2.13178,0.\H,0,-1.10141,0.600674,0.
 890691\H,0,-1.10141,0.600674,-0.890691\H,0,1.10141,-0.600674,0.890691\
 H,0,1.10141,-0.600674,-0.890691\Cl,0,-0.477575,-2.13178,0.\\Version=ES
 64L-G16RevC.01\State=1-AG\HF=-997.9766422\RMSD=1.387e-01\Dipole=0.,0.,
 0.\Quadrupole=1.9850601,-3.4515254,1.4664654,-1.1297935,0.,0.\PG=C02H

 Normal termination of Gaussian 16 at Tue Apr  8 22:31:22 2025.
