 Gaussian 16, Revision C.01,

 ----------------------------------------------------------------------
 #t hf aug-cc-pvdz symm=none int=(grid=ultrafine) guess=(read,tcheck) s
 table=(opt,rrhf)
 ----------------------------------------------------------------------
 -----
 title
 -----
 Symbolic Z-matrix:
 Charge =  0 Multiplicity = 1

 SCF Done:  E(RHF) =  -390.177171319     A.U. after   10 cycles

 1\1\GINC-SE049\Stability\RHF\Aug-CC-pVDZ\F1H3Si1\OHZDE\08-Apr-2025\0\\
 #t hf aug-cc-pvdz symm=none int=(grid=ultrafine) guess=(read,tcheck) s
 table=(opt,rrhf)\\title\\0,1\Si,0,-0.504038,-0.000003,-0.000001\F,0,1.
 106723,0.000007,-0.000003\H,0,-0.968051,0.882662,-1.088519\H,0,-0.9679
 8,0.501371,1.308683\H,0,-0.967941,-1.384057,-0.22012\\Version=ES64L-G1
 6RevC.01\HF=-390.1771713\RMSD=4.292e-09\Dipole=-0.6163956,0.000005,-0.
 0000261\Quadrupole=-0.7480922,0.3740474,0.3740448,0.0000167,0.000021,-
 0.0000178\PG=Unknown\\@

 Normal termination of Gaussian 16 at Tue Apr  8 22:59:35 2025.
 Gaussian 16:  ES64L-G16RevC.01  3-Jul-2019

 ----------------------------------------------------------------------
 #t hf aug-cc-pvdz iop(5/13=1,5/36=2,99/5=2) pseudo=read geom=check gue
 ss=(read,tcheck) scf=(maxcycle=1)
 ----------------------------------------------------------------------
 -----
 title
 -----
 Structure from the checkpoint file:  "BDE49_expt_1928_mol1.chk"
 Charge =  0 Multiplicity = 1

                         Standard orientation:
 ---------------------------------------------------------------------
 Center     Atomic      Atomic             Coordinates (Angstroms)
 Number     Number       Type             X           Y           Z
 ---------------------------------------------------------------------
      1         14           0        0.504038    0.000003   -0.000001
      2          9           0       -1.106723   -0.000007   -0.000003
      3          1           0        0.968052   -0.882947   -1.088288
      4          1           0        0.967980   -0.501029    1.308814
      5          1           0        0.967941    1.383999   -0.220482
 ---------------------------------------------------------------------

 SCF Done:  E(RHF) =  -390.689666311     A.U. after    2 cycles

 The electronic state is 1-A.
 Alpha  occ. eigenvalues --  -76.26099 -29.26670  -5.60253  -2.25051  -2.21269
 Alpha  occ. eigenvalues --   -2.21269  -0.88217  -0.60268  -0.51341  -0.51341
 Alpha  occ. eigenvalues --   -0.33618  -0.32678  -0.32678
 Alpha virt. eigenvalues --    0.04438   0.06186   0.06186   0.06941   0.09508
 Alpha virt. eigenvalues --    0.09508   0.15822   0.17580   0.17580   0.17612
 Alpha virt. eigenvalues --    0.26386   0.26830   0.26830   0.29830   0.30896

 Mulliken charges:
               1
     1  Si   5.971736
     2  F   -1.121449
     3  H   -1.616748
     4  H   -1.616771
     5  H   -1.616769
 Sum of Mulliken charges =  -0.00000

 Dipole moment (field-independent basis, Debye):
    X=             -1.8919    Y=             -0.0000    Z=             -0.0001  Tot=              1.8919

 Test job not archived.
 1\1\GINC-SE049\SP\RHF\Aug-CC-pVDZ\F1H3Si1\OHZDE\08-Apr-2025\0\\#t hf a
 ug-cc-pvdz iop(5/13=1,5/36=2,99/5=2) pseudo=read geom=check guess=(rea
 d,tcheck) scf=(maxcycle=1)\\title\\0,1\Si,0,-0.504038,-0.000003,-0.000
 001\F,0,1.106723,0.000007,-0.000003\H,0,-0.968051,0.882662,-1.088519\H
 ,0,-0.96798,0.501371,1.308683\H,0,-0.967941,-1.384057,-0.22012\\Versio
 n=ES64L-G16RevC.01\State=1-A\HF=-390.6896663\RMSD=1.322e-01\Dipole=0.7
 443502,0.0000106,-0.0000348\Quadrupole=0.9885409,-0.4942965,-0.4942444
 ,0.0000403,0.0000322,-0.000021\PG=C01 [X(F1H3Si1)]\\@

 Normal termination of Gaussian 16 at Tue Apr  8 22:59:36 2025.
