 Gaussian 16, Revision C.01,

 ----------------------------------------------------------------------
 #t hf aug-cc-pvdz symm=none int=(grid=ultrafine) guess=(read,tcheck) s
 table=(opt,rrhf)
 ----------------------------------------------------------------------
 -----
 title
 -----
 Symbolic Z-matrix:
 Charge =  0 Multiplicity = 1

 SCF Done:  E(RHF) =  -789.701735178     A.U. after   16 cycles
 Normal termination of Gaussian 16 at Tue Apr  8 23:37:39 2025.
 Gaussian 16:  ES64L-G16RevC.01  3-Jul-2019

 ----------------------------------------------------------------------
 #t hf aug-cc-pvdz iop(5/13=1,5/36=2,99/5=2) pseudo=read geom=check gue
 ss=(read,tcheck) scf=(maxcycle=1)
 ----------------------------------------------------------------------
 -----
 title
 -----
 Structure from the checkpoint file:  "BDE49_nonexpt_1516_mol1.chk"
 Charge =  0 Multiplicity = 1

                         Standard orientation:
 ---------------------------------------------------------------------
 Center     Atomic      Atomic             Coordinates (Angstroms)
 Number     Number       Type             X           Y           Z
 ---------------------------------------------------------------------
      1         15           0        0.095198    0.698231   -0.720473
      2          7           0       -1.410950    0.251523   -0.025139
      3          7           0        1.256479   -0.674619   -0.066763
      4          8           0       -2.053810   -0.704491   -0.853936
      5          8           0       -1.464963   -0.159211    1.312894
      6          8           0        2.446207   -0.510615   -0.260070
      7          8           0        0.755716   -1.651647    0.487227
      8          6           0        0.639055    1.921667    0.537071
      9          1           0        1.707727    2.091183    0.397063
     10          1           0        0.434145    1.578803    1.550902
     11          1           0        0.102752    2.853823    0.350117
     12          1           0       -2.964029   -0.383356   -0.898152
     13          1           0       -0.926797   -0.974520    1.339146
 ---------------------------------------------------------------------

 SCF Done:  E(RHF) =  -791.800511791     A.U. after    2 cycles

 The electronic state is 1-A.
 Alpha  occ. eigenvalues -- -105.26978 -21.12821 -21.11836 -21.10920 -21.10038
 Alpha  occ. eigenvalues --  -15.98051 -15.82745 -11.40848  -2.85227  -1.99228
 Alpha  occ. eigenvalues --   -1.89261  -1.70892  -1.69754  -1.59774  -1.55972
 Alpha  occ. eigenvalues --   -1.52272  -1.09922  -1.00509  -0.92049  -0.76058
 Alpha  occ. eigenvalues --   -0.69493  -0.66244  -0.61845  -0.61690  -0.60445
 Alpha  occ. eigenvalues --   -0.59436  -0.57680  -0.54615  -0.46519  -0.36927
 Alpha  occ. eigenvalues --   -0.34112  -0.33411  -0.32275  -0.26309  -0.24974
 Alpha  occ. eigenvalues --   -0.05335
 Alpha virt. eigenvalues --    0.04112   0.04988   0.06085   0.06743   0.07341
 Alpha virt. eigenvalues --    0.08917   0.09556   0.10860   0.11883   0.13138
 Alpha virt. eigenvalues --    0.14717   0.15226   0.15997   0.16653   0.17746

 Mulliken charges:
               1
     1  P    4.785027
     2  N    1.783047
     3  N    3.689792
     4  O   -2.412514
     5  O   -2.278850
     6  O   -2.704711
     7  O   -2.418798
     8  C   -5.749472
     9  H    1.244383
    10  H    1.222323
    11  H    1.152831
    12  H    0.843619
    13  H    0.843323
 Sum of Mulliken charges =  -0.00000

 Dipole moment (field-independent basis, Debye):
    X=             -2.3225    Y=              0.1820    Z=             -1.6422  Tot=              2.8503

 Test job not archived.
 1\1\GINC-SE226\SP\RHF\Aug-CC-pVDZ\C1H5N2O4P1\OHZDE\08-Apr-2025\0\\#t h
 f aug-cc-pvdz iop(5/13=1,5/36=2,99/5=2) pseudo=read geom=check guess=(
 read,tcheck) scf=(maxcycle=1)\\title\\0,1\P,0,0.095198,0.698231,-0.720
 473\N,0,-1.41095,0.251523,-0.025139\N,0,1.256479,-0.674619,-0.066763\O
 ,0,-2.05381,-0.704491,-0.853936\O,0,-1.464963,-0.159211,1.312894\O,0,2
 .446207,-0.510615,-0.26007\O,0,0.755716,-1.651647,0.487227\C,0,0.63905
 5,1.921667,0.537071\H,0,1.707727,2.091183,0.397063\H,0,0.434145,1.5788
 03,1.550902\H,0,0.102752,2.853823,0.350117\H,0,-2.964029,-0.383356,-0.

 Normal termination of Gaussian 16 at Tue Apr  8 23:37:45 2025.
