 Gaussian 16, Revision C.01,

 ----------------------------------------------------------------------
 #t hf aug-cc-pvdz symm=none int=(grid=ultrafine) guess=(read,tcheck) s
 table=(opt,rrhf)
 ----------------------------------------------------------------------
 -----
 title
 -----
 Symbolic Z-matrix:
 Charge =  0 Multiplicity = 1

 SCF Done:  E(RHF) =  -457.919010651     A.U. after   11 cycles
 Normal termination of Gaussian 16 at Tue Apr  8 23:58:52 2025.
 Gaussian 16:  ES64L-G16RevC.01  3-Jul-2019

 ----------------------------------------------------------------------
 #t hf aug-cc-pvdz iop(5/13=1,5/36=2,99/5=2) pseudo=read geom=check gue
 ss=(read,tcheck) scf=(maxcycle=1)
 ----------------------------------------------------------------------
 -----
 title
 -----
 Structure from the checkpoint file:  "BDE49_nonexpt_2063_mol1.chk"
 Charge =  0 Multiplicity = 1

                         Standard orientation:
 ---------------------------------------------------------------------
 Center     Atomic      Atomic             Coordinates (Angstroms)
 Number     Number       Type             X           Y           Z
 ---------------------------------------------------------------------
      1         14           0        1.594109   -0.000074    0.000018
      2          6           0       -1.312023    0.000078   -0.000002
      3          8           0       -2.481114   -0.000152    0.000035
      4          7           0       -0.117209    0.000332   -0.000095
      5          1           0        2.074955    1.223249   -0.672757
      6          1           0        2.074426   -1.194577   -0.723048
      7          1           0        2.074608   -0.029218    1.395953
 ---------------------------------------------------------------------

 SCF Done:  E(RHF) =  -458.778880058     A.U. after    2 cycles

 The electronic state is 1-A.
 Alpha  occ. eigenvalues --  -76.26377 -21.11740 -15.76430 -11.59499  -5.59825
 Alpha  occ. eigenvalues --   -2.25447  -2.21617  -2.21617  -1.76625  -1.35846
 Alpha  occ. eigenvalues --   -0.86910  -0.65829  -0.60574  -0.60574  -0.58789
 Alpha  occ. eigenvalues --   -0.49512  -0.49512  -0.36087  -0.36087
 Alpha virt. eigenvalues --    0.03653   0.04788   0.05983   0.05983   0.09068
 Alpha virt. eigenvalues --    0.09068   0.10429   0.11862   0.11862   0.12249
 Alpha virt. eigenvalues --    0.14348   0.16928   0.16987   0.16989   0.20639

 Mulliken charges:
               1
     1  Si   5.481758
     2  C    3.682388
     3  O   -2.552024
     4  N   -2.064061
     5  H   -1.516025
     6  H   -1.516013
     7  H   -1.516023
 Sum of Mulliken charges =  -0.00000

 Dipole moment (field-independent basis, Debye):
    X=             -0.0315    Y=             -0.0004    Z=              0.0001  Tot=              0.0315

 Test job not archived.
 1\1\GINC-SE099\SP\RHF\Aug-CC-pVDZ\C1H3N1O1Si1\OHZDE\08-Apr-2025\0\\#t
 hf aug-cc-pvdz iop(5/13=1,5/36=2,99/5=2) pseudo=read geom=check guess=
 (read,tcheck) scf=(maxcycle=1)\\title\\0,1\Si,0,-1.594109,-0.000073,-0
 .000018\C,0,1.312023,0.000078,0.000003\O,0,2.481114,-0.000152,-0.00003
 6\N,0,0.117209,0.000332,0.000097\H,0,-2.074955,1.218824,0.680742\H,0,-
 2.074426,-1.199279,0.715222\H,0,-2.074608,-0.020089,-1.396114\\Version
 =ES64L-G16RevC.01\State=1-A\HF=-458.7788801\RMSD=1.251e-01\Dipole=0.01
 23742,-0.0001516,-0.0000463\Quadrupole=0.4050785,-0.2025513,-0.2025273

 Normal termination of Gaussian 16 at Tue Apr  8 23:58:54 2025.
