 Gaussian 16, Revision C.01,

 ----------------------------------------------------------------------
 #t hf aug-cc-pvdz symm=none int=(grid=ultrafine) guess=(read,tcheck) s
 table=(opt,rrhf)
 ----------------------------------------------------------------------
 -----
 title
 -----
 Symbolic Z-matrix:
 Charge =  0 Multiplicity = 1

 SCF Done:  E(RHF) =  -102.098728926     A.U. after   12 cycles
 Normal termination of Gaussian 16 at Wed Apr  9 00:35:46 2025.
 Gaussian 16:  ES64L-G16RevC.01  3-Jul-2019

 ----------------------------------------------------------------------
 #t hf aug-cc-pvdz iop(5/13=1,5/36=2,99/5=2) pseudo=read geom=check gue
 ss=(read,tcheck) scf=(maxcycle=1)
 ----------------------------------------------------------------------
 -----
 title
 -----
 Structure from the checkpoint file:  "BDE49_nonexpt_486_mol1.chk"
 Charge =  0 Multiplicity = 1

                         Standard orientation:
 ---------------------------------------------------------------------
 Center     Atomic      Atomic             Coordinates (Angstroms)
 Number     Number       Type             X           Y           Z
 ---------------------------------------------------------------------
      1          1           0        1.988695   -1.030705    0.000002
      2          1           0        1.988672    1.030733    0.000002
      3          5           0        1.394295    0.000007   -0.000002
      4          6           0       -0.108015   -0.000010    0.000000
      5          6           0       -1.319526   -0.000017    0.000000
      6          1           0       -2.383590    0.000094    0.000001
 ---------------------------------------------------------------------

 SCF Done:  E(RHF) =  -102.582261151     A.U. after    2 cycles

 The electronic state is 1-A.
 Alpha  occ. eigenvalues --  -11.42741 -11.37809  -7.63549  -1.12782  -0.91096
 Alpha  occ. eigenvalues --   -0.72860  -0.52998  -0.51630  -0.40250  -0.37205
 Alpha virt. eigenvalues --    0.03150   0.03796   0.04377   0.05020   0.06407
 Alpha virt. eigenvalues --    0.06808   0.10429   0.11675   0.12419   0.14320
 Alpha virt. eigenvalues --    0.15774   0.16395   0.17843   0.18862   0.19467

 Mulliken charges:
               1
     1  H   -2.431603
     2  H   -2.431657
     3  B    5.199314
     4  C    0.057758
     5  C   -1.047392
     6  H    0.653580
 Sum of Mulliken charges =  -0.00000

 Dipole moment (field-independent basis, Debye):
    X=             -1.1694    Y=              0.0002    Z=             -0.0000  Tot=              1.1694

 Test job not archived.
 1\1\GINC-SE074\SP\RHF\Aug-CC-pVDZ\C2H3B1\OHZDE\09-Apr-2025\0\\#t hf au
 g-cc-pvdz iop(5/13=1,5/36=2,99/5=2) pseudo=read geom=check guess=(read
 ,tcheck) scf=(maxcycle=1)\\title\\0,1\H,0,-1.988695,-1.030705,-0.00000
 2\H,0,-1.988672,1.030733,-0.000002\B,0,-1.394295,0.000007,0.000002\C,0
 ,0.108015,-0.00001,0.\C,0,1.319526,-0.000017,0.\H,0,2.38359,0.000094,-
 0.000001\\Version=ES64L-G16RevC.01\State=1-A\HF=-102.5822612\RMSD=1.41
 2e+00\Dipole=0.4600949,0.0000674,0.0000028\Quadrupole=2.3149329,-2.175
 8941,-0.1390388,0.0002486,-0.0000121,0.\PG=C01 [X(C2H3B1)]\\@

 Normal termination of Gaussian 16 at Wed Apr  9 00:35:47 2025.
