 Gaussian 16, Revision C.01,

 ----------------------------------------------------------------------
 #t hf aug-cc-pvdz symm=none int=(grid=ultrafine) guess=(read,tcheck) s
 table=(opt,rrhf)
 ----------------------------------------------------------------------
 -----
 title
 -----
 Symbolic Z-matrix:
 Charge =  0 Multiplicity = 1

 SCF Done:  E(RHF) =  -499.624313858     A.U. after   16 cycles
 Normal termination of Gaussian 16 at Tue Apr  8 23:07:08 2025.
 Gaussian 16:  ES64L-G16RevC.01  3-Jul-2019

 ----------------------------------------------------------------------
 #t hf aug-cc-pvdz iop(5/13=1,5/36=2,99/5=2) pseudo=read geom=check gue
 ss=(read,tcheck) scf=(maxcycle=1)
 ----------------------------------------------------------------------
 -----
 title
 -----
 Structure from the checkpoint file:  "BDE49_expt_238_mol1.chk"
 Charge =  0 Multiplicity = 1

                         Standard orientation:
 ---------------------------------------------------------------------
 Center     Atomic      Atomic             Coordinates (Angstroms)
 Number     Number       Type             X           Y           Z
 ---------------------------------------------------------------------
      1          6           0       -3.053396    0.939445    0.000015
      2          6           0       -1.702221    1.257516    0.000086
      3          6           0       -3.456855   -0.395529   -0.000128
      4          6           0       -2.496772   -1.403055   -0.000200
      5          6           0       -1.141108   -1.082425   -0.000129
      6          6           0       -0.718930    0.254679    0.000019
      7          1           0       -1.373081    2.288477    0.000197
      8          1           0       -3.793646    1.731597    0.000070
      9          6           0        1.936792   -0.230385    0.000048
     10          1           0       -4.511372   -0.647918   -0.000184
     11          6           0        0.719801    0.734075    0.000106
     12          1           0       -0.426398   -1.891065   -0.000194
     13          1           0       -2.800448   -2.443784   -0.000314
     14          8           0        0.920323    1.933706    0.000114
     15          6           0        3.220809    0.619787   -0.000106
     16          1           0        4.094288   -0.038516   -0.000151
     17          1           0        3.270316    1.264220    0.878867
     18          1           0        3.270161    1.264135   -0.879151
     19          6           0        1.941013   -1.102830   -1.277141
     20          1           0        1.089103   -1.778292   -1.347705
     21          1           0        2.850425   -1.710565   -1.296517
     22          1           0        1.942700   -0.475490   -2.172814
     23          6           0        1.941245   -1.102706    1.277321
     24          1           0        1.943082   -0.475278    2.172933
     25          1           0        2.850667   -1.710429    1.296598
     26          1           0        1.089356   -1.778172    1.348103
 ---------------------------------------------------------------------

 SCF Done:  E(RHF) =  -502.034608934     A.U. after    2 cycles

 The electronic state is 1-A.
 Alpha  occ. eigenvalues --  -21.04199 -11.53183 -11.50692 -11.44973 -11.44543
 Alpha  occ. eigenvalues --  -11.43431 -11.42217 -11.41622 -11.39715 -11.39604
 Alpha  occ. eigenvalues --  -11.38397 -11.36397  -1.70992  -1.34970  -1.26625
 Alpha  occ. eigenvalues --   -1.11452  -1.09867  -1.01823  -1.00055  -0.93026
 Alpha  occ. eigenvalues --   -0.87287  -0.84933  -0.75574  -0.70074  -0.66581
 Alpha  occ. eigenvalues --   -0.62405  -0.61297  -0.60981  -0.58498  -0.56733
 Alpha  occ. eigenvalues --   -0.55919  -0.55375  -0.52392  -0.52362  -0.51146
 Alpha  occ. eigenvalues --   -0.48045  -0.46484  -0.46265  -0.43452  -0.41753
 Alpha  occ. eigenvalues --   -0.41636  -0.33657  -0.32073  -0.27386
 Alpha virt. eigenvalues --    0.03322   0.04502   0.04830   0.05328   0.05351
 Alpha virt. eigenvalues --    0.05816   0.06211   0.06304   0.06798   0.07516
 Alpha virt. eigenvalues --    0.07985   0.08573   0.08815   0.09646   0.09853

 Mulliken charges:
               1
     1  C   -2.194738
     2  C   -3.953249
     3  C   -3.543724
     4  C   -3.450033
     5  C    1.900229
     6  C    4.258392
     7  H    1.767538
     8  H    1.474659
     9  C    2.261942
    10  H    1.570872
    11  C    3.872985
    12  H    3.027207
    13  H    1.429004
    14  O   -4.236762
    15  C   -5.182403
    16  H    1.033161
    17  H    1.275688
    18  H    1.275636
    19  C   -5.022313
    20  H    1.324192
    21  H    1.167115
    22  H    1.237777
    23  C   -5.022248
    24  H    1.237762
    25  H    1.167292
    26  H    1.324018
 Sum of Mulliken charges =  -0.00000

 Dipole moment (field-independent basis, Debye):
    X=             -0.5624    Y=             -1.0816    Z=             -0.0001  Tot=              1.2191

 Test job not archived.
 1\1\GINC-SE253\SP\RHF\Aug-CC-pVDZ\C11H14O1\OHZDE\08-Apr-2025\0\\#t hf
 aug-cc-pvdz iop(5/13=1,5/36=2,99/5=2) pseudo=read geom=check guess=(re
 ad,tcheck) scf=(maxcycle=1)\\title\\0,1\C,0,3.053396,0.939445,-0.00001
 5\C,0,1.702221,1.257516,-0.000086\C,0,3.456855,-0.395529,0.000128\C,0,
 2.496772,-1.403055,0.0002\C,0,1.141108,-1.082425,0.000129\C,0,0.71893,
 0.254679,-0.000019\H,0,1.373081,2.288477,-0.000197\H,0,3.793646,1.7315
 97,-0.00007\C,0,-1.936792,-0.230385,-0.000048\H,0,4.511372,-0.647918,0
 .000184\C,0,-0.719801,0.734075,-0.000106\H,0,0.426398,-1.891065,0.0001

 Normal termination of Gaussian 16 at Tue Apr  8 23:07:29 2025.
