 Gaussian 16, Revision C.01,

 ----------------------------------------------------------------------
 #t hf aug-cc-pvdz symm=none int=(grid=ultrafine) guess=(read,tcheck) s
 table=(opt,rrhf)
 ----------------------------------------------------------------------
 -----
 title
 -----
 Symbolic Z-matrix:
 Charge =  0 Multiplicity = 1

 SCF Done:  E(RHF) =  -636.356372073     A.U. after   16 cycles
 Normal termination of Gaussian 16 at Wed Apr  9 00:46:17 2025.
 Gaussian 16:  ES64L-G16RevC.01  3-Jul-2019

 ----------------------------------------------------------------------
 #t hf aug-cc-pvdz iop(5/13=1,5/36=2,99/5=2) pseudo=read geom=check gue
 ss=(read,tcheck) scf=(maxcycle=1)
 ----------------------------------------------------------------------
 -----
 title
 -----
 Structure from the checkpoint file:  "BDE49_nonexpt_760_mol1.chk"
 Charge =  0 Multiplicity = 1

                         Standard orientation:
 ---------------------------------------------------------------------
 Center     Atomic      Atomic             Coordinates (Angstroms)
 Number     Number       Type             X           Y           Z
 ---------------------------------------------------------------------
      1         15           0       -2.437631   -0.450418   -0.379292
      2          5           0       -0.969922    0.713158   -0.159024
      3          6           0        0.520283    0.310815   -0.064066
      4          6           0        1.506034    1.319773   -0.059343
      5          6           0        0.964903   -1.024885    0.027697
      6          6           0        2.315698   -1.336255    0.114464
      7          6           0        3.266596   -0.314085    0.119249
      8          6           0        2.860585    1.016276    0.033790
      9          1           0        4.321494   -0.556252    0.190056
     10          1           0        3.598597    1.810768    0.037234
     11          1           0        1.193887    2.356131   -0.131415
     12          1           0        0.238932   -1.830840    0.032369
     13          1           0        2.632822   -2.371078    0.181077
     14          6           0       -3.875880    0.345991    0.495739
     15          1           0       -3.694978    0.506339    1.558587
     16          1           0       -4.765006   -0.274372    0.372610
     17          1           0       -4.068532    1.310487    0.022055
     18          1           0       -1.237445    1.875419   -0.255655
     19          1           0       -2.155005   -1.541900    0.472410
 ---------------------------------------------------------------------

 SCF Done:  E(RHF) =  -637.985448102     A.U. after    2 cycles

 The electronic state is 1-A.
 Alpha  occ. eigenvalues -- -105.15212 -11.51485 -11.43573 -11.42969 -11.40776
 Alpha  occ. eigenvalues --  -11.40602 -11.37332 -11.35983  -7.63529  -2.73100
 Alpha  occ. eigenvalues --   -1.49794  -1.45021  -1.40567  -1.34039  -1.10634
 Alpha  occ. eigenvalues --   -1.09302  -1.00780  -0.88747  -0.86267  -0.78285
 Alpha  occ. eigenvalues --   -0.70279  -0.65482  -0.61828  -0.58351  -0.56486
 Alpha  occ. eigenvalues --   -0.56074  -0.55940  -0.51843  -0.50379  -0.44743
 Alpha  occ. eigenvalues --   -0.41822  -0.34502  -0.33161  -0.23005  -0.13330
 Alpha  occ. eigenvalues --   -0.02221
 Alpha virt. eigenvalues --    0.03329   0.03694   0.04838   0.05359   0.05619
 Alpha virt. eigenvalues --    0.05882   0.07063   0.07283   0.07826   0.08020
 Alpha virt. eigenvalues --    0.08519   0.09317   0.09716   0.10816   0.11662

 Mulliken charges:
               1
     1  P    3.534410
     2  B    2.712921
     3  C   -1.249730
     4  C   -0.871327
     5  C   -0.908963
     6  C   -1.907781
     7  C   -2.291874
     8  C   -1.280846
     9  H    1.498219
    10  H    1.564244
    11  H    1.964647
    12  H    2.174356
    13  H    1.554424
    14  C   -5.796499
    15  H    1.326058
    16  H    1.283298
    17  H    1.365797
    18  H   -3.598123
    19  H   -1.073230
 Sum of Mulliken charges =   0.00000

 Dipole moment (field-independent basis, Debye):
    X=             -5.1284    Y=             -3.8030    Z=             -3.0621  Tot=              7.0809

 Test job not archived.
 1\1\GINC-SE141\SP\RHF\Aug-CC-pVDZ\C7H10B1P1\OHZDE\09-Apr-2025\0\\#t hf
  aug-cc-pvdz iop(5/13=1,5/36=2,99/5=2) pseudo=read geom=check guess=(r
 ead,tcheck) scf=(maxcycle=1)\\title\\0,1\P,0,-2.437631,-0.450418,-0.37
 9292\B,0,-0.969922,0.713158,-0.159024\C,0,0.520283,0.310815,-0.064066\
 C,0,1.506034,1.319773,-0.059343\C,0,0.964903,-1.024885,0.027697\C,0,2.
 315698,-1.336255,0.114464\C,0,3.266596,-0.314085,0.119249\C,0,2.860585
 ,1.016276,0.03379\H,0,4.321494,-0.556252,0.190056\H,0,3.598597,1.81076
 8,0.037234\H,0,1.193887,2.356131,-0.131415\H,0,0.238932,-1.83084,0.032

 Normal termination of Gaussian 16 at Wed Apr  9 00:46:27 2025.
