 Gaussian 16, Revision C.01,

 ----------------------------------------------------------------------
 #t hf aug-cc-pvdz symm=none int=(grid=ultrafine) guess=(read,tcheck) s
 table=(opt,rrhf)
 ----------------------------------------------------------------------
 -----
 title
 -----
 Symbolic Z-matrix:
 Charge =  0 Multiplicity = 1

 SCF Done:  E(RHF) =  -846.421959439     A.U. after   14 cycles
 Normal termination of Gaussian 16 at Wed Apr  9 00:02:51 2025.
 Gaussian 16:  ES64L-G16RevC.01  3-Jul-2019

 ----------------------------------------------------------------------
 #t hf aug-cc-pvdz iop(5/13=1,5/36=2,99/5=2) pseudo=read geom=check gue
 ss=(read,tcheck) scf=(maxcycle=1)
 ----------------------------------------------------------------------
 -----
 title
 -----
 Structure from the checkpoint file:  "BDE49_nonexpt_2123_mol1.chk"
 Charge =  0 Multiplicity = 1

                         Standard orientation:
 ---------------------------------------------------------------------
 Center     Atomic      Atomic             Coordinates (Angstroms)
 Number     Number       Type             X           Y           Z
 ---------------------------------------------------------------------
      1         14           0        2.121960    0.016674    0.448418
      2          7           0        0.372433   -0.423089    0.275035
      3          7           0       -0.372371    0.422579   -0.275810
      4         14           0       -2.122068   -0.016818   -0.448399
      5          6           0       -2.538231   -1.701772    0.250372
      6          1           0       -1.912390   -2.473874   -0.203476
      7          1           0       -3.586637   -1.949298    0.058043
      8          1           0       -2.369016   -1.731794    1.329872
      9          6           0        2.537947    1.701994   -0.249575
     10          1           0        2.369059    1.732405   -1.329117
     11          1           0        3.586236    1.949688   -0.056828
     12          1           0        1.911784    2.473767    0.204385
     13          6           0        3.079554   -1.372056   -0.368953
     14          1           0        2.924840   -1.373244   -1.451840
     15          1           0        2.762941   -2.342640    0.020911
     16          1           0        4.151945   -1.263847   -0.181635
     17          6           0       -3.079120    1.372465    0.368685
     18          1           0       -2.924075    1.374054    1.451523
     19          1           0       -4.151595    1.264438    0.181740
     20          1           0       -2.762401    2.342819   -0.021667
     21          1           0        2.341351   -0.019995    1.916765
     22          1           0       -2.341866    0.019307   -1.916691
 ---------------------------------------------------------------------

 SCF Done:  E(RHF) =  -848.065471104     A.U. after    2 cycles

 The electronic state is 1-A.
 Alpha  occ. eigenvalues --  -76.20580 -76.20535 -15.76078 -15.75471 -11.34672
 Alpha  occ. eigenvalues --  -11.34659 -11.34457 -11.34375  -5.54711  -5.54629
 Alpha  occ. eigenvalues --   -2.19542  -2.19271  -2.18482  -2.18335  -2.17085
 Alpha  occ. eigenvalues --   -2.16987  -1.46596  -1.07130  -1.05247  -1.01486
 Alpha  occ. eigenvalues --   -1.00787  -0.91875  -0.70016  -0.65759  -0.59108
 Alpha  occ. eigenvalues --   -0.57028  -0.56972  -0.56540  -0.55079  -0.54771
 Alpha  occ. eigenvalues --   -0.54759  -0.54449  -0.51851  -0.50097  -0.49858
 Alpha  occ. eigenvalues --   -0.43651  -0.41797  -0.39791  -0.39340  -0.25476
 Alpha virt. eigenvalues --    0.03167   0.04120   0.05153   0.05799   0.05815
 Alpha virt. eigenvalues --    0.06150   0.06803   0.06911   0.07009   0.07095
 Alpha virt. eigenvalues --    0.07180   0.07880   0.08048   0.08748   0.08969

 Mulliken charges:
               1
     1  Si   6.811879
     2  N   -1.703105
     3  N   -1.702830
     4  Si   6.811992
     5  C   -5.334156
     6  H    1.311278
     7  H    1.271626
     8  H    1.343088
     9  C   -5.334097
    10  H    1.343134
    11  H    1.271610
    12  H    1.311326
    13  C   -5.144809
    14  H    1.327657
    15  H    1.315632
    16  H    1.282555
    17  C   -5.144974
    18  H    1.327618
    19  H    1.282580
    20  H    1.315719
    21  H   -2.481779
    22  H   -2.481945
 Sum of Mulliken charges =   0.00000

 Dipole moment (field-independent basis, Debye):
    X=              0.0000    Y=              0.0007    Z=              0.0008  Tot=              0.0011

 Test job not archived.
 1\1\GINC-SE423\SP\RHF\Aug-CC-pVDZ\C4H14N2Si2\OHZDE\09-Apr-2025\0\\#t h
 f aug-cc-pvdz iop(5/13=1,5/36=2,99/5=2) pseudo=read geom=check guess=(
 read,tcheck) scf=(maxcycle=1)\\title\\0,1\Si,0,2.12196,0.016674,0.4484
 18\N,0,0.372433,-0.423089,0.275035\N,0,-0.372371,0.422579,-0.27581\Si,
 0,-2.122068,-0.016818,-0.448399\C,0,-2.538231,-1.701772,0.250372\H,0,-
 1.91239,-2.473874,-0.203476\H,0,-3.586637,-1.949298,0.058043\H,0,-2.36
 9016,-1.731794,1.329872\C,0,2.537947,1.701994,-0.249575\H,0,2.369059,1
 .732405,-1.329117\H,0,3.586236,1.949688,-0.056828\H,0,1.911784,2.47376

 Normal termination of Gaussian 16 at Wed Apr  9 00:03:02 2025.
