 Gaussian 16, Revision C.01,

 ----------------------------------------------------------------------
 #t hf aug-cc-pvdz symm=none int=(grid=ultrafine) guess=(read,tcheck) s
 table=opt
 ----------------------------------------------------------------------
 -----
 title
 -----
 Symbolic Z-matrix:
 Charge =  0 Multiplicity = 2

 SCF Done:  E(UHF) =  -537.626600556     A.U. after   16 cycles
 Normal termination of Gaussian 16 at Tue Apr  8 23:59:10 2025.
 Gaussian 16:  ES64L-G16RevC.01  3-Jul-2019

 ----------------------------------------------------------------------
 #t hf aug-cc-pvdz iop(5/13=1,5/36=2,99/5=2) pseudo=read geom=check gue
 ss=(read,tcheck) scf=(maxcycle=1)
 ----------------------------------------------------------------------
 -----
 title
 -----
 Structure from the checkpoint file:  "BDE49_nonexpt_2050_mol2.chk"
 Charge =  0 Multiplicity = 2

                         Standard orientation:
 ---------------------------------------------------------------------
 Center     Atomic      Atomic             Coordinates (Angstroms)
 Number     Number       Type             X           Y           Z
 ---------------------------------------------------------------------
      1         14           0       -1.931888    0.374907   -0.352430
      2          6           0       -0.239506   -0.529161   -0.258655
      3          8           0       -0.270693   -1.390460    0.913981
      4          7           0        0.925199    0.303495   -0.390048
      5          6           0        2.170771   -0.450347   -0.533205
      6          1           0        2.059883   -1.188552   -1.330760
      7          1           0        2.464548   -0.979585    0.385566
      8          1           0        2.976630    0.233028   -0.812831
      9          6           0        1.047607    1.381715    0.582929
     10          1           0        0.131821    1.978033    0.604538
     11          1           0        1.863536    2.045569    0.287368
     12          1           0        1.260086    1.032882    1.608623
     13          1           0       -0.222018   -1.243192   -1.086010
     14          1           0       -0.423354   -0.840452    1.690695
     15          1           0       -2.275553    0.912841    0.996326
     16          1           0       -2.973225   -0.613294   -0.737412
 ---------------------------------------------------------------------

 SCF Done:  E(UHF) =  -538.943273253     A.U. after    2 cycles

 The electronic state is 2-A.
 Alpha  occ. eigenvalues --  -76.22696 -21.06948 -15.71293 -11.41771 -11.39188
 Alpha  occ. eigenvalues --  -11.37999  -5.56075  -2.20012  -2.18357  -2.18013
 Alpha  occ. eigenvalues --   -1.70932  -1.40594  -1.03948  -1.01008  -0.84315
 Alpha  occ. eigenvalues --   -0.75162  -0.66356  -0.63869  -0.60867  -0.56737
 Alpha  occ. eigenvalues --   -0.54303  -0.53100  -0.50489  -0.48456  -0.46613
 Alpha  occ. eigenvalues --   -0.42124  -0.34456  -0.29721  -0.25404
 Alpha virt. eigenvalues --    0.03773   0.04820   0.05529   0.05653   0.06112
 Alpha virt. eigenvalues --    0.06617   0.06810   0.07300   0.07521   0.08698
 Alpha virt. eigenvalues --    0.09282   0.10094   0.11192   0.13195   0.13822

  Beta  occ. eigenvalues --  -76.22145 -21.06759 -15.71297 -11.41699 -11.39184
  Beta  occ. eigenvalues --  -11.38002  -5.55210  -2.19260  -2.17668  -2.14670
  Beta  occ. eigenvalues --   -1.70559  -1.40565  -1.03940  -1.00723  -0.83466
  Beta  occ. eigenvalues --   -0.72044  -0.66257  -0.63741  -0.60350  -0.56548
  Beta  occ. eigenvalues --   -0.54260  -0.52939  -0.50312  -0.47752  -0.45954
  Beta  occ. eigenvalues --   -0.41741  -0.31286  -0.29628
  Beta virt. eigenvalues --    0.03569   0.04115   0.05272   0.05594   0.05710
  Beta virt. eigenvalues --    0.06308   0.06677   0.07036   0.07379   0.08802
  Beta virt. eigenvalues --    0.09099   0.09723   0.10396   0.11417   0.13263

 Mulliken charges and spin densities:
               1          2
     1  Si   3.582993   1.104478
     2  C    0.917475   0.019672
     3  O   -2.792043   0.034493
     4  N   -2.420579  -0.078259
     5  C   -3.632873  -0.022959
     6  H    1.295936   0.001610
     7  H    1.432133  -0.001911
     8  H    1.376923  -0.001622
     9  C   -3.594528   0.020208
    10  H    1.417127  -0.026694
    11  H    1.314560  -0.001574
    12  H    1.402426   0.002149
    13  H    1.957906  -0.004110
    14  H    0.855503  -0.038707
    15  H   -1.518860  -0.018537
    16  H   -1.594098   0.011762
 Sum of Mulliken charges =  -0.00000   1.00000

 Dipole moment (field-independent basis, Debye):
    X=              1.0861    Y=              0.2783    Z=             -0.0330  Tot=              1.1216
                          Isotropic Fermi Contact Couplings
        Atom                 a.u.       MegaHertz       Gauss      10(-4) cm-1
     1  Si(29)             0.44456    -395.09316    -140.97906    -131.78889
     2  C(13)              0.01688      18.97660       6.77132       6.32991
     3  O(17)              0.01257      -7.61905      -2.71867      -2.54144
     4  N(14)             -0.00345      -1.11560      -0.39807      -0.37212
     5  C(13)             -0.00088      -0.98630      -0.35194      -0.32899
     6  H(1)              -0.00002      -0.08015      -0.02860      -0.02674
     7  H(1)               0.00002       0.07023       0.02506       0.02343
     8  H(1)              -0.00002      -0.09265      -0.03306      -0.03091

 Normal termination of Gaussian 16 at Tue Apr  8 23:59:15 2025.
