 Gaussian 16, Revision C.01,

 ----------------------------------------------------------------------
 #t hf aug-cc-pvdz symm=none int=(grid=ultrafine) guess=(read,tcheck) s
 table=(opt,rrhf)
 ----------------------------------------------------------------------
 -----
 title
 -----
 Symbolic Z-matrix:
 Charge =  0 Multiplicity = 1

 SCF Done:  E(RHF) =  -818.252263917     A.U. after   15 cycles
 Normal termination of Gaussian 16 at Wed Apr  9 00:24:13 2025.
 Gaussian 16:  ES64L-G16RevC.01  3-Jul-2019

 ----------------------------------------------------------------------
 #t hf aug-cc-pvdz iop(5/13=1,5/36=2,99/5=2) pseudo=read geom=check gue
 ss=(read,tcheck) scf=(maxcycle=1)
 ----------------------------------------------------------------------
 -----
 title
 -----
 Structure from the checkpoint file:  "BDE49_nonexpt_2689_mol1.chk"
 Charge =  0 Multiplicity = 1

                         Standard orientation:
 ---------------------------------------------------------------------
 Center     Atomic      Atomic             Coordinates (Angstroms)
 Number     Number       Type             X           Y           Z
 ---------------------------------------------------------------------
      1          9           0        2.548501    0.038984    1.098884
      2         16           0        2.084858    0.102981   -0.496069
      3          8           0        0.516947    0.567883   -0.346933
      4          6           0       -0.476023   -0.444397   -0.150137
      5          8           0       -0.217736   -1.615298   -0.168940
      6          7           0       -1.681067    0.137370    0.039189
      7          6           0       -1.931713    1.575224    0.065911
      8          1           0       -1.000181    2.122975   -0.020643
      9          1           0       -2.419977    1.845268    1.007638
     10          1           0       -2.593396    1.858013   -0.759811
     11          6           0       -2.841674   -0.726459    0.226040
     12          1           0       -3.305746   -0.528805    1.197500
     13          1           0       -2.523067   -1.764294    0.183297
     14          1           0       -3.581630   -0.540178   -0.559062
 ---------------------------------------------------------------------

 SCF Done:  E(RHF) =  -820.244578907     A.U. after    2 cycles

 The electronic state is 1-A.
 Alpha  occ. eigenvalues --  -75.80466 -29.27866 -21.12371 -21.04981 -15.77095
 Alpha  occ. eigenvalues --  -13.28971 -13.21366 -13.14867 -11.54110 -11.41822
 Alpha  occ. eigenvalues --  -11.40894  -8.14120  -1.86644  -1.69503  -1.44946
 Alpha  occ. eigenvalues --   -1.16862  -1.06476  -1.00540  -0.78199  -0.71115
 Alpha  occ. eigenvalues --   -0.68446  -0.66637  -0.63712  -0.57304  -0.56995
 Alpha  occ. eigenvalues --   -0.56727  -0.54274  -0.51570  -0.48019  -0.42444
 Alpha  occ. eigenvalues --   -0.39756  -0.32593  -0.31858  -0.31411  -0.30229
 Alpha  occ. eigenvalues --   -0.17673
 Alpha virt. eigenvalues --    0.02915   0.04977   0.05299   0.06072   0.06708
 Alpha virt. eigenvalues --    0.07078   0.07750   0.08915   0.10641   0.12090
 Alpha virt. eigenvalues --    0.13293   0.13488   0.13664   0.13836   0.16469

 Mulliken charges:
               1
     1  F   -0.269455
     2  S    0.828114
     3  O   -2.358682
     4  C    5.739385
     5  O   -2.587261
     6  N   -2.975601
     7  C   -3.471976
     8  H    1.579631
     9  H    1.418324
    10  H    1.418962
    11  C   -3.473061
    12  H    1.381261
    13  H    1.376467
    14  H    1.393893
 Sum of Mulliken charges =  -0.00000

 Dipole moment (field-independent basis, Debye):
    X=             -0.8055    Y=              1.0891    Z=              2.1839  Tot=              2.5699

 Test job not archived.
 1\1\GINC-SE073\SP\RHF\Aug-CC-pVDZ\C3H6F1N1O2S1\OHZDE\09-Apr-2025\0\\#t
  hf aug-cc-pvdz iop(5/13=1,5/36=2,99/5=2) pseudo=read geom=check guess
 =(read,tcheck) scf=(maxcycle=1)\\title\\0,1\F,0,2.548501,0.038984,1.09
 8884\S,0,2.084858,0.102981,-0.496069\O,0,0.516947,0.567883,-0.346933\C
 ,0,-0.476023,-0.444397,-0.150137\O,0,-0.217736,-1.615298,-0.16894\N,0,
 -1.681067,0.13737,0.039189\C,0,-1.931713,1.575224,0.065911\H,0,-1.0001
 81,2.122975,-0.020643\H,0,-2.419977,1.845268,1.007638\H,0,-2.593396,1.
 858013,-0.759811\C,0,-2.841674,-0.726459,0.22604\H,0,-3.305746,-0.5288

 Normal termination of Gaussian 16 at Wed Apr  9 00:24:18 2025.
