 Gaussian 16, Revision C.01,

 ----------------------------------------------------------------------
 #t hf aug-cc-pvdz symm=none int=(grid=ultrafine) guess=(read,tcheck) s
 table=(opt,rrhf)
 ----------------------------------------------------------------------
 -----
 title
 -----
 Symbolic Z-matrix:
 Charge =  0 Multiplicity = 1

 SCF Done:  E(RHF) =  -962.750016856     A.U. after   15 cycles
 Normal termination of Gaussian 16 at Tue Apr  8 23:37:00 2025.
 Gaussian 16:  ES64L-G16RevC.01  3-Jul-2019

 ----------------------------------------------------------------------
 #t hf aug-cc-pvdz iop(5/13=1,5/36=2,99/5=2) pseudo=read geom=check gue
 ss=(read,tcheck) scf=(maxcycle=1)
 ----------------------------------------------------------------------
 -----
 title
 -----
 Structure from the checkpoint file:  "BDE49_nonexpt_1461_mol1.chk"
 Charge =  0 Multiplicity = 1

                         Standard orientation:
 ---------------------------------------------------------------------
 Center     Atomic      Atomic             Coordinates (Angstroms)
 Number     Number       Type             X           Y           Z
 ---------------------------------------------------------------------
      1          6           0       -0.365392    1.113706    0.101902
      2          6           0        1.020590    0.989934    0.146723
      3          6           0       -1.163242   -0.021750   -0.020879
      4          6           0       -0.569937   -1.283828   -0.097921
      5          6           0        0.812575   -1.401632   -0.054023
      6          6           0        1.626529   -0.266665    0.063723
      7          1           0        1.642378    1.872646    0.235441
      8          1           0       -0.825862    2.092409    0.153860
      9          1           0       -1.189568   -2.165712   -0.204090
     10          1           0        1.260323   -2.388288   -0.123450
     11         15           0        3.450754   -0.472845    0.241478
     12          7           0        4.030132    1.039677   -0.289619
     13          1           0        4.895395    1.342127    0.130714
     14          1           0        3.959954    1.306624   -1.262261
     15          6           0       -2.660384    0.098735   -0.019105
     16          9           0       -3.077430    1.307116   -0.456832
     17          9           0       -3.178399   -0.063378    1.222652
     18          9           0       -3.245906   -0.834821   -0.803177
     19          1           0        3.596328   -1.296125   -0.911364
 ---------------------------------------------------------------------

 SCF Done:  E(RHF) =  -965.477538426     A.U. after    2 cycles

 The electronic state is 1-A.
 Alpha  occ. eigenvalues -- -105.20440 -29.30283 -29.30167 -29.29761 -15.75701
 Alpha  occ. eigenvalues --  -11.61315 -11.53042 -11.45500 -11.44921 -11.44386
 Alpha  occ. eigenvalues --  -11.42568 -11.38093  -2.78399  -1.57840  -1.52265
 Alpha  occ. eigenvalues --   -1.45783  -1.44754  -1.30982  -1.18908  -1.11518
 Alpha  occ. eigenvalues --   -1.09173  -0.91910  -0.88720  -0.86987  -0.83975
 Alpha  occ. eigenvalues --   -0.76738  -0.74118  -0.66581  -0.64875  -0.60103
 Alpha  occ. eigenvalues --   -0.58584  -0.57037  -0.52647  -0.47039  -0.46794
 Alpha  occ. eigenvalues --   -0.42921  -0.42865  -0.42305  -0.39191  -0.35896
 Alpha  occ. eigenvalues --   -0.34239  -0.32647  -0.29945  -0.29337  -0.25238
 Alpha  occ. eigenvalues --   -0.24727  -0.23780  -0.20608  -0.02457
 Alpha virt. eigenvalues --    0.03725   0.04585   0.05884   0.06209   0.06849
 Alpha virt. eigenvalues --    0.07297   0.07807   0.08678   0.09574   0.10294
 Alpha virt. eigenvalues --    0.10734   0.11089   0.12185   0.12578   0.12836

 Mulliken charges:
               1
     1  C   -1.429666
     2  C   -2.460154
     3  C    1.488795
     4  C   -2.708480
     5  C   -3.893770
     6  C    0.544044
     7  H    1.850824
     8  H    1.868129
     9  H    1.789323
    10  H    2.017249
    11  P    3.053013
    12  N   -2.686796
    13  H    0.669212
    14  H    0.533561
    15  C   -0.555401
    16  F    0.316225
    17  F    0.145764
    18  F    0.215380
    19  H   -0.757252
 Sum of Mulliken charges =   0.00000

 Dipole moment (field-independent basis, Debye):
    X=             -0.3692    Y=              0.7401    Z=             -0.2514  Tot=              0.8644

 Test job not archived.
 1\1\GINC-SE016\SP\RHF\Aug-CC-pVDZ\C7H7F3N1P1\OHZDE\08-Apr-2025\0\\#t h
 f aug-cc-pvdz iop(5/13=1,5/36=2,99/5=2) pseudo=read geom=check guess=(
 read,tcheck) scf=(maxcycle=1)\\title\\0,1\C,0,-0.365392,1.113706,0.101
 902\C,0,1.02059,0.989934,0.146723\C,0,-1.163242,-0.02175,-0.020879\C,0
 ,-0.569937,-1.283828,-0.097921\C,0,0.812575,-1.401632,-0.054023\C,0,1.
 626529,-0.266665,0.063723\H,0,1.642378,1.872646,0.235441\H,0,-0.825862
 ,2.092409,0.15386\H,0,-1.189568,-2.165712,-0.20409\H,0,1.260323,-2.388
 288,-0.12345\P,0,3.450754,-0.472845,0.241478\N,0,4.030132,1.039677,-0.

 Normal termination of Gaussian 16 at Tue Apr  8 23:37:12 2025.
