 Gaussian 16, Revision C.01,

 ----------------------------------------------------------------------
 #t hf aug-cc-pvdz symm=none int=(grid=ultrafine) guess=(read,tcheck) s
 table=opt
 ----------------------------------------------------------------------
 -----
 title
 -----
 Symbolic Z-matrix:
 Charge =  0 Multiplicity = 2

 SCF Done:  E(UHF) =  -590.930996729     A.U. after   28 cycles
 Normal termination of Gaussian 16 at Tue Apr  8 23:24:36 2025.
 Gaussian 16:  ES64L-G16RevC.01  3-Jul-2019

 ----------------------------------------------------------------------
 #t hf aug-cc-pvdz iop(5/13=1,5/36=2,99/5=2) pseudo=read geom=check gue
 ss=(read,tcheck) scf=(maxcycle=1)
 ----------------------------------------------------------------------
 -----
 title
 -----
 Structure from the checkpoint file:  "BDE49_nonexpt_1225_mol3.chk"
 Charge =  0 Multiplicity = 2

                         Standard orientation:
 ---------------------------------------------------------------------
 Center     Atomic      Atomic             Coordinates (Angstroms)
 Number     Number       Type             X           Y           Z
 ---------------------------------------------------------------------
      1         16           0        2.071074   -0.007052   -0.182252
      2          6           0        0.374427   -0.001436    0.474224
      3          6           0       -0.454982    1.214330    0.128457
      4          6           0       -1.703111    0.882539   -0.192308
      5          6           0       -1.946099   -0.606543   -0.103838
      6          6           0       -0.518909   -1.194986    0.033188
      7          1           0       -2.479030   -1.001608   -0.973949
      8          1           0       -2.565446   -0.838439    0.771998
      9          1           0       -0.459115   -2.030050    0.732353
     10          1           0       -0.173158   -1.557027   -0.936851
     11          1           0        0.563269   -0.028479    1.560601
     12          1           0       -0.047816    2.216264    0.174342
     13          1           0       -2.483843    1.588753   -0.450801
 ---------------------------------------------------------------------

 SCF Done:  E(UHF) =  -592.085828468     A.U. after    2 cycles

 The electronic state is 2-A.
 Alpha  occ. eigenvalues --  -75.70030 -13.12922 -13.05284 -13.04508 -11.46104
 Alpha  occ. eigenvalues --  -11.44806 -11.40701 -11.38548 -11.35852  -8.03614
 Alpha  occ. eigenvalues --   -1.35071  -1.13762  -1.04204  -0.97532  -0.82344
 Alpha  occ. eigenvalues --   -0.76458  -0.69608  -0.63800  -0.55954  -0.50580
 Alpha  occ. eigenvalues --   -0.49579  -0.48262  -0.46434  -0.41983  -0.32430
 Alpha  occ. eigenvalues --   -0.28836  -0.23788
 Alpha virt. eigenvalues --    0.03327   0.05467   0.05632   0.05962   0.06008
 Alpha virt. eigenvalues --    0.06273   0.06435   0.07429   0.11305   0.12237
 Alpha virt. eigenvalues --    0.12749   0.13704   0.14467   0.14633   0.15296

  Beta  occ. eigenvalues --  -75.69043 -13.12286 -13.03944 -12.99367 -11.46149
  Beta  occ. eigenvalues --  -11.44818 -11.40737 -11.38508 -11.35851  -8.02510
  Beta  occ. eigenvalues --   -1.34552  -1.09888  -1.04053  -0.93367  -0.81446
  Beta  occ. eigenvalues --   -0.75989  -0.69136  -0.63519  -0.55128  -0.50507
  Beta  occ. eigenvalues --   -0.49322  -0.48159  -0.46422  -0.41300  -0.32211
  Beta  occ. eigenvalues --   -0.22272
  Beta virt. eigenvalues --    0.03110   0.04111   0.05518   0.05894   0.05985
  Beta virt. eigenvalues --    0.06213   0.06297   0.06657   0.08426   0.11629
  Beta virt. eigenvalues --    0.12394   0.12921   0.13866   0.14623   0.14803

 Mulliken charges and spin densities:
               1          2
     1  S    0.389827   1.107439
     2  C   -3.093947  -0.155596
     3  C   -0.290542   0.152181
     4  C   -0.115138  -0.130966
     5  C   -3.580798  -0.012306
     6  C   -2.927135   0.067668
     7  H    1.249790  -0.005848
     8  H    1.289929  -0.001575
     9  H    1.259149   0.001616
    10  H    1.466760   0.002928
    11  H    1.533310  -0.025341
    12  H    1.441459  -0.001665
    13  H    1.377336   0.001464
 Sum of Mulliken charges =  -0.00000   1.00000

 Dipole moment (field-independent basis, Debye):
    X=             -0.4913    Y=             -0.1486    Z=              0.2135  Tot=              0.5559
                          Isotropic Fermi Contact Couplings
        Atom                 a.u.       MegaHertz       Gauss      10(-4) cm-1
     1  S(33)              0.25996      89.28950      31.86071      29.78377
     2  C(13)             -0.01844     -20.72843      -7.39642      -6.91426
     3  C(13)              0.01679      18.87187       6.73395       6.29498
     4  C(13)             -0.01010     -11.35360      -4.05125      -3.78715
     5  C(13)              0.00255       2.86252       1.02142       0.95483
     6  C(13)              0.00754       8.47132       3.02278       2.82573
     7  H(1)              -0.00073      -3.24805      -1.15899      -1.08343
     8  H(1)              -0.00102      -4.54569      -1.62202      -1.51628

 Normal termination of Gaussian 16 at Tue Apr  8 23:24:40 2025.
