 Gaussian 16, Revision C.01,

 ----------------------------------------------------------------------
 #t hf aug-cc-pvdz symm=none int=(grid=ultrafine) guess=(read,tcheck) s
 table=(opt,rrhf)
 ----------------------------------------------------------------------
 -----
 title
 -----
 Symbolic Z-matrix:
 Charge =  0 Multiplicity = 1

 SCF Done:  E(RHF) =  -1086.01207453     A.U. after   15 cycles
 Normal termination of Gaussian 16 at Tue Apr  8 23:35:00 2025.
 Gaussian 16:  ES64L-G16RevC.01  3-Jul-2019

 ----------------------------------------------------------------------
 #t hf aug-cc-pvdz iop(5/13=1,5/36=2,99/5=2) pseudo=read geom=check gue
 ss=(read,tcheck) scf=(maxcycle=1)
 ----------------------------------------------------------------------
 -----
 title
 -----
 Structure from the checkpoint file:  "BDE49_nonexpt_1459_mol1.chk"
 Charge =  0 Multiplicity = 1

                         Standard orientation:
 ---------------------------------------------------------------------
 Center     Atomic      Atomic             Coordinates (Angstroms)
 Number     Number       Type             X           Y           Z
 ---------------------------------------------------------------------
      1          6           0       -0.985861   -1.156722   -0.130286
      2          6           0        0.399006   -1.007174   -0.168787
      3          6           0       -1.787061   -0.028650   -0.001588
      4          6           0       -1.227136    1.242624    0.090573
      5          6           0        0.156447    1.375881    0.053314
      6          6           0        0.988793    0.256179   -0.070982
      7          1           0        1.031557   -1.881665   -0.265586
      8          1           0       -1.438300   -2.137840   -0.199575
      9          1           0       -1.865781    2.110528    0.193769
     10          1           0        0.586652    2.369859    0.131546
     11         15           0        2.810203    0.485359   -0.245649
     12          7           0        3.402848   -1.011242    0.320317
     13          1           0        4.284525   -1.301186   -0.074228
     14          1           0        3.318096   -1.260593    1.296654
     15         17           0       -3.535032   -0.207564    0.049151
     16          1           0        2.940690    1.334977    0.890916
 ---------------------------------------------------------------------

 SCF Done:  E(RHF) =  -1087.81401248     A.U. after    2 cycles

 The electronic state is 1-A.
 Alpha  occ. eigenvalues -- -105.19872 -99.89273 -15.75225 -11.51863 -11.45574
 Alpha  occ. eigenvalues --  -11.44677 -11.43143 -11.42018 -11.37690 -10.46612
 Alpha  occ. eigenvalues --   -9.66635  -9.65752  -9.65580  -2.77831  -1.57137
 Alpha  occ. eigenvalues --   -1.51535  -1.45153  -1.39376  -1.27211  -1.18331
 Alpha  occ. eigenvalues --   -1.10788  -1.06631  -0.88659  -0.85182  -0.74814
 Alpha  occ. eigenvalues --   -0.69305  -0.65998  -0.64010  -0.61364  -0.59349
 Alpha  occ. eigenvalues --   -0.57138  -0.52872  -0.50448  -0.49501  -0.45490
 Alpha  occ. eigenvalues --   -0.41880  -0.34679  -0.34384  -0.29068  -0.24770
 Alpha  occ. eigenvalues --   -0.02131
 Alpha virt. eigenvalues --    0.03592   0.04626   0.05645   0.06420   0.06483
 Alpha virt. eigenvalues --    0.06801   0.08013   0.08734   0.08885   0.09563
 Alpha virt. eigenvalues --    0.10532   0.11330   0.11752   0.12528   0.13246

 Mulliken charges:
               1
     1  C   -1.167886
     2  C   -1.646765
     3  C   -1.687529
     4  C   -1.485953
     5  C   -2.146645
     6  C    0.501095
     7  H    1.868774
     8  H    1.757469
     9  H    1.705610
    10  H    2.042629
    11  P    3.254007
    12  N   -2.621838
    13  H    0.643105
    14  H    0.520016
    15  Cl  -0.780630
    16  H   -0.755459
 Sum of Mulliken charges =  -0.00000

 Dipole moment (field-independent basis, Debye):
    X=              3.2635    Y=             -0.3346    Z=              0.2216  Tot=              3.2881

 Test job not archived.
 1\1\GINC-SE455\SP\RHF\Aug-CC-pVDZ\C6H7Cl1N1P1\OHZDE\08-Apr-2025\0\\#t
 hf aug-cc-pvdz iop(5/13=1,5/36=2,99/5=2) pseudo=read geom=check guess=
 (read,tcheck) scf=(maxcycle=1)\\title\\0,1\C,0,-0.985861,-1.156722,-0.
 130286\C,0,0.399006,-1.007174,-0.168787\C,0,-1.787061,-0.02865,-0.0015
 88\C,0,-1.227136,1.242624,0.090573\C,0,0.156447,1.375881,0.053314\C,0,
 0.988793,0.256179,-0.070982\H,0,1.031557,-1.881665,-0.265586\H,0,-1.43
 83,-2.13784,-0.199575\H,0,-1.865781,2.110528,0.193769\H,0,0.586652,2.3
 69859,0.131546\P,0,2.810203,0.485359,-0.245649\N,0,3.402848,-1.011242,

 Normal termination of Gaussian 16 at Tue Apr  8 23:35:07 2025.
