 Gaussian 16, Revision C.01,

 ----------------------------------------------------------------------
 #t hf aug-cc-pvdz symm=none int=(grid=ultrafine) guess=(read,tcheck) s
 table=(opt,rrhf)
 ----------------------------------------------------------------------
 -----
 title
 -----
 Symbolic Z-matrix:
 Charge =  0 Multiplicity = 1

 SCF Done:  E(RHF) =  -469.869487244     A.U. after   14 cycles
 Normal termination of Gaussian 16 at Wed Apr  9 00:34:32 2025.
 Gaussian 16:  ES64L-G16RevC.01  3-Jul-2019

 ----------------------------------------------------------------------
 #t hf aug-cc-pvdz iop(5/13=1,5/36=2,99/5=2) pseudo=read geom=check gue
 ss=(read,tcheck) scf=(maxcycle=1)
 ----------------------------------------------------------------------
 -----
 title
 -----
 Structure from the checkpoint file:  "BDE49_nonexpt_427_mol1.chk"
 Charge =  0 Multiplicity = 1

                         Standard orientation:
 ---------------------------------------------------------------------
 Center     Atomic      Atomic             Coordinates (Angstroms)
 Number     Number       Type             X           Y           Z
 ---------------------------------------------------------------------
      1          9           0        2.426077    1.130423   -0.000041
      2          5           0        1.730856    0.000000    0.000062
      3          9           0        2.426077   -1.130423   -0.000043
      4          6           0        0.181222    0.000000    0.000034
      5          6           0       -0.548109   -1.195963    0.000021
      6          6           0       -0.548109    1.195963    0.000024
      7          6           0       -1.939183    1.142628    0.000001
      8          6           0       -1.939183   -1.142628   -0.000001
      9          7           0       -2.633108    0.000000   -0.000011
     10          1           0       -0.040082   -2.153350    0.000029
     11          1           0       -2.525786   -2.056944   -0.000011
     12          1           0       -0.040082    2.153350    0.000033
     13          1           0       -2.525786    2.056944   -0.000007
 ---------------------------------------------------------------------

 SCF Done:  E(RHF) =  -471.792983254     A.U. after    2 cycles

 The electronic state is 1-A.
 Alpha  occ. eigenvalues --  -29.26640 -29.26534 -15.75764 -11.49712 -11.46133
 Alpha  occ. eigenvalues --  -11.44236 -11.42999 -11.38629  -7.73469  -1.46305
 Alpha  occ. eigenvalues --   -1.25359  -1.12639  -1.10926  -0.91010  -0.89009
 Alpha  occ. eigenvalues --   -0.75529  -0.73996  -0.67016  -0.61429  -0.60264
 Alpha  occ. eigenvalues --   -0.58326  -0.56471  -0.50783  -0.49356  -0.46198
 Alpha  occ. eigenvalues --   -0.45820  -0.37759  -0.37453  -0.35339  -0.34763
 Alpha  occ. eigenvalues --   -0.33724  -0.27356
 Alpha virt. eigenvalues --    0.02922   0.04379   0.04637   0.04913   0.05593
 Alpha virt. eigenvalues --    0.06895   0.08003   0.08478   0.09137   0.09786
 Alpha virt. eigenvalues --    0.10188   0.11540   0.11888   0.13023   0.13907

 Mulliken charges:
               1
     1  F   -0.647905
     2  B    0.325985
     3  F   -0.647905
     4  C   -1.755379
     5  C    0.682779
     6  C    0.682779
     7  C   -0.996663
     8  C   -0.996663
     9  N   -3.365350
    10  H    1.835859
    11  H    1.523301
    12  H    1.835859
    13  H    1.523301
 Sum of Mulliken charges =   0.00000

 Dipole moment (field-independent basis, Debye):
    X=              3.5008    Y=              0.0000    Z=             -0.0002  Tot=              3.5008

 Test job not archived.
 1\1\GINC-SE044\SP\RHF\Aug-CC-pVDZ\C5H4B1F2N1\OHZDE\09-Apr-2025\0\\#t h
 f aug-cc-pvdz iop(5/13=1,5/36=2,99/5=2) pseudo=read geom=check guess=(
 read,tcheck) scf=(maxcycle=1)\\title\\0,1\F,0,-2.426077,-1.130423,-0.0
 00041\B,0,-1.730856,0.,0.000062\F,0,-2.426077,1.130423,-0.000043\C,0,-
 0.181222,0.,0.000034\C,0,0.548109,1.195963,0.000021\C,0,0.548109,-1.19
 5963,0.000024\C,0,1.939183,-1.142628,0.000001\C,0,1.939183,1.142628,-0
 .000001\N,0,2.633108,0.,-0.000011\H,0,0.040082,2.15335,0.000029\H,0,2.
 525786,2.056944,-0.000011\H,0,0.040082,-2.15335,0.000033\H,0,2.525786,

 Normal termination of Gaussian 16 at Wed Apr  9 00:34:37 2025.
