 Gaussian 16, Revision C.01,

 ----------------------------------------------------------------------
 #t hf aug-cc-pvdz symm=none int=(grid=ultrafine) guess=(read,tcheck) s
 table=(opt,rrhf)
 ----------------------------------------------------------------------
 -----
 title
 -----
 Symbolic Z-matrix:
 Charge =  0 Multiplicity = 1

 SCF Done:  E(RHF) =  -590.854455655     A.U. after   14 cycles
 Normal termination of Gaussian 16 at Tue Apr  8 22:48:28 2025.
 Gaussian 16:  ES64L-G16RevC.01  3-Jul-2019

 ----------------------------------------------------------------------
 #t hf aug-cc-pvdz iop(5/13=1,5/36=2,99/5=2) pseudo=read geom=check gue
 ss=(read,tcheck) scf=(maxcycle=1)
 ----------------------------------------------------------------------
 -----
 title
 -----
 Structure from the checkpoint file:  "BDE49_expt_1622_mol1.chk"
 Charge =  0 Multiplicity = 1

                         Standard orientation:
 ---------------------------------------------------------------------
 Center     Atomic      Atomic             Coordinates (Angstroms)
 Number     Number       Type             X           Y           Z
 ---------------------------------------------------------------------
      1          6           0        0.027925    0.817327    0.000019
      2         17           0       -1.400078   -0.292188    0.000000
      3          6           0        1.282523    0.084054    0.000004
      4          1           0       -0.045328    1.440588   -0.889905
      5          1           0       -0.045336    1.440561    0.889958
      6          7           0        2.289901   -0.474606   -0.000028
 ---------------------------------------------------------------------

 SCF Done:  E(RHF) =  -591.691774288     A.U. after    2 cycles

 The electronic state is 1-A.
 Alpha  occ. eigenvalues --  -99.91748 -15.78422 -11.51361 -11.45079 -10.48964
 Alpha  occ. eigenvalues --   -9.68783  -9.68075  -9.68020  -1.38814  -1.30542
 Alpha  occ. eigenvalues --   -1.09528  -0.75313  -0.70039  -0.65507  -0.55629
 Alpha  occ. eigenvalues --   -0.52273  -0.51198  -0.45974  -0.45458
 Alpha virt. eigenvalues --    0.01452   0.05056   0.05516   0.08459   0.09372
 Alpha virt. eigenvalues --    0.12063   0.12533   0.12654   0.14102   0.14229
 Alpha virt. eigenvalues --    0.14446   0.16942   0.17235   0.19426   0.20202

 Mulliken charges:
               1
     1  C   -3.712080
     2  Cl   0.204990
     3  C    2.639265
     4  H    1.595597
     5  H    1.595610
     6  N   -2.323383
 Sum of Mulliken charges =  -0.00000

 Dipole moment (field-independent basis, Debye):
    X=             -1.2767    Y=              2.5317    Z=              0.0001  Tot=              2.8354

 Test job not archived.
 1\1\GINC-SE218\SP\RHF\Aug-CC-pVDZ\C2H2Cl1N1\OHZDE\08-Apr-2025\0\\#t hf
  aug-cc-pvdz iop(5/13=1,5/36=2,99/5=2) pseudo=read geom=check guess=(r
 ead,tcheck) scf=(maxcycle=1)\\title\\0,1\C,0,0.027925,0.817327,0.00001
 9\Cl,0,-1.400078,-0.292188,0.\C,0,1.282523,0.084054,0.000004\H,0,-0.04
 5328,1.440588,-0.889905\H,0,-0.045336,1.440561,0.889958\N,0,2.289901,-
 0.474606,-0.000028\\Version=ES64L-G16RevC.01\State=1-A\HF=-591.6917743
 \RMSD=1.764e-01\Dipole=-0.5023042,0.9960586,0.0000272\Quadrupole=-4.21
 39639,2.7320069,1.481957,1.9237951,0.0000754,0.0000192\PG=C01 [X(C2H2C

 Normal termination of Gaussian 16 at Tue Apr  8 22:48:30 2025.
