 Gaussian 16, Revision C.01,

 ----------------------------------------------------------------------
 #t hf aug-cc-pvdz symm=none int=(grid=ultrafine) guess=(read,tcheck) s
 table=(opt,rrhf)
 ----------------------------------------------------------------------
 -----
 title
 -----
 Symbolic Z-matrix:
 Charge =  0 Multiplicity = 1

 SCF Done:  E(RHF) =  -566.388272418     A.U. after   14 cycles
 Normal termination of Gaussian 16 at Tue Apr  8 22:34:38 2025.
 Gaussian 16:  ES64L-G16RevC.01  3-Jul-2019

 ----------------------------------------------------------------------
 #t hf aug-cc-pvdz iop(5/13=1,5/36=2,99/5=2) pseudo=read geom=check gue
 ss=(read,tcheck) scf=(maxcycle=1)
 ----------------------------------------------------------------------
 -----
 title
 -----
 Structure from the checkpoint file:  "BDE49_expt_1041_mol1.chk"
 Charge =  0 Multiplicity = 1

                         Standard orientation:
 ---------------------------------------------------------------------
 Center     Atomic      Atomic             Coordinates (Angstroms)
 Number     Number       Type             X           Y           Z
 ---------------------------------------------------------------------
      1          6           0       -0.051875    0.000001   -0.032579
      2          6           0       -0.745552   -1.210076   -0.020901
      3          6           0       -2.136975   -1.206993    0.001778
      4          6           0       -2.833220   -0.000001    0.014269
      5          6           0       -2.136976    1.206992    0.001778
      6          6           0       -0.745553    1.210077   -0.020901
      7          1           0       -0.198821    2.144390   -0.038495
      8          1           0       -3.917097   -0.000001    0.030512
      9          1           0       -2.676580    2.146768    0.006802
     10          1           0       -0.198819   -2.144389   -0.038495
     11          1           0       -2.676578   -2.146769    0.006801
     12          6           0        1.451483    0.000000   -0.002770
     13          9           0        1.972737   -1.087979   -0.611185
     14          9           0        1.927848   -0.000017    1.265543
     15          9           0        1.972738    1.087995   -0.611156
 ---------------------------------------------------------------------

 SCF Done:  E(RHF) =  -568.665467984     A.U. after    2 cycles

 The electronic state is 1-A.
 Alpha  occ. eigenvalues --  -29.30454 -29.30392 -29.29970 -11.61374 -11.53660
 Alpha  occ. eigenvalues --  -11.45333 -11.45305 -11.43171 -11.42519 -11.38398
 Alpha  occ. eigenvalues --   -1.45304  -1.32046  -1.11636  -1.10848  -0.91905
 Alpha  occ. eigenvalues --   -0.90208  -0.87223  -0.83932  -0.76776  -0.70393
 Alpha  occ. eigenvalues --   -0.63313  -0.60325  -0.58280  -0.52514  -0.50597
 Alpha  occ. eigenvalues --   -0.47176  -0.46475  -0.43080  -0.42894  -0.38730
 Alpha  occ. eigenvalues --   -0.36070  -0.34284  -0.32367  -0.29794  -0.24958
 Alpha  occ. eigenvalues --   -0.23939  -0.20803
 Alpha virt. eigenvalues --    0.03235   0.04905   0.04984   0.06736   0.06917
 Alpha virt. eigenvalues --    0.09658   0.10422   0.10501   0.10928   0.12092
 Alpha virt. eigenvalues --    0.12995   0.13339   0.13541   0.13799   0.14323

 Mulliken charges:
               1
     1  C    2.582750
     2  C   -3.180635
     3  C   -0.655600
     4  C   -3.072869
     5  C   -0.655608
     6  C   -3.180629
     7  H    1.778007
     8  H    1.540727
     9  H    1.475925
    10  H    1.778002
    11  H    1.475926
    12  C   -0.615614
    13  F    0.280148
    14  F    0.169306
    15  F    0.280163
 Sum of Mulliken charges =   0.00000

 Dipole moment (field-independent basis, Debye):
    X=              0.6177    Y=             -0.0000    Z=              0.0894  Tot=              0.6241

 Test job not archived.
 1\1\GINC-SE163\SP\RHF\Aug-CC-pVDZ\C7H5F3\OHZDE\08-Apr-2025\0\\#t hf au
 g-cc-pvdz iop(5/13=1,5/36=2,99/5=2) pseudo=read geom=check guess=(read
 ,tcheck) scf=(maxcycle=1)\\title\\0,1\C,0,-0.051875,0.000001,-0.032579
 \C,0,-0.745552,-1.210076,-0.020901\C,0,-2.136975,-1.206993,0.001778\C,
 0,-2.83322,-0.000001,0.014269\C,0,-2.136976,1.206992,0.001778\C,0,-0.7
 45553,1.210077,-0.020901\H,0,-0.198821,2.14439,-0.038495\H,0,-3.917097
 ,-0.000001,0.030512\H,0,-2.67658,2.146768,0.006802\H,0,-0.198819,-2.14
 4389,-0.038495\H,0,-2.676578,-2.146769,0.006801\C,0,1.451483,0.,-0.002

 Normal termination of Gaussian 16 at Tue Apr  8 22:34:45 2025.
