 Gaussian 16, Revision C.01,

 ----------------------------------------------------------------------
 #t hf aug-cc-pvdz symm=none int=(grid=ultrafine) guess=(read,tcheck) s
 table=(opt,rrhf)
 ----------------------------------------------------------------------
 -----
 title
 -----
 Symbolic Z-matrix:
 Charge =  0 Multiplicity = 1

 SCF Done:  E(RHF) =  -710.001333950     A.U. after   13 cycles
 Normal termination of Gaussian 16 at Wed Apr  9 00:12:34 2025.
 Gaussian 16:  ES64L-G16RevC.01  3-Jul-2019

 ----------------------------------------------------------------------
 #t hf aug-cc-pvdz iop(5/13=1,5/36=2,99/5=2) pseudo=read geom=check gue
 ss=(read,tcheck) scf=(maxcycle=1)
 ----------------------------------------------------------------------
 -----
 title
 -----
 Structure from the checkpoint file:  "BDE49_nonexpt_2407_mol1.chk"
 Charge =  0 Multiplicity = 1

                         Standard orientation:
 ---------------------------------------------------------------------
 Center     Atomic      Atomic             Coordinates (Angstroms)
 Number     Number       Type             X           Y           Z
 ---------------------------------------------------------------------
      1         14           0       -1.692241   -0.396187   -0.000044
      2         14           0        0.221703    0.984734    0.000069
      3          7           0        1.819369   -0.018064    0.000016
      4          8           0        1.681398   -1.220674   -0.000065
      5          1           0        0.352597    1.843070    1.202413
      6          1           0        0.352621    1.843234   -1.202155
      7          1           0       -2.903114    0.459328    0.000000
      8          1           0       -1.700686   -1.246805    1.211232
      9          1           0       -1.700660   -1.246643   -1.211434
 ---------------------------------------------------------------------

 SCF Done:  E(RHF) =  -710.849803725     A.U. after    2 cycles

 The electronic state is 1-A.
 Alpha  occ. eigenvalues --  -76.25069 -76.23351 -21.13286 -15.83751  -5.58649
 Alpha  occ. eigenvalues --   -5.56763  -2.21853  -2.20493  -2.19936  -2.18835
 Alpha  occ. eigenvalues --   -2.18801  -2.17740  -1.84061  -1.00898  -0.81169
 Alpha  occ. eigenvalues --   -0.71815  -0.59105  -0.53647  -0.53430  -0.48781
 Alpha  occ. eigenvalues --   -0.48490  -0.47382  -0.37561  -0.24598
 Alpha virt. eigenvalues --    0.03910   0.04405   0.06041   0.06118   0.07124
 Alpha virt. eigenvalues --    0.07830   0.08046   0.08953   0.09223   0.09435
 Alpha virt. eigenvalues --    0.09702   0.11107   0.11611   0.12997   0.14009

 Mulliken charges:
               1
     1  Si   4.443522
     2  Si   4.527297
     3  N    0.163827
     4  O   -1.305659
     5  H   -1.698537
     6  H   -1.698537
     7  H   -1.504147
     8  H   -1.463883
     9  H   -1.463883
 Sum of Mulliken charges =  -0.00000

 Dipole moment (field-independent basis, Debye):
    X=             -1.6767    Y=             -0.1883    Z=             -0.0000  Tot=              1.6873

 Test job not archived.
 1\1\GINC-SE331\SP\RHF\Aug-CC-pVDZ\H5N1O1Si2\OHZDE\09-Apr-2025\0\\#t hf
  aug-cc-pvdz iop(5/13=1,5/36=2,99/5=2) pseudo=read geom=check guess=(r
 ead,tcheck) scf=(maxcycle=1)\\title\\0,1\Si,0,-1.692241,-0.396187,-0.0
 00044\Si,0,0.221703,0.984734,0.000069\N,0,1.819369,-0.018064,0.000016\
 O,0,1.681398,-1.220674,-0.000065\H,0,0.352597,1.84307,1.202413\H,0,0.3
 52621,1.843234,-1.202155\H,0,-2.903114,0.459329,0.\H,0,-1.700686,-1.24
 6805,1.211232\H,0,-1.70066,-1.246643,-1.211434\\Version=ES64L-G16RevC.
 01\State=1-A\HF=-710.8498037\RMSD=9.521e-02\Dipole=-0.6596699,-0.07407

 Normal termination of Gaussian 16 at Wed Apr  9 00:12:38 2025.
