 Gaussian 16, Revision C.01,

 ----------------------------------------------------------------------
 #t hf aug-cc-pvdz symm=none int=(grid=ultrafine) guess=(read,tcheck) s
 table=(opt,rrhf)
 ----------------------------------------------------------------------
 -----
 title
 -----
 Symbolic Z-matrix:
 Charge =  0 Multiplicity = 1

 SCF Done:  E(RHF) =  -184.610555161     A.U. after   11 cycles
 Normal termination of Gaussian 16 at Tue Apr  8 22:37:20 2025.
 Gaussian 16:  ES64L-G16RevC.01  3-Jul-2019

 ----------------------------------------------------------------------
 #t hf aug-cc-pvdz iop(5/13=1,5/36=2,99/5=2) pseudo=read geom=check gue
 ss=(read,tcheck) scf=(maxcycle=1)
 ----------------------------------------------------------------------
 -----
 title
 -----
 Structure from the checkpoint file:  "BDE49_expt_1146_mol1.chk"
 Charge =  0 Multiplicity = 1

                         Standard orientation:
 ---------------------------------------------------------------------
 Center     Atomic      Atomic             Coordinates (Angstroms)
 Number     Number       Type             X           Y           Z
 ---------------------------------------------------------------------
      1          6           0       -0.013435   -0.687459    0.000000
      2          6           0        0.000000    0.687591    0.000000
      3          7           0       -0.012251   -1.842539    0.000000
      4          7           0        0.023767    1.842427   -0.000000
 ---------------------------------------------------------------------

 SCF Done:  E(RHF) =  -185.398984923     A.U. after    2 cycles

 The electronic state is 1-A'.
 Alpha  occ. eigenvalues --  -15.84442 -15.84361 -11.53061 -11.50483  -1.40673
 Alpha  occ. eigenvalues --   -1.33952  -0.99558  -0.61754  -0.58767  -0.58767
 Alpha  occ. eigenvalues --   -0.58049  -0.45939  -0.45939
 Alpha virt. eigenvalues --    0.04896   0.08268   0.08268   0.08814   0.11922
 Alpha virt. eigenvalues --    0.12209   0.12209   0.12275   0.12278   0.19338
 Alpha virt. eigenvalues --    0.21702   0.24426   0.24436   0.25492   0.25504

 Mulliken charges:
               1
     1  C    2.832818
     2  C    2.832813
     3  N   -2.832816
     4  N   -2.832815
 Sum of Mulliken charges =  -0.00000

 Dipole moment (field-independent basis, Debye):
    X=             -0.0214    Y=              0.0002    Z=              0.0000  Tot=              0.0214

 Test job not archived.
 1\1\GINC-SE455\SP\RHF\Aug-CC-pVDZ\C2N2\OHZDE\08-Apr-2025\0\\#t hf aug-
 cc-pvdz iop(5/13=1,5/36=2,99/5=2) pseudo=read geom=check guess=(read,t
 check) scf=(maxcycle=1)\\title\\0,1\C,0,0.,0.687591,0.\C,0,-0.013435,-
 0.687459,0.\N,0,0.023753,1.842427,0.\N,0,-0.012237,-1.842539,0.\\Versi
 on=ES64L-G16RevC.01\State=1-A'\HF=-185.3989849\RMSD=4.584e-01\Dipole=-
 0.008411,0.0000822,0.\Quadrupole=1.7304534,-3.4612622,1.7308089,-0.050
 7149,0.,0.\PG=CS [SG(C2N2)]\\@

 Normal termination of Gaussian 16 at Tue Apr  8 22:37:21 2025.
